Generated by trjconv : CNT in water t= 580.00000
33518
    1C        C    1   2.839   2.767   4.745
    1C        C    2   2.892   2.714   4.865
    1C        C    3   2.844   2.771   4.984
    1C        C    4   2.848   2.772   4.261
    1C        C    5   2.899   2.723   4.383
    1C        C    6   2.840   2.766   4.504
    1C        C    7   3.014   2.642   4.625
    1C        C    8   2.896   2.720   4.625
    1C        C    9   3.077   2.607   4.746
    1C        C   10   3.005   2.629   4.865
    1C        C   11   3.180   2.490   4.976
    1C        C   12   3.055   2.554   4.972
    1C        C   13   2.846   2.766   3.773
    1C        C   14   2.900   2.720   3.895
    1C        C   15   2.845   2.770   4.015
    1C        C   16   3.014   2.643   4.138
    1C        C   17   2.898   2.724   4.138
    1C        C   18   3.080   2.612   4.259
    1C        C   19   3.017   2.646   4.381
    1C        C   20   3.208   2.554   4.503
    1C        C   21   3.079   2.611   4.503
    1C        C   22   3.276   2.529   4.625
    1C        C   23   3.207   2.549   4.746
    1C        C   24   3.411   2.484   4.866
    1C        C   25   3.268   2.500   4.864
    1C        C   26   3.487   2.470   4.982
    1C        C   27   2.845   2.763   3.282
    1C        C   28   2.897   2.718   3.406
    1C        C   29   2.844   2.763   3.529
    1C        C   30   3.017   2.640   3.649
    1C        C   31   2.900   2.719   3.651
    1C        C   32   3.079   2.608   3.772
    1C        C   33   3.015   2.639   3.895
    1C        C   34   3.206   2.549   4.016
    1C        C   35   3.075   2.602   4.017
    1C        C   36   3.279   2.534   4.136
    1C        C   37   3.212   2.561   4.257
    1C        C   38   3.414   2.511   4.382
    1C        C   39   3.275   2.534   4.381
    1C        C   40   3.486   2.500   4.503
    1C        C   41   3.415   2.501   4.625
    1C        C   42   3.628   2.493   4.745
    1C        C   43   3.486   2.486   4.745
    1C        C   44   3.702   2.491   4.866
    1C        C   45   3.626   2.472   4.982
    1C        C   46   2.836   2.749   2.793
    1C        C   47   2.890   2.707   2.916
    1C        C   48   2.840   2.758   3.039
    1C        C   49   3.013   2.634   3.162
    1C        C   50   2.897   2.713   3.161
    1C        C   51   3.079   2.605   3.283
    1C        C   52   3.017   2.644   3.404
    1C        C   53   3.209   2.552   3.528
    1C        C   54   3.080   2.610   3.526
    1C        C   55   3.275   2.530   3.650
    1C        C   56   3.210   2.556   3.773
    1C        C   57   3.418   2.517   3.893
    1C        C   58   3.277   2.533   3.895
    1C        C   59   3.488   2.505   4.015
    1C        C   60   3.418   2.506   4.138
    1C        C   61   3.628   2.501   4.258
    1C        C   62   3.487   2.501   4.261
    1C        C   63   3.699   2.505   4.381
    1C        C   64   3.627   2.494   4.502
    1C        C   65   3.836   2.539   4.621
    1C        C   66   3.699   2.504   4.623
    1C        C   67   3.902   2.564   4.743
    1C        C   68   3.839   2.526   4.863
    1C        C   69   4.050   2.583   4.978
    1C        C   70   3.922   2.525   4.975
    1C        C   71   2.820   2.731   2.308
    1C        C   72   2.876   2.688   2.430
    1C        C   73   2.824   2.743   2.549
    1C        C   74   3.006   2.625   2.673
    1C        C   75   2.888   2.703   2.669
    1C        C   76   3.072   2.598   2.794
    1C        C   77   3.009   2.631   2.916
    1C        C   78   3.203   2.546   3.036
    1C        C   79   3.071   2.597   3.038
    1C        C   80   3.273   2.524   3.157
    1C        C   81   3.208   2.548   3.280
    1C        C   82   3.412   2.502   3.399
    1C        C   83   3.274   2.529   3.404
    1C        C   84   3.481   2.500   3.522
    1C        C   85   3.415   2.509   3.647
    1C        C   86   3.626   2.499   3.767
    1C        C   87   3.485   2.505   3.770
    1C        C   88   3.695   2.510   3.890
    1C        C   89   3.629   2.504   4.014
    1C        C   90   3.835   2.549   4.136
    1C        C   91   3.699   2.510   4.137
    1C        C   92   3.902   2.571   4.258
    1C        C   93   3.833   2.547   4.379
    1C        C   94   4.030   2.631   4.498
    1C        C   95   3.902   2.571   4.501
    1C        C   96   4.092   2.666   4.620
    1C        C   97   4.031   2.626   4.740
    1C        C   98   4.190   2.763   4.863
    1C        C   99   4.098   2.653   4.862
    1C        C  100   4.206   2.845   4.975
    1C        C  101   2.820   2.731   2.069
    1C        C  102   2.989   2.594   2.187
    1C        C  103   2.872   2.677   2.187
    1C        C  104   3.058   2.572   2.310
    1C        C  105   2.996   2.612   2.430
    1C        C  106   3.197   2.538   2.547
    1C        C  107   3.065   2.588   2.550
    1C        C  108   3.267   2.523   2.669
    1C        C  109   3.202   2.543   2.793
    1C        C  110   3.411   2.505   2.912
    1C        C  111   3.271   2.521   2.914
    1C        C  112   3.482   2.498   3.034
    1C        C  113   3.412   2.503   3.157
    1C        C  114   3.626   2.499   3.277
    1C        C  115   3.485   2.494   3.278
    1C        C  116   3.693   2.511   3.401
    1C        C  117   3.622   2.503   3.523
    1C        C  118   3.832   2.547   3.645
    1C        C  119   3.695   2.512   3.644
    1C        C  120   3.896   2.575   3.768
    1C        C  121   3.830   2.553   3.891
    1C        C  122   4.026   2.635   4.011
    1C        C  123   3.899   2.574   4.013
    1C        C  124   4.088   2.670   4.133
    1C        C  125   4.029   2.633   4.256
    1C        C  126   4.199   2.762   4.375
    1C        C  127   4.092   2.670   4.377
    1C        C  128   4.246   2.815   4.497
    1C        C  129   4.196   2.762   4.619
    1C        C  130   4.327   2.928   4.738
    1C        C  131   4.244   2.813   4.741
    1C        C  132   4.354   3.001   4.856
    1C        C  133   4.290   2.955   4.972
    1C        C  134   3.170   2.475   2.080
    1C        C  135   3.034   2.507   2.083
    1C        C  136   3.256   2.484   2.191
    1C        C  137   3.190   2.519   2.310
    1C        C  138   3.405   2.480   2.426
    1C        C  139   3.266   2.505   2.428
    1C        C  140   3.478   2.480   2.547
    1C        C  141   3.405   2.491   2.668
    1C        C  142   3.619   2.499   2.790
    1C        C  143   3.478   2.496   2.788
    1C        C  144   3.693   2.509   2.910
    1C        C  145   3.623   2.499   3.033
    1C        C  146   3.833   2.538   3.152
    1C        C  147   3.696   2.502   3.154
    1C        C  148   3.896   2.567   3.275
    1C        C  149   3.830   2.547   3.398
    1C        C  150   4.024   2.627   3.519
    1C        C  151   3.895   2.569   3.521
    1C        C  152   4.083   2.665   3.642
    1C        C  153   4.024   2.634   3.767
    1C        C  154   4.194   2.762   3.886
    1C        C  155   4.084   2.674   3.888
    1C        C  156   4.243   2.812   4.009
    1C        C  157   4.197   2.759   4.132
    1C        C  158   4.338   2.921   4.253
    1C        C  159   4.251   2.809   4.252
    1C        C  160   4.375   2.981   4.375
    1C        C  161   4.332   2.927   4.498
    1C        C  162   4.440   3.112   4.616
    1C        C  163   4.373   2.988   4.619
    1C        C  164   4.469   3.181   4.736
    1C        C  165   4.431   3.120   4.857
    1C        C  166   4.510   3.321   4.972
    1C        C  167   4.478   3.186   4.971
    1C        C  168   3.472   2.434   2.071
    1C        C  169   3.395   2.457   2.186
    1C        C  170   3.615   2.460   2.304
    1C        C  171   3.473   2.461   2.303
    1C        C  172   3.690   2.481   2.422
    1C        C  173   3.619   2.485   2.544
    1C        C  174   3.825   2.536   2.665
    1C        C  175   3.687   2.505   2.666
    1C        C  176   3.895   2.562   2.785
    1C        C  177   3.830   2.539   2.909
    1C        C  178   4.027   2.621   3.030
    1C        C  179   3.901   2.557   3.030
    1C        C  180   4.085   2.660   3.152
    1C        C  181   4.026   2.623   3.275
    1C        C  182   4.195   2.750   3.398
    1C        C  183   4.087   2.659   3.397
    1C        C  184   4.244   2.802   3.520
    1C        C  185   4.193   2.754   3.642
    1C        C  186   4.338   2.912   3.763
    1C        C  187   4.247   2.804   3.762
    1C        C  188   4.374   2.976   3.884
    1C        C  189   4.333   2.922   4.008
    1C        C  190   4.441   3.104   4.127
    1C        C  191   4.376   2.979   4.130
    1C        C  192   4.464   3.171   4.249
    1C        C  193   4.436   3.109   4.372
    1C        C  194   4.498   3.315   4.491
    1C        C  195   4.459   3.179   4.493
    1C        C  196   4.519   3.386   4.611
    1C        C  197   4.509   3.318   4.734
    1C        C  198   4.550   3.535   4.852
    1C        C  199   4.528   3.393   4.853
    1C        C  200   4.575   3.618   4.966
    1C        C  201   3.610   2.411   2.071
    1C        C  202   3.821   2.509   2.181
    1C        C  203   3.688   2.456   2.182
    1C        C  204   3.893   2.544   2.299
    1C        C  205   3.825   2.524   2.421
    1C        C  206   4.017   2.618   2.538
    1C        C  207   3.890   2.556   2.542
    1C        C  208   4.081   2.655   2.659
    1C        C  209   4.023   2.623   2.784
    1C        C  210   4.197   2.742   2.906
    1C        C  211   4.086   2.655   2.906
    1C        C  212   4.247   2.793   3.028
    1C        C  213   4.197   2.747   3.152
    1C        C  214   4.330   2.910   3.272
    1C        C  215   4.246   2.797   3.274
    1C        C  216   4.365   2.971   3.395
    1C        C  217   4.332   2.913   3.519
    1C        C  218   4.431   3.101   3.638
    1C        C  219   4.375   2.972   3.640
    1C        C  220   4.457   3.170   3.759
    1C        C  221   4.433   3.104   3.882
    1C        C  222   4.501   3.306   4.003
    1C        C  223   4.464   3.170   4.004
    1C        C  224   4.506   3.379   4.123
    1C        C  225   4.496   3.309   4.245
    1C        C  226   4.519   3.521   4.367
    1C        C  227   4.512   3.380   4.366
    1C        C  228   4.513   3.596   4.487
    1C        C  229   4.526   3.527   4.610
    1C        C  230   4.506   3.743   4.729
    1C        C  231   4.534   3.603   4.729
    1C        C  232   4.498   3.821   4.846
    1C        C  233   4.542   3.754   4.960
    1C        C  234   4.012   2.607   2.060
    1C        C  235   3.895   2.532   2.065
    1C        C  236   4.080   2.650   2.175
    1C        C  237   4.017   2.613   2.297
    1C        C  238   4.198   2.733   2.419
    1C        C  239   4.081   2.653   2.417
    1C        C  240   4.253   2.781   2.540
    1C        C  241   4.193   2.740   2.661
    1C        C  242   4.335   2.899   2.783
    1C        C  243   4.247   2.789   2.782
    1C        C  244   4.377   2.958   2.904
    1C        C  245   4.335   2.903   3.027
    1C        C  246   4.435   3.092   3.149
    1C        C  247   4.371   2.965   3.149
    1C        C  248   4.452   3.163   3.270
    1C        C  249   4.425   3.099   3.394
    1C        C  250   4.495   3.301   3.512
    1C        C  251   4.454   3.166   3.515
    1C        C  252   4.506   3.373   3.634
    1C        C  253   4.493   3.306   3.757
    1C        C  254   4.516   3.516   3.876
    1C        C  255   4.511   3.374   3.880
    1C        C  256   4.508   3.587   3.997
    1C        C  257   4.513   3.521   4.122
    1C        C  258   4.491   3.731   4.243
    1C        C  259   4.514   3.591   4.245
    1C        C  260   4.473   3.804   4.362
    1C        C  261   4.485   3.734   4.485
    1C        C  262   4.430   3.940   4.605
    1C        C  263   4.476   3.806   4.606
    1C        C  264   4.394   4.005   4.724
    1C        C  265   4.433   3.946   4.847
    1C        C  266   4.312   4.126   4.957
    1C        C  267   4.391   4.012   4.963
    1C        C  268   4.260   2.774   2.062
    1C        C  269   4.195   2.731   2.178
    1C        C  270   4.341   2.892   2.296
    1C        C  271   4.246   2.786   2.297
    1C        C  272   4.380   2.953   2.417
    1C        C  273   4.340   2.893   2.539
    1C        C  274   4.437   3.083   2.660
    1C        C  275   4.371   2.959   2.660
    1C        C  276   4.466   3.151   2.780
    1C        C  277   4.441   3.084   2.902
    1C        C  278   4.497   3.288   3.022
    1C        C  279   4.463   3.151   3.024
    1C        C  280   4.503   3.361   3.142
    1C        C  281   4.488   3.299   3.268
    1C        C  282   4.511   3.511   3.387
    1C        C  283   4.503   3.370   3.389
    1C        C  284   4.512   3.582   3.509
    1C        C  285   4.516   3.514   3.633
    1C        C  286   4.493   3.727   3.752
    1C        C  287   4.516   3.587   3.754
    1C        C  288   4.475   3.795   3.874
    1C        C  289   4.487   3.726   3.997
    1C        C  290   4.426   3.930   4.115
    1C        C  291   4.471   3.796   4.119
    1C        C  292   4.401   3.997   4.236
    1C        C  293   4.422   3.935   4.361
    1C        C  294   4.325   4.125   4.477
    1C        C  295   4.396   4.002   4.483
    1C        C  296   4.285   4.187   4.597
    1C        C  297   4.324   4.129   4.720
    1C        C  298   4.208   4.317   4.837
    1C        C  299   4.287   4.197   4.839
    1C        C  300   4.172   4.405   4.944
    1C        C  301   4.350   2.880   2.058
    1C        C  302   4.466   3.066   2.175
    1C        C  303   4.398   2.940   2.175
    1C        C  304   4.483   3.141   2.294
    1C        C  305   4.448   3.077   2.415
    1C        C  306   4.509   3.281   2.537
    1C        C  307   4.471   3.145   2.537
    1C        C  308   4.514   3.356   2.657
    1C        C  309   4.495   3.290   2.780
    1C        C  310   4.519   3.502   2.898
    1C        C  311   4.511   3.361   2.901
    1C        C  312   4.516   3.573   3.020
    1C        C  313   4.511   3.502   3.142
    1C        C  314   4.494   3.717   3.259
    1C        C  315   4.511   3.577   3.262
    1C        C  316   4.478   3.788   3.381
    1C        C  317   4.492   3.722   3.505
    1C        C  318   4.434   3.925   3.626
    1C        C  319   4.480   3.792   3.627
    1C        C  320   4.401   3.989   3.748
    1C        C  321   4.429   3.928   3.873
    1C        C  322   4.322   4.115   3.988
    1C        C  323   4.397   3.996   3.993
    1C        C  324   4.280   4.170   4.111
    1C        C  325   4.325   4.116   4.234
    1C        C  326   4.188   4.283   4.354
    1C        C  327   4.281   4.177   4.354
    1C        C  328   4.138   4.338   4.474
    1C        C  329   4.192   4.293   4.597
    1C        C  330   4.025   4.431   4.712
    1C        C  331   4.143   4.352   4.715
    1C        C  332   3.971   4.488   4.829
    1C        C  333   4.052   4.476   4.943
    1C        C  334   4.552   3.268   2.062
    1C        C  335   4.527   3.130   2.062
    1C        C  336   4.538   3.349   2.176
    1C        C  337   4.519   3.278   2.297
    1C        C  338   4.527   3.494   2.410
    1C        C  339   4.525   3.353   2.417
    1C        C  340   4.520   3.567   2.531
    1C        C  341   4.521   3.497   2.654
    1C        C  342   4.499   3.710   2.771
    1C        C  343   4.519   3.571   2.774
    1C        C  344   4.481   3.781   2.892
    1C        C  345   4.498   3.713   3.014
    1C        C  346   4.427   3.915   3.137
    1C        C  347   4.476   3.783   3.135
    1C        C  348   4.398   3.982   3.258
    1C        C  349   4.431   3.921   3.381
    1C        C  350   4.324   4.104   3.500
    1C        C  351   4.400   3.986   3.503
    1C        C  352   4.280   4.162   3.622
    1C        C  353   4.323   4.107   3.745
    1C        C  354   4.175   4.264   3.865
    1C        C  355   4.274   4.164   3.864
    1C        C  356   4.122   4.312   3.988
    1C        C  357   4.178   4.267   4.110
    1C        C  358   4.010   4.397   4.229
    1C        C  359   4.130   4.322   4.231
    1C        C  360   3.953   4.440   4.351
    1C        C  361   4.019   4.413   4.473
    1C        C  362   3.823   4.508   4.592
    1C        C  363   3.953   4.452   4.592
    1C        C  364   3.761   4.548   4.713
    1C        C  365   3.840   4.542   4.829
    1C        C  366   3.629   4.595   4.949
    1C        C  367   3.765   4.569   4.944
    1C        C  368   4.494   3.560   2.053
    1C        C  369   4.520   3.489   2.170
    1C        C  370   4.502   3.706   2.285
    1C        C  371   4.518   3.565   2.289
    1C        C  372   4.485   3.776   2.407
    1C        C  373   4.500   3.707   2.529
    1C        C  374   4.435   3.913   2.651
    1C        C  375   4.483   3.780   2.649
    1C        C  376   4.402   3.979   2.771
    1C        C  377   4.435   3.915   2.892
    1C        C  378   4.326   4.098   3.011
    1C        C  379   4.402   3.979   3.013
    1C        C  380   4.279   4.155   3.132
    1C        C  381   4.320   4.099   3.255
    1C        C  382   4.181   4.259   3.376
    1C        C  383   4.277   4.156   3.377
    1C        C  384   4.124   4.302   3.498
    1C        C  385   4.180   4.261   3.621
    1C        C  386   4.008   4.391   3.742
    1C        C  387   4.124   4.310   3.742
    1C        C  388   3.945   4.426   3.863
    1C        C  389   4.004   4.389   3.986
    1C        C  390   3.815   4.485   4.107
    1C        C  391   3.943   4.426   4.108
    1C        C  392   3.749   4.507   4.230
    1C        C  393   3.825   4.500   4.349
    1C        C  394   3.617   4.552   4.473
    1C        C  395   3.755   4.524   4.470
    1C        C  396   3.545   4.565   4.594
    1C        C  397   3.621   4.568   4.713
    1C        C  398   3.411   4.552   4.836
    1C        C  399   3.549   4.578   4.834
    1C        C  400   3.342   4.516   4.953
    1C        C  401   4.500   3.699   2.048
    1C        C  402   4.450   3.912   2.164
    1C        C  403   4.491   3.777   2.164
    1C        C  404   4.416   3.977   2.285
    1C        C  405   4.441   3.910   2.407
    1C        C  406   4.330   4.094   2.523
    1C        C  407   4.410   3.977   2.527
    1C        C  408   4.277   4.143   2.644
    1C        C  409   4.319   4.093   2.770
    1C        C  410   4.177   4.252   2.887
    1C        C  411   4.280   4.156   2.890
    1C        C  412   4.123   4.296   3.010
    1C        C  413   4.177   4.253   3.133
    1C        C  414   4.001   4.373   3.250
    1C        C  415   4.122   4.301   3.254
    1C        C  416   3.943   4.408   3.374
    1C        C  417   4.004   4.377   3.498
    1C        C  418   3.814   4.474   3.618
    1C        C  419   3.942   4.415   3.619
    1C        C  420   3.747   4.498   3.741
    1C        C  421   3.815   4.480   3.863
    1C        C  422   3.608   4.529   3.985
    1C        C  423   3.747   4.505   3.985
    1C        C  424   3.540   4.537   4.109
    1C        C  425   3.611   4.539   4.231
    1C        C  426   3.402   4.545   4.353
    1C        C  427   3.542   4.556   4.353
    1C        C  428   3.332   4.544   4.476
    1C        C  429   3.404   4.555   4.597
    1C        C  430   3.194   4.515   4.721
    1C        C  431   3.333   4.547   4.719
    1C        C  432   3.123   4.493   4.843
    1C        C  433   3.204   4.497   4.957
    1C        C  434   4.387   4.124   2.052
    1C        C  435   4.443   3.995   2.051
    1C        C  436   4.305   4.160   2.163
    1C        C  437   4.337   4.095   2.285
    1C        C  438   4.181   4.247   2.401
    1C        C  439   4.286   4.153   2.403
    1C        C  440   4.124   4.290   2.523
    1C        C  441   4.180   4.246   2.645
    1C        C  442   4.002   4.368   2.764
    1C        C  443   4.122   4.294   2.764
    1C        C  444   3.939   4.401   2.887
    1C        C  445   4.003   4.372   3.009
    1C        C  446   3.810   4.466   3.129
    1C        C  447   3.941   4.414   3.129
    1C        C  448   3.746   4.490   3.253
    1C        C  449   3.816   4.469   3.374
    1C        C  450   3.608   4.515   3.495
    1C        C  451   3.749   4.496   3.495
    1C        C  452   3.540   4.527   3.617
    1C        C  453   3.609   4.526   3.741
    1C        C  454   3.398   4.540   3.864
    1C        C  455   3.539   4.542   3.862
    1C        C  456   3.329   4.532   3.988
    1C        C  457   3.399   4.539   4.110
    1C        C  458   3.191   4.502   4.235
    1C        C  459   3.329   4.530   4.233
    1C        C  460   3.125   4.486   4.359
    1C        C  461   3.194   4.515   4.479
    1C        C  462   2.997   4.432   4.601
    1C        C  463   3.127   4.488   4.600
    1C        C  464   2.932   4.397   4.721
    1C        C  465   2.990   4.441   4.843
    1C        C  466   2.799   4.341   4.957
    1C        C  467   2.903   4.435   4.956
    1C        C  468   4.121   4.281   2.041
    1C        C  469   4.190   4.245   2.158
    1C        C  470   4.006   4.366   2.276
    1C        C  471   4.128   4.291   2.277
    1C        C  472   3.939   4.391   2.398
    1C        C  473   4.001   4.359   2.521
    1C        C  474   3.811   4.459   2.642
    1C        C  475   3.939   4.399   2.641
    1C        C  476   3.745   4.487   2.764
    1C        C  477   3.810   4.458   2.886
    1C        C  478   3.603   4.511   3.007
    1C        C  479   3.741   4.483   3.006
    1C        C  480   3.535   4.521   3.131
    1C        C  481   3.607   4.516   3.252
    1C        C  482   3.395   4.522   3.376
    1C        C  483   3.536   4.523   3.374
    1C        C  484   3.327   4.522   3.500
    1C        C  485   3.399   4.532   3.621
    1C        C  486   3.189   4.497   3.743
    1C        C  487   3.327   4.531   3.743
    1C        C  488   3.128   4.471   3.868
    1C        C  489   3.193   4.494   3.991
    1C        C  490   2.996   4.417   4.115
    1C        C  491   3.124   4.478   4.113
    1C        C  492   2.938   4.385   4.239
    1C        C  493   2.996   4.428   4.361
    1C        C  494   2.822   4.305   4.481
    1C        C  495   2.931   4.395   4.481
    1C        C  496   2.771   4.256   4.603
    1C        C  497   2.818   4.312   4.725
    1C        C  498   2.669   4.159   4.845
    1C        C  499   2.752   4.273   4.843
    1C        C  500   2.598   4.116   4.957
    1C        C  501   3.999   4.349   2.043
    1C        C  502   3.809   4.458   2.155
    1C        C  503   3.939   4.401   2.158
    1C        C  504   3.741   4.474   2.277
    1C        C  505   3.807   4.442   2.398
    1C        C  506   3.604   4.501   2.520
    1C        C  507   3.742   4.473   2.520
    1C        C  508   3.533   4.513   2.642
    1C        C  509   3.606   4.512   2.763
    1C        C  510   3.392   4.518   2.885
    1C        C  511   3.534   4.517   2.884
    1C        C  512   3.323   4.513   3.008
    1C        C  513   3.394   4.522   3.130
    1C        C  514   3.186   4.489   3.254
    1C        C  515   3.325   4.516   3.253
    1C        C  516   3.119   4.467   3.376
    1C        C  517   3.189   4.492   3.496
    1C        C  518   2.996   4.412   3.625
    1C        C  519   3.124   4.472   3.620
    1C        C  520   2.936   4.377   3.748
    1C        C  521   3.000   4.412   3.869
    1C        C  522   2.834   4.282   3.995
    1C        C  523   2.941   4.374   3.992
    1C        C  524   2.787   4.234   4.119
    1C        C  525   2.832   4.292   4.240
    1C        C  526   2.690   4.135   4.363
    1C        C  527   2.774   4.249   4.361
    1C        C  528   2.651   4.076   4.486
    1C        C  529   2.682   4.146   4.605
    1C        C  530   2.586   3.957   4.731
    1C        C  531   2.641   4.088   4.726
    1C        C  532   2.542   3.898   4.853
    1C        C  533   2.535   3.990   4.962
    1C        C  534   3.618   4.552   2.038
    1C        C  535   3.752   4.513   2.040
    1C        C  536   3.536   4.533   2.154
    1C        C  537   3.602   4.504   2.277
    1C        C  538   3.391   4.514   2.399
    1C        C  539   3.532   4.515   2.399
    1C        C  540   3.320   4.509   2.521
    1C        C  541   3.392   4.514   2.643
    1C        C  542   3.182   4.480   2.764
    1C        C  543   3.320   4.509   2.764
    1C        C  544   3.117   4.462   2.888
    1C        C  545   3.185   4.483   3.010
    1C        C  546   2.991   4.403   3.134
    1C        C  547   3.117   4.467   3.133
    1C        C  548   2.931   4.370   3.258
    1C        C  549   2.992   4.405   3.381
    1C        C  550   2.824   4.282   3.506
    1C        C  551   2.934   4.371   3.505
    1C        C  552   2.772   4.236   3.629
    1C        C  553   2.826   4.289   3.749
    1C        C  554   2.698   4.122   3.876
    1C        C  555   2.782   4.235   3.872
    1C        C  556   2.655   4.065   3.998
    1C        C  557   2.693   4.129   4.118
    1C        C  558   2.594   3.945   4.246
    1C        C  559   2.655   4.072   4.242
    1C        C  560   2.563   3.881   4.368
    1C        C  561   2.589   3.950   4.489
    1C        C  562   2.530   3.747   4.615
    1C        C  563   2.566   3.884   4.612
    1C        C  564   2.516   3.679   4.737
    1C        C  565   2.519   3.757   4.856
    1C        C  566   2.528   3.545   4.981
    1C        C  567   2.525   3.684   4.976
    1C        C  568   3.323   4.478   2.042
    1C        C  569   3.395   4.516   2.155
    1C        C  570   3.183   4.473   2.278
    1C        C  571   3.322   4.504   2.276
    1C        C  572   3.114   4.454   2.400
    1C        C  573   3.182   4.482   2.521
    1C        C  574   2.985   4.403   2.647
    1C        C  575   3.112   4.466   2.643
    1C        C  576   2.925   4.365   2.769
    1C        C  577   2.988   4.404   2.889
    1C        C  578   2.822   4.274   3.016
    1C        C  579   2.931   4.364   3.012
    1C        C  580   2.774   4.225   3.140
    1C        C  581   2.824   4.279   3.260
    1C        C  582   2.693   4.115   3.386
    1C        C  583   2.778   4.228   3.384
    1C        C  584   2.653   4.058   3.509
    1C        C  585   2.691   4.120   3.631
    1C        C  586   2.595   3.934   3.756
    1C        C  587   2.661   4.059   3.755
    1C        C  588   2.564   3.874   3.880
    1C        C  589   2.592   3.939   4.002
    1C        C  590   2.540   3.737   4.127
    1C        C  591   2.567   3.875   4.126
    1C        C  592   2.530   3.670   4.251
    1C        C  593   2.539   3.742   4.372
    1C        C  594   2.513   3.533   4.498
    1C        C  595   2.523   3.673   4.495
    1C        C  596   2.518   3.463   4.621
    1C        C  597   2.522   3.537   4.742
    1C        C  598   2.536   3.327   4.864
    1C        C  599   2.526   3.467   4.865
    1C        C  600   2.539   3.249   4.980
    1C        C  601   3.191   4.439   2.040
    1C        C  602   2.982   4.387   2.158
    1C        C  603   3.117   4.436   2.158
    1C        C  604   2.920   4.362   2.283
    1C        C  605   2.983   4.400   2.404
    1C        C  606   2.815   4.272   2.529
    1C        C  607   2.925   4.361   2.526
    1C        C  608   2.766   4.220   2.651
    1C        C  609   2.823   4.267   2.771
    1C        C  610   2.685   4.110   2.897
    1C        C  611   2.775   4.219   2.895
    1C        C  612   2.647   4.053   3.020
    1C        C  613   2.691   4.110   3.142
    1C        C  614   2.591   3.927   3.265
    1C        C  615   2.650   4.056   3.265
    1C        C  616   2.568   3.863   3.389
    1C        C  617   2.592   3.931   3.511
    1C        C  618   2.539   3.729   3.638
    1C        C  619   2.572   3.866   3.634
    1C        C  620   2.524   3.663   3.762
    1C        C  621   2.533   3.736   3.882
    1C        C  622   2.519   3.526   4.010
    1C        C  623   2.526   3.667   4.005
    1C        C  624   2.522   3.457   4.134
    1C        C  625   2.520   3.529   4.255
    1C        C  626   2.538   3.319   4.381
    1C        C  627   2.517   3.459   4.378
    1C        C  628   2.553   3.249   4.502
    1C        C  629   2.536   3.323   4.621
    1C        C  630   2.597   3.119   4.746
    1C        C  631   2.554   3.254   4.744
    1C        C  632   2.611   3.046   4.867
    1C        C  633   2.559   3.110   4.984
    1C        C  634   2.783   4.301   2.054
    1C        C  635   2.887   4.395   2.052
    1C        C  636   2.750   4.226   2.167
    1C        C  637   2.806   4.277   2.286
    1C        C  638   2.676   4.110   2.407
    1C        C  639   2.761   4.223   2.409
    1C        C  640   2.640   4.048   2.529
    1C        C  641   2.683   4.106   2.651
    1C        C  642   2.588   3.921   2.777
    1C        C  643   2.647   4.049   2.775
    1C        C  644   2.565   3.855   2.899
    1C        C  645   2.590   3.924   3.020
    1C        C  646   2.530   3.723   3.147
    1C        C  647   2.565   3.860   3.144
    1C        C  648   2.514   3.656   3.270
    1C        C  649   2.532   3.726   3.392
    1C        C  650   2.515   3.518   3.517
    1C        C  651   2.523   3.659   3.516
    1C        C  652   2.519   3.451   3.642
    1C        C  653   2.513   3.522   3.764
    1C        C  654   2.540   3.315   3.889
    1C        C  655   2.515   3.454   3.888
    1C        C  656   2.555   3.248   4.012
    1C        C  657   2.540   3.316   4.135
    1C        C  658   2.602   3.117   4.257
    1C        C  659   2.555   3.250   4.259
    1C        C  660   2.636   3.056   4.381
    1C        C  661   2.601   3.116   4.504
    1C        C  662   2.709   2.935   4.625
    1C        C  663   2.630   3.051   4.626
    1C        C  664   2.746   2.875   4.747
    1C        C  665   2.692   2.928   4.868
    1C        C  666   2.742   2.866   4.983
    1C        C  667   2.676   4.024   2.051
    1C        C  668   2.684   4.101   2.167
    1C        C  669   2.582   3.913   2.292
    1C        C  670   2.641   4.042   2.288
    1C        C  671   2.556   3.848   2.414
    1C        C  672   2.577   3.922   2.532
    1C        C  673   2.522   3.718   2.659
    1C        C  674   2.556   3.856   2.656
    1C        C  675   2.511   3.648   2.781
    1C        C  676   2.524   3.719   2.902
    1C        C  677   2.511   3.510   3.032
    1C        C  678   2.516   3.651   3.026
    1C        C  679   2.512   3.441   3.155
    1C        C  680   2.506   3.516   3.275
    1C        C  681   2.529   3.304   3.401
    1C        C  682   2.514   3.444   3.397
    1C        C  683   2.548   3.239   3.525
    1C        C  684   2.539   3.311   3.646
    1C        C  685   2.604   3.111   3.770
    1C        C  686   2.556   3.243   3.769
    1C        C  687   2.636   3.050   3.894
    1C        C  688   2.603   3.115   4.015
    1C        C  689   2.707   2.930   4.139
    1C        C  690   2.632   3.049   4.137
    1C        C  691   2.752   2.876   4.262
    1C        C  692   2.714   2.939   4.382
    1C        C  693   2.752   2.877   4.504
    1C        C  694   2.633   3.891   2.060
    1C        C  695   2.526   3.703   2.175
    1C        C  696   2.571   3.837   2.173
    1C        C  697   2.511   3.637   2.298
    1C        C  698   2.524   3.710   2.418
    1C        C  699   2.491   3.502   2.543
    1C        C  700   2.508   3.642   2.541
    1C        C  701   2.502   3.432   2.665
    1C        C  702   2.502   3.507   2.785
    1C        C  703   2.528   3.300   2.912
    1C        C  704   2.507   3.440   2.910
    1C        C  705   2.548   3.232   3.034
    1C        C  706   2.536   3.302   3.156
    1C        C  707   2.598   3.102   3.280
    1C        C  708   2.550   3.235   3.280
    1C        C  709   2.631   3.040   3.403
    1C        C  710   2.602   3.108   3.524
    1C        C  711   2.703   2.925   3.651
    1C        C  712   2.629   3.045   3.647
    1C        C  713   2.751   2.871   3.772
    1C        C  714   2.709   2.929   3.893
    1C        C  715   2.749   2.873   4.017
    1C        C  716   2.445   3.497   2.064
    1C        C  717   2.493   3.628   2.061
    1C        C  718   2.469   3.421   2.183
    1C        C  719   2.491   3.496   2.303
    1C        C  720   2.514   3.286   2.423
    1C        C  721   2.490   3.425   2.425
    1C        C  722   2.543   3.222   2.546
    1C        C  723   2.529   3.293   2.667
    1C        C  724   2.590   3.095   2.791
    1C        C  725   2.542   3.228   2.791
    1C        C  726   2.623   3.032   2.913
    1C        C  727   2.596   3.099   3.035
    1C        C  728   2.697   2.914   3.161
    1C        C  729   2.626   3.037   3.158
    1C        C  730   2.746   2.864   3.284
    1C        C  731   2.708   2.922   3.407
    1C        C  732   2.746   2.865   3.530
    1C        C  733   2.492   3.200   2.069
    1C        C  734   2.486   3.279   2.184
    1C        C  735   2.586   3.084   2.304
    1C        C  736   2.526   3.213   2.303
    1C        C  737   2.611   3.019   2.427
    1C        C  738   2.589   3.089   2.548
    1C        C  739   2.692   2.905   2.674
    1C        C  740   2.616   3.025   2.671
    1C        C  741   2.737   2.850   2.796
    1C        C  742   2.696   2.911   2.916
    1C        C  743   2.743   2.860   3.039
    1C        C  744   2.541   3.070   2.073
    1C        C  745   2.685   2.896   2.185
    1C        C  746   2.607   3.014   2.183
    1C        C  747   2.727   2.839   2.307
    1C        C  748   2.681   2.897   2.428
    1C        C  749   2.730   2.847   2.551
    1C        C  750   2.738   2.843   2.067
    1C        C  751   3.645   2.283   2.005
    1C        O  752   3.683   2.182   2.070
    1C        O  753   3.663   2.268   1.867
    1C        C  754   4.636   3.052   1.999
    1C        O  755   4.642   3.037   1.874
    1C        O  756   4.766   3.043   2.050
    1C        C  757   4.437   4.221   1.952
    1C        O  758   4.481   4.333   1.990
    1C        O  759   4.379   4.227   1.824
    1C        C  760   3.589   4.674   1.958
    1C        O  761   3.573   4.793   1.995
    1C        O  762   3.604   4.678   1.819
    1C        C  763   2.838   4.528   2.010
    1C        O  764   2.830   4.556   1.888
    1C        O  765   2.818   4.649   2.079
    1C        C  766   2.334   3.464   1.972
    1C        O  767   2.353   3.435   1.851
    1C        O  768   2.203   3.420   1.997
    1C        C  769   4.677   3.579   5.066
    1C        O  770   4.659   3.607   5.188
    1C        O  771   4.814   3.575   5.038
    1C        C  772   4.275   4.451   5.039
    1C        O  773   4.271   4.416   5.160
    1C        O  774   4.325   4.582   5.033
    1C        C  775   4.134   2.561   5.097
    1C        O  776   4.176   2.449   5.137
    1C        O  777   4.096   2.622   5.218
    1C        C  778   2.878   4.553   5.041
    1C        O  779   2.864   4.669   4.994
    1C        O  780   2.862   4.535   5.179
    1C        C  781   2.464   3.043   5.075
    1C        O  782   2.352   3.001   5.036
    1C        O  783   2.483   3.027   5.212
    1C        C  784   2.408   3.996   5.037
    1C        O  785   2.307   4.054   4.988
    1C        O  786   2.377   3.918   5.149
    1C        C  787   2.952   2.408   2.009
    1C        O  788   2.894   2.442   1.902
    1C        O  789   2.867   2.323   2.078
    1C        C  790   3.174   2.355   5.038
    1C        O  791   3.140   2.260   4.963
    1C        O  792   3.119   2.352   5.167
    1C        H  793   4.326   2.985   5.069
    1C        H  794   4.139   2.836   5.059
    1C        H  795   4.480   3.141   5.068
    1C        H  796   4.464   3.373   5.054
    1C        H  797   4.580   3.811   5.042
    1C        H  798   4.404   3.967   5.059
    1C        H  799   4.251   4.146   5.043
    1C        H  800   4.035   4.550   5.019
    1C        H  801   3.810   4.563   5.042
    1C        H  802   3.597   4.666   5.021
    1C        H  803   3.383   4.539   5.049
    1C        H  804   3.151   4.505   5.050
    1C        H  805   3.891   2.475   5.065
    1C        H  806   3.675   2.467   5.076
    1C        H  807   2.999   2.555   5.063
    1C        H  808   3.441   2.463   5.079
    1C        H  809   2.889   2.745   5.077
    1C        H  810   2.704   2.895   5.078
    1C        H  811   2.571   3.301   5.068
    1C        H  812   2.531   3.501   5.079
    1C        H  813   2.523   3.738   5.068
    1C        H  814   2.556   4.192   5.020
    1C        H  815   2.739   4.333   5.045
    1C        H  816   2.750   2.910   1.985
    1C        H  817   2.808   2.666   1.984
    1C        H  818   3.219   2.492   1.987
    1C        H  819   3.445   2.488   1.983
    1C        H  820   3.891   2.450   1.995
    1C        H  821   4.062   2.614   1.966
    1C        H  822   4.256   2.711   1.975
    1C        H  823   4.372   2.928   1.965
    1C        H  824   4.621   3.308   1.991
    1C        H  825   4.470   3.508   1.962
    1C        H  826   4.562   3.738   1.970
    1C        H  827   3.817   4.557   1.967
    1C        H  828   3.937   4.341   1.956
    1C        H  829   4.151   4.233   1.951
    1C        H  830   4.459   3.951   1.955
    1C        H  831   2.671   3.822   1.986
    1C        H  832   2.681   4.071   1.955
    1C        H  833   2.742   4.272   1.959
    1C        H  834   3.366   4.496   1.945
    1C        H  835   3.143   4.462   1.947
    1C        H  836   2.555   3.021   1.979
    1C        H  837   2.442   3.231   1.979
    1C        H  838   2.446   3.682   1.981
    2V3OU   H29  839   2.803   3.542   6.367
    2V3OU   C27  840   2.787   3.505   6.472
    2V3OU   H27  841   2.723   3.574   6.533
    2V3OU   H28  842   2.729   3.410   6.463
    2V3OU   O11  843   2.908   3.475   6.541
    2V3OU   C15  844   2.920   3.401   6.657
    2V3OU   C13  845   3.050   3.373   6.703
    2V3OU   C14  846   3.075   3.265   6.788
    2V3OU   C16  847   2.969   3.184   6.827
    2V3OU    H6  848   2.992   3.093   6.883
    2V3OU   C12  849   3.214   3.227   6.823
    2V3OU    O2  850   3.235   3.121   6.885
    2V3OU   C10  851   3.324   3.309   6.769
    2V3OU    C8  852   3.458   3.274   6.784
    2V3OU   O10  853   3.486   3.153   6.840
    2V3OU   H26  854   3.401   3.118   6.870
    2V3OU    C6  855   3.566   3.352   6.732
    2V3OU    C5  856   3.534   3.467   6.660
    2V3OU    C4  857   3.704   3.296   6.722
    2V3OU    H4  858   3.724   3.228   6.809
    2V3OU    H5  859   3.710   3.227   6.632
    2V3OU    C2  860   3.819   3.397   6.715
    2V3OU    O6  861   3.802   3.472   6.836
    2V3OU   H21  862   3.762   3.555   6.805
    2V3OU    C3  863   3.782   3.497   6.605
    2V3OU    H2  864   3.859   3.578   6.600
    2V3OU    H3  865   3.783   3.440   6.509
    2V3OU   C25  866   3.954   3.326   6.705
    2V3OU    O7  867   3.995   3.287   6.596
    2V3OU   C26  868   4.027   3.284   6.831
    2V3OU   H22  869   4.068   3.373   6.885
    2V3OU   H23  870   4.118   3.226   6.801
    2V3OU    O8  871   3.959   3.204   6.925
    2V3OU   H24  872   3.919   3.261   6.992
    2V3OU    C1  873   3.645   3.561   6.621
    2V3OU    H1  874   3.622   3.616   6.525
    2V3OU    O3  875   3.654   3.658   6.726
    2V3OU   C19  876   3.616   3.795   6.710
    2V3OU    H9  877   3.529   3.800   6.638
    2V3OU    O4  878   3.716   3.843   6.623
    2V3OU   C20  879   3.845   3.873   6.677
    2V3OU   H10  880   3.889   3.771   6.697
    2V3OU   C24  881   3.608   3.860   6.848
    2V3OU   H16  882   3.544   3.791   6.907
    2V3OU   H17  883   3.561   3.962   6.848
    2V3OU   C23  884   3.748   3.871   6.910
    2V3OU   H15  885   3.787   3.766   6.928
    2V3OU    N1  886   3.734   3.958   0.004
    2V3OU   H19  887   3.807   3.930   0.066
    2V3OU   H20  888   3.649   3.929   0.048
    2V3OU   C21  889   3.847   3.943   6.813
    2V3OU   H11  890   3.951   3.920   6.850
    2V3OU    O5  891   3.826   4.084   6.811
    2V3OU   H18  892   3.778   4.098   6.894
    2V3OU   C22  893   3.916   3.948   6.565
    2V3OU   H12  894   3.867   4.047   6.547
    2V3OU   H13  895   3.912   3.889   6.470
    2V3OU   H14  896   4.025   3.958   6.588
    2V3OU   C11  897   3.156   3.470   6.671
    2V3OU    O1  898   3.138   3.584   6.624
    2V3OU    C9  899   3.295   3.422   6.689
    2V3OU    C7  900   3.398   3.502   6.638
    2V3OU    O9  901   3.377   3.618   6.567
    2V3OU   H25  902   3.281   3.619   6.554
    2V3OU   C17  903   2.817   3.313   6.696
    2V3OU    H7  904   2.714   3.336   6.668
    2V3OU   C18  905   2.840   3.203   6.778
    2V3OU    H8  906   2.760   3.148   6.829
    3SOL     OW  907   2.994   3.985   5.017
    3SOL    HW1  908   3.083   3.945   5.041
    3SOL    HW2  909   3.008   4.065   4.958
    4SOL     OW  910   1.335   0.204   0.447
    4SOL    HW1  911   1.339   0.254   0.534
    4SOL    HW2  912   1.422   0.157   0.432
    5SOL     OW  913   4.042   1.828   0.654
    5SOL    HW1  914   4.093   1.897   0.602
    5SOL    HW2  915   4.090   1.808   0.739
    6SOL     OW  916   3.240   2.053   1.866
    6SOL    HW1  917   3.151   2.048   1.819
    6SOL    HW2  918   3.301   2.112   1.814
    7SOL     OW  919   1.976   2.864   4.488
    7SOL    HW1  920   1.970   2.956   4.527
    7SOL    HW2  921   2.072   2.838   4.478
    8SOL     OW  922   1.586   1.953   6.160
    8SOL    HW1  923   1.664   1.925   6.216
    8SOL    HW2  924   1.516   1.994   6.217
    9SOL     OW  925   2.275   2.414   5.545
    9SOL    HW1  926   2.306   2.323   5.572
    9SOL    HW2  927   2.336   2.450   5.474
   10SOL     OW  928   5.497   4.977   0.987
   10SOL    HW1  929   5.580   5.024   1.019
   10SOL    HW2  930   5.454   4.930   1.064
   11SOL     OW  931   3.042   1.142   0.763
   11SOL    HW1  932   3.074   1.217   0.705
   11SOL    HW2  933   3.037   1.058   0.709
   12SOL     OW  934   5.653   5.250   1.224
   12SOL    HW1  935   5.640   5.205   1.313
   12SOL    HW2  936   5.673   5.182   1.154
   13SOL     OW  937   4.553   5.679   1.564
   13SOL    HW1  938   4.586   5.584   1.563
   13SOL    HW2  939   4.466   5.683   1.612
   14SOL     OW  940   4.394   5.951   0.904
   14SOL    HW1  941   4.387   5.891   0.825
   14SOL    HW2  942   4.422   6.042   0.875
   15SOL     OW  943   0.442   0.320   6.546
   15SOL    HW1  944   0.446   0.313   6.646
   15SOL    HW2  945   0.532   0.347   6.512
   16SOL     OW  946   1.830   4.976   5.485
   16SOL    HW1  947   1.766   4.961   5.410
   16SOL    HW2  948   1.781   5.010   5.565
   17SOL     OW  949   0.066   2.046   4.089
   17SOL    HW1  950   0.042   2.031   3.993
   17SOL    HW2  951   0.022   1.976   4.146
   18SOL     OW  952   2.590   0.225   5.504
   18SOL    HW1  953   2.493   0.245   5.518
   18SOL    HW2  954   2.602   0.127   5.486
   19SOL     OW  955   4.502   5.888   2.883
   19SOL    HW1  956   4.567   5.812   2.876
   19SOL    HW2  957   4.418   5.856   2.926
   20SOL     OW  958   0.015   1.683   4.625
   20SOL    HW1  959   0.086   1.747   4.595
   20SOL    HW2  960   6.966   1.675   4.554
   21SOL     OW  961   1.942   3.305   1.773
   21SOL    HW1  962   1.940   3.243   1.694
   21SOL    HW2  963   1.849   3.324   1.804
   22SOL     OW  964   0.514   0.587   0.438
   22SOL    HW1  965   0.557   0.538   0.363
   22SOL    HW2  966   0.425   0.622   0.408
   23SOL     OW  967   0.505   5.739   0.488
   23SOL    HW1  968   0.518   5.698   0.578
   23SOL    HW2  969   0.590   5.782   0.458
   24SOL     OW  970   4.625   0.676   6.809
   24SOL    HW1  971   4.544   0.716   6.767
   24SOL    HW2  972   4.706   0.702   6.757
   25SOL     OW  973   1.527   0.773   5.715
   25SOL    HW1  974   1.549   0.677   5.698
   25SOL    HW2  975   1.472   0.808   5.639
   26SOL     OW  976   2.363   6.855   5.422
   26SOL    HW1  977   2.318   6.769   5.396
   26SOL    HW2  978   2.327   6.930   5.367
   27SOL     OW  979   6.821   0.268   2.347
   27SOL    HW1  980   6.905   0.251   2.296
   27SOL    HW2  981   6.807   0.367   2.355
   28SOL     OW  982   2.036   0.732   5.116
   28SOL    HW1  983   2.063   0.773   5.029
   28SOL    HW2  984   1.938   0.747   5.131
   29SOL     OW  985   5.589   0.560   1.470
   29SOL    HW1  986   5.520   0.505   1.517
   29SOL    HW2  987   5.584   0.543   1.372
   30SOL     OW  988   5.116   6.817   4.513
   30SOL    HW1  989   5.099   6.776   4.602
   30SOL    HW2  990   5.211   6.848   4.508
   31SOL     OW  991   6.259   3.869   4.195
   31SOL    HW1  992   6.245   3.951   4.251
   31SOL    HW2  993   6.195   3.798   4.222
   32SOL     OW  994   3.312   1.182   1.918
   32SOL    HW1  995   3.358   1.241   1.851
   32SOL    HW2  996   3.374   1.108   1.945
   33SOL     OW  997   2.007   4.376   5.068
   33SOL    HW1  998   1.944   4.300   5.061
   33SOL    HW2  999   2.005   4.414   5.160
   34SOL     OW 1000   2.649   6.944   5.463
   34SOL    HW1 1001   2.673   6.914   5.370
   34SOL    HW2 1002   2.552   6.925   5.480
   35SOL     OW 1003   1.302   3.180   4.948
   35SOL    HW1 1004   1.379   3.131   4.988
   35SOL    HW2 1005   1.217   3.153   4.993
   36SOL     OW 1006   5.288   1.233   3.933
   36SOL    HW1 1007   5.349   1.236   3.854
   36SOL    HW2 1008   5.259   1.325   3.957
   37SOL     OW 1009   1.291   5.450   4.037
   37SOL    HW1 1010   1.237   5.370   4.064
   37SOL    HW2 1011   1.230   5.521   4.003
   38SOL     OW 1012   0.600   3.253   1.752
   38SOL    HW1 1013   0.519   3.197   1.732
   38SOL    HW2 1014   0.605   3.271   1.850
   39SOL     OW 1015   6.440   5.183   1.346
   39SOL    HW1 1016   6.459   5.218   1.438
   39SOL    HW2 1017   6.369   5.114   1.351
   40SOL     OW 1018   4.161   0.553   6.245
   40SOL    HW1 1019   4.256   0.527   6.227
   40SOL    HW2 1020   4.134   0.626   6.182
   41SOL     OW 1021   0.206   3.907   1.179
   41SOL    HW1 1022   0.216   3.823   1.126
   41SOL    HW2 1023   0.285   3.967   1.162
   42SOL     OW 1024   2.703   3.623   0.964
   42SOL    HW1 1025   2.664   3.685   1.032
   42SOL    HW2 1026   2.645   3.622   0.882
   43SOL     OW 1027   4.866   0.654   3.764
   43SOL    HW1 1028   4.921   0.589   3.712
   43SOL    HW2 1029   4.846   0.734   3.707
   44SOL     OW 1030   0.125   1.060   6.942
   44SOL    HW1 1031   0.036   1.031   6.978
   44SOL    HW2 1032   0.111   1.117   6.861
   45SOL     OW 1033   2.199   3.695   6.102
   45SOL    HW1 1034   2.247   3.636   6.037
   45SOL    HW2 1035   2.107   3.714   6.067
   46SOL     OW 1036   0.846   4.757   4.378
   46SOL    HW1 1037   0.898   4.680   4.415
   46SOL    HW2 1038   0.901   4.806   4.311
   47SOL     OW 1039   0.146   4.124   5.857
   47SOL    HW1 1040   0.231   4.077   5.834
   47SOL    HW2 1041   0.155   4.167   5.947
   48SOL     OW 1042   0.806   4.115   0.203
   48SOL    HW1 1043   0.830   4.205   0.238
   48SOL    HW2 1044   0.830   4.109   0.106
   49SOL     OW 1045   3.296   0.574   0.090
   49SOL    HW1 1046   3.273   0.549   7.017
   49SOL    HW2 1047   3.370   0.515   0.123
   50SOL     OW 1048   4.967   1.691   5.594
   50SOL    HW1 1049   4.966   1.598   5.630
   50SOL    HW2 1050   5.022   1.694   5.510
   51SOL     OW 1051   1.171   6.348   2.146
   51SOL    HW1 1052   1.079   6.315   2.123
   51SOL    HW2 1053   1.225   6.272   2.182
   52SOL     OW 1054   5.295   3.055   2.998
   52SOL    HW1 1055   5.343   3.142   2.985
   52SOL    HW2 1056   5.353   2.992   3.050
   53SOL     OW 1057   3.908   6.811   1.208
   53SOL    HW1 1058   3.949   6.720   1.199
   53SOL    HW2 1059   3.946   6.856   1.289
   54SOL     OW 1060   1.063   1.735   5.887
   54SOL    HW1 1061   1.071   1.812   5.823
   54SOL    HW2 1062   1.151   1.687   5.892
   55SOL     OW 1063   2.498   3.592   6.298
   55SOL    HW1 1064   2.430   3.544   6.352
   55SOL    HW2 1065   2.480   3.690   6.302
   56SOL     OW 1066   1.897   2.210   0.068
   56SOL    HW1 1067   1.835   2.160   0.007
   56SOL    HW2 1068   1.896   2.307   0.043
   57SOL     OW 1069   4.249   5.847   1.510
   57SOL    HW1 1070   4.255   5.765   1.567
   57SOL    HW2 1071   4.257   5.822   1.414
   58SOL     OW 1072   0.395   0.503   0.090
   58SOL    HW1 1073   0.379   0.552   0.176
   58SOL    HW2 1074   0.364   0.560   0.013
   59SOL     OW 1075   4.323   3.337   0.035
   59SOL    HW1 1076   4.349   3.241   0.027
   59SOL    HW2 1077   4.240   3.345   0.090
   60SOL     OW 1078   6.600   2.581   2.307
   60SOL    HW1 1079   6.601   2.670   2.352
   60SOL    HW2 1080   6.603   2.509   2.377
   61SOL     OW 1081   1.738   5.281   2.645
   61SOL    HW1 1082   1.740   5.361   2.705
   61SOL    HW2 1083   1.774   5.306   2.555
   62SOL     OW 1084   4.923   3.317   3.238
   62SOL    HW1 1085   5.015   3.278   3.245
   62SOL    HW2 1086   4.863   3.272   3.304
   63SOL     OW 1087   4.368   6.953   6.236
   63SOL    HW1 1088   4.277   6.988   6.215
   63SOL    HW2 1089   4.390   6.879   6.172
   64SOL     OW 1090   2.492   1.680   6.835
   64SOL    HW1 1091   2.549   1.686   6.917
   64SOL    HW2 1092   2.443   1.766   6.822
   65SOL     OW 1093   0.957   5.410   4.934
   65SOL    HW1 1094   0.896   5.332   4.916
   65SOL    HW2 1095   1.013   5.390   5.014
   66SOL     OW 1096   4.325   1.385   1.269
   66SOL    HW1 1097   4.303   1.463   1.328
   66SOL    HW2 1098   4.421   1.361   1.280
   67SOL     OW 1099   7.015   2.991   2.433
   67SOL    HW1 1100   6.957   2.997   2.514
   67SOL    HW2 1101   0.088   2.970   2.461
   68SOL     OW 1102   0.566   0.931   6.278
   68SOL    HW1 1103   0.636   0.901   6.343
   68SOL    HW2 1104   0.595   1.017   6.235
   69SOL     OW 1105   1.600   0.770   6.426
   69SOL    HW1 1106   1.558   0.721   6.349
   69SOL    HW2 1107   1.673   0.829   6.392
   70SOL     OW 1108   4.877   4.951   3.256
   70SOL    HW1 1109   4.957   4.904   3.293
   70SOL    HW2 1110   4.843   5.016   3.324
   71SOL     OW 1111   5.280   1.379   5.634
   71SOL    HW1 1112   5.304   1.476   5.646
   71SOL    HW2 1113   5.267   1.337   5.723
   72SOL     OW 1114   6.812   2.158   2.859
   72SOL    HW1 1115   6.758   2.178   2.777
   72SOL    HW2 1116   6.760   2.096   2.918
   73SOL     OW 1117   2.787   1.225   1.112
   73SOL    HW1 1118   2.802   1.318   1.146
   73SOL    HW2 1119   2.792   1.225   1.012
   74SOL     OW 1120   2.308   0.720   0.618
   74SOL    HW1 1121   2.317   0.715   0.518
   74SOL    HW2 1122   2.225   0.770   0.641
   75SOL     OW 1123   2.357   2.496   1.431
   75SOL    HW1 1124   2.353   2.514   1.333
   75SOL    HW2 1125   2.276   2.443   1.458
   76SOL     OW 1126   3.017   5.248   6.676
   76SOL    HW1 1127   2.937   5.301   6.706
   76SOL    HW2 1128   2.989   5.155   6.655
   77SOL     OW 1129   0.056   4.745   4.715
   77SOL    HW1 1130   7.002   4.696   4.760
   77SOL    HW2 1131   0.141   4.693   4.724
   78SOL     OW 1132   4.881   1.431   0.757
   78SOL    HW1 1133   4.813   1.467   0.820
   78SOL    HW2 1134   4.879   1.331   0.759
   79SOL     OW 1135   2.057   4.067   4.296
   79SOL    HW1 1136   2.043   3.996   4.365
   79SOL    HW2 1137   2.112   4.030   4.221
   80SOL     OW 1138   4.109   2.187   5.401
   80SOL    HW1 1139   4.022   2.139   5.407
   80SOL    HW2 1140   4.150   2.195   5.492
   81SOL     OW 1141   2.629   4.594   3.084
   81SOL    HW1 1142   2.555   4.543   3.039
   81SOL    HW2 1143   2.660   4.667   3.024
   82SOL     OW 1144   2.564   0.636   1.331
   82SOL    HW1 1145   2.610   0.725   1.329
   82SOL    HW2 1146   2.474   0.646   1.374
   83SOL     OW 1147   5.986   2.415   3.486
   83SOL    HW1 1148   6.065   2.476   3.482
   83SOL    HW2 1149   5.955   2.406   3.580
   84SOL     OW 1150   4.932   2.460   2.740
   84SOL    HW1 1151   4.888   2.445   2.652
   84SOL    HW2 1152   4.863   2.464   2.812
   85SOL     OW 1153   2.232   5.268   2.744
   85SOL    HW1 1154   2.163   5.324   2.698
   85SOL    HW2 1155   2.314   5.262   2.687
   86SOL     OW 1156   4.291   1.121   6.372
   86SOL    HW1 1157   4.257   1.043   6.424
   86SOL    HW2 1158   4.391   1.123   6.377
   87SOL     OW 1159   3.022   2.630   6.594
   87SOL    HW1 1160   2.937   2.577   6.595
   87SOL    HW2 1161   3.080   2.602   6.670
   88SOL     OW 1162   1.243   2.216   0.613
   88SOL    HW1 1163   1.285   2.282   0.676
   88SOL    HW2 1164   1.229   2.129   0.659
   89SOL     OW 1165   4.137   3.743   5.823
   89SOL    HW1 1166   4.064   3.795   5.779
   89SOL    HW2 1167   4.226   3.784   5.800
   90SOL     OW 1168   6.878   4.361   1.801
   90SOL    HW1 1169   6.811   4.354   1.875
   90SOL    HW2 1170   6.937   4.280   1.802
   91SOL     OW 1171   5.303   5.120   0.515
   91SOL    HW1 1172   5.361   5.072   0.449
   91SOL    HW2 1173   5.283   5.058   0.591
   92SOL     OW 1174   6.373   6.330   6.890
   92SOL    HW1 1175   6.389   6.408   6.830
   92SOL    HW2 1176   6.305   6.355   6.959
   93SOL     OW 1177   3.093   2.991   2.582
   93SOL    HW1 1178   3.073   2.897   2.554
   93SOL    HW2 1179   3.080   3.053   2.504
   94SOL     OW 1180   3.694   1.130   4.202
   94SOL    HW1 1181   3.682   1.228   4.220
   94SOL    HW2 1182   3.763   1.093   4.264
   95SOL     OW 1183   1.213   6.329   4.463
   95SOL    HW1 1184   1.209   6.311   4.364
   95SOL    HW2 1185   1.229   6.244   4.512
   96SOL     OW 1186   0.323   6.543   0.056
   96SOL    HW1 1187   0.392   6.615   0.051
   96SOL    HW2 1188   0.342   6.484   0.135
   97SOL     OW 1189   3.465   4.943   4.335
   97SOL    HW1 1190   3.428   4.955   4.427
   97SOL    HW2 1191   3.409   4.876   4.286
   98SOL     OW 1192   6.625   1.942   4.926
   98SOL    HW1 1193   6.637   2.036   4.894
   98SOL    HW2 1194   6.527   1.922   4.935
   99SOL     OW 1195   4.670   4.222   4.934
   99SOL    HW1 1196   4.627   4.286   4.871
   99SOL    HW2 1197   4.635   4.236   5.026
  100SOL     OW 1198   2.450   2.014   5.643
  100SOL    HW1 1199   2.372   2.074   5.658
  100SOL    HW2 1200   2.505   2.049   5.567
  101SOL     OW 1201   5.228   3.029   2.506
  101SOL    HW1 1202   5.318   2.985   2.500
  101SOL    HW2 1203   5.239   3.128   2.497
  102SOL     OW 1204   4.702   6.273   1.128
  102SOL    HW1 1205   4.646   6.294   1.048
  102SOL    HW2 1206   4.774   6.343   1.138
  103SOL     OW 1207   2.458   2.012   0.974
  103SOL    HW1 1208   2.557   2.027   0.965
  103SOL    HW2 1209   2.426   1.950   0.903
  104SOL     OW 1210   0.915   3.605   1.511
  104SOL    HW1 1211   0.912   3.514   1.469
  104SOL    HW2 1212   0.872   3.671   1.449
  105SOL     OW 1213   0.240   1.887   4.679
  105SOL    HW1 1214   0.223   1.950   4.603
  105SOL    HW2 1215   0.188   1.918   4.759
  106SOL     OW 1216   5.277   3.663   1.422
  106SOL    HW1 1217   5.234   3.714   1.348
  106SOL    HW2 1218   5.358   3.713   1.455
  107SOL     OW 1219   4.489   0.373   2.490
  107SOL    HW1 1220   4.457   0.327   2.573
  107SOL    HW2 1221   4.580   0.339   2.465
  108SOL     OW 1222   3.707   1.255   5.260
  108SOL    HW1 1223   3.755   1.233   5.346
  108SOL    HW2 1224   3.739   1.193   5.188
  109SOL     OW 1225   2.304   1.631   4.459
  109SOL    HW1 1226   2.317   1.688   4.378
  109SOL    HW2 1227   2.314   1.687   4.541
  110SOL     OW 1228   4.337   4.881   5.583
  110SOL    HW1 1229   4.348   4.978   5.602
  110SOL    HW2 1230   4.408   4.829   5.631
  111SOL     OW 1231   6.983   3.202   0.673
  111SOL    HW1 1232   0.040   3.141   0.676
  111SOL    HW2 1233   6.927   3.190   0.755
  112SOL     OW 1234   3.746   6.417   4.496
  112SOL    HW1 1235   3.711   6.504   4.528
  112SOL    HW2 1236   3.750   6.352   4.572
  113SOL     OW 1237   1.563   5.025   2.414
  113SOL    HW1 1238   1.629   5.032   2.489
  113SOL    HW2 1239   1.483   5.081   2.434
  114SOL     OW 1240   6.772   2.742   2.140
  114SOL    HW1 1241   6.772   2.744   2.040
  114SOL    HW2 1242   6.734   2.655   2.172
  115SOL     OW 1243   4.509   1.354   3.262
  115SOL    HW1 1244   4.531   1.420   3.190
  115SOL    HW2 1245   4.414   1.324   3.252
  116SOL     OW 1246   5.950   5.916   6.598
  116SOL    HW1 1247   6.034   5.961   6.569
  116SOL    HW2 1248   5.948   5.823   6.562
  117SOL     OW 1249   1.998   1.401   0.504
  117SOL    HW1 1250   1.956   1.407   0.594
  117SOL    HW2 1251   2.074   1.336   0.506
  118SOL     OW 1252   1.355   2.311   1.297
  118SOL    HW1 1253   1.346   2.372   1.376
  118SOL    HW2 1254   1.288   2.237   1.304
  119SOL     OW 1255   5.408   5.593   4.846
  119SOL    HW1 1256   5.349   5.657   4.896
  119SOL    HW2 1257   5.501   5.597   4.883
  120SOL     OW 1258   4.340   1.669   4.192
  120SOL    HW1 1259   4.328   1.570   4.199
  120SOL    HW2 1260   4.317   1.699   4.100
  121SOL     OW 1261   6.859   4.984   5.553
  121SOL    HW1 1262   6.878   5.068   5.604
  121SOL    HW2 1263   6.904   4.907   5.597
  122SOL     OW 1264   0.497   4.619   5.634
  122SOL    HW1 1265   0.421   4.618   5.698
  122SOL    HW2 1266   0.506   4.711   5.595
  123SOL     OW 1267   0.688   2.068   0.817
  123SOL    HW1 1268   0.786   2.085   0.824
  123SOL    HW2 1269   0.649   2.127   0.746
  124SOL     OW 1270   1.935   3.769   6.596
  124SOL    HW1 1271   1.853   3.724   6.631
  124SOL    HW2 1272   1.953   3.738   6.502
  125SOL     OW 1273   4.185   3.046   1.370
  125SOL    HW1 1274   4.144   2.993   1.444
  125SOL    HW2 1275   4.113   3.095   1.321
  126SOL     OW 1276   3.551   3.404   5.284
  126SOL    HW1 1277   3.621   3.408   5.356
  126SOL    HW2 1278   3.462   3.428   5.322
  127SOL     OW 1279   0.240   4.449   6.115
  127SOL    HW1 1280   0.173   4.376   6.100
  127SOL    HW2 1281   0.224   4.492   6.204
  128SOL     OW 1282   4.943   4.418   5.845
  128SOL    HW1 1283   4.898   4.464   5.769
  128SOL    HW2 1284   4.955   4.482   5.921
  129SOL     OW 1285   0.787   5.442   2.419
  129SOL    HW1 1286   0.731   5.494   2.483
  129SOL    HW2 1287   0.879   5.481   2.416
  130SOL     OW 1288   6.707   4.059   4.680
  130SOL    HW1 1289   6.642   4.086   4.610
  130SOL    HW2 1290   6.757   3.978   4.651
  131SOL     OW 1291   0.865   3.145   2.053
  131SOL    HW1 1292   0.905   3.168   2.142
  131SOL    HW2 1293   0.869   3.046   2.040
  132SOL     OW 1294   3.923   3.923   2.488
  132SOL    HW1 1295   3.918   3.854   2.559
  132SOL    HW2 1296   3.990   3.895   2.419
  133SOL     OW 1297   4.319   4.264   5.722
  133SOL    HW1 1298   4.386   4.191   5.707
  133SOL    HW2 1299   4.229   4.224   5.736
  134SOL     OW 1300   6.881   1.913   6.978
  134SOL    HW1 1301   6.897   1.890   6.882
  134SOL    HW2 1302   6.889   2.012   6.989
  135SOL     OW 1303   4.635   5.159   3.961
  135SOL    HW1 1304   4.578   5.215   3.902
  135SOL    HW2 1305   4.605   5.167   4.056
  136SOL     OW 1306   3.836   5.909   6.108
  136SOL    HW1 1307   3.877   5.902   6.199
  136SOL    HW2 1308   3.898   5.871   6.040
  137SOL     OW 1309   2.084   4.159   7.008
  137SOL    HW1 1310   2.068   4.222   6.932
  137SOL    HW2 1311   2.116   4.211   0.066
  138SOL     OW 1312   0.750   6.076   1.473
  138SOL    HW1 1313   0.809   6.082   1.553
  138SOL    HW2 1314   0.771   6.151   1.410
  139SOL     OW 1315   1.077   0.005   1.181
  139SOL    HW1 1316   1.146   6.957   1.202
  139SOL    HW2 1317   0.987   6.994   1.210
  140SOL     OW 1318   2.917   6.950   2.923
  140SOL    HW1 1319   2.899   6.895   3.004
  140SOL    HW2 1320   2.884   6.901   2.842
  141SOL     OW 1321   2.582   1.743   0.076
  141SOL    HW1 1322   2.569   1.648   0.105
  141SOL    HW2 1323   2.537   1.804   0.141
  142SOL     OW 1324   1.686   4.703   6.218
  142SOL    HW1 1325   1.628   4.630   6.184
  142SOL    HW2 1326   1.724   4.755   6.141
  143SOL     OW 1327   5.109   6.246   2.217
  143SOL    HW1 1328   5.026   6.279   2.262
  143SOL    HW2 1329   5.097   6.151   2.189
  144SOL     OW 1330   2.375   5.068   3.481
  144SOL    HW1 1331   2.328   5.061   3.569
  144SOL    HW2 1332   2.374   4.979   3.435
  145SOL     OW 1333   6.403   6.056   2.932
  145SOL    HW1 1334   6.405   6.093   2.839
  145SOL    HW2 1335   6.309   6.031   2.956
  146SOL     OW 1336   6.866   1.173   4.290
  146SOL    HW1 1337   6.966   1.181   4.288
  146SOL    HW2 1338   6.828   1.227   4.215
  147SOL     OW 1339   6.504   6.975   5.405
  147SOL    HW1 1340   6.552   0.038   5.377
  147SOL    HW2 1341   6.443   6.946   5.331
  148SOL     OW 1342   2.034   6.893   3.399
  148SOL    HW1 1343   1.996   6.832   3.329
  148SOL    HW2 1344   2.032   6.847   3.488
  149SOL     OW 1345   1.830   2.243   4.821
  149SOL    HW1 1346   1.924   2.264   4.848
  149SOL    HW2 1347   1.788   2.326   4.784
  150SOL     OW 1348   5.162   2.570   4.932
  150SOL    HW1 1349   5.106   2.548   4.853
  150SOL    HW2 1350   5.130   2.656   4.973
  151SOL     OW 1351   5.810   2.813   1.577
  151SOL    HW1 1352   5.838   2.801   1.672
  151SOL    HW2 1353   5.819   2.726   1.529
  152SOL     OW 1354   6.086   2.114   0.042
  152SOL    HW1 1355   6.000   2.162   0.024
  152SOL    HW2 1356   6.160   2.180   0.053
  153SOL     OW 1357   2.155   1.922   4.131
  153SOL    HW1 1358   2.155   1.973   4.045
  153SOL    HW2 1359   2.073   1.866   4.137
  154SOL     OW 1360   0.405   1.609   3.562
  154SOL    HW1 1361   0.409   1.524   3.614
  154SOL    HW2 1362   0.329   1.665   3.595
  155SOL     OW 1363   5.797   5.171   3.340
  155SOL    HW1 1364   5.736   5.181   3.261
  155SOL    HW2 1365   5.744   5.150   3.422
  156SOL     OW 1366   4.509   7.017   1.232
  156SOL    HW1 1367   4.567   7.014   1.151
  156SOL    HW2 1368   4.544   0.066   1.295
  157SOL     OW 1369   4.808   1.028   0.777
  157SOL    HW1 1370   4.821   1.005   0.681
  157SOL    HW2 1371   4.889   1.003   0.829
  158SOL     OW 1372   1.185   2.698   5.606
  158SOL    HW1 1373   1.205   2.796   5.601
  158SOL    HW2 1374   1.247   2.648   5.544
  159SOL     OW 1375   0.083   4.826   6.836
  159SOL    HW1 1376   0.004   4.877   6.804
  159SOL    HW2 1377   0.136   4.793   6.758
  160SOL     OW 1378   3.955   0.060   1.838
  160SOL    HW1 1379   3.873   0.117   1.832
  160SOL    HW2 1380   3.929   6.984   1.830
  161SOL     OW 1381   5.620   6.735   0.759
  161SOL    HW1 1382   5.524   6.711   0.746
  161SOL    HW2 1383   5.648   6.712   0.852
  162SOL     OW 1384   4.317   0.130   5.194
  162SOL    HW1 1385   4.336   0.161   5.100
  162SOL    HW2 1386   4.254   0.053   5.191
  163SOL     OW 1387   1.307   3.767   2.876
  163SOL    HW1 1388   1.255   3.711   2.812
  163SOL    HW2 1389   1.404   3.740   2.874
  164SOL     OW 1390   1.600   2.579   2.221
  164SOL    HW1 1391   1.543   2.610   2.298
  164SOL    HW2 1392   1.646   2.657   2.180
  165SOL     OW 1393   0.510   5.640   5.119
  165SOL    HW1 1394   0.438   5.620   5.052
  165SOL    HW2 1395   0.496   5.732   5.155
  166SOL     OW 1396   0.615   5.265   3.688
  166SOL    HW1 1397   0.684   5.212   3.639
  166SOL    HW2 1398   0.645   5.360   3.694
  167SOL     OW 1399   0.356   1.346   3.382
  167SOL    HW1 1400   0.353   1.409   3.460
  167SOL    HW2 1401   0.290   1.375   3.313
  168SOL     OW 1402   3.431   4.118   4.561
  168SOL    HW1 1403   3.363   4.048   4.542
  168SOL    HW2 1404   3.415   4.156   4.653
  169SOL     OW 1405   4.810   3.025   6.105
  169SOL    HW1 1406   4.766   2.937   6.122
  169SOL    HW2 1407   4.741   3.097   6.104
  170SOL     OW 1408   6.491   5.394   2.734
  170SOL    HW1 1409   6.496   5.359   2.640
  170SOL    HW2 1410   6.421   5.344   2.784
  171SOL     OW 1411   3.677   3.153   0.885
  171SOL    HW1 1412   3.685   3.106   0.973
  171SOL    HW2 1413   3.587   3.136   0.846
  172SOL     OW 1414   1.635   0.944   0.215
  172SOL    HW1 1415   1.727   0.922   0.184
  172SOL    HW2 1416   1.611   0.888   0.293
  173SOL     OW 1417   5.458   0.913   4.751
  173SOL    HW1 1418   5.450   1.012   4.760
  173SOL    HW2 1419   5.553   0.889   4.735
  174SOL     OW 1420   6.431   4.600   4.356
  174SOL    HW1 1421   6.530   4.585   4.366
  174SOL    HW2 1422   6.412   4.698   4.352
  175SOL     OW 1423   0.585   5.564   2.530
  175SOL    HW1 1424   0.545   5.634   2.587
  175SOL    HW2 1425   0.561   5.581   2.434
  176SOL     OW 1426   6.145   3.854   0.681
  176SOL    HW1 1427   6.193   3.813   0.604
  176SOL    HW2 1428   6.049   3.867   0.658
  177SOL     OW 1429   5.289   2.465   3.372
  177SOL    HW1 1430   5.190   2.448   3.377
  177SOL    HW2 1431   5.328   2.412   3.298
  178SOL     OW 1432   1.768   4.960   4.528
  178SOL    HW1 1433   1.839   5.030   4.534
  178SOL    HW2 1434   1.688   4.998   4.482
  179SOL     OW 1435   3.056   3.955   2.216
  179SOL    HW1 1436   3.155   3.963   2.229
  179SOL    HW2 1437   3.028   4.015   2.140
  180SOL     OW 1438   4.545   0.480   5.934
  180SOL    HW1 1439   4.499   0.391   5.933
  180SOL    HW2 1440   4.604   0.487   5.853
  181SOL     OW 1441   3.097   6.806   5.127
  181SOL    HW1 1442   3.011   6.810   5.177
  181SOL    HW2 1443   3.137   6.715   5.137
  182SOL     OW 1444   3.041   2.758   5.660
  182SOL    HW1 1445   3.067   2.779   5.566
  182SOL    HW2 1446   3.078   2.669   5.686
  183SOL     OW 1447   2.113   1.056   2.984
  183SOL    HW1 1448   2.121   1.139   3.039
  183SOL    HW2 1449   2.200   1.006   2.987
  184SOL     OW 1450   6.000   7.002   3.890
  184SOL    HW1 1451   6.088   0.024   3.874
  184SOL    HW2 1452   5.963   6.968   3.803
  185SOL     OW 1453   0.782   5.712   5.646
  185SOL    HW1 1454   0.769   5.795   5.699
  185SOL    HW2 1455   0.767   5.731   5.549
  186SOL     OW 1456   3.518   5.519   0.528
  186SOL    HW1 1457   3.428   5.562   0.528
  186SOL    HW2 1458   3.511   5.426   0.565
  187SOL     OW 1459   3.784   5.272   0.530
  187SOL    HW1 1460   3.848   5.320   0.470
  187SOL    HW2 1461   3.801   5.300   0.625
  188SOL     OW 1462   1.308   4.114   4.099
  188SOL    HW1 1463   1.320   4.029   4.049
  188SOL    HW2 1464   1.340   4.191   4.042
  189SOL     OW 1465   6.149   3.970   5.634
  189SOL    HW1 1466   6.187   3.895   5.581
  189SOL    HW2 1467   6.186   3.967   5.727
  190SOL     OW 1468   5.818   6.329   6.732
  190SOL    HW1 1469   5.748   6.350   6.800
  190SOL    HW2 1470   5.865   6.244   6.757
  191SOL     OW 1471   2.533   3.451   6.060
  191SOL    HW1 1472   2.525   3.510   6.140
  191SOL    HW2 1473   2.514   3.504   5.977
  192SOL     OW 1474   0.993   6.758   0.604
  192SOL    HW1 1475   0.899   6.793   0.601
  192SOL    HW2 1476   1.052   6.824   0.651
  193SOL     OW 1477   2.811   6.383   1.787
  193SOL    HW1 1478   2.792   6.367   1.690
  193SOL    HW2 1479   2.856   6.472   1.798
  194SOL     OW 1480   4.384   6.349   3.797
  194SOL    HW1 1481   4.444   6.425   3.822
  194SOL    HW2 1482   4.297   6.385   3.764
  195SOL     OW 1483   3.177   1.194   1.372
  195SOL    HW1 1484   3.082   1.164   1.379
  195SOL    HW2 1485   3.238   1.117   1.391
  196SOL     OW 1486   3.894   3.029   1.454
  196SOL    HW1 1487   3.867   3.111   1.404
  196SOL    HW2 1488   3.939   3.054   1.540
  197SOL     OW 1489   0.612   6.833   1.524
  197SOL    HW1 1490   0.711   6.825   1.508
  197SOL    HW2 1491   0.563   6.776   1.458
  198SOL     OW 1492   6.136   0.345   5.668
  198SOL    HW1 1493   6.198   0.273   5.698
  198SOL    HW2 1494   6.045   0.307   5.653
  199SOL     OW 1495   1.886   0.919   3.415
  199SOL    HW1 1496   1.791   0.929   3.444
  199SOL    HW2 1497   1.895   0.946   3.319
  200SOL     OW 1498   1.760   3.430   3.487
  200SOL    HW1 1499   1.665   3.416   3.460
  200SOL    HW2 1500   1.799   3.344   3.520
  201SOL     OW 1501   4.983   1.143   6.768
  201SOL    HW1 1502   4.898   1.182   6.804
  201SOL    HW2 1503   5.048   1.129   6.843
  202SOL     OW 1504   4.189   0.733   3.104
  202SOL    HW1 1505   4.151   0.659   3.048
  202SOL    HW2 1506   4.280   0.707   3.137
  203SOL     OW 1507   5.507   3.046   0.792
  203SOL    HW1 1508   5.433   3.090   0.843
  203SOL    HW2 1509   5.591   3.050   0.845
  204SOL     OW 1510   2.508   5.919   0.698
  204SOL    HW1 1511   2.481   5.953   0.787
  204SOL    HW2 1512   2.568   5.839   0.709
  205SOL     OW 1513   5.350   0.670   1.306
  205SOL    HW1 1514   5.424   0.651   1.241
  205SOL    HW2 1515   5.319   0.584   1.347
  206SOL     OW 1516   0.272   5.653   1.540
  206SOL    HW1 1517   0.201   5.711   1.500
  206SOL    HW2 1518   0.286   5.573   1.482
  207SOL     OW 1519   6.706   2.459   5.362
  207SOL    HW1 1520   6.656   2.508   5.434
  207SOL    HW2 1521   6.733   2.369   5.396
  208SOL     OW 1522   4.990   3.553   1.220
  208SOL    HW1 1523   4.917   3.616   1.246
  208SOL    HW2 1524   4.954   3.483   1.158
  209SOL     OW 1525   6.183   0.643   4.165
  209SOL    HW1 1526   6.133   0.568   4.207
  209SOL    HW2 1527   6.264   0.664   4.219
  210SOL     OW 1528   4.671   2.138   6.861
  210SOL    HW1 1529   4.669   2.038   6.849
  210SOL    HW2 1530   4.618   2.163   6.941
  211SOL     OW 1531   0.302   4.331   2.247
  211SOL    HW1 1532   0.235   4.337   2.174
  211SOL    HW2 1533   0.385   4.287   2.213
  212SOL     OW 1534   1.280   5.524   4.822
  212SOL    HW1 1535   1.285   5.614   4.865
  212SOL    HW2 1536   1.305   5.454   4.888
  213SOL     OW 1537   4.329   2.374   1.614
  213SOL    HW1 1538   4.379   2.442   1.667
  213SOL    HW2 1539   4.230   2.385   1.631
  214SOL     OW 1540   0.379   5.563   4.051
  214SOL    HW1 1541   0.426   5.512   4.123
  214SOL    HW2 1542   0.348   5.500   3.980
  215SOL     OW 1543   4.050   3.647   3.699
  215SOL    HW1 1544   4.105   3.584   3.754
  215SOL    HW2 1545   3.991   3.594   3.637
  216SOL     OW 1546   4.016   6.663   4.752
  216SOL    HW1 1547   3.931   6.706   4.781
  216SOL    HW2 1548   4.073   6.730   4.703
  217SOL     OW 1549   6.327   1.865   5.022
  217SOL    HW1 1550   6.315   1.884   4.925
  217SOL    HW2 1551   6.368   1.945   5.067
  218SOL     OW 1552   2.549   4.382   5.841
  218SOL    HW1 1553   2.543   4.400   5.939
  218SOL    HW2 1554   2.643   4.361   5.816
  219SOL     OW 1555   3.448   6.252   6.579
  219SOL    HW1 1556   3.353   6.244   6.610
  219SOL    HW2 1557   3.484   6.341   6.605
  220SOL     OW 1558   1.206   5.059   0.343
  220SOL    HW1 1559   1.291   5.089   0.386
  220SOL    HW2 1560   1.155   5.139   0.311
  221SOL     OW 1561   6.346   4.099   4.903
  221SOL    HW1 1562   6.413   4.149   4.957
  221SOL    HW2 1563   6.273   4.161   4.873
  222SOL     OW 1564   1.675   0.299   4.386
  222SOL    HW1 1565   1.739   0.342   4.449
  222SOL    HW2 1566   1.585   0.291   4.430
  223SOL     OW 1567   5.698   5.516   1.795
  223SOL    HW1 1568   5.681   5.464   1.879
  223SOL    HW2 1569   5.675   5.612   1.810
  224SOL     OW 1570   5.322   4.374   2.589
  224SOL    HW1 1571   5.299   4.277   2.597
  224SOL    HW2 1572   5.245   4.424   2.552
  225SOL     OW 1573   4.153   5.826   2.120
  225SOL    HW1 1574   4.183   5.735   2.093
  225SOL    HW2 1575   4.218   5.865   2.186
  226SOL     OW 1576   1.629   5.915   2.381
  226SOL    HW1 1577   1.661   5.918   2.286
  226SOL    HW2 1578   1.678   5.844   2.431
  227SOL     OW 1579   0.708   3.788   2.939
  227SOL    HW1 1580   0.617   3.776   2.900
  227SOL    HW2 1581   0.704   3.857   3.012
  228SOL     OW 1582   3.782   5.972   3.524
  228SOL    HW1 1583   3.686   5.961   3.500
  228SOL    HW2 1584   3.801   6.069   3.544
  229SOL     OW 1585   5.817   6.230   2.608
  229SOL    HW1 1586   5.837   6.183   2.522
  229SOL    HW2 1587   5.886   6.206   2.676
  230SOL     OW 1588   1.442   4.284   5.446
  230SOL    HW1 1589   1.481   4.314   5.359
  230SOL    HW2 1590   1.373   4.350   5.476
  231SOL     OW 1591   0.219   1.741   6.485
  231SOL    HW1 1592   0.295   1.676   6.486
  231SOL    HW2 1593   0.138   1.698   6.525
  232SOL     OW 1594   1.907   2.975   6.876
  232SOL    HW1 1595   1.997   2.968   6.832
  232SOL    HW2 1596   1.913   3.042   6.951
  233SOL     OW 1597   3.526   6.939   0.382
  233SOL    HW1 1598   3.465   6.862   0.401
  233SOL    HW2 1599   3.606   6.907   0.332
  234SOL     OW 1600   1.568   4.920   0.183
  234SOL    HW1 1601   1.586   4.831   0.226
  234SOL    HW2 1602   1.606   4.920   0.090
  235SOL     OW 1603   3.886   3.195   5.864
  235SOL    HW1 1604   3.945   3.247   5.802
  235SOL    HW2 1605   3.933   3.111   5.891
  236SOL     OW 1606   6.907   0.162   6.786
  236SOL    HW1 1607   6.839   0.194   6.720
  236SOL    HW2 1608   6.904   0.062   6.791
  237SOL     OW 1609   6.005   0.018   2.264
  237SOL    HW1 1610   6.077   0.080   2.296
  237SOL    HW2 1611   5.927   0.024   2.325
  238SOL     OW 1612   0.690   2.099   3.225
  238SOL    HW1 1613   0.626   2.022   3.222
  238SOL    HW2 1614   0.639   2.185   3.224
  239SOL     OW 1615   6.662   4.846   6.580
  239SOL    HW1 1616   6.649   4.821   6.675
  239SOL    HW2 1617   6.608   4.786   6.521
  240SOL     OW 1618   0.136   2.830   4.034
  240SOL    HW1 1619   0.122   2.758   3.965
  240SOL    HW2 1620   0.226   2.818   4.076
  241SOL     OW 1621   6.348   2.645   4.263
  241SOL    HW1 1622   6.426   2.680   4.212
  241SOL    HW2 1623   6.347   2.684   4.355
  242SOL     OW 1624   2.812   2.302   3.303
  242SOL    HW1 1625   2.905   2.265   3.298
  242SOL    HW2 1626   2.794   2.336   3.395
  243SOL     OW 1627   4.966   1.399   6.640
  243SOL    HW1 1628   5.048   1.346   6.617
  243SOL    HW2 1629   4.926   1.364   6.725
  244SOL     OW 1630   1.350   0.462   5.812
  244SOL    HW1 1631   1.376   0.449   5.717
  244SOL    HW2 1632   1.433   0.464   5.869
  245SOL     OW 1633   4.832   1.825   4.706
  245SOL    HW1 1634   4.841   1.867   4.796
  245SOL    HW2 1635   4.738   1.796   4.692
  246SOL     OW 1636   5.761   3.610   4.524
  246SOL    HW1 1637   5.809   3.585   4.608
  246SOL    HW2 1638   5.667   3.575   4.528
  247SOL     OW 1639   2.017   0.275   3.086
  247SOL    HW1 1640   2.056   0.184   3.075
  247SOL    HW2 1641   2.084   0.336   3.129
  248SOL     OW 1642   6.636   2.612   3.374
  248SOL    HW1 1643   6.723   2.643   3.335
  248SOL    HW2 1644   6.574   2.690   3.380
  249SOL     OW 1645   2.125   5.883   5.123
  249SOL    HW1 1646   2.100   5.979   5.135
  249SOL    HW2 1647   2.075   5.845   5.045
  250SOL     OW 1648   5.585   3.024   6.743
  250SOL    HW1 1649   5.619   2.932   6.761
  250SOL    HW2 1650   5.509   3.019   6.678
  251SOL     OW 1651   2.482   0.054   1.968
  251SOL    HW1 1652   2.472   6.981   1.999
  251SOL    HW2 1653   2.425   0.114   2.024
  252SOL     OW 1654   6.723   2.950   6.691
  252SOL    HW1 1655   6.732   2.856   6.722
  252SOL    HW2 1656   6.669   3.002   6.757
  253SOL     OW 1657   1.904   4.633   5.704
  253SOL    HW1 1658   1.952   4.714   5.669
  253SOL    HW2 1659   1.806   4.651   5.706
  254SOL     OW 1660   4.712   3.450   6.827
  254SOL    HW1 1661   4.795   3.444   6.771
  254SOL    HW2 1662   4.730   3.412   6.918
  255SOL     OW 1663   4.192   2.205   2.188
  255SOL    HW1 1664   4.227   2.241   2.102
  255SOL    HW2 1665   4.094   2.192   2.181
  256SOL     OW 1666   0.352   6.402   1.363
  256SOL    HW1 1667   0.418   6.467   1.325
  256SOL    HW2 1668   0.365   6.313   1.319
  257SOL     OW 1669   3.047   5.911   6.549
  257SOL    HW1 1670   3.147   5.918   6.544
  257SOL    HW2 1671   3.009   5.914   6.456
  258SOL     OW 1672   4.848   5.462   4.465
  258SOL    HW1 1673   4.903   5.445   4.383
  258SOL    HW2 1674   4.758   5.496   4.439
  259SOL     OW 1675   0.041   1.150   2.204
  259SOL    HW1 1676   0.088   1.089   2.267
  259SOL    HW2 1677   7.002   1.097   2.144
  260SOL     OW 1678   6.062   6.803   5.567
  260SOL    HW1 1679   6.068   6.704   5.564
  260SOL    HW2 1680   6.090   6.836   5.657
  261SOL     OW 1681   0.603   1.300   3.298
  261SOL    HW1 1682   0.516   1.320   3.342
  261SOL    HW2 1683   0.642   1.384   3.262
  262SOL     OW 1684   2.000   5.324   1.042
  262SOL    HW1 1685   2.055   5.254   0.997
  262SOL    HW2 1686   1.997   5.306   1.140
  263SOL     OW 1687   0.886   5.130   4.818
  263SOL    HW1 1688   0.832   5.076   4.753
  263SOL    HW2 1689   0.963   5.075   4.851
  264SOL     OW 1690   3.826   4.052   0.878
  264SOL    HW1 1691   3.765   3.983   0.918
  264SOL    HW2 1692   3.878   4.097   0.950
  265SOL     OW 1693   4.702   5.531   4.095
  265SOL    HW1 1694   4.708   5.445   4.145
  265SOL    HW2 1695   4.729   5.607   4.155
  266SOL     OW 1696   4.306   3.788   6.955
  266SOL    HW1 1697   4.323   3.796   0.032
  266SOL    HW2 1698   4.388   3.756   6.908
  267SOL     OW 1699   2.521   1.628   6.346
  267SOL    HW1 1700   2.610   1.631   6.390
  267SOL    HW2 1701   2.517   1.696   6.273
  268SOL     OW 1702   1.384   3.894   2.532
  268SOL    HW1 1703   1.352   3.943   2.451
  268SOL    HW2 1704   1.309   3.841   2.571
  269SOL     OW 1705   3.016   1.197   6.077
  269SOL    HW1 1706   3.062   1.129   6.019
  269SOL    HW2 1707   2.924   1.214   6.042
  270SOL     OW 1708   5.656   5.245   4.886
  270SOL    HW1 1709   5.667   5.343   4.870
  270SOL    HW2 1710   5.559   5.221   4.884
  271SOL     OW 1711   2.406   0.874   0.341
  271SOL    HW1 1712   2.347   0.954   0.330
  271SOL    HW2 1713   2.488   0.899   0.391
  272SOL     OW 1714   5.433   4.461   0.086
  272SOL    HW1 1715   5.485   4.430   0.006
  272SOL    HW2 1716   5.417   4.560   0.079
  273SOL     OW 1717   0.345   6.036   4.299
  273SOL    HW1 1718   0.289   6.020   4.218
  273SOL    HW2 1719   0.440   6.010   4.280
  274SOL     OW 1720   5.173   3.164   2.185
  274SOL    HW1 1721   5.150   3.173   2.088
  274SOL    HW2 1722   5.184   3.254   2.226
  275SOL     OW 1723   5.925   4.835   5.430
  275SOL    HW1 1724   5.875   4.789   5.357
  275SOL    HW2 1725   5.896   4.797   5.519
  276SOL     OW 1726   0.922   0.507   4.678
  276SOL    HW1 1727   0.879   0.465   4.598
  276SOL    HW2 1728   0.965   0.594   4.651
  277SOL     OW 1729   4.427   3.516   5.799
  277SOL    HW1 1730   4.361   3.499   5.872
  277SOL    HW2 1731   4.505   3.454   5.808
  278SOL     OW 1732   6.066   4.912   1.913
  278SOL    HW1 1733   6.071   4.938   1.817
  278SOL    HW2 1734   6.056   4.812   1.920
  279SOL     OW 1735   6.571   3.261   4.079
  279SOL    HW1 1736   6.660   3.305   4.074
  279SOL    HW2 1737   6.532   3.273   4.170
  280SOL     OW 1738   4.671   0.903   2.822
  280SOL    HW1 1739   4.613   0.985   2.828
  280SOL    HW2 1740   4.613   0.823   2.808
  281SOL     OW 1741   5.264   5.826   5.844
  281SOL    HW1 1742   5.353   5.780   5.841
  281SOL    HW2 1743   5.269   5.904   5.906
  282SOL     OW 1744   0.487   1.675   6.865
  282SOL    HW1 1745   0.504   1.763   6.820
  282SOL    HW2 1746   0.388   1.665   6.881
  283SOL     OW 1747   6.282   4.171   1.939
  283SOL    HW1 1748   6.206   4.187   2.001
  283SOL    HW2 1749   6.318   4.078   1.954
  284SOL     OW 1750   5.652   6.833   2.622
  284SOL    HW1 1751   5.716   6.862   2.693
  284SOL    HW2 1752   5.701   6.822   2.535
  285SOL     OW 1753   4.725   6.253   6.265
  285SOL    HW1 1754   4.817   6.288   6.285
  285SOL    HW2 1755   4.671   6.253   6.350
  286SOL     OW 1756   3.533   5.576   5.591
  286SOL    HW1 1757   3.481   5.661   5.585
  286SOL    HW2 1758   3.548   5.539   5.499
  287SOL     OW 1759   3.712   6.419   0.606
  287SOL    HW1 1760   3.770   6.433   0.686
  287SOL    HW2 1761   3.685   6.508   0.569
  288SOL     OW 1762   3.257   0.943   0.683
  288SOL    HW1 1763   3.249   0.942   0.783
  288SOL    HW2 1764   3.336   1.000   0.657
  289SOL     OW 1765   5.246   4.861   4.948
  289SOL    HW1 1766   5.170   4.862   5.013
  289SOL    HW2 1767   5.272   4.766   4.928
  290SOL     OW 1768   2.827   0.982   4.855
  290SOL    HW1 1769   2.743   0.931   4.873
  290SOL    HW2 1770   2.815   1.039   4.774
  291SOL     OW 1771   5.984   1.369   4.826
  291SOL    HW1 1772   6.016   1.302   4.759
  291SOL    HW2 1773   6.041   1.451   4.821
  292SOL     OW 1774   2.103   0.681   4.024
  292SOL    HW1 1775   2.115   0.625   3.942
  292SOL    HW2 1776   2.186   0.734   4.040
  293SOL     OW 1777   5.762   1.046   3.205
  293SOL    HW1 1778   5.760   1.133   3.255
  293SOL    HW2 1779   5.739   1.062   3.109
  294SOL     OW 1780   6.546   0.884   6.686
  294SOL    HW1 1781   6.569   0.787   6.678
  294SOL    HW2 1782   6.514   0.919   6.599
  295SOL     OW 1783   0.579   0.916   5.020
  295SOL    HW1 1784   0.627   1.001   5.000
  295SOL    HW2 1785   0.637   0.858   5.079
  296SOL     OW 1786   0.003   1.036   6.553
  296SOL    HW1 1787   0.042   1.002   6.468
  296SOL    HW2 1788   0.048   1.121   6.579
  297SOL     OW 1789   5.134   4.266   2.903
  297SOL    HW1 1790   5.040   4.299   2.908
  297SOL    HW2 1791   5.136   4.178   2.854
  298SOL     OW 1792   4.055   6.707   5.122
  298SOL    HW1 1793   3.956   6.697   5.125
  298SOL    HW2 1794   4.092   6.651   5.047
  299SOL     OW 1795   0.333   1.252   6.143
  299SOL    HW1 1796   0.385   1.218   6.065
  299SOL    HW2 1797   0.296   1.174   6.194
  300SOL     OW 1798   4.117   5.995   4.476
  300SOL    HW1 1799   4.048   5.996   4.548
  300SOL    HW2 1800   4.087   5.934   4.402
  301SOL     OW 1801   6.615   6.810   5.097
  301SOL    HW1 1802   6.621   6.721   5.142
  301SOL    HW2 1803   6.538   6.861   5.135
  302SOL     OW 1804   0.703   6.541   2.107
  302SOL    HW1 1805   0.770   6.595   2.055
  302SOL    HW2 1806   0.698   6.449   2.070
  303SOL     OW 1807   5.007   5.587   2.762
  303SOL    HW1 1808   4.963   5.501   2.734
  303SOL    HW2 1809   5.088   5.603   2.705
  304SOL     OW 1810   1.541   1.352   4.852
  304SOL    HW1 1811   1.626   1.403   4.859
  304SOL    HW2 1812   1.543   1.274   4.915
  305SOL     OW 1813   2.932   1.853   1.344
  305SOL    HW1 1814   3.006   1.798   1.305
  305SOL    HW2 1815   2.854   1.794   1.364
  306SOL     OW 1816   0.512   6.629   2.850
  306SOL    HW1 1817   0.422   6.661   2.878
  306SOL    HW2 1818   0.582   6.689   2.889
  307SOL     OW 1819   3.966   3.845   4.751
  307SOL    HW1 1820   4.043   3.813   4.696
  307SOL    HW2 1821   3.889   3.782   4.741
  308SOL     OW 1822   6.084   3.160   1.156
  308SOL    HW1 1823   6.153   3.099   1.115
  308SOL    HW2 1824   6.118   3.195   1.243
  309SOL     OW 1825   1.873   5.041   0.481
  309SOL    HW1 1826   1.918   5.125   0.512
  309SOL    HW2 1827   1.939   4.965   0.484
  310SOL     OW 1828   4.981   6.406   5.516
  310SOL    HW1 1829   5.033   6.491   5.523
  310SOL    HW2 1830   5.009   6.345   5.591
  311SOL     OW 1831   1.625   6.232   2.123
  311SOL    HW1 1832   1.702   6.290   2.148
  311SOL    HW2 1833   1.647   6.136   2.140
  312SOL     OW 1834   3.223   0.619   4.248
  312SOL    HW1 1835   3.185   0.645   4.159
  312SOL    HW2 1836   3.315   0.657   4.258
  313SOL     OW 1837   3.615   3.343   3.375
  313SOL    HW1 1838   3.531   3.386   3.341
  313SOL    HW2 1839   3.601   3.309   3.468
  314SOL     OW 1840   2.084   4.575   6.267
  314SOL    HW1 1841   2.126   4.605   6.352
  314SOL    HW2 1842   2.067   4.655   6.209
  315SOL     OW 1843   5.904   0.051   4.768
  315SOL    HW1 1844   5.806   0.051   4.746
  315SOL    HW2 1845   5.957   0.056   4.683
  316SOL     OW 1846   4.105   1.001   4.829
  316SOL    HW1 1847   4.150   1.055   4.901
  316SOL    HW2 1848   4.174   0.972   4.763
  317SOL     OW 1849   0.492   1.472   1.919
  317SOL    HW1 1850   0.550   1.543   1.879
  317SOL    HW2 1851   0.549   1.408   1.971
  318SOL     OW 1852   1.030   1.590   3.709
  318SOL    HW1 1853   1.095   1.592   3.785
  318SOL    HW2 1854   1.054   1.661   3.643
  319SOL     OW 1855   0.277   2.009   2.197
  319SOL    HW1 1856   0.181   1.983   2.205
  319SOL    HW2 1857   0.297   2.034   2.102
  320SOL     OW 1858   5.207   1.022   6.498
  320SOL    HW1 1859   5.115   0.985   6.512
  320SOL    HW2 1860   5.214   1.112   6.541
  321SOL     OW 1861   4.152   3.372   1.511
  321SOL    HW1 1862   4.241   3.378   1.556
  321SOL    HW2 1863   4.128   3.276   1.496
  322SOL     OW 1864   2.858   1.963   0.368
  322SOL    HW1 1865   2.795   1.888   0.349
  322SOL    HW2 1866   2.952   1.930   0.356
  323SOL     OW 1867   0.631   4.465   2.184
  323SOL    HW1 1868   0.622   4.490   2.280
  323SOL    HW2 1869   0.602   4.371   2.170
  324SOL     OW 1870   6.422   0.431   3.368
  324SOL    HW1 1871   6.322   0.431   3.368
  324SOL    HW2 1872   6.455   0.415   3.462
  325SOL     OW 1873   6.552   2.724   0.754
  325SOL    HW1 1874   6.481   2.694   0.690
  325SOL    HW2 1875   6.572   2.821   0.738
  326SOL     OW 1876   6.198   5.570   6.033
  326SOL    HW1 1877   6.258   5.650   6.035
  326SOL    HW2 1878   6.121   5.585   6.095
  327SOL     OW 1879   4.091   6.452   6.214
  327SOL    HW1 1880   4.051   6.361   6.225
  327SOL    HW2 1881   4.165   6.464   6.280
  328SOL     OW 1882   2.265   4.141   3.537
  328SOL    HW1 1883   2.319   4.207   3.588
  328SOL    HW2 1884   2.259   4.170   3.441
  329SOL     OW 1885   3.105   3.032   2.873
  329SOL    HW1 1886   3.086   2.992   2.784
  329SOL    HW2 1887   3.203   3.053   2.881
  330SOL     OW 1888   2.221   3.930   6.451
  330SOL    HW1 1889   2.295   3.870   6.482
  330SOL    HW2 1890   2.172   3.965   6.531
  331SOL     OW 1891   5.066   5.752   3.924
  331SOL    HW1 1892   5.088   5.726   4.018
  331SOL    HW2 1893   4.978   5.799   3.922
  332SOL     OW 1894   6.428   2.394   2.797
  332SOL    HW1 1895   6.363   2.466   2.822
  332SOL    HW2 1896   6.378   2.311   2.771
  333SOL     OW 1897   3.269   6.316   3.754
  333SOL    HW1 1898   3.203   6.386   3.782
  333SOL    HW2 1899   3.342   6.359   3.700
  334SOL     OW 1900   3.775   3.339   4.640
  334SOL    HW1 1901   3.713   3.290   4.701
  334SOL    HW2 1902   3.856   3.284   4.624
  335SOL     OW 1903   4.138   1.161   0.394
  335SOL    HW1 1904   4.171   1.235   0.453
  335SOL    HW2 1905   4.216   1.117   0.349
  336SOL     OW 1906   3.802   2.116   4.832
  336SOL    HW1 1907   3.805   2.165   4.919
  336SOL    HW2 1908   3.709   2.115   4.797
  337SOL     OW 1909   1.121   1.938   5.180
  337SOL    HW1 1910   1.162   1.993   5.254
  337SOL    HW2 1911   1.115   1.994   5.097
  338SOL     OW 1912   5.008   1.463   1.823
  338SOL    HW1 1913   5.025   1.447   1.920
  338SOL    HW2 1914   4.909   1.468   1.807
  339SOL     OW 1915   3.454   4.873   5.645
  339SOL    HW1 1916   3.385   4.939   5.674
  339SOL    HW2 1917   3.484   4.894   5.551
  340SOL     OW 1918   5.532   3.984   4.713
  340SOL    HW1 1919   5.501   3.944   4.799
  340SOL    HW2 1920   5.456   3.986   4.648
  341SOL     OW 1921   6.198   0.391   1.656
  341SOL    HW1 1922   6.175   0.478   1.699
  341SOL    HW2 1923   6.244   0.332   1.723
  342SOL     OW 1924   4.806   0.995   1.471
  342SOL    HW1 1925   4.731   0.930   1.463
  342SOL    HW2 1926   4.812   1.050   1.388
  343SOL     OW 1927   5.632   0.620   1.864
  343SOL    HW1 1928   5.635   0.620   1.764
  343SOL    HW2 1929   5.541   0.593   1.894
  344SOL     OW 1930   6.426   2.767   1.380
  344SOL    HW1 1931   6.424   2.720   1.292
  344SOL    HW2 1932   6.429   2.866   1.366
  345SOL     OW 1933   0.453   3.296   3.688
  345SOL    HW1 1934   0.372   3.354   3.687
  345SOL    HW2 1935   0.486   3.282   3.595
  346SOL     OW 1936   0.769   0.183   3.171
  346SOL    HW1 1937   0.815   0.095   3.187
  346SOL    HW2 1938   0.816   0.232   3.098
  347SOL     OW 1939   1.987   4.095   1.641
  347SOL    HW1 1940   1.990   4.020   1.574
  347SOL    HW2 1941   1.898   4.140   1.637
  348SOL     OW 1942   5.758   5.034   1.042
  348SOL    HW1 1943   5.850   5.064   1.018
  348SOL    HW2 1944   5.763   4.949   1.095
  349SOL     OW 1945   5.887   5.463   6.963
  349SOL    HW1 1946   5.829   5.503   6.892
  349SOL    HW2 1947   5.833   5.401   7.019
  350SOL     OW 1948   2.140   0.125   0.990
  350SOL    HW1 1949   2.143   0.146   0.893
  350SOL    HW2 1950   2.208   0.055   1.011
  351SOL     OW 1951   3.661   4.269   1.096
  351SOL    HW1 1952   3.725   4.245   1.023
  351SOL    HW2 1953   3.642   4.188   1.152
  352SOL     OW 1954   3.785   0.768   2.194
  352SOL    HW1 1955   3.837   0.691   2.232
  352SOL    HW2 1956   3.725   0.735   2.122
  353SOL     OW 1957   2.841   6.236   0.540
  353SOL    HW1 1958   2.844   6.184   0.455
  353SOL    HW2 1959   2.750   6.231   0.579
  354SOL     OW 1960   2.144   2.281   0.354
  354SOL    HW1 1961   2.155   2.183   0.366
  354SOL    HW2 1962   2.233   2.326   0.363
  355SOL     OW 1963   0.317   2.415   2.162
  355SOL    HW1 1964   0.237   2.474   2.152
  355SOL    HW2 1965   0.345   2.381   2.072
  356SOL     OW 1966   3.119   0.131   5.948
  356SOL    HW1 1967   3.100   0.061   5.880
  356SOL    HW2 1968   3.217   0.147   5.954
  357SOL     OW 1969   6.332   6.045   4.615
  357SOL    HW1 1970   6.367   6.085   4.530
  357SOL    HW2 1971   6.268   6.109   4.658
  358SOL     OW 1972   3.543   5.828   0.212
  358SOL    HW1 1973   3.503   5.736   0.216
  358SOL    HW2 1974   3.603   5.835   0.132
  359SOL     OW 1975   1.855   2.403   0.806
  359SOL    HW1 1976   1.854   2.463   0.886
  359SOL    HW2 1977   1.888   2.453   0.726
  360SOL     OW 1978   2.099   4.160   2.915
  360SOL    HW1 1979   2.054   4.077   2.884
  360SOL    HW2 1980   2.177   4.181   2.856
  361SOL     OW 1981   6.325   3.221   2.292
  361SOL    HW1 1982   6.254   3.184   2.352
  361SOL    HW2 1983   6.367   3.301   2.336
  362SOL     OW 1984   4.089   3.500   3.097
  362SOL    HW1 1985   4.076   3.545   3.008
  362SOL    HW2 1986   4.109   3.570   3.166
  363SOL     OW 1987   4.860   5.097   0.758
  363SOL    HW1 1988   4.843   5.104   0.857
  363SOL    HW2 1989   4.842   5.003   0.728
  364SOL     OW 1990   1.194   0.788   0.448
  364SOL    HW1 1991   1.260   0.796   0.522
  364SOL    HW2 1992   1.144   0.702   0.455
  365SOL     OW 1993   4.806   0.223   4.062
  365SOL    HW1 1994   4.831   0.244   4.157
  365SOL    HW2 1995   4.798   0.308   4.010
  366SOL     OW 1996   5.187   1.688   0.159
  366SOL    HW1 1997   5.202   1.776   0.114
  366SOL    HW2 1998   5.274   1.652   0.192
  367SOL     OW 1999   6.105   0.157   6.782
  367SOL    HW1 2000   6.126   0.060   6.788
  367SOL    HW2 2001   6.006   0.170   6.776
  368SOL     OW 2002   2.627   1.346   5.750
  368SOL    HW1 2003   2.644   1.344   5.652
  368SOL    HW2 2004   2.528   1.350   5.766
  369SOL     OW 2005   4.980   3.671   0.315
  369SOL    HW1 2006   4.990   3.708   0.408
  369SOL    HW2 2007   5.063   3.691   0.262
  370SOL     OW 2008   1.852   2.056   3.525
  370SOL    HW1 2009   1.780   1.994   3.556
  370SOL    HW2 2010   1.938   2.005   3.517
  371SOL     OW 2011   3.084   4.658   0.585
  371SOL    HW1 2012   3.060   4.577   0.531
  371SOL    HW2 2013   3.010   4.677   0.650
  372SOL     OW 2014   2.901   6.164   6.016
  372SOL    HW1 2015   2.937   6.248   6.056
  372SOL    HW2 2016   2.846   6.186   5.935
  373SOL     OW 2017   5.545   4.316   2.819
  373SOL    HW1 2018   5.471   4.296   2.754
  373SOL    HW2 2019   5.562   4.236   2.877
  374SOL     OW 2020   2.478   2.475   2.226
  374SOL    HW1 2021   2.415   2.398   2.226
  374SOL    HW2 2022   2.439   2.550   2.280
  375SOL     OW 2023   0.069   5.346   3.621
  375SOL    HW1 2024   0.055   5.384   3.712
  375SOL    HW2 2025   0.167   5.335   3.605
  376SOL     OW 2026   4.545   0.763   3.601
  376SOL    HW1 2027   4.632   0.811   3.615
  376SOL    HW2 2028   4.559   0.685   3.540
  377SOL     OW 2029   2.690   3.212   6.126
  377SOL    HW1 2030   2.615   3.277   6.138
  377SOL    HW2 2031   2.734   3.227   6.038
  378SOL     OW 2032   4.181   0.564   1.238
  378SOL    HW1 2033   4.139   0.593   1.153
  378SOL    HW2 2034   4.224   0.474   1.225
  379SOL     OW 2035   3.280   3.403   0.189
  379SOL    HW1 2036   3.186   3.376   0.207
  379SOL    HW2 2037   3.334   3.393   0.273
  380SOL     OW 2038   4.661   1.831   0.133
  380SOL    HW1 2039   4.597   1.812   0.207
  380SOL    HW2 2040   4.719   1.908   0.159
  381SOL     OW 2041   0.694   3.324   2.322
  381SOL    HW1 2042   0.624   3.256   2.298
  381SOL    HW2 2043   0.781   3.278   2.340
  382SOL     OW 2044   6.192   0.391   0.862
  382SOL    HW1 2045   6.180   0.397   0.762
  382SOL    HW2 2046   6.219   0.298   0.887
  383SOL     OW 2047   5.380   3.423   1.073
  383SOL    HW1 2048   5.441   3.431   0.994
  383SOL    HW2 2049   5.405   3.491   1.142
  384SOL     OW 2050   1.026   2.781   4.929
  384SOL    HW1 2051   1.103   2.822   4.977
  384SOL    HW2 2052   1.055   2.752   4.838
  385SOL     OW 2053   4.666   3.099   6.800
  385SOL    HW1 2054   4.586   3.100   6.740
  385SOL    HW2 2055   4.735   3.036   6.763
  386SOL     OW 2056   3.204   5.861   5.333
  386SOL    HW1 2057   3.178   5.954   5.307
  386SOL    HW2 2058   3.152   5.795   5.279
  387SOL     OW 2059   2.280   6.532   3.697
  387SOL    HW1 2060   2.301   6.610   3.637
  387SOL    HW2 2061   2.296   6.447   3.648
  388SOL     OW 2062   1.227   5.743   5.614
  388SOL    HW1 2063   1.248   5.645   5.604
  388SOL    HW2 2064   1.277   5.794   5.544
  389SOL     OW 2065   3.423   2.309   7.002
  389SOL    HW1 2066   3.353   2.238   7.000
  389SOL    HW2 2067   3.512   2.268   6.979
  390SOL     OW 2068   3.326   1.406   4.022
  390SOL    HW1 2069   3.229   1.415   4.045
  390SOL    HW2 2070   3.378   1.477   4.069
  391SOL     OW 2071   0.569   1.498   0.338
  391SOL    HW1 2072   0.505   1.432   0.378
  391SOL    HW2 2073   0.522   1.550   0.267
  392SOL     OW 2074   4.331   5.646   4.313
  392SOL    HW1 2075   4.363   5.552   4.296
  392SOL    HW2 2076   4.403   5.711   4.289
  393SOL     OW 2077   6.015   3.110   5.948
  393SOL    HW1 2078   5.966   3.185   5.904
  393SOL    HW2 2079   6.036   3.040   5.880
  394SOL     OW 2080   1.949   1.313   6.554
  394SOL    HW1 2081   1.897   1.396   6.534
  394SOL    HW2 2082   2.036   1.316   6.504
  395SOL     OW 2083   0.119   3.246   1.123
  395SOL    HW1 2084   0.171   3.161   1.126
  395SOL    HW2 2085   0.152   3.302   1.047
  396SOL     OW 2086   3.991   2.809   5.623
  396SOL    HW1 2087   3.993   2.883   5.556
  396SOL    HW2 2088   3.932   2.735   5.589
  397SOL     OW 2089   4.734   0.126   6.349
  397SOL    HW1 2090   4.700   0.163   6.263
  397SOL    HW2 2091   4.691   0.174   6.425
  398SOL     OW 2092   6.384   4.154   2.592
  398SOL    HW1 2093   6.308   4.134   2.530
  398SOL    HW2 2094   6.371   4.104   2.677
  399SOL     OW 2095   3.015   5.667   1.389
  399SOL    HW1 2096   2.974   5.759   1.391
  399SOL    HW2 2097   2.950   5.604   1.347
  400SOL     OW 2098   2.241   4.335   5.885
  400SOL    HW1 2099   2.320   4.361   5.831
  400SOL    HW2 2100   2.212   4.243   5.860
  401SOL     OW 2101   6.137   1.349   1.463
  401SOL    HW1 2102   6.220   1.316   1.508
  401SOL    HW2 2103   6.062   1.287   1.483
  402SOL     OW 2104   0.603   5.637   0.743
  402SOL    HW1 2105   0.548   5.565   0.786
  402SOL    HW2 2106   0.649   5.690   0.814
  403SOL     OW 2107   5.122   4.820   0.583
  403SOL    HW1 2108   5.117   4.893   0.652
  403SOL    HW2 2109   5.102   4.858   0.493
  404SOL     OW 2110   0.096   5.832   4.997
  404SOL    HW1 2111   0.179   5.788   4.963
  404SOL    HW2 2112   0.094   5.825   5.097
  405SOL     OW 2113   1.123   1.197   1.465
  405SOL    HW1 2114   1.036   1.245   1.464
  405SOL    HW2 2115   1.166   1.206   1.555
  406SOL     OW 2116   1.002   2.927   3.955
  406SOL    HW1 2117   0.919   2.943   3.902
  406SOL    HW2 2118   1.081   2.931   3.893
  407SOL     OW 2119   3.290   2.130   3.781
  407SOL    HW1 2120   3.204   2.140   3.832
  407SOL    HW2 2121   3.274   2.148   3.684
  408SOL     OW 2122   2.411   0.359   3.721
  408SOL    HW1 2123   2.459   0.419   3.785
  408SOL    HW2 2124   2.375   0.280   3.769
  409SOL     OW 2125   0.064   4.560   4.385
  409SOL    HW1 2126   0.161   4.560   4.410
  409SOL    HW2 2127   0.010   4.532   4.465
  410SOL     OW 2128   2.625   6.408   5.897
  410SOL    HW1 2129   2.597   6.392   5.992
  410SOL    HW2 2130   2.544   6.411   5.839
  411SOL     OW 2131   0.109   4.208   5.609
  411SOL    HW1 2132   0.112   4.161   5.697
  411SOL    HW2 2133   0.201   4.210   5.569
  412SOL     OW 2134   3.487   6.476   2.796
  412SOL    HW1 2135   3.481   6.510   2.703
  412SOL    HW2 2136   3.397   6.445   2.827
  413SOL     OW 2137   1.907   0.537   1.991
  413SOL    HW1 2138   1.935   0.615   1.934
  413SOL    HW2 2139   1.914   0.563   2.088
  414SOL     OW 2140   5.234   4.796   1.218
  414SOL    HW1 2141   5.258   4.719   1.277
  414SOL    HW2 2142   5.236   4.767   1.123
  415SOL     OW 2143   3.892   0.058   2.991
  415SOL    HW1 2144   3.975   0.035   2.939
  415SOL    HW2 2145   3.821   7.012   2.969
  416SOL     OW 2146   3.802   5.819   0.065
  416SOL    HW1 2147   3.847   5.746   0.117
  416SOL    HW2 2148   3.831   5.814   6.991
  417SOL     OW 2149   5.232   5.281   0.929
  417SOL    HW1 2150   5.134   5.305   0.929
  417SOL    HW2 2151   5.247   5.204   0.991
  418SOL     OW 2152   0.000   5.253   6.458
  418SOL    HW1 2153   6.991   5.262   6.553
  418SOL    HW2 2154   0.049   5.167   6.446
  419SOL     OW 2155   4.889   5.455   6.484
  419SOL    HW1 2156   4.984   5.446   6.453
  419SOL    HW2 2157   4.887   5.510   6.568
  420SOL     OW 2158   5.643   3.899   6.806
  420SOL    HW1 2159   5.578   3.922   6.878
  420SOL    HW2 2160   5.592   3.869   6.724
  421SOL     OW 2161   1.608   6.133   6.188
  421SOL    HW1 2162   1.658   6.096   6.110
  421SOL    HW2 2163   1.514   6.097   6.188
  422SOL     OW 2164   6.321   3.755   6.508
  422SOL    HW1 2165   6.256   3.751   6.583
  422SOL    HW2 2166   6.275   3.787   6.425
  423SOL     OW 2167   1.091   3.463   6.280
  423SOL    HW1 2168   1.001   3.424   6.260
  423SOL    HW2 2169   1.150   3.455   6.199
  424SOL     OW 2170   2.160   4.365   6.144
  424SOL    HW1 2171   2.130   4.457   6.168
  424SOL    HW2 2172   2.199   4.365   6.052
  425SOL     OW 2173   2.577   0.731   0.706
  425SOL    HW1 2174   2.634   0.710   0.626
  425SOL    HW2 2175   2.481   0.732   0.679
  426SOL     OW 2176   0.731   3.593   0.474
  426SOL    HW1 2177   0.696   3.566   0.384
  426SOL    HW2 2178   0.714   3.520   0.540
  427SOL     OW 2179   3.745   2.995   0.158
  427SOL    HW1 2180   3.669   3.058   0.170
  427SOL    HW2 2181   3.739   2.921   0.225
  428SOL     OW 2182   3.978   1.396   4.736
  428SOL    HW1 2183   3.910   1.342   4.786
  428SOL    HW2 2184   3.950   1.492   4.736
  429SOL     OW 2185   3.913   6.420   0.201
  429SOL    HW1 2186   3.958   6.402   0.114
  429SOL    HW2 2187   3.835   6.482   0.187
  430SOL     OW 2188   3.050   0.793   4.544
  430SOL    HW1 2189   3.031   0.789   4.642
  430SOL    HW2 2190   3.115   0.867   4.526
  431SOL     OW 2191   3.812   0.940   6.821
  431SOL    HW1 2192   3.859   0.869   6.873
  431SOL    HW2 2193   3.773   1.008   6.884
  432SOL     OW 2194   6.328   1.447   1.122
  432SOL    HW1 2195   6.403   1.384   1.143
  432SOL    HW2 2196   6.366   1.532   1.085
  433SOL     OW 2197   3.287   6.165   5.042
  433SOL    HW1 2198   3.221   6.172   5.117
  433SOL    HW2 2199   3.249   6.207   4.960
  434SOL     OW 2200   6.312   3.109   0.735
  434SOL    HW1 2201   6.304   3.199   0.691
  434SOL    HW2 2202   6.400   3.068   0.712
  435SOL     OW 2203   3.783   3.347   0.719
  435SOL    HW1 2204   3.872   3.386   0.744
  435SOL    HW2 2205   3.757   3.279   0.788
  436SOL     OW 2206   2.492   1.344   1.132
  436SOL    HW1 2207   2.408   1.385   1.166
  436SOL    HW2 2208   2.481   1.319   1.036
  437SOL     OW 2209   6.295   6.423   6.019
  437SOL    HW1 2210   6.282   6.485   5.941
  437SOL    HW2 2211   6.218   6.360   6.024
  438SOL     OW 2212   1.292   3.493   0.628
  438SOL    HW1 2213   1.333   3.582   0.645
  438SOL    HW2 2214   1.238   3.465   0.707
  439SOL     OW 2215   6.012   5.071   1.656
  439SOL    HW1 2216   5.921   5.075   1.613
  439SOL    HW2 2217   6.075   5.129   1.604
  440SOL     OW 2218   1.439   3.283   2.510
  440SOL    HW1 2219   1.519   3.307   2.565
  440SOL    HW2 2220   1.356   3.307   2.561
  441SOL     OW 2221   7.003   1.298   3.235
  441SOL    HW1 2222   0.006   1.232   3.306
  441SOL    HW2 2223   7.002   1.390   3.274
  442SOL     OW 2224   1.332   5.186   6.216
  442SOL    HW1 2225   1.373   5.096   6.213
  442SOL    HW2 2226   1.302   5.207   6.309
  443SOL     OW 2227   0.329   4.718   5.997
  443SOL    HW1 2228   0.303   4.630   6.037
  443SOL    HW2 2229   0.257   4.785   6.015
  444SOL     OW 2230   5.107   3.210   6.785
  444SOL    HW1 2231   5.061   3.286   6.740
  444SOL    HW2 2232   5.162   3.244   6.861
  445SOL     OW 2233   1.382   3.563   3.303
  445SOL    HW1 2234   1.384   3.629   3.378
  445SOL    HW2 2235   1.439   3.485   3.327
  446SOL     OW 2236   2.121   4.914   4.172
  446SOL    HW1 2237   2.098   4.877   4.081
  446SOL    HW2 2238   2.050   4.889   4.237
  447SOL     OW 2239   0.768   6.207   0.566
  447SOL    HW1 2240   0.727   6.191   0.656
  447SOL    HW2 2241   0.696   6.219   0.498
  448SOL     OW 2242   4.417   0.487   5.506
  448SOL    HW1 2243   4.320   0.494   5.484
  448SOL    HW2 2244   4.442   0.561   5.569
  449SOL     OW 2245   5.493   0.599   4.862
  449SOL    HW1 2246   5.577   0.640   4.827
  449SOL    HW2 2247   5.429   0.585   4.787
  450SOL     OW 2248   6.783   6.024   2.868
  450SOL    HW1 2249   6.798   6.122   2.863
  450SOL    HW2 2250   6.870   5.978   2.887
  451SOL     OW 2251   5.924   3.989   3.702
  451SOL    HW1 2252   5.967   4.076   3.676
  451SOL    HW2 2253   5.959   3.960   3.791
  452SOL     OW 2254   6.555   4.842   5.640
  452SOL    HW1 2255   6.597   4.914   5.694
  452SOL    HW2 2256   6.612   4.822   5.560
  453SOL     OW 2257   3.581   1.633   6.445
  453SOL    HW1 2258   3.651   1.703   6.458
  453SOL    HW2 2259   3.537   1.647   6.356
  454SOL     OW 2260   0.970   6.427   0.510
  454SOL    HW1 2261   1.050   6.368   0.511
  454SOL    HW2 2262   0.888   6.372   0.524
  455SOL     OW 2263   5.106   1.552   5.069
  455SOL    HW1 2264   5.163   1.632   5.091
  455SOL    HW2 2265   5.159   1.488   5.013
  456SOL     OW 2266   4.183   5.234   0.459
  456SOL    HW1 2267   4.140   5.314   0.499
  456SOL    HW2 2268   4.147   5.220   0.366
  457SOL     OW 2269   0.651   4.471   1.643
  457SOL    HW1 2270   0.712   4.523   1.703
  457SOL    HW2 2271   0.638   4.520   1.557
  458SOL     OW 2272   0.590   6.310   5.516
  458SOL    HW1 2273   0.677   6.304   5.468
  458SOL    HW2 2274   0.553   6.402   5.506
  459SOL     OW 2275   1.355   0.476   3.560
  459SOL    HW1 2276   1.327   0.536   3.485
  459SOL    HW2 2277   1.332   0.381   3.537
  460SOL     OW 2278   6.394   2.390   3.090
  460SOL    HW1 2279   6.403   2.362   2.994
  460SOL    HW2 2280   6.328   2.464   3.097
  461SOL     OW 2281   5.388   4.758   5.796
  461SOL    HW1 2282   5.303   4.805   5.772
  461SOL    HW2 2283   5.447   4.751   5.716
  462SOL     OW 2284   3.206   2.490   0.072
  462SOL    HW1 2285   3.124   2.442   0.040
  462SOL    HW2 2286   3.287   2.447   0.033
  463SOL     OW 2287   6.116   6.154   2.293
  463SOL    HW1 2288   6.174   6.214   2.348
  463SOL    HW2 2289   6.169   6.076   2.260
  464SOL     OW 2290   1.903   2.067   5.867
  464SOL    HW1 2291   1.903   1.987   5.926
  464SOL    HW2 2292   1.810   2.086   5.835
  465SOL     OW 2293   0.302   3.551   6.369
  465SOL    HW1 2294   0.240   3.628   6.354
  465SOL    HW2 2295   0.262   3.468   6.330
  466SOL     OW 2296   1.829   0.481   3.676
  466SOL    HW1 2297   1.857   0.542   3.603
  466SOL    HW2 2298   1.730   0.485   3.687
  467SOL     OW 2299   1.713   1.618   4.903
  467SOL    HW1 2300   1.650   1.695   4.914
  467SOL    HW2 2301   1.803   1.645   4.937
  468SOL     OW 2302   2.985   3.750   3.449
  468SOL    HW1 2303   2.968   3.742   3.547
  468SOL    HW2 2304   2.931   3.682   3.399
  469SOL     OW 2305   3.493   6.987   6.619
  469SOL    HW1 2306   3.577   6.970   6.567
  469SOL    HW2 2307   3.413   6.964   6.563
  470SOL     OW 2308   4.686   7.003   3.162
  470SOL    HW1 2309   4.676   0.055   3.094
  470SOL    HW2 2310   4.759   0.006   3.226
  471SOL     OW 2311   2.684   2.350   3.983
  471SOL    HW1 2312   2.760   2.306   4.029
  471SOL    HW2 2313   2.598   2.318   4.023
  472SOL     OW 2314   3.970   4.363   5.281
  472SOL    HW1 2315   4.059   4.396   5.249
  472SOL    HW2 2316   3.950   4.274   5.240
  473SOL     OW 2317   0.163   4.448   3.914
  473SOL    HW1 2318   0.255   4.483   3.934
  473SOL    HW2 2319   0.096   4.496   3.971
  474SOL     OW 2320   4.842   4.555   5.663
  474SOL    HW1 2321   4.821   4.649   5.687
  474SOL    HW2 2322   4.793   4.531   5.579
  475SOL     OW 2323   2.474   6.160   0.242
  475SOL    HW1 2324   2.567   6.137   0.213
  475SOL    HW2 2325   2.449   6.249   0.205
  476SOL     OW 2326   6.294   5.779   3.196
  476SOL    HW1 2327   6.272   5.681   3.200
  476SOL    HW2 2328   6.316   5.804   3.101
  477SOL     OW 2329   1.960   4.608   4.191
  477SOL    HW1 2330   2.026   4.622   4.117
  477SOL    HW2 2331   1.976   4.519   4.234
  478SOL     OW 2332   1.296   5.064   3.501
  478SOL    HW1 2333   1.307   4.967   3.521
  478SOL    HW2 2334   1.373   5.115   3.540
  479SOL     OW 2335   4.587   1.895   2.126
  479SOL    HW1 2336   4.496   1.916   2.092
  479SOL    HW2 2337   4.596   1.927   2.221
  480SOL     OW 2338   1.581   6.345   3.934
  480SOL    HW1 2339   1.592   6.417   3.865
  480SOL    HW2 2340   1.501   6.289   3.911
  481SOL     OW 2341   1.916   0.156   1.243
  481SOL    HW1 2342   1.818   0.146   1.223
  481SOL    HW2 2343   1.969   0.127   1.164
  482SOL     OW 2344   5.231   5.496   0.444
  482SOL    HW1 2345   5.259   5.478   0.539
  482SOL    HW2 2346   5.183   5.417   0.408
  483SOL     OW 2347   5.421   2.242   2.901
  483SOL    HW1 2348   5.515   2.266   2.925
  483SOL    HW2 2349   5.414   2.231   2.802
  484SOL     OW 2350   6.567   1.683   3.898
  484SOL    HW1 2351   6.570   1.705   3.995
  484SOL    HW2 2352   6.490   1.731   3.855
  485SOL     OW 2353   2.533   5.852   1.386
  485SOL    HW1 2354   2.507   5.948   1.391
  485SOL    HW2 2355   2.585   5.827   1.468
  486SOL     OW 2356   0.241   0.723   5.853
  486SOL    HW1 2357   0.341   0.727   5.855
  486SOL    HW2 2358   0.205   0.737   5.945
  487SOL     OW 2359   0.089   2.402   6.581
  487SOL    HW1 2360   0.021   2.474   6.568
  487SOL    HW2 2361   0.124   2.373   6.491
  488SOL     OW 2362   1.051   4.839   2.657
  488SOL    HW1 2363   1.075   4.776   2.583
  488SOL    HW2 2364   1.070   4.796   2.745
  489SOL     OW 2365   3.434   5.651   6.086
  489SOL    HW1 2366   3.472   5.700   6.164
  489SOL    HW2 2367   3.494   5.664   6.007
  490SOL     OW 2368   5.463   0.028   4.057
  490SOL    HW1 2369   5.406   0.087   4.115
  490SOL    HW2 2370   5.434   0.037   3.961
  491SOL     OW 2371   0.884   2.686   3.459
  491SOL    HW1 2372   0.908   2.591   3.441
  491SOL    HW2 2373   0.966   2.739   3.476
  492SOL     OW 2374   1.853   1.353   4.772
  492SOL    HW1 2375   1.947   1.373   4.744
  492SOL    HW2 2376   1.790   1.388   4.703
  493SOL     OW 2377   6.173   4.084   4.342
  493SOL    HW1 2378   6.120   4.017   4.393
  493SOL    HW2 2379   6.160   4.175   4.383
  494SOL     OW 2380   5.866   1.025   6.767
  494SOL    HW1 2381   5.770   1.052   6.780
  494SOL    HW2 2382   5.902   1.071   6.686
  495SOL     OW 2383   5.029   4.346   0.331
  495SOL    HW1 2384   5.123   4.312   0.341
  495SOL    HW2 2385   5.018   4.429   0.385
  496SOL     OW 2386   5.895   3.401   2.359
  496SOL    HW1 2387   5.852   3.326   2.310
  496SOL    HW2 2388   5.828   3.447   2.417
  497SOL     OW 2389   4.116   6.799   4.169
  497SOL    HW1 2390   4.125   6.732   4.095
  497SOL    HW2 2391   4.181   6.776   4.242
  498SOL     OW 2392   1.162   3.099   0.870
  498SOL    HW1 2393   1.195   3.016   0.825
  498SOL    HW2 2394   1.190   3.099   0.966
  499SOL     OW 2395   3.708   1.348   4.865
  499SOL    HW1 2396   3.680   1.297   4.946
  499SOL    HW2 2397   3.712   1.446   4.886
  500SOL     OW 2398   1.302   4.351   2.796
  500SOL    HW1 2399   1.261   4.320   2.710
  500SOL    HW2 2400   1.380   4.410   2.776
  501SOL     OW 2401   0.340   5.030   6.438
  501SOL    HW1 2402   0.398   5.018   6.518
  501SOL    HW2 2403   0.395   5.063   6.361
  502SOL     OW 2404   2.362   5.284   6.332
  502SOL    HW1 2405   2.343   5.259   6.427
  502SOL    HW2 2406   2.451   5.328   6.326
  503SOL     OW 2407   6.761   5.154   4.646
  503SOL    HW1 2408   6.735   5.069   4.691
  503SOL    HW2 2409   6.759   5.140   4.547
  504SOL     OW 2410   1.317   5.017   4.583
  504SOL    HW1 2411   1.325   5.106   4.628
  504SOL    HW2 2412   1.236   4.969   4.617
  505SOL     OW 2413   3.493   6.745   5.196
  505SOL    HW1 2414   3.451   6.826   5.154
  505SOL    HW2 2415   3.526   6.767   5.288
  506SOL     OW 2416   1.993   3.228   0.677
  506SOL    HW1 2417   1.930   3.216   0.754
  506SOL    HW2 2418   2.087   3.209   0.707
  507SOL     OW 2419   3.939   2.061   4.592
  507SOL    HW1 2420   3.878   1.993   4.553
  507SOL    HW2 2421   3.899   2.098   4.675
  508SOL     OW 2422   6.406   5.205   4.416
  508SOL    HW1 2423   6.439   5.208   4.322
  508SOL    HW2 2424   6.306   5.213   4.417
  509SOL     OW 2425   4.824   3.117   1.653
  509SOL    HW1 2426   4.767   3.084   1.728
  509SOL    HW2 2427   4.767   3.143   1.576
  510SOL     OW 2428   0.981   4.231   4.110
  510SOL    HW1 2429   0.969   4.136   4.084
  510SOL    HW2 2430   1.037   4.278   4.041
  511SOL     OW 2431   0.498   5.898   1.343
  511SOL    HW1 2432   0.530   5.871   1.253
  511SOL    HW2 2433   0.573   5.889   1.409
  512SOL     OW 2434   1.695   3.592   6.035
  512SOL    HW1 2435   1.782   3.556   6.068
  512SOL    HW2 2436   1.633   3.606   6.113
  513SOL     OW 2437   0.849   5.001   4.014
  513SOL    HW1 2438   0.759   4.981   3.976
  513SOL    HW2 2439   0.870   5.098   4.000
  514SOL     OW 2440   5.019   1.773   3.534
  514SOL    HW1 2441   5.093   1.838   3.521
  514SOL    HW2 2442   5.002   1.760   3.632
  515SOL     OW 2443   2.995   5.629   0.193
  515SOL    HW1 2444   3.086   5.620   0.234
  515SOL    HW2 2445   3.005   5.657   0.097
  516SOL     OW 2446   1.509   4.342   3.744
  516SOL    HW1 2447   1.443   4.271   3.716
  516SOL    HW2 2448   1.592   4.298   3.777
  517SOL     OW 2449   4.812   0.308   5.986
  517SOL    HW1 2450   4.828   0.369   5.908
  517SOL    HW2 2451   4.729   0.255   5.970
  518SOL     OW 2452   1.628   1.228   7.017
  518SOL    HW1 2453   1.552   1.168   6.994
  518SOL    HW2 2454   1.715   1.186   6.991
  519SOL     OW 2455   1.155   6.428   6.977
  519SOL    HW1 2456   1.248   6.412   6.944
  519SOL    HW2 2457   1.089   6.402   6.907
  520SOL     OW 2458   6.240   4.430   4.333
  520SOL    HW1 2459   6.313   4.499   4.331
  520SOL    HW2 2460   6.165   4.463   4.390
  521SOL     OW 2461   6.785   0.900   0.290
  521SOL    HW1 2462   6.697   0.867   0.255
  521SOL    HW2 2463   6.800   0.994   0.260
  522SOL     OW 2464   3.326   3.937   5.626
  522SOL    HW1 2465   3.274   3.874   5.568
  522SOL    HW2 2466   3.323   4.029   5.588
  523SOL     OW 2467   6.708   0.111   3.707
  523SOL    HW1 2468   6.738   0.017   3.693
  523SOL    HW2 2469   6.695   0.155   3.618
  524SOL     OW 2470   4.480   0.606   4.673
  524SOL    HW1 2471   4.561   0.649   4.713
  524SOL    HW2 2472   4.421   0.573   4.746
  525SOL     OW 2473   3.505   2.658   6.863
  525SOL    HW1 2474   3.506   2.746   6.816
  525SOL    HW2 2475   3.491   2.672   6.961
  526SOL     OW 2476   4.568   5.873   4.662
  526SOL    HW1 2477   4.475   5.851   4.690
  526SOL    HW2 2478   4.623   5.895   4.742
  527SOL     OW 2479   0.765   1.746   0.116
  527SOL    HW1 2480   0.695   1.677   0.136
  527SOL    HW2 2481   0.851   1.701   0.093
  528SOL     OW 2482   1.820   1.965   6.325
  528SOL    HW1 2483   1.909   1.998   6.294
  528SOL    HW2 2484   1.822   1.953   6.425
  529SOL     OW 2485   7.009   5.430   4.176
  529SOL    HW1 2486   6.967   5.431   4.267
  529SOL    HW2 2487   6.963   5.497   4.118
  530SOL     OW 2488   0.197   2.784   5.166
  530SOL    HW1 2489   0.190   2.884   5.165
  530SOL    HW2 2490   0.272   2.757   5.225
  531SOL     OW 2491   6.900   0.523   0.053
  531SOL    HW1 2492   6.905   0.423   0.057
  531SOL    HW2 2493   6.906   0.553   6.979
  532SOL     OW 2494   1.996   1.285   5.875
  532SOL    HW1 2495   1.991   1.215   5.947
  532SOL    HW2 2496   1.913   1.282   5.820
  533SOL     OW 2497   4.466   0.540   5.230
  533SOL    HW1 2498   4.458   0.479   5.309
  533SOL    HW2 2499   4.452   0.634   5.260
  534SOL     OW 2500   2.732   5.441   2.901
  534SOL    HW1 2501   2.761   5.370   2.965
  534SOL    HW2 2502   2.651   5.488   2.937
  535SOL     OW 2503   6.217   4.201   1.656
  535SOL    HW1 2504   6.195   4.180   1.751
  535SOL    HW2 2505   6.177   4.131   1.596
  536SOL     OW 2506   1.757   5.877   1.130
  536SOL    HW1 2507   1.773   5.971   1.159
  536SOL    HW2 2508   1.834   5.846   1.074
  537SOL     OW 2509   2.374   6.784   3.004
  537SOL    HW1 2510   2.374   6.779   3.104
  537SOL    HW2 2511   2.283   6.812   2.972
  538SOL     OW 2512   1.413   5.233   4.222
  538SOL    HW1 2513   1.378   5.314   4.268
  538SOL    HW2 2514   1.473   5.260   4.146
  539SOL     OW 2515   1.474   5.383   1.620
  539SOL    HW1 2516   1.552   5.435   1.587
  539SOL    HW2 2517   1.496   5.285   1.620
  540SOL     OW 2518   2.137   2.677   1.292
  540SOL    HW1 2519   2.192   2.677   1.376
  540SOL    HW2 2520   2.064   2.745   1.299
  541SOL     OW 2521   4.532   5.520   4.996
  541SOL    HW1 2522   4.548   5.429   4.958
  541SOL    HW2 2523   4.457   5.516   5.062
  542SOL     OW 2524   5.641   0.222   6.236
  542SOL    HW1 2525   5.729   0.268   6.224
  542SOL    HW2 2526   5.578   0.249   6.163
  543SOL     OW 2527   6.331   6.998   1.719
  543SOL    HW1 2528   6.334   0.062   1.773
  543SOL    HW2 2529   6.246   6.950   1.737
  544SOL     OW 2530   0.777   5.792   0.382
  544SOL    HW1 2531   0.786   5.785   0.482
  544SOL    HW2 2532   0.765   5.888   0.356
  545SOL     OW 2533   2.909   1.499   3.747
  545SOL    HW1 2534   2.941   1.468   3.658
  545SOL    HW2 2535   2.972   1.567   3.783
  546SOL     OW 2536   1.744   2.268   6.715
  546SOL    HW1 2537   1.750   2.201   6.789
  546SOL    HW2 2538   1.719   2.221   6.630
  547SOL     OW 2539   2.940   2.089   0.601
  547SOL    HW1 2540   2.904   2.044   0.519
  547SOL    HW2 2541   3.033   2.119   0.584
  548SOL     OW 2542   3.208   3.692   5.537
  548SOL    HW1 2543   3.204   3.656   5.444
  548SOL    HW2 2544   3.192   3.617   5.601
  549SOL     OW 2545   0.969   4.441   0.812
  549SOL    HW1 2546   0.916   4.359   0.834
  549SOL    HW2 2547   0.994   4.440   0.715
  550SOL     OW 2548   6.449   4.687   0.494
  550SOL    HW1 2549   6.464   4.588   0.495
  550SOL    HW2 2550   6.492   4.728   0.573
  551SOL     OW 2551   0.006   0.420   0.355
  551SOL    HW1 2552   7.011   0.518   0.339
  551SOL    HW2 2553   6.953   0.367   0.315
  552SOL     OW 2554   4.776   5.103   0.160
  552SOL    HW1 2555   4.837   5.128   0.084
  552SOL    HW2 2556   4.798   5.010   0.191
  553SOL     OW 2557   1.195   2.108   1.360
  553SOL    HW1 2558   1.245   2.026   1.387
  553SOL    HW2 2559   1.119   2.082   1.300
  554SOL     OW 2560   4.418   5.196   4.645
  554SOL    HW1 2561   4.324   5.230   4.636
  554SOL    HW2 2562   4.454   5.222   4.735
  555SOL     OW 2563   1.406   4.498   5.722
  555SOL    HW1 2564   1.486   4.555   5.742
  555SOL    HW2 2565   1.332   4.556   5.688
  556SOL     OW 2566   6.773   4.170   2.617
  556SOL    HW1 2567   6.773   4.101   2.689
  556SOL    HW2 2568   6.867   4.193   2.591
  557SOL     OW 2569   6.403   5.953   5.488
  557SOL    HW1 2570   6.363   5.894   5.557
  557SOL    HW2 2571   6.394   6.049   5.517
  558SOL     OW 2572   4.027   3.944   5.649
  558SOL    HW1 2573   4.057   3.943   5.553
  558SOL    HW2 2574   4.031   4.038   5.683
  559SOL     OW 2575   5.712   4.906   6.387
  559SOL    HW1 2576   5.766   4.990   6.396
  559SOL    HW2 2577   5.723   4.850   6.469
  560SOL     OW 2578   4.405   6.626   0.681
  560SOL    HW1 2579   4.321   6.678   0.669
  560SOL    HW2 2580   4.385   6.528   0.679
  561SOL     OW 2581   5.189   6.986   2.127
  561SOL    HW1 2582   5.134   7.016   2.049
  561SOL    HW2 2583   5.244   0.042   2.160
  562SOL     OW 2584   6.305   0.129   0.936
  562SOL    HW1 2585   6.242   0.052   0.943
  562SOL    HW2 2586   6.302   0.183   1.020
  563SOL     OW 2587   2.924   0.640   5.017
  563SOL    HW1 2588   2.872   0.721   5.045
  563SOL    HW2 2589   2.955   0.591   5.099
  564SOL     OW 2590   0.995   1.407   5.331
  564SOL    HW1 2591   0.931   1.331   5.338
  564SOL    HW2 2592   0.996   1.443   5.238
  565SOL     OW 2593   4.432   3.808   5.788
  565SOL    HW1 2594   4.427   3.710   5.808
  565SOL    HW2 2595   4.475   3.856   5.864
  566SOL     OW 2596   6.838   4.707   2.019
  566SOL    HW1 2597   6.843   4.612   1.988
  566SOL    HW2 2598   6.754   4.721   2.070
  567SOL     OW 2599   4.256   3.668   6.074
  567SOL    HW1 2600   4.288   3.575   6.057
  567SOL    HW2 2601   4.188   3.693   6.005
  568SOL     OW 2602   2.400   1.100   6.840
  568SOL    HW1 2603   2.457   1.104   6.758
  568SOL    HW2 2604   2.308   1.071   6.815
  569SOL     OW 2605   1.756   4.240   6.715
  569SOL    HW1 2606   1.738   4.261   6.619
  569SOL    HW2 2607   1.854   4.225   6.728
  570SOL     OW 2608   0.193   5.631   0.069
  570SOL    HW1 2609   0.250   5.640   0.151
  570SOL    HW2 2610   0.167   5.536   0.057
  571SOL     OW 2611   4.460   6.152   2.448
  571SOL    HW1 2612   4.457   6.079   2.517
  571SOL    HW2 2613   4.503   6.233   2.488
  572SOL     OW 2614   1.426   3.737   3.568
  572SOL    HW1 2615   1.390   3.830   3.563
  572SOL    HW2 2616   1.517   3.738   3.609
  573SOL     OW 2617   4.087   2.528   0.129
  573SOL    HW1 2618   4.078   2.449   0.189
  573SOL    HW2 2619   4.001   2.579   0.128
  574SOL     OW 2620   2.680   1.668   3.713
  574SOL    HW1 2621   2.692   1.738   3.784
  574SOL    HW2 2622   2.760   1.607   3.713
  575SOL     OW 2623   4.530   2.534   6.116
  575SOL    HW1 2624   4.486   2.454   6.075
  575SOL    HW2 2625   4.577   2.507   6.200
  576SOL     OW 2626   1.022   3.522   3.037
  576SOL    HW1 2627   1.035   3.424   3.023
  576SOL    HW2 2628   1.036   3.544   3.134
  577SOL     OW 2629   4.221   1.912   3.403
  577SOL    HW1 2630   4.159   1.886   3.329
  577SOL    HW2 2631   4.273   1.831   3.433
  578SOL     OW 2632   6.986   3.731   4.372
  578SOL    HW1 2633   0.029   3.790   4.422
  578SOL    HW2 2634   7.011   3.729   4.276
  579SOL     OW 2635   4.226   3.663   0.800
  579SOL    HW1 2636   4.304   3.658   0.862
  579SOL    HW2 2637   4.165   3.737   0.827
  580SOL     OW 2638   0.198   0.069   0.277
  580SOL    HW1 2639   0.281   0.084   0.222
  580SOL    HW2 2640   0.192   0.140   0.347
  581SOL     OW 2641   3.882   3.441   3.600
  581SOL    HW1 2642   3.789   3.405   3.609
  581SOL    HW2 2643   3.948   3.370   3.624
  582SOL     OW 2644   0.040   4.338   0.176
  582SOL    HW1 2645   0.004   4.380   0.259
  582SOL    HW2 2646   0.130   4.377   0.155
  583SOL     OW 2647   2.535   6.959   6.440
  583SOL    HW1 2648   2.596   6.896   6.488
  583SOL    HW2 2649   2.446   6.914   6.425
  584SOL     OW 2650   1.546   5.063   4.433
  584SOL    HW1 2651   1.481   5.028   4.501
  584SOL    HW2 2652   1.496   5.100   4.355
  585SOL     OW 2653   5.329   1.727   5.101
  585SOL    HW1 2654   5.393   1.781   5.156
  585SOL    HW2 2655   5.380   1.653   5.056
  586SOL     OW 2656   3.204   5.522   0.910
  586SOL    HW1 2657   3.287   5.548   0.860
  586SOL    HW2 2658   3.146   5.603   0.921
  587SOL     OW 2659   2.428   2.923   6.331
  587SOL    HW1 2660   2.395   2.836   6.295
  587SOL    HW2 2661   2.377   2.998   6.289
  588SOL     OW 2662   1.848   0.179   2.127
  588SOL    HW1 2663   1.836   0.093   2.176
  588SOL    HW2 2664   1.937   0.179   2.081
  589SOL     OW 2665   4.605   5.086   1.603
  589SOL    HW1 2666   4.625   4.989   1.618
  589SOL    HW2 2667   4.556   5.121   1.683
  590SOL     OW 2668   0.220   4.077   1.801
  590SOL    HW1 2669   0.302   4.133   1.795
  590SOL    HW2 2670   0.245   3.982   1.817
  591SOL     OW 2671   2.600   0.262   2.996
  591SOL    HW1 2672   2.648   0.243   2.911
  591SOL    HW2 2673   2.657   0.321   3.054
  592SOL     OW 2674   5.475   0.015   5.979
  592SOL    HW1 2675   5.416   0.094   5.971
  592SOL    HW2 2676   5.551   0.023   5.915
  593SOL     OW 2677   0.128   0.714   4.774
  593SOL    HW1 2678   0.056   0.708   4.704
  593SOL    HW2 2679   0.094   0.768   4.851
  594SOL     OW 2680   5.373   2.496   1.725
  594SOL    HW1 2681   5.299   2.498   1.658
  594SOL    HW2 2682   5.376   2.406   1.769
  595SOL     OW 2683   3.132   0.151   4.199
  595SOL    HW1 2684   3.190   0.093   4.257
  595SOL    HW2 2685   3.134   0.245   4.234
  596SOL     OW 2686   1.079   4.425   2.571
  596SOL    HW1 2687   1.088   4.370   2.487
  596SOL    HW2 2688   1.115   4.517   2.554
  597SOL     OW 2689   4.776   2.126   5.585
  597SOL    HW1 2690   4.762   2.212   5.633
  597SOL    HW2 2691   4.871   2.119   5.555
  598SOL     OW 2692   3.681   3.512   1.760
  598SOL    HW1 2693   3.664   3.484   1.854
  598SOL    HW2 2694   3.693   3.611   1.756
  599SOL     OW 2695   5.760   5.899   3.721
  599SOL    HW1 2696   5.770   5.993   3.687
  599SOL    HW2 2697   5.674   5.861   3.687
  600SOL     OW 2698   2.976   2.216   0.236
  600SOL    HW1 2699   2.926   2.135   0.267
  600SOL    HW2 2700   2.950   2.295   0.292
  601SOL     OW 2701   1.952   4.727   2.517
  601SOL    HW1 2702   2.049   4.723   2.494
  601SOL    HW2 2703   1.927   4.821   2.539
  602SOL     OW 2704   0.343   0.570   2.625
  602SOL    HW1 2705   0.370   0.522   2.709
  602SOL    HW2 2706   0.359   0.668   2.637
  603SOL     OW 2707   4.301   1.355   3.002
  603SOL    HW1 2708   4.245   1.437   3.014
  603SOL    HW2 2709   4.397   1.382   2.993
  604SOL     OW 2710   1.129   3.310   5.943
  604SOL    HW1 2711   1.115   3.224   5.993
  604SOL    HW2 2712   1.042   3.358   5.934
  605SOL     OW 2713   5.363   0.362   4.551
  605SOL    HW1 2714   5.363   0.411   4.463
  605SOL    HW2 2715   5.292   0.400   4.610
  606SOL     OW 2716   2.199   0.028   2.218
  606SOL    HW1 2717   2.230   6.960   2.252
  606SOL    HW2 2718   2.163   0.018   2.126
  607SOL     OW 2719   3.975   0.562   4.751
  607SOL    HW1 2720   3.876   0.567   4.763
  607SOL    HW2 2721   3.997   0.552   4.654
  608SOL     OW 2722   5.837   2.709   1.014
  608SOL    HW1 2723   5.878   2.687   0.926
  608SOL    HW2 2724   5.822   2.625   1.066
  609SOL     OW 2725   3.621   4.092   5.284
  609SOL    HW1 2726   3.544   4.153   5.266
  609SOL    HW2 2727   3.641   4.092   5.382
  610SOL     OW 2728   6.362   1.927   4.755
  610SOL    HW1 2729   6.274   1.955   4.717
  610SOL    HW2 2730   6.435   1.982   4.714
  611SOL     OW 2731   6.398   6.734   0.530
  611SOL    HW1 2732   6.418   6.730   0.432
  611SOL    HW2 2733   6.456   6.668   0.578
  612SOL     OW 2734   1.730   4.508   6.577
  612SOL    HW1 2735   1.640   4.502   6.536
  612SOL    HW2 2736   1.730   4.580   6.647
  613SOL     OW 2737   3.527   1.579   7.020
  613SOL    HW1 2738   3.445   1.597   0.053
  613SOL    HW2 2739   3.580   1.506   0.042
  614SOL     OW 2740   5.127   2.531   0.676
  614SOL    HW1 2741   5.098   2.513   0.582
  614SOL    HW2 2742   5.211   2.479   0.695
  615SOL     OW 2743   5.861   5.960   0.465
  615SOL    HW1 2744   5.820   5.979   0.375
  615SOL    HW2 2745   5.958   5.981   0.462
  616SOL     OW 2746   4.827   1.536   4.891
  616SOL    HW1 2747   4.880   1.486   4.823
  616SOL    HW2 2748   4.808   1.628   4.858
  617SOL     OW 2749   6.341   6.891   5.195
  617SOL    HW1 2750   6.334   6.794   5.172
  617SOL    HW2 2751   6.258   6.919   5.244
  618SOL     OW 2752   5.345   4.737   0.702
  618SOL    HW1 2753   5.425   4.798   0.696
  618SOL    HW2 2754   5.268   4.779   0.654
  619SOL     OW 2755   1.833   6.984   6.791
  619SOL    HW1 2756   1.809   0.025   6.717
  619SOL    HW2 2757   1.932   6.967   6.790
  620SOL     OW 2758   4.798   1.796   1.815
  620SOL    HW1 2759   4.750   1.742   1.885
  620SOL    HW2 2760   4.897   1.793   1.833
  621SOL     OW 2761   1.936   6.754   6.426
  621SOL    HW1 2762   1.846   6.718   6.402
  621SOL    HW2 2763   1.999   6.678   6.443
  622SOL     OW 2764   0.502   3.386   6.206
  622SOL    HW1 2765   0.477   3.458   6.270
  622SOL    HW2 2766   0.474   3.411   6.114
  623SOL     OW 2767   6.425   1.814   3.149
  623SOL    HW1 2768   6.358   1.753   3.105
  623SOL    HW2 2769   6.399   1.828   3.245
  624SOL     OW 2770   6.381   1.004   6.061
  624SOL    HW1 2771   6.385   0.928   6.126
  624SOL    HW2 2772   6.322   1.076   6.098
  625SOL     OW 2773   2.722   1.225   1.556
  625SOL    HW1 2774   2.635   1.274   1.560
  625SOL    HW2 2775   2.759   1.214   1.648
  626SOL     OW 2776   0.182   6.332   3.792
  626SOL    HW1 2777   0.224   6.314   3.881
  626SOL    HW2 2778   0.188   6.250   3.735
  627SOL     OW 2779   6.936   4.755   6.411
  627SOL    HW1 2780   6.852   4.759   6.358
  627SOL    HW2 2781   6.971   4.662   6.411
  628SOL     OW 2782   3.836   4.331   6.629
  628SOL    HW1 2783   3.744   4.363   6.609
  628SOL    HW2 2784   3.832   4.257   6.696
  629SOL     OW 2785   2.222   6.742   6.715
  629SOL    HW1 2786   2.316   6.708   6.716
  629SOL    HW2 2787   2.160   6.669   6.744
  630SOL     OW 2788   5.896   2.164   0.668
  630SOL    HW1 2789   5.949   2.229   0.613
  630SOL    HW2 2790   5.940   2.074   0.664
  631SOL     OW 2791   1.881   3.122   2.217
  631SOL    HW1 2792   1.969   3.124   2.168
  631SOL    HW2 2793   1.818   3.060   2.171
  632SOL     OW 2794   3.588   4.615   1.434
  632SOL    HW1 2795   3.585   4.597   1.533
  632SOL    HW2 2796   3.567   4.711   1.418
  633SOL     OW 2797   1.209   6.113   6.676
  633SOL    HW1 2798   1.221   6.079   6.769
  633SOL    HW2 2799   1.286   6.172   6.652
  634SOL     OW 2800   2.654   3.443   5.477
  634SOL    HW1 2801   2.741   3.479   5.444
  634SOL    HW2 2802   2.619   3.375   5.412
  635SOL     OW 2803   6.590   6.548   7.005
  635SOL    HW1 2804   6.583   6.640   0.021
  635SOL    HW2 2805   6.607   6.483   0.059
  636SOL     OW 2806   1.942   2.149   4.567
  636SOL    HW1 2807   1.888   2.100   4.636
  636SOL    HW2 2808   1.985   2.083   4.505
  637SOL     OW 2809   6.729   1.756   2.054
  637SOL    HW1 2810   6.735   1.855   2.039
  637SOL    HW2 2811   6.655   1.737   2.119
  638SOL     OW 2812   0.078   3.569   5.168
  638SOL    HW1 2813   0.050   3.663   5.188
  638SOL    HW2 2814   0.069   3.552   5.070
  639SOL     OW 2815   5.772   3.671   1.606
  639SOL    HW1 2816   5.709   3.689   1.681
  639SOL    HW2 2817   5.732   3.604   1.544
  640SOL     OW 2818   6.190   3.605   2.791
  640SOL    HW1 2819   6.109   3.630   2.844
  640SOL    HW2 2820   6.253   3.555   2.850
  641SOL     OW 2821   2.527   5.738   4.413
  641SOL    HW1 2822   2.565   5.681   4.341
  641SOL    HW2 2823   2.536   5.692   4.502
  642SOL     OW 2824   0.640   4.767   4.562
  642SOL    HW1 2825   0.716   4.763   4.497
  642SOL    HW2 2826   0.617   4.674   4.593
  643SOL     OW 2827   4.389   4.911   0.666
  643SOL    HW1 2828   4.377   4.952   0.576
  643SOL    HW2 2829   4.431   4.977   0.728
  644SOL     OW 2830   5.763   0.767   4.508
  644SOL    HW1 2831   5.676   0.764   4.458
  644SOL    HW2 2832   5.789   0.674   4.536
  645SOL     OW 2833   4.157   6.755   2.323
  645SOL    HW1 2834   4.213   6.677   2.351
  645SOL    HW2 2835   4.064   6.744   2.360
  646SOL     OW 2836   3.577   1.835   5.144
  646SOL    HW1 2837   3.582   1.923   5.097
  646SOL    HW2 2838   3.504   1.839   5.213
  647SOL     OW 2839   2.372   2.189   6.768
  647SOL    HW1 2840   2.420   2.267   6.728
  647SOL    HW2 2841   2.281   2.217   6.799
  648SOL     OW 2842   5.282   2.249   4.250
  648SOL    HW1 2843   5.264   2.184   4.324
  648SOL    HW2 2844   5.229   2.223   4.169
  649SOL     OW 2845   4.045   5.429   0.596
  649SOL    HW1 2846   3.981   5.426   0.672
  649SOL    HW2 2847   4.036   5.517   0.549
  650SOL     OW 2848   2.637   3.990   1.046
  650SOL    HW1 2849   2.711   3.953   1.103
  650SOL    HW2 2850   2.557   3.930   1.052
  651SOL     OW 2851   0.022   1.747   2.874
  651SOL    HW1 2852   0.023   1.841   2.841
  651SOL    HW2 2853   0.000   1.685   2.799
  652SOL     OW 2854   3.899   6.058   0.814
  652SOL    HW1 2855   3.920   6.090   0.722
  652SOL    HW2 2856   3.806   6.087   0.839
  653SOL     OW 2857   1.402   0.016   3.116
  653SOL    HW1 2858   1.435   6.964   3.175
  653SOL    HW2 2859   1.441   0.103   3.146
  654SOL     OW 2860   1.214   6.939   5.912
  654SOL    HW1 2861   1.294   6.942   5.851
  654SOL    HW2 2862   1.241   6.970   6.003
  655SOL     OW 2863   1.339   4.229   1.772
  655SOL    HW1 2864   1.278   4.307   1.770
  655SOL    HW2 2865   1.423   4.250   1.722
  656SOL     OW 2866   2.107   0.155   6.917
  656SOL    HW1 2867   2.088   0.062   6.886
  656SOL    HW2 2868   2.189   0.155   6.974
  657SOL     OW 2869   4.031   3.446   4.468
  657SOL    HW1 2870   4.023   3.417   4.563
  657SOL    HW2 2871   4.060   3.368   4.412
  658SOL     OW 2872   2.336   0.429   5.227
  658SOL    HW1 2873   2.374   0.448   5.317
  658SOL    HW2 2874   2.238   0.451   5.227
  659SOL     OW 2875   1.370   5.009   6.878
  659SOL    HW1 2876   1.364   4.922   6.927
  659SOL    HW2 2877   1.464   5.042   6.883
  660SOL     OW 2878   5.470   4.083   2.358
  660SOL    HW1 2879   5.476   4.155   2.289
  660SOL    HW2 2880   5.377   4.048   2.363
  661SOL     OW 2881   4.060   5.718   4.293
  661SOL    HW1 2882   4.061   5.751   4.199
  661SOL    HW2 2883   4.152   5.691   4.320
  662SOL     OW 2884   6.544   3.078   6.844
  662SOL    HW1 2885   6.508   3.171   6.851
  662SOL    HW2 2886   6.475   3.013   6.876
  663SOL     OW 2887   1.504   4.259   5.797
  663SOL    HW1 2888   1.580   4.277   5.860
  663SOL    HW2 2889   1.479   4.344   5.751
  664SOL     OW 2890   1.992   6.877   5.704
  664SOL    HW1 2891   2.082   6.851   5.670
  664SOL    HW2 2892   1.986   6.976   5.712
  665SOL     OW 2893   2.415   4.395   2.925
  665SOL    HW1 2894   2.343   4.422   2.989
  665SOL    HW2 2895   2.379   4.326   2.862
  666SOL     OW 2896   2.793   0.426   0.597
  666SOL    HW1 2897   2.768   0.501   0.535
  666SOL    HW2 2898   2.710   0.390   0.641
  667SOL     OW 2899   1.415   2.999   2.503
  667SOL    HW1 2900   1.369   2.988   2.592
  667SOL    HW2 2901   1.424   3.096   2.481
  668SOL     OW 2902   5.342   0.126   0.566
  668SOL    HW1 2903   5.282   0.117   0.646
  668SOL    HW2 2904   5.428   0.079   0.584
  669SOL     OW 2905   6.571   5.876   2.822
  669SOL    HW1 2906   6.651   5.927   2.855
  669SOL    HW2 2907   6.489   5.932   2.831
  670SOL     OW 2908   3.521   4.125   3.403
  670SOL    HW1 2909   3.544   4.079   3.317
  670SOL    HW2 2910   3.426   4.156   3.401
  671SOL     OW 2911   1.459   0.157   6.336
  671SOL    HW1 2912   1.387   0.156   6.406
  671SOL    HW2 2913   1.523   0.082   6.353
  672SOL     OW 2914   0.948   2.071   3.121
  672SOL    HW1 2915   0.965   1.975   3.097
  672SOL    HW2 2916   0.860   2.078   3.169
  673SOL     OW 2917   4.861   0.721   6.673
  673SOL    HW1 2918   4.923   0.657   6.629
  673SOL    HW2 2919   4.896   0.814   6.662
  674SOL     OW 2920   6.553   2.316   3.972
  674SOL    HW1 2921   6.566   2.416   3.974
  674SOL    HW2 2922   6.458   2.295   3.992
  675SOL     OW 2923   5.942   7.012   3.397
  675SOL    HW1 2924   5.936   0.071   3.456
  675SOL    HW2 2925   5.921   0.017   3.303
  676SOL     OW 2926   3.316   4.910   4.921
  676SOL    HW1 2927   3.409   4.909   4.885
  676SOL    HW2 2928   3.304   4.989   4.980
  677SOL     OW 2929   4.802   6.843   0.478
  677SOL    HW1 2930   4.771   6.929   0.438
  677SOL    HW2 2931   4.887   6.814   0.432
  678SOL     OW 2932   2.669   0.774   6.522
  678SOL    HW1 2933   2.654   0.860   6.473
  678SOL    HW2 2934   2.583   0.743   6.563
  679SOL     OW 2935   6.571   0.403   2.578
  679SOL    HW1 2936   6.662   0.437   2.555
  679SOL    HW2 2937   6.580   0.318   2.631
  680SOL     OW 2938   6.204   3.317   4.336
  680SOL    HW1 2939   6.118   3.361   4.314
  680SOL    HW2 2940   6.280   3.381   4.322
  681SOL     OW 2941   1.236   5.108   2.847
  681SOL    HW1 2942   1.324   5.149   2.823
  681SOL    HW2 2943   1.250   5.012   2.872
  682SOL     OW 2944   0.237   0.138   5.939
  682SOL    HW1 2945   0.276   0.058   5.985
  682SOL    HW2 2946   0.137   0.135   5.946
  683SOL     OW 2947   5.140   1.559   1.615
  683SOL    HW1 2948   5.100   1.493   1.679
  683SOL    HW2 2949   5.203   1.619   1.665
  684SOL     OW 2950   6.646   5.853   6.457
  684SOL    HW1 2951   6.603   5.942   6.469
  684SOL    HW2 2952   6.651   5.806   6.545
  685SOL     OW 2953   6.014   0.724   5.145
  685SOL    HW1 2954   5.927   0.708   5.192
  685SOL    HW2 2955   6.011   0.813   5.099
  686SOL     OW 2956   5.553   4.755   1.467
  686SOL    HW1 2957   5.463   4.720   1.492
  686SOL    HW2 2958   5.617   4.740   1.542
  687SOL     OW 2959   5.333   2.541   6.998
  687SOL    HW1 2960   5.332   2.472   0.049
  687SOL    HW2 2961   5.305   2.629   0.015
  688SOL     OW 2962   6.302   2.732   5.413
  688SOL    HW1 2963   6.361   2.766   5.485
  688SOL    HW2 2964   6.353   2.727   5.327
  689SOL     OW 2965   5.379   4.724   4.526
  689SOL    HW1 2966   5.442   4.798   4.552
  689SOL    HW2 2967   5.425   4.662   4.462
  690SOL     OW 2968   6.847   2.194   4.596
  690SOL    HW1 2969   6.871   2.126   4.527
  690SOL    HW2 2970   6.856   2.286   4.556
  691SOL     OW 2971   0.619   3.262   6.884
  691SOL    HW1 2972   0.636   3.187   6.820
  691SOL    HW2 2973   0.701   3.320   6.890
  692SOL     OW 2974   2.379   0.167   3.913
  692SOL    HW1 2975   2.326   0.192   3.995
  692SOL    HW2 2976   2.385   0.067   3.908
  693SOL     OW 2977   5.916   1.366   3.619
  693SOL    HW1 2978   5.970   1.289   3.651
  693SOL    HW2 2979   5.954   1.451   3.656
  694SOL     OW 2980   1.381   0.796   2.948
  694SOL    HW1 2981   1.377   0.752   2.859
  694SOL    HW2 2982   1.337   0.886   2.943
  695SOL     OW 2983   4.912   5.581   6.206
  695SOL    HW1 2984   4.853   5.539   6.276
  695SOL    HW2 2985   4.881   5.554   6.115
  696SOL     OW 2986   5.120   5.693   2.318
  696SOL    HW1 2987   5.214   5.673   2.291
  696SOL    HW2 2988   5.109   5.792   2.328
  697SOL     OW 2989   1.181   3.821   3.143
  697SOL    HW1 2990   1.212   3.789   3.054
  697SOL    HW2 2991   1.158   3.742   3.200
  698SOL     OW 2992   5.105   6.453   4.108
  698SOL    HW1 2993   5.049   6.436   4.189
  698SOL    HW2 2994   5.198   6.476   4.136
  699SOL     OW 2995   2.157   5.355   6.147
  699SOL    HW1 2996   2.239   5.376   6.201
  699SOL    HW2 2997   2.175   5.274   6.091
  700SOL     OW 2998   1.994   2.645   4.816
  700SOL    HW1 2999   2.084   2.671   4.851
  700SOL    HW2 3000   1.924   2.668   4.884
  701SOL     OW 3001   0.802   4.723   5.690
  701SOL    HW1 3002   0.780   4.817   5.662
  701SOL    HW2 3003   0.851   4.725   5.777
  702SOL     OW 3004   5.829   6.238   5.400
  702SOL    HW1 3005   5.924   6.215   5.422
  702SOL    HW2 3006   5.818   6.245   5.301
  703SOL     OW 3007   5.765   3.608   6.178
  703SOL    HW1 3008   5.837   3.591   6.112
  703SOL    HW2 3009   5.716   3.692   6.153
  704SOL     OW 3010   2.081   0.028   1.977
  704SOL    HW1 3011   2.094   0.122   1.943
  704SOL    HW2 3012   2.017   7.001   1.917
  705SOL     OW 3013   0.910   1.713   4.027
  705SOL    HW1 3014   0.979   1.694   4.097
  705SOL    HW2 3015   0.883   1.627   3.982
  706SOL     OW 3016   5.742   3.421   3.720
  706SOL    HW1 3017   5.661   3.468   3.754
  706SOL    HW2 3018   5.822   3.452   3.771
  707SOL     OW 3019   5.044   3.022   3.017
  707SOL    HW1 3020   4.992   3.050   2.936
  707SOL    HW2 3021   5.142   3.035   3.000
  708SOL     OW 3022   4.756   1.212   1.974
  708SOL    HW1 3023   4.855   1.195   1.968
  708SOL    HW2 3024   4.736   1.302   1.935
  709SOL     OW 3025   1.354   4.653   6.705
  709SOL    HW1 3026   1.389   4.610   6.621
  709SOL    HW2 3027   1.429   4.697   6.754
  710SOL     OW 3028   3.187   3.542   3.189
  710SOL    HW1 3029   3.123   3.496   3.251
  710SOL    HW2 3030   3.146   3.628   3.157
  711SOL     OW 3031   1.051   0.821   4.289
  711SOL    HW1 3032   0.952   0.806   4.292
  711SOL    HW2 3033   1.098   0.745   4.334
  712SOL     OW 3034   6.912   4.450   3.278
  712SOL    HW1 3035   6.897   4.515   3.204
  712SOL    HW2 3036   6.974   4.491   3.346
  713SOL     OW 3037   2.474   3.719   5.315
  713SOL    HW1 3038   2.431   3.787   5.256
  713SOL    HW2 3039   2.463   3.745   5.411
  714SOL     OW 3040   4.640   4.993   4.572
  714SOL    HW1 3041   4.598   5.077   4.605
  714SOL    HW2 3042   4.571   4.920   4.569
  715SOL     OW 3043   6.867   0.406   6.416
  715SOL    HW1 3044   6.940   0.343   6.386
  715SOL    HW2 3045   6.905   0.473   6.479
  716SOL     OW 3046   6.306   5.318   6.664
  716SOL    HW1 3047   6.235   5.301   6.733
  716SOL    HW2 3048   6.373   5.243   6.667
  717SOL     OW 3049   5.899   2.526   5.827
  717SOL    HW1 3050   5.935   2.457   5.889
  717SOL    HW2 3051   5.808   2.555   5.859
  718SOL     OW 3052   3.539   2.810   0.675
  718SOL    HW1 3053   3.627   2.840   0.710
  718SOL    HW2 3054   3.540   2.711   0.661
  719SOL     OW 3055   6.253   4.146   6.276
  719SOL    HW1 3056   6.221   4.222   6.333
  719SOL    HW2 3057   6.276   4.068   6.335
  720SOL     OW 3058   3.974   1.275   5.895
  720SOL    HW1 3059   3.900   1.217   5.929
  720SOL    HW2 3060   4.042   1.288   5.968
  721SOL     OW 3061   1.581   6.751   5.502
  721SOL    HW1 3062   1.595   6.840   5.458
  721SOL    HW2 3063   1.509   6.701   5.454
  722SOL     OW 3064   4.730   0.782   5.257
  722SOL    HW1 3065   4.754   0.844   5.183
  722SOL    HW2 3066   4.635   0.798   5.285
  723SOL     OW 3067   0.198   3.271   1.534
  723SOL    HW1 3068   0.179   3.186   1.484
  723SOL    HW2 3069   0.276   3.256   1.594
  724SOL     OW 3070   0.449   2.383   4.488
  724SOL    HW1 3071   0.517   2.359   4.557
  724SOL    HW2 3072   0.359   2.349   4.517
  725SOL     OW 3073   2.481   4.974   2.415
  725SOL    HW1 3074   2.404   5.036   2.430
  725SOL    HW2 3075   2.491   4.956   2.317
  726SOL     OW 3076   5.552   6.148   6.356
  726SOL    HW1 3077   5.639   6.106   6.333
  726SOL    HW2 3078   5.563   6.247   6.364
  727SOL     OW 3079   2.058   4.825   4.686
  727SOL    HW1 3080   2.002   4.894   4.732
  727SOL    HW2 3081   2.093   4.760   4.753
  728SOL     OW 3082   6.159   2.172   6.025
  728SOL    HW1 3083   6.161   2.158   6.124
  728SOL    HW2 3084   6.248   2.203   5.994
  729SOL     OW 3085   3.792   1.762   0.743
  729SOL    HW1 3086   3.790   1.726   0.837
  729SOL    HW2 3087   3.882   1.803   0.726
  730SOL     OW 3088   6.191   1.142   3.974
  730SOL    HW1 3089   6.128   1.219   3.964
  730SOL    HW2 3090   6.139   1.061   4.001
  731SOL     OW 3091   0.088   1.990   3.595
  731SOL    HW1 3092   0.130   2.081   3.591
  731SOL    HW2 3093   0.015   1.984   3.526
  732SOL     OW 3094   0.415   3.788   3.378
  732SOL    HW1 3095   0.504   3.833   3.386
  732SOL    HW2 3096   0.428   3.689   3.379
  733SOL     OW 3097   4.612   4.407   4.728
  733SOL    HW1 3098   4.558   4.356   4.661
  733SOL    HW2 3099   4.562   4.489   4.754
  734SOL     OW 3100   0.792   6.085   6.454
  734SOL    HW1 3101   0.879   6.131   6.436
  734SOL    HW2 3102   0.746   6.067   6.367
  735SOL     OW 3103   3.577   4.377   6.590
  735SOL    HW1 3104   3.514   4.415   6.522
  735SOL    HW2 3105   3.585   4.278   6.576
  736SOL     OW 3106   6.009   1.091   2.226
  736SOL    HW1 3107   5.977   1.016   2.284
  736SOL    HW2 3108   6.104   1.111   2.248
  737SOL     OW 3109   5.613   3.548   0.332
  737SOL    HW1 3110   5.518   3.567   0.306
  737SOL    HW2 3111   5.618   3.459   0.378
  738SOL     OW 3112   6.874   4.015   4.100
  738SOL    HW1 3113   6.922   3.928   4.105
  738SOL    HW2 3114   6.907   4.075   4.173
  739SOL     OW 3115   4.429   6.370   6.151
  739SOL    HW1 3116   4.438   6.462   6.190
  739SOL    HW2 3117   4.381   6.311   6.216
  740SOL     OW 3118   5.658   0.010   0.060
  740SOL    HW1 3119   5.585   0.056   0.011
  740SOL    HW2 3120   5.687   0.067   0.137
  741SOL     OW 3121   2.119   0.458   3.831
  741SOL    HW1 3122   2.025   0.455   3.796
  741SOL    HW2 3123   2.180   0.494   3.761
  742SOL     OW 3124   1.544   6.392   2.792
  742SOL    HW1 3125   1.504   6.309   2.754
  742SOL    HW2 3126   1.477   6.437   2.852
  743SOL     OW 3127   1.627   3.571   2.282
  743SOL    HW1 3128   1.665   3.488   2.321
  743SOL    HW2 3129   1.627   3.565   2.182
  744SOL     OW 3130   6.489   5.321   0.850
  744SOL    HW1 3131   6.443   5.346   0.935
  744SOL    HW2 3132   6.426   5.333   0.773
  745SOL     OW 3133   1.164   6.341   1.680
  745SOL    HW1 3134   1.132   6.283   1.605
  745SOL    HW2 3135   1.087   6.386   1.724
  746SOL     OW 3136   3.204   6.910   3.290
  746SOL    HW1 3137   3.116   6.955   3.274
  746SOL    HW2 3138   3.241   6.939   3.378
  747SOL     OW 3139   6.967   4.405   0.461
  747SOL    HW1 3140   0.043   4.426   0.476
  747SOL    HW2 3141   6.931   4.357   0.541
  748SOL     OW 3142   3.350   2.968   3.610
  748SOL    HW1 3143   3.290   3.015   3.546
  748SOL    HW2 3144   3.306   2.961   3.699
  749SOL     OW 3145   5.102   3.020   5.585
  749SOL    HW1 3146   5.147   2.942   5.542
  749SOL    HW2 3147   5.016   2.990   5.627
  750SOL     OW 3148   2.947   3.724   2.357
  750SOL    HW1 3149   3.004   3.651   2.318
  750SOL    HW2 3150   2.949   3.804   2.296
  751SOL     OW 3151   5.498   1.837   0.283
  751SOL    HW1 3152   5.591   1.813   0.310
  751SOL    HW2 3153   5.445   1.754   0.269
  752SOL     OW 3154   4.674   0.689   1.889
  752SOL    HW1 3155   4.655   0.651   1.980
  752SOL    HW2 3156   4.696   0.786   1.898
  753SOL     OW 3157   3.859   1.585   1.755
  753SOL    HW1 3158   3.881   1.528   1.835
  753SOL    HW2 3159   3.842   1.679   1.785
  754SOL     OW 3160   5.389   4.954   6.715
  754SOL    HW1 3161   5.369   5.040   6.763
  754SOL    HW2 3162   5.306   4.898   6.712
  755SOL     OW 3163   5.850   5.137   2.202
  755SOL    HW1 3164   5.943   5.170   2.191
  755SOL    HW2 3165   5.788   5.187   2.141
  756SOL     OW 3166   2.272   6.680   3.917
  756SOL    HW1 3167   2.329   6.633   3.984
  756SOL    HW2 3168   2.267   6.626   3.833
  757SOL     OW 3169   6.959   0.668   4.573
  757SOL    HW1 3170   6.989   0.575   4.551
  757SOL    HW2 3171   6.963   0.724   4.490
  758SOL     OW 3172   4.044   1.563   0.563
  758SOL    HW1 3173   3.949   1.539   0.546
  758SOL    HW2 3174   4.048   1.653   0.608
  759SOL     OW 3175   2.083   0.305   1.919
  759SOL    HW1 3176   2.037   0.393   1.928
  759SOL    HW2 3177   2.175   0.311   1.958
  760SOL     OW 3178   4.592   1.551   6.062
  760SOL    HW1 3179   4.612   1.642   6.025
  760SOL    HW2 3180   4.613   1.551   6.160
  761SOL     OW 3181   5.148   0.992   6.916
  761SOL    HW1 3182   5.179   0.943   6.835
  761SOL    HW2 3183   5.225   1.042   6.956
  762SOL     OW 3184   2.600   4.698   5.003
  762SOL    HW1 3185   2.580   4.791   4.970
  762SOL    HW2 3186   2.696   4.678   4.989
  763SOL     OW 3187   0.117   4.907   0.804
  763SOL    HW1 3188   0.021   4.926   0.782
  763SOL    HW2 3189   0.135   4.933   0.899
  764SOL     OW 3190   5.913   1.263   2.656
  764SOL    HW1 3191   5.821   1.242   2.690
  764SOL    HW2 3192   5.916   1.358   2.626
  765SOL     OW 3193   1.256   6.610   3.199
  765SOL    HW1 3194   1.177   6.665   3.169
  765SOL    HW2 3195   1.334   6.670   3.217
  766SOL     OW 3196   0.379   6.015   0.125
  766SOL    HW1 3197   0.413   6.084   0.061
  766SOL    HW2 3198   0.281   6.002   0.110
  767SOL     OW 3199   5.935   5.969   1.521
  767SOL    HW1 3200   5.889   5.880   1.519
  767SOL    HW2 3201   5.980   5.982   1.610
  768SOL     OW 3202   3.096   6.701   4.027
  768SOL    HW1 3203   3.039   6.782   4.014
  768SOL    HW2 3204   3.164   6.720   4.098
  769SOL     OW 3205   3.603   0.437   0.253
  769SOL    HW1 3206   3.629   0.344   0.278
  769SOL    HW2 3207   3.591   0.443   0.154
  770SOL     OW 3208   3.301   5.141   5.073
  770SOL    HW1 3209   3.325   5.181   5.162
  770SOL    HW2 3210   3.201   5.143   5.062
  771SOL     OW 3211   0.314   6.766   4.658
  771SOL    HW1 3212   0.396   6.818   4.678
  771SOL    HW2 3213   0.321   6.674   4.697
  772SOL     OW 3214   0.385   3.104   6.637
  772SOL    HW1 3215   0.440   3.037   6.586
  772SOL    HW2 3216   0.428   3.122   6.726
  773SOL     OW 3217   6.667   3.386   2.090
  773SOL    HW1 3218   6.711   3.412   2.004
  773SOL    HW2 3219   6.691   3.291   2.112
  774SOL     OW 3220   1.204   1.200   1.754
  774SOL    HW1 3221   1.158   1.193   1.842
  774SOL    HW2 3222   1.303   1.197   1.768
  775SOL     OW 3223   1.755   3.033   4.106
  775SOL    HW1 3224   1.780   2.956   4.165
  775SOL    HW2 3225   1.735   2.999   4.014
  776SOL     OW 3226   2.474   0.469   5.626
  776SOL    HW1 3227   2.568   0.466   5.592
  776SOL    HW2 3228   2.438   0.562   5.614
  777SOL     OW 3229   4.114   0.201   6.716
  777SOL    HW1 3230   4.076   0.213   6.624
  777SOL    HW2 3231   4.071   0.121   6.759
  778SOL     OW 3232   4.711   5.986   4.881
  778SOL    HW1 3233   4.668   5.967   4.969
  778SOL    HW2 3234   4.810   5.972   4.888
  779SOL     OW 3235   0.354   0.111   2.194
  779SOL    HW1 3236   0.309   0.063   2.270
  779SOL    HW2 3237   0.453   0.107   2.207
  780SOL     OW 3238   5.775   2.083   5.369
  780SOL    HW1 3239   5.698   2.142   5.391
  780SOL    HW2 3240   5.852   2.138   5.338
  781SOL     OW 3241   1.417   4.129   0.075
  781SOL    HW1 3242   1.319   4.116   0.057
  781SOL    HW2 3243   1.468   4.116   7.011
  782SOL     OW 3244   0.206   5.515   0.723
  782SOL    HW1 3245   0.280   5.502   0.658
  782SOL    HW2 3246   0.139   5.441   0.713
  783SOL     OW 3247   1.861   5.722   0.432
  783SOL    HW1 3248   1.935   5.787   0.449
  783SOL    HW2 3249   1.828   5.685   0.519
  784SOL     OW 3250   5.566   5.506   3.175
  784SOL    HW1 3251   5.646   5.558   3.143
  784SOL    HW2 3252   5.486   5.533   3.121
  785SOL     OW 3253   6.300   2.945   3.549
  785SOL    HW1 3254   6.315   2.986   3.640
  785SOL    HW2 3255   6.202   2.944   3.529
  786SOL     OW 3256   5.975   6.702   1.359
  786SOL    HW1 3257   5.923   6.781   1.326
  786SOL    HW2 3258   5.914   6.625   1.372
  787SOL     OW 3259   4.157   1.133   0.064
  787SOL    HW1 3260   4.256   1.135   0.080
  787SOL    HW2 3261   4.138   1.144   6.988
  788SOL     OW 3262   0.401   4.542   3.533
  788SOL    HW1 3263   0.349   4.461   3.560
  788SOL    HW2 3264   0.408   4.604   3.611
  789SOL     OW 3265   5.927   2.943   0.807
  789SOL    HW1 3266   6.023   2.916   0.802
  789SOL    HW2 3267   5.874   2.894   0.738
  790SOL     OW 3268   3.085   0.368   3.935
  790SOL    HW1 3269   3.088   0.462   3.970
  790SOL    HW2 3270   3.167   0.319   3.963
  791SOL     OW 3271   3.646   0.994   4.573
  791SOL    HW1 3272   3.738   0.982   4.611
  791SOL    HW2 3273   3.635   0.935   4.493
  792SOL     OW 3274   5.575   0.814   3.709
  792SOL    HW1 3275   5.642   0.743   3.730
  792SOL    HW2 3276   5.614   0.881   3.646
  793SOL     OW 3277   0.142   6.883   6.772
  793SOL    HW1 3278   0.044   6.903   6.765
  793SOL    HW2 3279   0.154   6.791   6.807
  794SOL     OW 3280   3.591   4.970   4.910
  794SOL    HW1 3281   3.539   5.037   4.962
  794SOL    HW2 3282   3.657   4.925   4.970
  795SOL     OW 3283   4.894   5.149   6.940
  795SOL    HW1 3284   4.952   5.218   6.982
  795SOL    HW2 3285   4.854   5.186   6.856
  796SOL     OW 3286   1.280   1.664   5.621
  796SOL    HW1 3287   1.220   1.743   5.606
  796SOL    HW2 3288   1.282   1.608   5.538
  797SOL     OW 3289   6.037   3.173   5.635
  797SOL    HW1 3290   6.060   3.227   5.555
  797SOL    HW2 3291   5.941   3.144   5.629
  798SOL     OW 3292   6.177   0.982   4.540
  798SOL    HW1 3293   6.274   0.960   4.529
  798SOL    HW2 3294   6.140   1.016   4.454
  799SOL     OW 3295   0.142   3.855   3.810
  799SOL    HW1 3296   0.097   3.864   3.721
  799SOL    HW2 3297   0.110   3.928   3.870
  800SOL     OW 3298   0.391   2.556   2.402
  800SOL    HW1 3299   0.391   2.543   2.302
  800SOL    HW2 3300   0.297   2.559   2.435
  801SOL     OW 3301   0.457   3.012   3.397
  801SOL    HW1 3302   0.398   3.003   3.477
  801SOL    HW2 3303   0.552   3.012   3.425
  802SOL     OW 3304   6.594   1.449   0.757
  802SOL    HW1 3305   6.523   1.381   0.741
  802SOL    HW2 3306   6.638   1.431   0.844
  803SOL     OW 3307   2.061   0.131   4.300
  803SOL    HW1 3308   1.976   0.104   4.345
  803SOL    HW2 3309   2.041   0.195   4.225
  804SOL     OW 3310   5.707   5.743   0.572
  804SOL    HW1 3311   5.752   5.809   0.512
  804SOL    HW2 3312   5.755   5.655   0.567
  805SOL     OW 3313   2.202   2.446   6.432
  805SOL    HW1 3314   2.191   2.530   6.485
  805SOL    HW2 3315   2.140   2.448   6.353
  806SOL     OW 3316   4.356   6.361   0.633
  806SOL    HW1 3317   4.442   6.349   0.583
  806SOL    HW2 3318   4.279   6.334   0.576
  807SOL     OW 3319   0.905   0.594   3.363
  807SOL    HW1 3320   0.872   0.506   3.395
  807SOL    HW2 3321   0.853   0.667   3.407
  808SOL     OW 3322   5.527   3.448   4.520
  808SOL    HW1 3323   5.435   3.410   4.510
  808SOL    HW2 3324   5.595   3.375   4.510
  809SOL     OW 3325   6.859   5.471   5.785
  809SOL    HW1 3326   6.763   5.494   5.766
  809SOL    HW2 3327   6.912   5.554   5.798
  810SOL     OW 3328   5.920   5.284   5.882
  810SOL    HW1 3329   5.849   5.214   5.887
  810SOL    HW2 3330   5.880   5.373   5.862
  811SOL     OW 3331   3.070   4.833   2.792
  811SOL    HW1 3332   2.989   4.778   2.770
  811SOL    HW2 3333   3.042   4.910   2.850
  812SOL     OW 3334   0.084   0.625   2.635
  812SOL    HW1 3335   0.174   0.582   2.634
  812SOL    HW2 3336   0.023   0.575   2.697
  813SOL     OW 3337   5.041   5.395   1.786
  813SOL    HW1 3338   4.965   5.333   1.805
  813SOL    HW2 3339   5.127   5.345   1.794
  814SOL     OW 3340   5.457   5.864   1.539
  814SOL    HW1 3341   5.449   5.820   1.628
  814SOL    HW2 3342   5.504   5.803   1.475
  815SOL     OW 3343   0.888   1.224   1.085
  815SOL    HW1 3344   0.908   1.322   1.094
  815SOL    HW2 3345   0.808   1.201   1.141
  816SOL     OW 3346   5.984   0.249   1.530
  816SOL    HW1 3347   5.983   0.173   1.594
  816SOL    HW2 3348   6.036   0.325   1.569
  817SOL     OW 3349   0.732   2.529   1.888
  817SOL    HW1 3350   0.793   2.452   1.905
  817SOL    HW2 3351   0.695   2.562   1.975
  818SOL     OW 3352   5.956   1.159   2.932
  818SOL    HW1 3353   6.017   1.090   2.971
  818SOL    HW2 3354   5.986   1.181   2.839
  819SOL     OW 3355   0.312   5.010   2.383
  819SOL    HW1 3356   0.330   4.918   2.348
  819SOL    HW2 3357   0.373   5.076   2.339
  820SOL     OW 3358   2.861   2.955   5.885
  820SOL    HW1 3359   2.868   3.055   5.892
  820SOL    HW2 3360   2.765   2.929   5.874
  821SOL     OW 3361   1.056   4.128   0.880
  821SOL    HW1 3362   1.151   4.157   0.886
  821SOL    HW2 3363   1.038   4.091   0.789
  822SOL     OW 3364   0.727   2.958   4.975
  822SOL    HW1 3365   0.719   3.029   4.905
  822SOL    HW2 3366   0.765   2.875   4.933
  823SOL     OW 3367   3.836   3.984   1.599
  823SOL    HW1 3368   3.890   3.939   1.528
  823SOL    HW2 3369   3.864   4.079   1.607
  824SOL     OW 3370   5.856   3.250   6.436
  824SOL    HW1 3371   5.890   3.172   6.488
  824SOL    HW2 3372   5.875   3.236   6.339
  825SOL     OW 3373   1.885   3.115   1.577
  825SOL    HW1 3374   1.960   3.055   1.548
  825SOL    HW2 3375   1.812   3.113   1.508
  826SOL     OW 3376   0.869   2.105   6.792
  826SOL    HW1 3377   0.835   2.013   6.813
  826SOL    HW2 3378   0.883   2.113   6.693
  827SOL     OW 3379   3.588   4.570   0.972
  827SOL    HW1 3380   3.505   4.528   0.934
  827SOL    HW2 3381   3.666   4.548   0.913
  828SOL     OW 3382   5.755   1.215   5.137
  828SOL    HW1 3383   5.833   1.265   5.175
  828SOL    HW2 3384   5.711   1.161   5.209
  829SOL     OW 3385   3.956   4.349   5.552
  829SOL    HW1 3386   3.958   4.338   5.453
  829SOL    HW2 3387   3.861   4.345   5.584
  830SOL     OW 3388   4.764   3.291   6.498
  830SOL    HW1 3389   4.694   3.220   6.486
  830SOL    HW2 3390   4.815   3.303   6.412
  831SOL     OW 3391   5.533   1.458   5.436
  831SOL    HW1 3392   5.473   1.531   5.468
  831SOL    HW2 3393   5.477   1.383   5.401
  832SOL     OW 3394   2.400   1.232   6.024
  832SOL    HW1 3395   2.473   1.166   6.005
  832SOL    HW2 3396   2.419   1.278   6.111
  833SOL     OW 3397   1.226   0.409   5.101
  833SOL    HW1 3398   1.141   0.450   5.066
  833SOL    HW2 3399   1.212   0.311   5.114
  834SOL     OW 3400   2.976   4.597   5.856
  834SOL    HW1 3401   2.893   4.614   5.909
  834SOL    HW2 3402   2.980   4.660   5.778
  835SOL     OW 3403   3.943   1.853   2.648
  835SOL    HW1 3404   3.905   1.924   2.707
  835SOL    HW2 3405   3.932   1.880   2.552
  836SOL     OW 3406   2.372   0.852   5.749
  836SOL    HW1 3407   2.395   0.933   5.696
  836SOL    HW2 3408   2.318   0.879   5.829
  837SOL     OW 3409   4.130   2.162   4.258
  837SOL    HW1 3410   4.194   2.175   4.182
  837SOL    HW2 3411   4.113   2.064   4.271
  838SOL     OW 3412   0.869   7.010   2.708
  838SOL    HW1 3413   0.854   6.980   2.803
  838SOL    HW2 3414   0.854   0.087   2.702
  839SOL     OW 3415   2.240   1.839   1.990
  839SOL    HW1 3416   2.293   1.788   2.058
  839SOL    HW2 3417   2.150   1.862   2.028
  840SOL     OW 3418   1.543   1.050   5.622
  840SOL    HW1 3419   1.570   1.144   5.599
  840SOL    HW2 3420   1.550   1.037   5.721
  841SOL     OW 3421   0.135   3.677   0.732
  841SOL    HW1 3422   0.230   3.670   0.703
  841SOL    HW2 3423   0.075   3.636   0.663
  842SOL     OW 3424   3.809   4.866   4.078
  842SOL    HW1 3425   3.782   4.888   4.172
  842SOL    HW2 3426   3.728   4.863   4.020
  843SOL     OW 3427   6.868   3.540   1.362
  843SOL    HW1 3428   6.931   3.616   1.341
  843SOL    HW2 3429   6.915   3.453   1.344
  844SOL     OW 3430   5.630   4.766   6.156
  844SOL    HW1 3431   5.638   4.668   6.170
  844SOL    HW2 3432   5.647   4.814   6.242
  845SOL     OW 3433   2.049   4.787   5.496
  845SOL    HW1 3434   2.046   4.706   5.436
  845SOL    HW2 3435   1.979   4.852   5.468
  846SOL     OW 3436   4.487   2.066   0.392
  846SOL    HW1 3437   4.497   2.147   0.450
  846SOL    HW2 3438   4.420   2.085   0.320
  847SOL     OW 3439   4.829   4.568   2.285
  847SOL    HW1 3440   4.776   4.503   2.230
  847SOL    HW2 3441   4.909   4.521   2.323
  848SOL     OW 3442   5.566   0.292   5.647
  848SOL    HW1 3443   5.610   0.380   5.665
  848SOL    HW2 3444   5.604   0.251   5.564
  849SOL     OW 3445   0.957   6.103   3.764
  849SOL    HW1 3446   1.016   6.128   3.841
  849SOL    HW2 3447   0.981   6.159   3.685
  850SOL     OW 3448   2.981   1.056   3.543
  850SOL    HW1 3449   2.909   1.017   3.599
  850SOL    HW2 3450   2.963   1.153   3.528
  851SOL     OW 3451   6.922   1.025   5.430
  851SOL    HW1 3452   6.997   1.025   5.364
  851SOL    HW2 3453   6.850   0.963   5.398
  852SOL     OW 3454   3.038   5.126   5.051
  852SOL    HW1 3455   2.997   5.157   4.965
  852SOL    HW2 3456   2.987   5.049   5.087
  853SOL     OW 3457   0.719   4.190   0.631
  853SOL    HW1 3458   0.741   4.192   0.728
  853SOL    HW2 3459   0.803   4.174   0.578
  854SOL     OW 3460   6.287   5.409   0.687
  854SOL    HW1 3461   6.249   5.444   0.602
  854SOL    HW2 3462   6.242   5.452   0.765
  855SOL     OW 3463   4.630   0.395   0.356
  855SOL    HW1 3464   4.537   0.394   0.319
  855SOL    HW2 3465   4.673   0.483   0.334
  856SOL     OW 3466   1.483   0.394   5.275
  856SOL    HW1 3467   1.423   0.467   5.243
  856SOL    HW2 3468   1.562   0.434   5.322
  857SOL     OW 3469   5.899   4.368   1.785
  857SOL    HW1 3470   5.880   4.410   1.874
  857SOL    HW2 3471   5.983   4.407   1.747
  858SOL     OW 3472   3.334   3.947   2.250
  858SOL    HW1 3473   3.364   3.852   2.256
  858SOL    HW2 3474   3.397   3.999   2.193
  859SOL     OW 3475   0.212   4.575   1.126
  859SOL    HW1 3476   0.130   4.611   1.169
  859SOL    HW2 3477   0.277   4.650   1.111
  860SOL     OW 3478   1.729   4.443   5.925
  860SOL    HW1 3479   1.795   4.413   5.855
  860SOL    HW2 3480   1.723   4.543   5.924
  861SOL     OW 3481   4.210   4.422   6.249
  861SOL    HW1 3482   4.143   4.353   6.220
  861SOL    HW2 3483   4.259   4.388   6.330
  862SOL     OW 3484   4.488   4.535   3.737
  862SOL    HW1 3485   4.459   4.572   3.825
  862SOL    HW2 3486   4.526   4.443   3.751
  863SOL     OW 3487   6.167   2.962   1.520
  863SOL    HW1 3488   6.253   3.003   1.491
  863SOL    HW2 3489   6.102   3.034   1.546
  864SOL     OW 3490   0.478   6.021   2.043
  864SOL    HW1 3491   0.385   5.984   2.039
  864SOL    HW2 3492   0.500   6.066   1.956
  865SOL     OW 3493   1.721   1.357   4.238
  865SOL    HW1 3494   1.721   1.306   4.324
  865SOL    HW2 3495   1.724   1.292   4.162
  866SOL     OW 3496   4.037   0.804   1.573
  866SOL    HW1 3497   4.121   0.855   1.592
  866SOL    HW2 3498   3.972   0.818   1.648
  867SOL     OW 3499   2.733   1.662   5.987
  867SOL    HW1 3500   2.786   1.657   5.902
  867SOL    HW2 3501   2.783   1.616   6.060
  868SOL     OW 3502   5.027   2.145   3.667
  868SOL    HW1 3503   4.938   2.189   3.682
  868SOL    HW2 3504   5.100   2.201   3.705
  869SOL     OW 3505   6.747   3.623   0.652
  869SOL    HW1 3506   6.785   3.535   0.624
  869SOL    HW2 3507   6.792   3.654   0.736
  870SOL     OW 3508   6.232   1.236   0.537
  870SOL    HW1 3509   6.282   1.176   0.475
  870SOL    HW2 3510   6.138   1.203   0.547
  871SOL     OW 3511   6.993   4.820   0.353
  871SOL    HW1 3512   6.966   4.745   0.293
  871SOL    HW2 3513   6.988   4.906   0.303
  872SOL     OW 3514   6.816   1.604   1.671
  872SOL    HW1 3515   6.830   1.573   1.765
  872SOL    HW2 3516   6.889   1.668   1.645
  873SOL     OW 3517   3.883   6.724   4.282
  873SOL    HW1 3518   3.931   6.722   4.194
  873SOL    HW2 3519   3.814   6.651   4.285
  874SOL     OW 3520   1.172   3.896   6.577
  874SOL    HW1 3521   1.155   3.820   6.514
  874SOL    HW2 3522   1.087   3.919   6.625
  875SOL     OW 3523   6.236   6.039   6.237
  875SOL    HW1 3524   6.211   6.128   6.200
  875SOL    HW2 3525   6.207   6.033   6.332
  876SOL     OW 3526   2.817   2.304   1.378
  876SOL    HW1 3527   2.874   2.320   1.297
  876SOL    HW2 3528   2.798   2.391   1.423
  877SOL     OW 3529   5.881   5.898   6.114
  877SOL    HW1 3530   5.795   5.906   6.063
  877SOL    HW2 3531   5.957   5.924   6.055
  878SOL     OW 3532   4.263   3.594   1.257
  878SOL    HW1 3533   4.245   3.500   1.226
  878SOL    HW2 3534   4.221   3.607   1.347
  879SOL     OW 3535   5.116   3.427   3.462
  879SOL    HW1 3536   5.036   3.371   3.445
  879SOL    HW2 3537   5.089   3.512   3.507
  880SOL     OW 3538   4.447   6.663   1.459
  880SOL    HW1 3539   4.505   6.605   1.517
  880SOL    HW2 3540   4.481   6.757   1.462
  881SOL     OW 3541   5.007   5.300   3.059
  881SOL    HW1 3542   5.020   5.249   3.144
  881SOL    HW2 3543   4.957   5.384   3.077
  882SOL     OW 3544   0.810   2.247   5.388
  882SOL    HW1 3545   0.714   2.256   5.414
  882SOL    HW2 3546   0.827   2.156   5.351
  883SOL     OW 3547   3.128   5.050   0.232
  883SOL    HW1 3548   3.096   5.068   0.325
  883SOL    HW2 3549   3.206   4.988   0.234
  884SOL     OW 3550   4.030   5.030   1.258
  884SOL    HW1 3551   4.016   4.945   1.206
  884SOL    HW2 3552   3.997   5.108   1.204
  885SOL     OW 3553   4.003   6.177   6.217
  885SOL    HW1 3554   3.973   6.159   6.311
  885SOL    HW2 3555   4.050   6.097   6.181
  886SOL     OW 3556   4.143   2.164   6.350
  886SOL    HW1 3557   4.115   2.108   6.429
  886SOL    HW2 3558   4.161   2.257   6.380
  887SOL     OW 3559   6.327   6.361   4.804
  887SOL    HW1 3560   6.370   6.345   4.893
  887SOL    HW2 3561   6.247   6.420   4.817
  888SOL     OW 3562   6.580   1.126   3.095
  888SOL    HW1 3563   6.619   1.186   3.164
  888SOL    HW2 3564   6.481   1.142   3.088
  889SOL     OW 3565   0.990   0.786   4.587
  889SOL    HW1 3566   0.891   0.804   4.583
  889SOL    HW2 3567   1.040   0.868   4.558
  890SOL     OW 3568   2.279   3.143   0.669
  890SOL    HW1 3569   2.265   3.133   0.570
  890SOL    HW2 3570   2.360   3.091   0.696
  891SOL     OW 3571   6.103   2.914   5.754
  891SOL    HW1 3572   6.080   2.955   5.666
  891SOL    HW2 3573   6.194   2.943   5.782
  892SOL     OW 3574   1.881   4.814   1.873
  892SOL    HW1 3575   1.968   4.772   1.845
  892SOL    HW2 3576   1.861   4.891   1.814
  893SOL     OW 3577   1.794   6.706   2.082
  893SOL    HW1 3578   1.803   6.676   1.987
  893SOL    HW2 3579   1.698   6.702   2.109
  894SOL     OW 3580   1.372   4.727   4.302
  894SOL    HW1 3581   1.470   4.714   4.291
  894SOL    HW2 3582   1.347   4.822   4.282
  895SOL     OW 3583   2.458   1.183   4.386
  895SOL    HW1 3584   2.530   1.224   4.330
  895SOL    HW2 3585   2.483   1.090   4.411
  896SOL     OW 3586   4.776   0.210   3.576
  896SOL    HW1 3587   4.819   0.121   3.589
  896SOL    HW2 3588   4.846   0.281   3.578
  897SOL     OW 3589   6.041   1.075   6.342
  897SOL    HW1 3590   6.033   0.977   6.324
  897SOL    HW2 3591   6.001   1.127   6.267
  898SOL     OW 3592   4.734   6.055   3.640
  898SOL    HW1 3593   4.815   6.090   3.593
  898SOL    HW2 3594   4.667   6.129   3.650
  899SOL     OW 3595   1.307   5.487   0.216
  899SOL    HW1 3596   1.327   5.559   0.150
  899SOL    HW2 3597   1.385   5.425   0.222
  900SOL     OW 3598   0.135   5.700   3.194
  900SOL    HW1 3599   0.112   5.628   3.259
  900SOL    HW2 3600   0.216   5.748   3.225
  901SOL     OW 3601   6.092   2.029   3.330
  901SOL    HW1 3602   6.015   2.033   3.266
  901SOL    HW2 3603   6.135   2.119   3.336
  902SOL     OW 3604   1.588   6.057   0.521
  902SOL    HW1 3605   1.553   6.083   0.431
  902SOL    HW2 3606   1.559   5.963   0.542
  903SOL     OW 3607   1.134   4.835   6.268
  903SOL    HW1 3608   1.176   4.773   6.201
  903SOL    HW2 3609   1.206   4.882   6.320
  904SOL     OW 3610   1.645   2.074   4.171
  904SOL    HW1 3611   1.555   2.111   4.191
  904SOL    HW2 3612   1.699   2.142   4.121
  905SOL     OW 3613   6.093   3.508   3.519
  905SOL    HW1 3614   6.191   3.524   3.526
  905SOL    HW2 3615   6.048   3.533   3.605
  906SOL     OW 3616   6.999   2.983   5.435
  906SOL    HW1 3617   6.952   2.896   5.418
  906SOL    HW2 3618   6.936   3.059   5.417
  907SOL     OW 3619   0.153   4.023   2.389
  907SOL    HW1 3620   0.058   4.022   2.358
  907SOL    HW2 3621   0.214   4.017   2.310
  908SOL     OW 3622   2.417   1.296   3.736
  908SOL    HW1 3623   2.506   1.341   3.740
  908SOL    HW2 3624   2.418   1.225   3.665
  909SOL     OW 3625   3.289   6.868   2.378
  909SOL    HW1 3626   3.297   6.922   2.295
  909SOL    HW2 3627   3.217   6.906   2.436
  910SOL     OW 3628   1.078   0.851   2.282
  910SOL    HW1 3629   0.993   0.858   2.230
  910SOL    HW2 3630   1.138   0.782   2.240
  911SOL     OW 3631   1.008   2.715   0.883
  911SOL    HW1 3632   0.955   2.746   0.804
  911SOL    HW2 3633   0.952   2.723   0.966
  912SOL     OW 3634   1.997   0.773   0.458
  912SOL    HW1 3635   1.975   0.682   0.495
  912SOL    HW2 3636   1.927   0.838   0.488
  913SOL     OW 3637   1.984   0.830   2.112
  913SOL    HW1 3638   2.084   0.821   2.102
  913SOL    HW2 3639   1.954   0.772   2.188
  914SOL     OW 3640   3.084   4.883   2.282
  914SOL    HW1 3641   3.129   4.889   2.193
  914SOL    HW2 3642   3.010   4.816   2.277
  915SOL     OW 3643   2.959   2.292   1.136
  915SOL    HW1 3644   2.977   2.312   1.040
  915SOL    HW2 3645   3.044   2.297   1.188
  916SOL     OW 3646   0.645   3.582   2.268
  916SOL    HW1 3647   0.656   3.487   2.296
  916SOL    HW2 3648   0.699   3.641   2.328
  917SOL     OW 3649   3.994   0.797   6.107
  917SOL    HW1 3650   4.057   0.831   6.038
  917SOL    HW2 3651   3.943   0.873   6.148
  918SOL     OW 3652   0.051   2.228   4.783
  918SOL    HW1 3653   0.040   2.208   4.881
  918SOL    HW2 3654   6.993   2.193   4.733
  919SOL     OW 3655   0.514   0.387   0.983
  919SOL    HW1 3656   0.428   0.436   0.970
  919SOL    HW2 3657   0.590   0.453   0.979
  920SOL     OW 3658   0.904   1.691   2.111
  920SOL    HW1 3659   0.897   1.737   2.023
  920SOL    HW2 3660   0.829   1.721   2.170
  921SOL     OW 3661   4.184   4.354   0.290
  921SOL    HW1 3662   4.086   4.335   0.282
  921SOL    HW2 3663   4.224   4.292   0.358
  922SOL     OW 3664   2.239   5.606   6.474
  922SOL    HW1 3665   2.177   5.671   6.516
  922SOL    HW2 3666   2.303   5.571   6.543
  923SOL     OW 3667   3.743   1.102   0.023
  923SOL    HW1 3668   3.655   1.056   0.039
  923SOL    HW2 3669   3.817   1.045   0.059
  924SOL     OW 3670   5.883   5.139   1.902
  924SOL    HW1 3671   5.926   5.072   1.961
  924SOL    HW2 3672   5.911   5.123   1.807
  925SOL     OW 3673   5.801   2.589   1.817
  925SOL    HW1 3674   5.847   2.506   1.848
  925SOL    HW2 3675   5.740   2.567   1.741
  926SOL     OW 3676   3.754   6.020   1.561
  926SOL    HW1 3677   3.844   6.048   1.528
  926SOL    HW2 3678   3.755   6.015   1.661
  927SOL     OW 3679   5.324   5.595   5.237
  927SOL    HW1 3680   5.245   5.655   5.221
  927SOL    HW2 3681   5.297   5.500   5.217
  928SOL     OW 3682   6.928   1.487   1.218
  928SOL    HW1 3683   6.930   1.564   1.154
  928SOL    HW2 3684   6.841   1.486   1.267
  929SOL     OW 3685   6.988   2.734   2.326
  929SOL    HW1 3686   6.906   2.718   2.271
  929SOL    HW2 3687   6.989   2.828   2.358
  930SOL     OW 3688   6.327   5.031   2.635
  930SOL    HW1 3689   6.404   4.967   2.628
  930SOL    HW2 3690   6.264   5.015   2.560
  931SOL     OW 3691   0.356   3.269   1.296
  931SOL    HW1 3692   0.265   3.312   1.302
  931SOL    HW2 3693   0.397   3.265   1.386
  932SOL     OW 3694   4.423   6.455   1.055
  932SOL    HW1 3695   4.427   6.552   1.031
  932SOL    HW2 3696   4.387   6.445   1.148
  933SOL     OW 3697   0.673   6.441   3.210
  933SOL    HW1 3698   0.769   6.420   3.225
  933SOL    HW2 3699   0.616   6.366   3.244
  934SOL     OW 3700   4.273   1.746   5.307
  934SOL    HW1 3701   4.324   1.665   5.337
  934SOL    HW2 3702   4.262   1.742   5.207
  935SOL     OW 3703   1.322   3.784   4.147
  935SOL    HW1 3704   1.280   3.806   4.059
  935SOL    HW2 3705   1.277   3.704   4.186
  936SOL     OW 3706   0.726   0.936   1.886
  936SOL    HW1 3707   0.774   1.022   1.902
  936SOL    HW2 3708   0.654   0.949   1.819
  937SOL     OW 3709   4.609   2.318   3.274
  937SOL    HW1 3710   4.665   2.367   3.207
  937SOL    HW2 3711   4.629   2.220   3.270
  938SOL     OW 3712   0.807   0.806   6.461
  938SOL    HW1 3713   0.886   0.782   6.405
  938SOL    HW2 3714   0.760   0.722   6.490
  939SOL     OW 3715   6.430   0.623   4.709
  939SOL    HW1 3716   6.495   0.678   4.657
  939SOL    HW2 3717   6.475   0.586   4.790
  940SOL     OW 3718   6.050   0.216   3.485
  940SOL    HW1 3719   6.093   0.200   3.396
  940SOL    HW2 3720   6.120   0.211   3.556
  941SOL     OW 3721   5.612   2.944   4.697
  941SOL    HW1 3722   5.636   2.847   4.686
  941SOL    HW2 3723   5.624   2.991   4.610
  942SOL     OW 3724   4.627   6.158   5.709
  942SOL    HW1 3725   4.691   6.222   5.751
  942SOL    HW2 3726   4.672   6.110   5.634
  943SOL     OW 3727   5.178   1.979   0.438
  943SOL    HW1 3728   5.248   2.049   0.455
  943SOL    HW2 3729   5.108   1.984   0.508
  944SOL     OW 3730   4.842   4.941   4.391
  944SOL    HW1 3731   4.754   4.975   4.422
  944SOL    HW2 3732   4.877   4.999   4.317
  945SOL     OW 3733   6.059   3.067   6.662
  945SOL    HW1 3734   5.978   3.115   6.696
  945SOL    HW2 3735   6.038   3.023   6.575
  946SOL     OW 3736   6.703   2.822   5.743
  946SOL    HW1 3737   6.802   2.812   5.736
  946SOL    HW2 3738   6.681   2.889   5.814
  947SOL     OW 3739   0.924   2.521   6.186
  947SOL    HW1 3740   0.985   2.456   6.231
  947SOL    HW2 3741   0.974   2.606   6.169
  948SOL     OW 3742   3.483   2.145   0.831
  948SOL    HW1 3743   3.531   2.122   0.746
  948SOL    HW2 3744   3.545   2.194   0.892
  949SOL     OW 3745   5.746   5.496   5.837
  949SOL    HW1 3746   5.689   5.439   5.897
  949SOL    HW2 3747   5.698   5.580   5.814
  950SOL     OW 3748   3.879   5.474   1.090
  950SOL    HW1 3749   3.805   5.407   1.090
  950SOL    HW2 3750   3.966   5.427   1.078
  951SOL     OW 3751   0.586   2.789   3.611
  951SOL    HW1 3752   0.487   2.780   3.596
  951SOL    HW2 3753   0.630   2.701   3.592
  952SOL     OW 3754   4.583   1.645   1.175
  952SOL    HW1 3755   4.532   1.619   1.093
  952SOL    HW2 3756   4.572   1.743   1.191
  953SOL     OW 3757   3.879   6.253   5.649
  953SOL    HW1 3758   3.971   6.221   5.624
  953SOL    HW2 3759   3.862   6.340   5.605
  954SOL     OW 3760   6.320   6.585   1.285
  954SOL    HW1 3761   6.245   6.576   1.220
  954SOL    HW2 3762   6.377   6.664   1.260
  955SOL     OW 3763   1.625   6.210   3.591
  955SOL    HW1 3764   1.676   6.233   3.674
  955SOL    HW2 3765   1.672   6.137   3.543
  956SOL     OW 3766   1.647   2.920   0.420
  956SOL    HW1 3767   1.650   2.939   0.518
  956SOL    HW2 3768   1.696   2.835   0.401
  957SOL     OW 3769   2.190   5.846   4.731
  957SOL    HW1 3770   2.169   5.923   4.670
  957SOL    HW2 3771   2.190   5.761   4.678
  958SOL     OW 3772   4.541   2.597   6.626
  958SOL    HW1 3773   4.604   2.660   6.581
  958SOL    HW2 3774   4.448   2.618   6.599
  959SOL     OW 3775   1.957   4.466   0.324
  959SOL    HW1 3776   1.958   4.553   0.275
  959SOL    HW2 3777   1.924   4.481   0.417
  960SOL     OW 3778   1.535   3.949   5.839
  960SOL    HW1 3779   1.626   3.988   5.853
  960SOL    HW2 3780   1.540   3.878   5.769
  961SOL     OW 3781   3.448   6.193   6.960
  961SOL    HW1 3782   3.533   6.212   6.912
  961SOL    HW2 3783   3.399   6.279   6.977
  962SOL     OW 3784   0.975   0.169   3.579
  962SOL    HW1 3785   0.993   0.109   3.656
  962SOL    HW2 3786   0.977   0.115   3.494
  963SOL     OW 3787   5.627   0.197   2.929
  963SOL    HW1 3788   5.691   0.148   2.988
  963SOL    HW2 3789   5.550   0.137   2.907
  964SOL     OW 3790   6.247   4.679   1.608
  964SOL    HW1 3791   6.228   4.777   1.603
  964SOL    HW2 3792   6.331   4.659   1.558
  965SOL     OW 3793   2.186   2.017   0.329
  965SOL    HW1 3794   2.254   2.024   0.402
  965SOL    HW2 3795   2.114   1.954   0.358
  966SOL     OW 3796   5.741   2.469   2.139
  966SOL    HW1 3797   5.648   2.501   2.156
  966SOL    HW2 3798   5.746   2.427   2.049
  967SOL     OW 3799   1.036   5.280   2.743
  967SOL    HW1 3800   1.011   5.203   2.683
  967SOL    HW2 3801   1.114   5.254   2.800
  968SOL     OW 3802   0.198   4.420   0.543
  968SOL    HW1 3803   0.199   4.488   0.616
  968SOL    HW2 3804   0.289   4.413   0.502
  969SOL     OW 3805   3.145   6.725   6.574
  969SOL    HW1 3806   3.195   6.779   6.506
  969SOL    HW2 3807   3.205   6.706   6.652
  970SOL     OW 3808   5.562   3.771   6.558
  970SOL    HW1 3809   5.610   3.840   6.504
  970SOL    HW2 3810   5.574   3.681   6.516
  971SOL     OW 3811   0.268   1.855   6.977
  971SOL    HW1 3812   0.222   1.896   6.898
  971SOL    HW2 3813   0.201   1.839   0.029
  972SOL     OW 3814   4.265   6.692   6.488
  972SOL    HW1 3815   4.322   6.758   6.536
  972SOL    HW2 3816   4.170   6.722   6.488
  973SOL     OW 3817   6.546   3.147   6.135
  973SOL    HW1 3818   6.458   3.192   6.126
  973SOL    HW2 3819   6.542   3.080   6.210
  974SOL     OW 3820   2.361   0.455   4.115
  974SOL    HW1 3821   2.281   0.461   4.056
  974SOL    HW2 3822   2.360   0.368   4.164
  975SOL     OW 3823   2.899   0.166   4.494
  975SOL    HW1 3824   2.971   0.189   4.428
  975SOL    HW2 3825   2.826   0.117   4.447
  976SOL     OW 3826   0.156   4.807   3.915
  976SOL    HW1 3827   0.235   4.833   3.859
  976SOL    HW2 3828   0.188   4.769   4.002
  977SOL     OW 3829   1.148   1.824   1.841
  977SOL    HW1 3830   1.158   1.724   1.846
  977SOL    HW2 3831   1.238   1.866   1.828
  978SOL     OW 3832   6.031   2.945   3.468
  978SOL    HW1 3833   5.996   3.039   3.467
  978SOL    HW2 3834   5.958   2.882   3.494
  979SOL     OW 3835   6.219   1.284   2.676
  979SOL    HW1 3836   6.125   1.252   2.682
  979SOL    HW2 3837   6.281   1.211   2.704
  980SOL     OW 3838   6.394   6.394   5.187
  980SOL    HW1 3839   6.344   6.419   5.270
  980SOL    HW2 3840   6.425   6.299   5.194
  981SOL     OW 3841   6.047   3.407   0.207
  981SOL    HW1 3842   6.071   3.407   0.304
  981SOL    HW2 3843   5.963   3.460   0.194
  982SOL     OW 3844   1.730   4.628   0.000
  982SOL    HW1 3845   1.711   4.538   6.981
  982SOL    HW2 3846   1.704   4.627   0.097
  983SOL     OW 3847   5.741   1.785   2.964
  983SOL    HW1 3848   5.677   1.847   3.008
  983SOL    HW2 3849   5.830   1.792   3.008
  984SOL     OW 3850   5.185   3.270   5.636
  984SOL    HW1 3851   5.160   3.175   5.617
  984SOL    HW2 3852   5.202   3.317   5.549
  985SOL     OW 3853   2.495   4.483   0.238
  985SOL    HW1 3854   2.439   4.435   0.305
  985SOL    HW2 3855   2.438   4.512   0.161
  986SOL     OW 3856   5.114   3.909   5.062
  986SOL    HW1 3857   5.017   3.927   5.079
  986SOL    HW2 3858   5.141   3.825   5.108
  987SOL     OW 3859   3.121   1.116   2.830
  987SOL    HW1 3860   3.215   1.149   2.833
  987SOL    HW2 3861   3.091   1.090   2.922
  988SOL     OW 3862   3.945   3.240   1.278
  988SOL    HW1 3863   3.942   3.225   1.179
  988SOL    HW2 3864   3.876   3.307   1.305
  989SOL     OW 3865   0.951   1.319   4.552
  989SOL    HW1 3866   1.015   1.308   4.628
  989SOL    HW2 3867   0.956   1.238   4.493
  990SOL     OW 3868   4.300   5.960   2.324
  990SOL    HW1 3869   4.221   5.957   2.385
  990SOL    HW2 3870   4.380   5.993   2.374
  991SOL     OW 3871   5.963   1.509   6.238
  991SOL    HW1 3872   5.961   1.427   6.182
  991SOL    HW2 3873   5.902   1.497   6.317
  992SOL     OW 3874   0.157   2.686   0.344
  992SOL    HW1 3875   0.224   2.626   0.300
  992SOL    HW2 3876   0.121   2.641   0.426
  993SOL     OW 3877   4.518   6.821   4.081
  993SOL    HW1 3878   4.469   6.811   4.168
  993SOL    HW2 3879   4.454   6.846   4.009
  994SOL     OW 3880   2.903   3.475   3.933
  994SOL    HW1 3881   2.812   3.432   3.931
  994SOL    HW2 3882   2.906   3.542   4.007
  995SOL     OW 3883   1.525   1.831   4.934
  995SOL    HW1 3884   1.478   1.901   4.880
  995SOL    HW2 3885   1.463   1.756   4.955
  996SOL     OW 3886   1.549   3.368   6.871
  996SOL    HW1 3887   1.591   3.277   6.871
  996SOL    HW2 3888   1.527   3.395   6.965
  997SOL     OW 3889   6.974   1.321   0.587
  997SOL    HW1 3890   6.954   1.247   0.651
  997SOL    HW2 3891   7.019   1.284   0.506
  998SOL     OW 3892   4.882   0.272   3.242
  998SOL    HW1 3893   4.930   0.186   3.231
  998SOL    HW2 3894   4.948   0.347   3.253
  999SOL     OW 3895   6.807   5.107   7.017
  999SOL    HW1 3896   6.902   5.082   6.999
  999SOL    HW2 3897   6.763   5.036   0.051
 1000SOL     OW 3898   3.902   1.845   4.903
 1000SOL    HW1 3899   3.865   1.837   4.995
 1000SOL    HW2 3900   3.873   1.932   4.863
 1001SOL     OW 3901   5.008   1.059   4.539
 1001SOL    HW1 3902   5.019   1.113   4.622
 1001SOL    HW2 3903   4.913   1.064   4.507
 1002SOL     OW 3904   0.185   1.156   0.209
 1002SOL    HW1 3905   0.106   1.208   0.242
 1002SOL    HW2 3906   0.172   1.134   0.113
 1003SOL     OW 3907   4.433   5.038   2.568
 1003SOL    HW1 3908   4.334   5.047   2.578
 1003SOL    HW2 3909   4.463   5.085   2.485
 1004SOL     OW 3910   5.985   6.037   0.112
 1004SOL    HW1 3911   6.080   6.014   0.091
 1004SOL    HW2 3912   5.982   6.126   0.156
 1005SOL     OW 3913   5.716   6.102   3.210
 1005SOL    HW1 3914   5.694   6.148   3.123
 1005SOL    HW2 3915   5.815   6.093   3.218
 1006SOL     OW 3916   1.739   5.369   0.388
 1006SOL    HW1 3917   1.681   5.316   0.327
 1006SOL    HW2 3918   1.835   5.351   0.369
 1007SOL     OW 3919   6.125   1.744   2.836
 1007SOL    HW1 3920   6.061   1.819   2.819
 1007SOL    HW2 3921   6.214   1.766   2.796
 1008SOL     OW 3922   3.334   1.840   5.301
 1008SOL    HW1 3923   3.343   1.741   5.305
 1008SOL    HW2 3924   3.237   1.865   5.306
 1009SOL     OW 3925   3.137   6.446   5.436
 1009SOL    HW1 3926   3.058   6.412   5.487
 1009SOL    HW2 3927   3.207   6.477   5.501
 1010SOL     OW 3928   5.112   6.677   5.555
 1010SOL    HW1 3929   5.114   6.645   5.650
 1010SOL    HW2 3930   5.074   6.769   5.552
 1011SOL     OW 3931   2.903   5.237   4.294
 1011SOL    HW1 3932   2.914   5.320   4.348
 1011SOL    HW2 3933   2.819   5.190   4.322
 1012SOL     OW 3934   3.361   6.163   1.091
 1012SOL    HW1 3935   3.362   6.215   1.176
 1012SOL    HW2 3936   3.451   6.121   1.077
 1013SOL     OW 3937   0.567   0.060   6.729
 1013SOL    HW1 3938   0.482   0.021   6.765
 1013SOL    HW2 3939   0.578   0.034   6.633
 1014SOL     OW 3940   5.908   0.216   6.523
 1014SOL    HW1 3941   5.966   0.149   6.568
 1014SOL    HW2 3942   5.959   0.260   6.449
 1015SOL     OW 3943   2.741   0.595   4.742
 1015SOL    HW1 3944   2.668   0.633   4.687
 1015SOL    HW2 3945   2.814   0.560   4.683
 1016SOL     OW 3946   4.478   3.132   1.288
 1016SOL    HW1 3947   4.442   3.218   1.253
 1016SOL    HW2 3948   4.402   3.076   1.323
 1017SOL     OW 3949   4.814   6.968   5.991
 1017SOL    HW1 3950   4.850   7.020   6.068
 1017SOL    HW2 3951   4.888   6.948   5.927
 1018SOL     OW 3952   1.183   1.646   1.568
 1018SOL    HW1 3953   1.141   1.590   1.640
 1018SOL    HW2 3954   1.193   1.590   1.485
 1019SOL     OW 3955   5.185   1.461   0.502
 1019SOL    HW1 3956   5.190   1.476   0.601
 1019SOL    HW2 3957   5.148   1.543   0.458
 1020SOL     OW 3958   4.018   1.988   1.563
 1020SOL    HW1 3959   3.945   2.043   1.604
 1020SOL    HW2 3960   4.107   2.026   1.589
 1021SOL     OW 3961   6.543   1.744   1.147
 1021SOL    HW1 3962   6.566   1.658   1.193
 1021SOL    HW2 3963   6.487   1.725   1.067
 1022SOL     OW 3964   3.299   3.151   0.400
 1022SOL    HW1 3965   3.316   3.071   0.457
 1022SOL    HW2 3966   3.345   3.231   0.440
 1023SOL     OW 3967   6.708   0.737   4.298
 1023SOL    HW1 3968   6.727   0.656   4.244
 1023SOL    HW2 3969   6.792   0.769   4.343
 1024SOL     OW 3970   6.353   2.454   3.716
 1024SOL    HW1 3971   6.314   2.526   3.773
 1024SOL    HW2 3972   6.451   2.470   3.704
 1025SOL     OW 3973   2.343   4.573   2.061
 1025SOL    HW1 3974   2.335   4.630   1.980
 1025SOL    HW2 3975   2.306   4.482   2.042
 1026SOL     OW 3976   0.677   2.864   6.415
 1026SOL    HW1 3977   0.699   2.961   6.405
 1026SOL    HW2 3978   0.579   2.850   6.402
 1027SOL     OW 3979   1.984   4.989   0.855
 1027SOL    HW1 3980   2.067   5.015   0.904
 1027SOL    HW2 3981   1.908   4.982   0.920
 1028SOL     OW 3982   0.233   5.377   6.756
 1028SOL    HW1 3983   0.263   5.459   6.805
 1028SOL    HW2 3984   0.211   5.305   6.823
 1029SOL     OW 3985   4.257   0.975   4.585
 1029SOL    HW1 3986   4.247   0.882   4.548
 1029SOL    HW2 3987   4.323   1.025   4.530
 1030SOL     OW 3988   4.351   5.047   4.890
 1030SOL    HW1 3989   4.318   4.960   4.924
 1030SOL    HW2 3990   4.311   5.066   4.800
 1031SOL     OW 3991   2.318   6.157   1.162
 1031SOL    HW1 3992   2.396   6.168   1.101
 1031SOL    HW2 3993   2.351   6.143   1.256
 1032SOL     OW 3994   1.277   2.098   5.354
 1032SOL    HW1 3995   1.253   2.119   5.448
 1032SOL    HW2 3996   1.363   2.046   5.352
 1033SOL     OW 3997   2.907   0.047   1.701
 1033SOL    HW1 3998   2.810   0.034   1.719
 1033SOL    HW2 3999   2.961   0.005   1.774
 1034SOL     OW 4000   0.034   5.773   2.355
 1034SOL    HW1 4001   0.041   5.873   2.351
 1034SOL    HW2 4002   0.003   5.746   2.446
 1035SOL     OW 4003   3.499   2.115   3.039
 1035SOL    HW1 4004   3.469   2.207   3.013
 1035SOL    HW2 4005   3.439   2.047   2.997
 1036SOL     OW 4006   4.820   6.869   6.456
 1036SOL    HW1 4007   4.779   6.946   6.506
 1036SOL    HW2 4008   4.859   6.901   6.371
 1037SOL     OW 4009   4.088   1.361   6.124
 1037SOL    HW1 4010   4.125   1.267   6.121
 1037SOL    HW2 4011   4.031   1.371   6.205
 1038SOL     OW 4012   2.873   1.879   5.130
 1038SOL    HW1 4013   2.896   1.964   5.082
 1038SOL    HW2 4014   2.780   1.886   5.167
 1039SOL     OW 4015   5.337   1.652   2.438
 1039SOL    HW1 4016   5.268   1.650   2.511
 1039SOL    HW2 4017   5.338   1.742   2.396
 1040SOL     OW 4018   5.812   4.911   4.608
 1040SOL    HW1 4019   5.833   4.999   4.651
 1040SOL    HW2 4020   5.891   4.881   4.554
 1041SOL     OW 4021   1.779   6.594   4.713
 1041SOL    HW1 4022   1.822   6.653   4.645
 1041SOL    HW2 4023   1.806   6.499   4.696
 1042SOL     OW 4024   4.942   4.211   0.828
 1042SOL    HW1 4025   4.952   4.230   0.926
 1042SOL    HW2 4026   4.989   4.125   0.806
 1043SOL     OW 4027   4.150   0.231   6.229
 1043SOL    HW1 4028   4.244   0.210   6.255
 1043SOL    HW2 4029   4.150   0.292   6.150
 1044SOL     OW 4030   3.508   4.144   3.975
 1044SOL    HW1 4031   3.493   4.168   3.879
 1044SOL    HW2 4032   3.570   4.066   3.981
 1045SOL     OW 4033   2.348   1.670   2.184
 1045SOL    HW1 4034   2.346   1.646   2.281
 1045SOL    HW2 4035   2.436   1.643   2.145
 1046SOL     OW 4036   2.788   0.928   2.340
 1046SOL    HW1 4037   2.852   0.854   2.323
 1046SOL    HW2 4038   2.778   0.943   2.438
 1047SOL     OW 4039   0.178   6.541   1.972
 1047SOL    HW1 4040   0.171   6.441   1.978
 1047SOL    HW2 4041   0.171   6.581   2.063
 1048SOL     OW 4042   6.991   3.792   4.747
 1048SOL    HW1 4043   0.039   3.826   4.684
 1048SOL    HW2 4044   7.002   3.693   4.758
 1049SOL     OW 4045   6.828   3.603   5.457
 1049SOL    HW1 4046   6.832   3.693   5.413
 1049SOL    HW2 4047   6.797   3.535   5.390
 1050SOL     OW 4048   2.929   0.561   1.267
 1050SOL    HW1 4049   3.020   0.521   1.259
 1050SOL    HW2 4050   2.890   0.572   1.175
 1051SOL     OW 4051   5.002   3.961   1.973
 1051SOL    HW1 4052   4.926   3.978   2.037
 1051SOL    HW2 4053   5.005   3.864   1.949
 1052SOL     OW 4054   3.066   6.971   4.035
 1052SOL    HW1 4055   3.094   0.016   4.105
 1052SOL    HW2 4056   3.022   7.020   3.959
 1053SOL     OW 4057   3.399   5.602   2.992
 1053SOL    HW1 4058   3.424   5.524   3.049
 1053SOL    HW2 4059   3.299   5.605   2.981
 1054SOL     OW 4060   3.799   6.631   5.132
 1054SOL    HW1 4061   3.754   6.546   5.105
 1054SOL    HW2 4062   3.759   6.664   5.217
 1055SOL     OW 4063   3.858   4.864   4.556
 1055SOL    HW1 4064   3.774   4.873   4.609
 1055SOL    HW2 4065   3.927   4.926   4.593
 1056SOL     OW 4066   2.782   5.736   0.344
 1056SOL    HW1 4067   2.799   5.772   0.436
 1056SOL    HW2 4068   2.866   5.698   0.307
 1057SOL     OW 4069   3.618   3.669   1.472
 1057SOL    HW1 4070   3.537   3.721   1.444
 1057SOL    HW2 4071   3.649   3.701   1.562
 1058SOL     OW 4072   2.709   0.432   2.023
 1058SOL    HW1 4073   2.739   0.451   1.929
 1058SOL    HW2 4074   2.718   0.335   2.042
 1059SOL     OW 4075   4.073   6.837   0.821
 1059SOL    HW1 4076   3.986   6.885   0.833
 1059SOL    HW2 4077   4.145   6.904   0.800
 1060SOL     OW 4078   3.655   1.853   4.084
 1060SOL    HW1 4079   3.585   1.783   4.070
 1060SOL    HW2 4080   3.615   1.944   4.070
 1061SOL     OW 4081   2.493   5.494   1.381
 1061SOL    HW1 4082   2.468   5.497   1.478
 1061SOL    HW2 4083   2.410   5.498   1.325
 1062SOL     OW 4084   5.151   3.963   4.797
 1062SOL    HW1 4085   5.146   3.931   4.891
 1062SOL    HW2 4086   5.074   3.927   4.745
 1063SOL     OW 4087   4.088   2.304   5.998
 1063SOL    HW1 4088   4.036   2.345   6.073
 1063SOL    HW2 4089   4.067   2.206   5.994
 1064SOL     OW 4090   0.768   3.271   2.955
 1064SOL    HW1 4091   0.684   3.244   3.003
 1064SOL    HW2 4092   0.747   3.345   2.891
 1065SOL     OW 4093   4.194   5.620   0.073
 1065SOL    HW1 4094   4.213   5.545   0.010
 1065SOL    HW2 4095   4.241   5.604   0.160
 1066SOL     OW 4096   5.477   0.081   3.483
 1066SOL    HW1 4097   5.497   0.145   3.409
 1066SOL    HW2 4098   5.513   0.117   3.569
 1067SOL     OW 4099   3.462   4.054   0.531
 1067SOL    HW1 4100   3.441   3.958   0.517
 1067SOL    HW2 4101   3.459   4.075   0.629
 1068SOL     OW 4102   1.018   5.332   2.160
 1068SOL    HW1 4103   1.096   5.285   2.200
 1068SOL    HW2 4104   1.025   5.330   2.060
 1069SOL     OW 4105   3.751   3.440   3.031
 1069SOL    HW1 4106   3.722   3.368   2.967
 1069SOL    HW2 4107   3.743   3.529   2.986
 1070SOL     OW 4108   1.483   6.364   0.244
 1070SOL    HW1 4109   1.545   6.436   0.214
 1070SOL    HW2 4110   1.496   6.347   0.341
 1071SOL     OW 4111   4.597   5.839   3.502
 1071SOL    HW1 4112   4.633   5.910   3.562
 1071SOL    HW2 4113   4.646   5.753   3.519
 1072SOL     OW 4114   4.355   5.446   3.571
 1072SOL    HW1 4115   4.324   5.542   3.571
 1072SOL    HW2 4116   4.307   5.396   3.499
 1073SOL     OW 4117   2.912   6.063   3.386
 1073SOL    HW1 4118   2.940   6.135   3.323
 1073SOL    HW2 4119   2.832   6.015   3.349
 1074SOL     OW 4120   2.265   5.084   3.738
 1074SOL    HW1 4121   2.300   4.994   3.764
 1074SOL    HW2 4122   2.249   5.138   3.821
 1075SOL     OW 4123   0.827   4.419   2.713
 1075SOL    HW1 4124   0.892   4.416   2.637
 1075SOL    HW2 4125   0.868   4.377   2.794
 1076SOL     OW 4126   5.453   3.595   3.134
 1076SOL    HW1 4127   5.398   3.661   3.186
 1076SOL    HW2 4128   5.424   3.502   3.157
 1077SOL     OW 4129   3.825   1.019   2.124
 1077SOL    HW1 4130   3.808   1.033   2.026
 1077SOL    HW2 4131   3.807   0.924   2.148
 1078SOL     OW 4132   6.457   2.701   2.082
 1078SOL    HW1 4133   6.454   2.636   2.006
 1078SOL    HW2 4134   6.488   2.653   2.164
 1079SOL     OW 4135   2.223   4.596   3.051
 1079SOL    HW1 4136   2.219   4.696   3.043
 1079SOL    HW2 4137   2.227   4.570   3.147
 1080SOL     OW 4138   2.405   5.389   3.926
 1080SOL    HW1 4139   2.381   5.375   3.829
 1080SOL    HW2 4140   2.495   5.351   3.944
 1081SOL     OW 4141   1.352   0.409   0.674
 1081SOL    HW1 4142   1.275   0.365   0.720
 1081SOL    HW2 4143   1.367   0.500   0.713
 1082SOL     OW 4144   1.642   0.447   1.292
 1082SOL    HW1 4145   1.659   0.421   1.197
 1082SOL    HW2 4146   1.641   0.546   1.301
 1083SOL     OW 4147   3.711   3.267   1.638
 1083SOL    HW1 4148   3.704   3.362   1.666
 1083SOL    HW2 4149   3.801   3.231   1.661
 1084SOL     OW 4150   6.120   4.027   1.464
 1084SOL    HW1 4151   6.113   4.002   1.368
 1084SOL    HW2 4152   6.048   3.981   1.516
 1085SOL     OW 4153   1.888   5.507   3.667
 1085SOL    HW1 4154   1.870   5.606   3.668
 1085SOL    HW2 4155   1.917   5.477   3.758
 1086SOL     OW 4156   2.641   6.078   2.258
 1086SOL    HW1 4157   2.719   6.020   2.234
 1086SOL    HW2 4158   2.666   6.174   2.245
 1087SOL     OW 4159   3.714   3.175   5.163
 1087SOL    HW1 4160   3.647   3.109   5.196
 1087SOL    HW2 4161   3.679   3.268   5.175
 1088SOL     OW 4162   0.045   5.052   2.438
 1088SOL    HW1 4163   0.144   5.050   2.421
 1088SOL    HW2 4164   7.018   5.020   2.357
 1089SOL     OW 4165   0.039   0.818   3.124
 1089SOL    HW1 4166   7.000   0.769   3.187
 1089SOL    HW2 4167   0.001   0.908   3.105
 1090SOL     OW 4168   2.855   2.415   6.688
 1090SOL    HW1 4169   2.888   2.337   6.742
 1090SOL    HW2 4170   2.779   2.385   6.629
 1091SOL     OW 4171   1.415   2.265   5.998
 1091SOL    HW1 4172   1.327   2.257   6.044
 1091SOL    HW2 4173   1.489   2.245   6.063
 1092SOL     OW 4174   3.000   4.824   1.573
 1092SOL    HW1 4175   2.924   4.831   1.508
 1092SOL    HW2 4176   3.000   4.733   1.615
 1093SOL     OW 4177   0.211   1.930   1.393
 1093SOL    HW1 4178   0.164   2.017   1.377
 1093SOL    HW2 4179   0.166   1.857   1.343
 1094SOL     OW 4180   0.969   5.890   2.739
 1094SOL    HW1 4181   0.932   5.797   2.744
 1094SOL    HW2 4182   0.974   5.918   2.643
 1095SOL     OW 4183   1.372   3.067   5.772
 1095SOL    HW1 4184   1.339   2.989   5.824
 1095SOL    HW2 4185   1.369   3.149   5.829
 1096SOL     OW 4186   3.920   3.114   2.330
 1096SOL    HW1 4187   3.835   3.060   2.333
 1096SOL    HW2 4188   3.947   3.126   2.235
 1097SOL     OW 4189   2.896   5.218   5.583
 1097SOL    HW1 4190   2.984   5.252   5.549
 1097SOL    HW2 4191   2.841   5.295   5.616
 1098SOL     OW 4192   3.014   0.845   2.940
 1098SOL    HW1 4193   3.026   0.888   2.851
 1098SOL    HW2 4194   3.027   0.913   3.012
 1099SOL     OW 4195   3.042   0.386   2.233
 1099SOL    HW1 4196   3.036   0.351   2.139
 1099SOL    HW2 4197   2.969   0.452   2.248
 1100SOL     OW 4198   6.852   0.920   0.583
 1100SOL    HW1 4199   6.831   0.939   0.487
 1100SOL    HW2 4200   6.767   0.910   0.634
 1101SOL     OW 4201   5.854   4.732   1.099
 1101SOL    HW1 4202   5.933   4.762   1.152
 1101SOL    HW2 4203   5.849   4.632   1.098
 1102SOL     OW 4204   6.924   4.296   4.187
 1102SOL    HW1 4205   6.981   4.377   4.171
 1102SOL    HW2 4206   6.831   4.315   4.157
 1103SOL     OW 4207   0.763   2.403   6.636
 1103SOL    HW1 4208   0.853   2.439   6.664
 1103SOL    HW2 4209   0.723   2.352   6.712
 1104SOL     OW 4210   2.865   5.244   5.890
 1104SOL    HW1 4211   2.803   5.296   5.832
 1104SOL    HW2 4212   2.815   5.204   5.967
 1105SOL     OW 4213   4.056   6.144   0.600
 1105SOL    HW1 4214   3.993   6.079   0.556
 1105SOL    HW2 4215   4.066   6.225   0.543
 1106SOL     OW 4216   0.730   1.858   6.814
 1106SOL    HW1 4217   0.778   1.834   6.899
 1106SOL    HW2 4218   0.747   1.788   6.745
 1107SOL     OW 4219   6.593   6.999   1.224
 1107SOL    HW1 4220   6.686   0.015   1.227
 1107SOL    HW2 4221   6.538   0.019   1.297
 1108SOL     OW 4222   0.982   1.261   0.318
 1108SOL    HW1 4223   1.064   1.311   0.291
 1108SOL    HW2 4224   1.009   1.178   0.367
 1109SOL     OW 4225   3.813   1.415   3.292
 1109SOL    HW1 4226   3.832   1.348   3.220
 1109SOL    HW2 4227   3.894   1.470   3.308
 1110SOL     OW 4228   3.728   3.163   3.208
 1110SOL    HW1 4229   3.658   3.109   3.162
 1110SOL    HW2 4230   3.685   3.220   3.278
 1111SOL     OW 4231   3.819   6.876   6.982
 1111SOL    HW1 4232   3.851   6.801   6.923
 1111SOL    HW2 4233   3.821   6.961   6.930
 1112SOL     OW 4234   0.932   1.474   2.525
 1112SOL    HW1 4235   0.842   1.465   2.569
 1112SOL    HW2 4236   0.979   1.554   2.562
 1113SOL     OW 4237   0.113   4.419   2.039
 1113SOL    HW1 4238   0.134   4.322   2.054
 1113SOL    HW2 4239   0.014   4.432   2.040
 1114SOL     OW 4240   5.726   0.994   5.707
 1114SOL    HW1 4241   5.653   1.056   5.678
 1114SOL    HW2 4242   5.800   0.998   5.640
 1115SOL     OW 4243   2.088   4.854   0.472
 1115SOL    HW1 4244   2.043   4.790   0.534
 1115SOL    HW2 4245   2.076   4.822   0.378
 1116SOL     OW 4246   3.180   6.423   6.462
 1116SOL    HW1 4247   3.187   6.368   6.546
 1116SOL    HW2 4248   3.217   6.371   6.385
 1117SOL     OW 4249   2.772   2.738   0.600
 1117SOL    HW1 4250   2.763   2.826   0.553
 1117SOL    HW2 4251   2.857   2.694   0.573
 1118SOL     OW 4252   1.584   2.282   0.896
 1118SOL    HW1 4253   1.582   2.204   0.960
 1118SOL    HW2 4254   1.672   2.283   0.849
 1119SOL     OW 4255   3.044   3.141   4.033
 1119SOL    HW1 4256   2.956   3.097   4.016
 1119SOL    HW2 4257   3.031   3.221   4.091
 1120SOL     OW 4258   3.472   1.256   3.369
 1120SOL    HW1 4259   3.384   1.209   3.375
 1120SOL    HW2 4260   3.468   1.326   3.296
 1121SOL     OW 4261   4.850   4.342   2.855
 1121SOL    HW1 4262   4.773   4.371   2.798
 1121SOL    HW2 4263   4.892   4.422   2.898
 1122SOL     OW 4264   4.884   4.860   6.958
 1122SOL    HW1 4265   4.853   4.817   6.874
 1122SOL    HW2 4266   4.866   4.958   6.954
 1123SOL     OW 4267   3.531   0.433   2.084
 1123SOL    HW1 4268   3.461   0.465   2.021
 1123SOL    HW2 4269   3.487   0.388   2.162
 1124SOL     OW 4270   2.651   5.060   3.538
 1124SOL    HW1 4271   2.556   5.069   3.507
 1124SOL    HW2 4272   2.682   4.966   3.523
 1125SOL     OW 4273   3.278   4.566   5.356
 1125SOL    HW1 4274   3.200   4.508   5.332
 1125SOL    HW2 4275   3.273   4.589   5.454
 1126SOL     OW 4276   6.338   0.254   2.077
 1126SOL    HW1 4277   6.432   0.284   2.092
 1126SOL    HW2 4278   6.290   0.249   2.164
 1127SOL     OW 4279   2.483   5.473   5.586
 1127SOL    HW1 4280   2.464   5.512   5.496
 1127SOL    HW2 4281   2.487   5.547   5.654
 1128SOL     OW 4282   2.622   1.947   5.231
 1128SOL    HW1 4283   2.589   2.033   5.192
 1128SOL    HW2 4284   2.654   1.962   5.325
 1129SOL     OW 4285   4.333   5.382   6.343
 1129SOL    HW1 4286   4.392   5.408   6.421
 1129SOL    HW2 4287   4.326   5.283   6.340
 1130SOL     OW 4288   1.157   5.034   5.322
 1130SOL    HW1 4289   1.102   4.952   5.313
 1130SOL    HW2 4290   1.178   5.049   5.419
 1131SOL     OW 4291   0.383   4.030   5.752
 1131SOL    HW1 4292   0.374   4.076   5.664
 1131SOL    HW2 4293   0.360   3.933   5.741
 1132SOL     OW 4294   5.324   6.767   4.958
 1132SOL    HW1 4295   5.399   6.799   5.016
 1132SOL    HW2 4296   5.238   6.775   5.008
 1133SOL     OW 4297   6.562   1.589   6.812
 1133SOL    HW1 4298   6.649   1.635   6.795
 1133SOL    HW2 4299   6.572   1.491   6.799
 1134SOL     OW 4300   0.386   3.460   5.226
 1134SOL    HW1 4301   0.347   3.528   5.164
 1134SOL    HW2 4302   0.346   3.472   5.317
 1135SOL     OW 4303   6.967   1.819   4.178
 1135SOL    HW1 4304   6.994   1.743   4.120
 1135SOL    HW2 4305   6.878   1.854   4.150
 1136SOL     OW 4306   3.682   5.555   3.996
 1136SOL    HW1 4307   3.674   5.457   4.015
 1136SOL    HW2 4308   3.594   5.590   3.965
 1137SOL     OW 4309   0.519   0.379   6.813
 1137SOL    HW1 4310   0.597   0.340   6.862
 1137SOL    HW2 4311   0.528   0.479   6.812
 1138SOL     OW 4312   1.152   2.663   5.893
 1138SOL    HW1 4313   1.206   2.617   5.963
 1138SOL    HW2 4314   1.197   2.654   5.804
 1139SOL     OW 4315   0.174   0.050   2.852
 1139SOL    HW1 4316   0.093   0.072   2.798
 1139SOL    HW2 4317   0.149   7.012   2.928
 1140SOL     OW 4318   4.435   2.061   3.312
 1140SOL    HW1 4319   4.344   2.032   3.341
 1140SOL    HW2 4320   4.459   2.016   3.226
 1141SOL     OW 4321   0.396   6.921   5.983
 1141SOL    HW1 4322   0.430   6.851   5.920
 1141SOL    HW2 4323   0.356   6.876   6.063
 1142SOL     OW 4324   6.041   0.411   5.314
 1142SOL    HW1 4325   6.084   0.325   5.341
 1142SOL    HW2 4326   6.035   0.414   5.214
 1143SOL     OW 4327   5.363   2.957   1.571
 1143SOL    HW1 4328   5.276   3.004   1.592
 1143SOL    HW2 4329   5.370   2.944   1.472
 1144SOL     OW 4330   1.064   6.694   4.513
 1144SOL    HW1 4331   1.041   6.749   4.432
 1144SOL    HW2 4332   1.068   6.754   4.593
 1145SOL     OW 4333   2.704   4.974   5.090
 1145SOL    HW1 4334   2.645   4.986   5.170
 1145SOL    HW2 4335   2.792   4.936   5.119
 1146SOL     OW 4336   6.119   2.009   1.973
 1146SOL    HW1 4337   6.157   1.982   1.885
 1146SOL    HW2 4338   6.052   1.941   2.003
 1147SOL     OW 4339   6.858   4.400   2.111
 1147SOL    HW1 4340   6.876   4.334   2.183
 1147SOL    HW2 4341   6.777   4.454   2.133
 1148SOL     OW 4342   5.760   6.984   6.222
 1148SOL    HW1 4343   5.704   0.042   6.247
 1148SOL    HW2 4344   5.740   6.908   6.284
 1149SOL     OW 4345   4.870   3.424   3.007
 1149SOL    HW1 4346   4.835   3.513   3.034
 1149SOL    HW2 4347   4.908   3.378   3.087
 1150SOL     OW 4348   2.514   6.084   5.188
 1150SOL    HW1 4349   2.518   6.184   5.184
 1150SOL    HW2 4350   2.429   6.055   5.232
 1151SOL     OW 4351   2.201   5.305   0.126
 1151SOL    HW1 4352   2.282   5.354   0.094
 1151SOL    HW2 4353   2.228   5.213   0.156
 1152SOL     OW 4354   6.698   0.992   3.454
 1152SOL    HW1 4355   6.624   0.952   3.508
 1152SOL    HW2 4356   6.673   0.991   3.357
 1153SOL     OW 4357   2.123   4.470   2.615
 1153SOL    HW1 4358   2.107   4.539   2.685
 1153SOL    HW2 4359   2.200   4.499   2.557
 1154SOL     OW 4360   1.493   3.994   1.847
 1154SOL    HW1 4361   1.590   4.015   1.862
 1154SOL    HW2 4362   1.438   4.073   1.872
 1155SOL     OW 4363   5.030   1.189   1.920
 1155SOL    HW1 4364   5.027   1.171   1.821
 1155SOL    HW2 4365   5.114   1.239   1.942
 1156SOL     OW 4366   2.608   0.771   4.314
 1156SOL    HW1 4367   2.511   0.747   4.319
 1156SOL    HW2 4368   2.663   0.688   4.317
 1157SOL     OW 4369   1.629   3.325   3.859
 1157SOL    HW1 4370   1.688   3.299   3.783
 1157SOL    HW2 4371   1.684   3.342   3.941
 1158SOL     OW 4372   4.816   5.425   5.265
 1158SOL    HW1 4373   4.795   5.446   5.169
 1158SOL    HW2 4374   4.778   5.496   5.324
 1159SOL     OW 4375   6.212   4.140   2.821
 1159SOL    HW1 4376   6.132   4.098   2.779
 1159SOL    HW2 4377   6.232   4.093   2.907
 1160SOL     OW 4378   2.566   2.545   1.604
 1160SOL    HW1 4379   2.617   2.482   1.662
 1160SOL    HW2 4380   2.497   2.495   1.552
 1161SOL     OW 4381   3.944   1.061   3.372
 1161SOL    HW1 4382   3.991   0.972   3.371
 1161SOL    HW2 4383   4.002   1.129   3.416
 1162SOL     OW 4384   3.301   5.228   1.631
 1162SOL    HW1 4385   3.300   5.272   1.541
 1162SOL    HW2 4386   3.231   5.157   1.635
 1163SOL     OW 4387   4.875   6.587   3.122
 1163SOL    HW1 4388   4.855   6.586   3.220
 1163SOL    HW2 4389   4.822   6.659   3.078
 1164SOL     OW 4390   6.666   4.427   4.100
 1164SOL    HW1 4391   6.597   4.367   4.141
 1164SOL    HW2 4392   6.622   4.491   4.038
 1165SOL     OW 4393   0.570   5.143   1.673
 1165SOL    HW1 4394   0.601   5.048   1.673
 1165SOL    HW2 4395   0.626   5.196   1.609
 1166SOL     OW 4396   3.634   0.561   6.120
 1166SOL    HW1 4397   3.545   0.578   6.162
 1166SOL    HW2 4398   3.701   0.539   6.191
 1167SOL     OW 4399   4.632   1.460   5.348
 1167SOL    HW1 4400   4.715   1.440   5.295
 1167SOL    HW2 4401   4.624   1.394   5.423
 1168SOL     OW 4402   5.488   1.054   4.085
 1168SOL    HW1 4403   5.474   1.119   4.160
 1168SOL    HW2 4404   5.441   1.087   4.004
 1169SOL     OW 4405   2.117   2.284   1.065
 1169SOL    HW1 4406   2.128   2.336   0.980
 1169SOL    HW2 4407   2.206   2.254   1.099
 1170SOL     OW 4408   2.289   1.028   2.005
 1170SOL    HW1 4409   2.315   0.941   1.963
 1170SOL    HW2 4410   2.354   1.099   1.979
 1171SOL     OW 4411   4.457   0.503   1.015
 1171SOL    HW1 4412   4.400   0.439   1.067
 1171SOL    HW2 4413   4.536   0.454   0.979
 1172SOL     OW 4414   3.659   3.236   5.743
 1172SOL    HW1 4415   3.693   3.253   5.651
 1172SOL    HW2 4416   3.735   3.209   5.803
 1173SOL     OW 4417   5.682   5.861   6.705
 1173SOL    HW1 4418   5.647   5.787   6.647
 1173SOL    HW2 4419   5.703   5.941   6.648
 1174SOL     OW 4420   3.870   5.768   6.817
 1174SOL    HW1 4421   3.799   5.817   6.766
 1174SOL    HW2 4422   3.859   5.669   6.803
 1175SOL     OW 4423   0.245   5.377   4.762
 1175SOL    HW1 4424   0.228   5.389   4.664
 1175SOL    HW2 4425   0.166   5.333   4.804
 1176SOL     OW 4426   6.516   3.550   1.889
 1176SOL    HW1 4427   6.611   3.566   1.863
 1176SOL    HW2 4428   6.512   3.517   1.983
 1177SOL     OW 4429   6.585   2.909   5.514
 1177SOL    HW1 4430   6.634   2.842   5.459
 1177SOL    HW2 4431   6.616   2.904   5.609
 1178SOL     OW 4432   4.434   5.241   2.363
 1178SOL    HW1 4433   4.357   5.295   2.396
 1178SOL    HW2 4434   4.516   5.299   2.360
 1179SOL     OW 4435   1.589   5.301   6.200
 1179SOL    HW1 4436   1.497   5.261   6.198
 1179SOL    HW2 4437   1.588   5.388   6.151
 1180SOL     OW 4438   2.176   0.907   4.273
 1180SOL    HW1 4439   2.083   0.929   4.302
 1180SOL    HW2 4440   2.187   0.927   4.176
 1181SOL     OW 4441   1.376   4.018   2.281
 1181SOL    HW1 4442   1.455   4.047   2.333
 1181SOL    HW2 4443   1.334   4.097   2.236
 1182SOL     OW 4444   6.857   3.693   3.893
 1182SOL    HW1 4445   6.841   3.598   3.864
 1182SOL    HW2 4446   6.843   3.754   3.815
 1183SOL     OW 4447   4.215   6.014   1.105
 1183SOL    HW1 4448   4.246   5.958   1.182
 1183SOL    HW2 4449   4.275   5.998   1.027
 1184SOL     OW 4450   3.956   2.837   0.060
 1184SOL    HW1 4451   3.906   2.921   0.083
 1184SOL    HW2 4452   3.899   2.758   0.081
 1185SOL     OW 4453   3.087   1.557   0.038
 1185SOL    HW1 4454   3.094   1.474   0.094
 1185SOL    HW2 4455   3.016   1.545   6.990
 1186SOL     OW 4456   3.782   0.162   5.015
 1186SOL    HW1 4457   3.746   0.068   5.012
 1186SOL    HW2 4458   3.858   0.170   4.951
 1187SOL     OW 4459   0.463   2.433   4.932
 1187SOL    HW1 4460   0.412   2.385   5.003
 1187SOL    HW2 4461   0.402   2.452   4.855
 1188SOL     OW 4462   1.780   0.934   5.861
 1188SOL    HW1 4463   1.716   1.006   5.890
 1188SOL    HW2 4464   1.728   0.853   5.832
 1189SOL     OW 4465   0.753   0.979   1.259
 1189SOL    HW1 4466   0.829   0.940   1.311
 1189SOL    HW2 4467   0.669   0.928   1.280
 1190SOL     OW 4468   3.352   6.071   1.642
 1190SOL    HW1 4469   3.444   6.073   1.682
 1190SOL    HW2 4470   3.288   6.117   1.703
 1191SOL     OW 4471   1.943   3.890   1.836
 1191SOL    HW1 4472   2.001   3.953   1.784
 1191SOL    HW2 4473   1.971   3.796   1.817
 1192SOL     OW 4474   3.406   5.696   2.578
 1192SOL    HW1 4475   3.444   5.787   2.564
 1192SOL    HW2 4476   3.335   5.700   2.648
 1193SOL     OW 4477   3.238   2.131   3.495
 1193SOL    HW1 4478   3.167   2.109   3.428
 1193SOL    HW2 4479   3.325   2.145   3.448
 1194SOL     OW 4480   6.636   2.572   2.834
 1194SOL    HW1 4481   6.569   2.499   2.818
 1194SOL    HW2 4482   6.626   2.642   2.763
 1195SOL     OW 4483   3.600   0.214   6.736
 1195SOL    HW1 4484   3.627   0.205   6.832
 1195SOL    HW2 4485   3.595   0.123   6.694
 1196SOL     OW 4486   1.416   5.511   3.186
 1196SOL    HW1 4487   1.455   5.420   3.204
 1196SOL    HW2 4488   1.337   5.525   3.245
 1197SOL     OW 4489   3.636   5.046   0.006
 1197SOL    HW1 4490   3.672   5.139   7.019
 1197SOL    HW2 4491   3.612   5.028   0.101
 1198SOL     OW 4492   3.459   1.058   3.087
 1198SOL    HW1 4493   3.433   1.138   3.033
 1198SOL    HW2 4494   3.536   1.081   3.146
 1199SOL     OW 4495   3.462   3.833   4.263
 1199SOL    HW1 4496   3.502   3.816   4.173
 1199SOL    HW2 4497   3.491   3.922   4.297
 1200SOL     OW 4498   4.746   3.996   1.517
 1200SOL    HW1 4499   4.661   4.049   1.515
 1200SOL    HW2 4500   4.794   4.014   1.602
 1201SOL     OW 4501   1.878   1.873   5.483
 1201SOL    HW1 4502   1.930   1.855   5.567
 1201SOL    HW2 4503   1.809   1.801   5.471
 1202SOL     OW 4504   6.043   6.738   4.214
 1202SOL    HW1 4505   6.044   6.654   4.159
 1202SOL    HW2 4506   6.135   6.778   4.216
 1203SOL     OW 4507   5.746   0.342   1.988
 1203SOL    HW1 4508   5.686   0.329   1.909
 1203SOL    HW2 4509   5.720   0.426   2.035
 1204SOL     OW 4510   2.337   0.016   0.173
 1204SOL    HW1 4511   2.256   6.995   0.215
 1204SOL    HW2 4512   2.337   0.114   0.192
 1205SOL     OW 4513   0.691   3.149   6.102
 1205SOL    HW1 4514   0.615   3.207   6.130
 1205SOL    HW2 4515   0.662   3.089   6.027
 1206SOL     OW 4516   6.327   1.352   5.771
 1206SOL    HW1 4517   6.291   1.368   5.862
 1206SOL    HW2 4518   6.293   1.265   5.735
 1207SOL     OW 4519   6.397   5.813   6.156
 1207SOL    HW1 4520   6.399   5.834   6.058
 1207SOL    HW2 4521   6.347   5.885   6.205
 1208SOL     OW 4522   3.427   3.653   3.043
 1208SOL    HW1 4523   3.519   3.638   3.080
 1208SOL    HW2 4524   3.361   3.597   3.093
 1209SOL     OW 4525   0.078   3.443   4.918
 1209SOL    HW1 4526   0.161   3.391   4.938
 1209SOL    HW2 4527   7.021   3.380   4.912
 1210SOL     OW 4528   2.636   0.033   3.823
 1210SOL    HW1 4529   2.728   0.071   3.817
 1210SOL    HW2 4530   2.573   0.103   3.857
 1211SOL     OW 4531   6.960   3.749   3.427
 1211SOL    HW1 4532   6.984   3.721   3.334
 1211SOL    HW2 4533   0.014   3.801   3.467
 1212SOL     OW 4534   1.137   4.527   3.299
 1212SOL    HW1 4535   1.061   4.588   3.279
 1212SOL    HW2 4536   1.220   4.562   3.256
 1213SOL     OW 4537   6.221   3.422   5.133
 1213SOL    HW1 4538   6.230   3.332   5.090
 1213SOL    HW2 4539   6.277   3.489   5.084
 1214SOL     OW 4540   0.507   1.869   0.895
 1214SOL    HW1 4541   0.570   1.791   0.894
 1214SOL    HW2 4542   0.555   1.951   0.862
 1215SOL     OW 4543   0.909   6.254   2.098
 1215SOL    HW1 4544   0.821   6.277   2.057
 1215SOL    HW2 4545   0.958   6.190   2.039
 1216SOL     OW 4546   2.126   6.815   1.072
 1216SOL    HW1 4547   2.219   6.848   1.084
 1216SOL    HW2 4548   2.066   6.893   1.053
 1217SOL     OW 4549   1.505   2.887   3.194
 1217SOL    HW1 4550   1.571   2.820   3.230
 1217SOL    HW2 4551   1.551   2.974   3.180
 1218SOL     OW 4552   6.845   4.306   3.511
 1218SOL    HW1 4553   6.881   4.348   3.428
 1218SOL    HW2 4554   6.910   4.317   3.585
 1219SOL     OW 4555   1.750   5.875   3.205
 1219SOL    HW1 4556   1.836   5.824   3.202
 1219SOL    HW2 4557   1.676   5.817   3.170
 1220SOL     OW 4558   6.716   4.613   2.875
 1220SOL    HW1 4559   6.625   4.651   2.857
 1220SOL    HW2 4560   6.720   4.518   2.844
 1221SOL     OW 4561   4.872   4.799   6.475
 1221SOL    HW1 4562   4.821   4.793   6.561
 1221SOL    HW2 4563   4.908   4.892   6.463
 1222SOL     OW 4564   6.649   5.136   1.008
 1222SOL    HW1 4565   6.590   5.182   0.943
 1222SOL    HW2 4566   6.623   5.040   1.016
 1223SOL     OW 4567   0.546   4.517   4.667
 1223SOL    HW1 4568   0.548   4.451   4.592
 1223SOL    HW2 4569   0.609   4.489   4.739
 1224SOL     OW 4570   3.951   5.028   1.508
 1224SOL    HW1 4571   4.002   5.011   1.424
 1224SOL    HW2 4572   3.870   5.084   1.488
 1225SOL     OW 4573   5.238   1.625   6.443
 1225SOL    HW1 4574   5.327   1.657   6.411
 1225SOL    HW2 4575   5.247   1.591   6.537
 1226SOL     OW 4576   5.871   5.513   0.522
 1226SOL    HW1 4577   5.860   5.501   0.423
 1226SOL    HW2 4578   5.958   5.558   0.541
 1227SOL     OW 4579   5.988   4.520   0.687
 1227SOL    HW1 4580   6.057   4.576   0.643
 1227SOL    HW2 4581   5.993   4.426   0.653
 1228SOL     OW 4582   4.022   3.900   5.048
 1228SOL    HW1 4583   4.013   3.882   4.950
 1228SOL    HW2 4584   4.048   3.816   5.095
 1229SOL     OW 4585   1.894   5.314   2.070
 1229SOL    HW1 4586   1.916   5.234   2.127
 1229SOL    HW2 4587   1.798   5.310   2.043
 1230SOL     OW 4588   5.388   4.736   0.096
 1230SOL    HW1 4589   5.314   4.740   0.164
 1230SOL    HW2 4590   5.476   4.734   0.143
 1231SOL     OW 4591   1.610   0.601   0.893
 1231SOL    HW1 4592   1.610   0.505   0.923
 1231SOL    HW2 4593   1.704   0.629   0.872
 1232SOL     OW 4594   2.350   1.390   5.792
 1232SOL    HW1 4595   2.337   1.338   5.877
 1232SOL    HW2 4596   2.388   1.480   5.814
 1233SOL     OW 4597   0.169   5.526   4.500
 1233SOL    HW1 4598   0.143   5.439   4.460
 1233SOL    HW2 4599   0.093   5.563   4.553
 1234SOL     OW 4600   6.869   4.378   5.021
 1234SOL    HW1 4601   6.864   4.400   5.119
 1234SOL    HW2 4602   6.820   4.293   5.004
 1235SOL     OW 4603   6.467   5.482   7.010
 1235SOL    HW1 4604   6.434   5.394   6.977
 1235SOL    HW2 4605   6.398   5.524   0.049
 1236SOL     OW 4606   0.673   0.539   2.855
 1236SOL    HW1 4607   0.694   0.555   2.951
 1236SOL    HW2 4608   0.735   0.591   2.798
 1237SOL     OW 4609   0.738   0.834   4.664
 1237SOL    HW1 4610   0.697   0.758   4.614
 1237SOL    HW2 4611   0.682   0.855   4.744
 1238SOL     OW 4612   0.732   1.217   4.159
 1238SOL    HW1 4613   0.721   1.316   4.173
 1238SOL    HW2 4614   0.657   1.168   4.204
 1239SOL     OW 4615   5.124   4.808   3.681
 1239SOL    HW1 4616   5.133   4.844   3.773
 1239SOL    HW2 4617   5.068   4.870   3.626
 1240SOL     OW 4618   0.937   4.278   1.672
 1240SOL    HW1 4619   1.031   4.273   1.638
 1240SOL    HW2 4620   0.878   4.220   1.615
 1241SOL     OW 4621   3.742   5.695   6.444
 1241SOL    HW1 4622   3.661   5.639   6.462
 1241SOL    HW2 4623   3.821   5.653   6.487
 1242SOL     OW 4624   2.287   5.597   0.715
 1242SOL    HW1 4625   2.339   5.637   0.790
 1242SOL    HW2 4626   2.349   5.546   0.655
 1243SOL     OW 4627   0.593   4.273   3.676
 1243SOL    HW1 4628   0.668   4.273   3.610
 1243SOL    HW2 4629   0.555   4.181   3.683
 1244SOL     OW 4630   6.737   6.786   4.507
 1244SOL    HW1 4631   6.665   6.855   4.514
 1244SOL    HW2 4632   6.757   6.768   4.410
 1245SOL     OW 4633   4.420   0.124   1.715
 1245SOL    HW1 4634   4.415   0.028   1.740
 1245SOL    HW2 4635   4.513   0.147   1.688
 1246SOL     OW 4636   5.124   2.679   2.375
 1246SOL    HW1 4637   5.097   2.585   2.353
 1246SOL    HW2 4638   5.159   2.684   2.468
 1247SOL     OW 4639   4.872   6.410   2.677
 1247SOL    HW1 4640   4.836   6.503   2.668
 1247SOL    HW2 4641   4.799   6.348   2.704
 1248SOL     OW 4642   6.737   0.565   5.027
 1248SOL    HW1 4643   6.780   0.484   5.067
 1248SOL    HW2 4644   6.788   0.646   5.055
 1249SOL     OW 4645   6.279   6.722   6.997
 1249SOL    HW1 4646   6.377   6.742   7.000
 1249SOL    HW2 4647   6.265   6.623   6.996
 1250SOL     OW 4648   0.456   4.283   4.846
 1250SOL    HW1 4649   0.411   4.328   4.769
 1250SOL    HW2 4650   0.539   4.333   4.869
 1251SOL     OW 4651   2.314   0.747   3.459
 1251SOL    HW1 4652   2.375   0.790   3.526
 1251SOL    HW2 4653   2.328   0.789   3.370
 1252SOL     OW 4654   2.502   5.013   6.301
 1252SOL    HW1 4655   2.488   5.111   6.314
 1252SOL    HW2 4656   2.596   4.996   6.271
 1253SOL     OW 4657   3.435   5.277   0.709
 1253SOL    HW1 4658   3.368   5.294   0.637
 1253SOL    HW2 4659   3.456   5.179   0.712
 1254SOL     OW 4660   6.958   0.903   3.809
 1254SOL    HW1 4661   6.877   0.849   3.832
 1254SOL    HW2 4662   6.975   0.900   3.711
 1255SOL     OW 4663   6.045   1.958   6.404
 1255SOL    HW1 4664   6.144   1.974   6.398
 1255SOL    HW2 4665   6.019   1.884   6.343
 1256SOL     OW 4666   6.731   6.182   6.130
 1256SOL    HW1 4667   6.807   6.181   6.065
 1256SOL    HW2 4668   6.645   6.167   6.082
 1257SOL     OW 4669   0.179   6.362   2.445
 1257SOL    HW1 4670   0.261   6.419   2.445
 1257SOL    HW2 4671   0.152   6.342   2.351
 1258SOL     OW 4672   5.054   5.778   6.331
 1258SOL    HW1 4673   5.072   5.780   6.430
 1258SOL    HW2 4674   4.981   5.712   6.312
 1259SOL     OW 4675   6.320   6.679   4.472
 1259SOL    HW1 4676   6.400   6.624   4.498
 1259SOL    HW2 4677   6.244   6.618   4.449
 1260SOL     OW 4678   3.239   1.021   0.939
 1260SOL    HW1 4679   3.159   1.073   0.909
 1260SOL    HW2 4680   3.211   0.953   1.007
 1261SOL     OW 4681   0.691   4.417   4.896
 1261SOL    HW1 4682   0.664   4.462   4.980
 1261SOL    HW2 4683   0.791   4.412   4.891
 1262SOL     OW 4684   4.385   6.731   1.055
 1262SOL    HW1 4685   4.466   6.778   1.019
 1262SOL    HW2 4686   4.324   6.797   1.097
 1263SOL     OW 4687   6.534   1.226   1.145
 1263SOL    HW1 4688   6.617   1.225   1.090
 1263SOL    HW2 4689   6.529   1.142   1.200
 1264SOL     OW 4690   5.582   2.731   5.069
 1264SOL    HW1 4691   5.566   2.665   4.995
 1264SOL    HW2 4692   5.556   2.691   5.156
 1265SOL     OW 4693   5.608   5.029   4.167
 1265SOL    HW1 4694   5.639   5.116   4.131
 1265SOL    HW2 4695   5.667   5.000   4.242
 1266SOL     OW 4696   2.626   0.675   3.823
 1266SOL    HW1 4697   2.678   0.608   3.771
 1266SOL    HW2 4698   2.589   0.744   3.761
 1267SOL     OW 4699   0.426   4.789   2.262
 1267SOL    HW1 4700   0.360   4.718   2.284
 1267SOL    HW2 4701   0.452   4.782   2.166
 1268SOL     OW 4702   6.625   4.790   6.852
 1268SOL    HW1 4703   6.718   4.817   6.829
 1268SOL    HW2 4704   6.627   4.715   6.918
 1269SOL     OW 4705   1.149   4.049   6.079
 1269SOL    HW1 4706   1.109   4.028   5.991
 1269SOL    HW2 4707   1.249   4.047   6.071
 1270SOL     OW 4708   1.793   2.297   3.712
 1270SOL    HW1 4709   1.716   2.330   3.767
 1270SOL    HW2 4710   1.768   2.211   3.668
 1271SOL     OW 4711   5.510   3.587   2.829
 1271SOL    HW1 4712   5.447   3.555   2.759
 1271SOL    HW2 4713   5.468   3.580   2.919
 1272SOL     OW 4714   5.828   6.679   0.356
 1272SOL    HW1 4715   5.824   6.778   0.341
 1272SOL    HW2 4716   5.857   6.634   0.272
 1273SOL     OW 4717   2.781   6.762   4.807
 1273SOL    HW1 4718   2.840   6.719   4.875
 1273SOL    HW2 4719   2.834   6.825   4.751
 1274SOL     OW 4720   5.134   2.291   1.923
 1274SOL    HW1 4721   5.109   2.268   2.017
 1274SOL    HW2 4722   5.221   2.249   1.900
 1275SOL     OW 4723   3.668   1.080   3.710
 1275SOL    HW1 4724   3.685   1.128   3.796
 1275SOL    HW2 4725   3.691   1.140   3.633
 1276SOL     OW 4726   5.273   6.504   3.363
 1276SOL    HW1 4727   5.249   6.586   3.415
 1276SOL    HW2 4728   5.225   6.505   3.276
 1277SOL     OW 4729   0.668   1.956   4.630
 1277SOL    HW1 4730   0.581   1.907   4.640
 1277SOL    HW2 4731   0.724   1.940   4.710
 1278SOL     OW 4732   3.183   1.552   4.941
 1278SOL    HW1 4733   3.133   1.509   4.866
 1278SOL    HW2 4734   3.208   1.645   4.914
 1279SOL     OW 4735   1.668   4.844   0.505
 1279SOL    HW1 4736   1.625   4.846   0.595
 1279SOL    HW2 4737   1.699   4.936   0.480
 1280SOL     OW 4738   1.387   5.954   3.117
 1280SOL    HW1 4739   1.379   6.015   3.039
 1280SOL    HW2 4740   1.351   5.999   3.199
 1281SOL     OW 4741   0.807   6.436   4.030
 1281SOL    HW1 4742   0.891   6.385   4.014
 1281SOL    HW2 4743   0.729   6.382   3.997
 1282SOL     OW 4744   1.813   6.726   2.601
 1282SOL    HW1 4745   1.748   6.784   2.552
 1282SOL    HW2 4746   1.765   6.671   2.669
 1283SOL     OW 4747   5.181   4.168   5.236
 1283SOL    HW1 4748   5.138   4.238   5.178
 1283SOL    HW2 4749   5.171   4.078   5.193
 1284SOL     OW 4750   2.687   2.308   3.062
 1284SOL    HW1 4751   2.687   2.280   3.158
 1284SOL    HW2 4752   2.767   2.269   3.016
 1285SOL     OW 4753   5.895   2.171   5.749
 1285SOL    HW1 4754   5.963   2.244   5.741
 1285SOL    HW2 4755   5.851   2.157   5.660
 1286SOL     OW 4756   5.511   5.832   0.774
 1286SOL    HW1 4757   5.583   5.804   0.710
 1286SOL    HW2 4758   5.428   5.854   0.723
 1287SOL     OW 4759   5.942   3.243   6.188
 1287SOL    HW1 4760   5.986   3.332   6.190
 1287SOL    HW2 4761   5.987   3.185   6.120
 1288SOL     OW 4762   0.094   3.162   3.494
 1288SOL    HW1 4763   0.067   3.258   3.494
 1288SOL    HW2 4764   0.083   3.124   3.586
 1289SOL     OW 4765   0.487   5.342   2.874
 1289SOL    HW1 4766   0.394   5.336   2.837
 1289SOL    HW2 4767   0.490   5.298   2.964
 1290SOL     OW 4768   6.399   7.012   2.124
 1290SOL    HW1 4769   6.314   6.958   2.126
 1290SOL    HW2 4770   6.381   0.079   2.079
 1291SOL     OW 4771   1.849   5.895   1.610
 1291SOL    HW1 4772   1.852   5.818   1.547
 1291SOL    HW2 4773   1.935   5.946   1.605
 1292SOL     OW 4774   1.740   6.467   0.812
 1292SOL    HW1 4775   1.792   6.538   0.765
 1292SOL    HW2 4776   1.656   6.448   0.761
 1293SOL     OW 4777   6.169   1.358   6.729
 1293SOL    HW1 4778   6.152   1.457   6.727
 1293SOL    HW2 4779   6.089   1.311   6.765
 1294SOL     OW 4780   0.645   1.801   4.189
 1294SOL    HW1 4781   0.594   1.852   4.258
 1294SOL    HW2 4782   0.742   1.798   4.213
 1295SOL     OW 4783   5.161   4.371   0.659
 1295SOL    HW1 4784   5.107   4.368   0.743
 1295SOL    HW2 4785   5.110   4.420   0.588
 1296SOL     OW 4786   3.616   1.530   0.778
 1296SOL    HW1 4787   3.657   1.495   0.862
 1296SOL    HW2 4788   3.632   1.629   0.772
 1297SOL     OW 4789   6.064   0.816   6.224
 1297SOL    HW1 4790   6.159   0.786   6.216
 1297SOL    HW2 4791   6.032   0.850   6.135
 1298SOL     OW 4792   6.131   2.817   3.230
 1298SOL    HW1 4793   6.193   2.840   3.155
 1298SOL    HW2 4794   6.115   2.898   3.287
 1299SOL     OW 4795   1.684   3.846   4.808
 1299SOL    HW1 4796   1.664   3.856   4.711
 1299SOL    HW2 4797   1.657   3.930   4.856
 1300SOL     OW 4798   3.559   2.824   2.964
 1300SOL    HW1 4799   3.545   2.789   3.057
 1300SOL    HW2 4800   3.482   2.882   2.938
 1301SOL     OW 4801   0.962   0.783   1.809
 1301SOL    HW1 4802   0.906   0.862   1.835
 1301SOL    HW2 4803   0.916   0.732   1.736
 1302SOL     OW 4804   2.737   5.914   5.864
 1302SOL    HW1 4805   2.692   5.898   5.776
 1302SOL    HW2 4806   2.777   6.006   5.864
 1303SOL     OW 4807   3.027   0.188   1.143
 1303SOL    HW1 4808   2.930   0.208   1.157
 1303SOL    HW2 4809   3.074   0.185   1.232
 1304SOL     OW 4810   3.466   0.871   6.034
 1304SOL    HW1 4811   3.438   0.779   6.061
 1304SOL    HW2 4812   3.564   0.873   6.018
 1305SOL     OW 4813   6.052   6.626   4.464
 1305SOL    HW1 4814   5.969   6.575   4.485
 1305SOL    HW2 4815   6.038   6.678   4.379
 1306SOL     OW 4816   1.514   5.161   3.782
 1306SOL    HW1 4817   1.567   5.089   3.737
 1306SOL    HW2 4818   1.547   5.174   3.876
 1307SOL     OW 4819   1.388   1.285   5.185
 1307SOL    HW1 4820   1.323   1.313   5.115
 1307SOL    HW2 4821   1.337   1.261   5.269
 1308SOL     OW 4822   4.350   6.421   3.016
 1308SOL    HW1 4823   4.253   6.405   2.997
 1308SOL    HW2 4824   4.364   6.424   3.115
 1309SOL     OW 4825   6.392   3.532   4.104
 1309SOL    HW1 4826   6.446   3.605   4.062
 1309SOL    HW2 4827   6.446   3.488   4.175
 1310SOL     OW 4828   5.777   3.597   5.532
 1310SOL    HW1 4829   5.850   3.627   5.471
 1310SOL    HW2 4830   5.791   3.637   5.623
 1311SOL     OW 4831   4.796   4.741   0.473
 1311SOL    HW1 4832   4.717   4.680   0.472
 1311SOL    HW2 4833   4.798   4.793   0.388
 1312SOL     OW 4834   6.832   1.246   1.823
 1312SOL    HW1 4835   6.867   1.245   1.917
 1312SOL    HW2 4836   6.906   1.273   1.761
 1313SOL     OW 4837   3.682   5.210   4.690
 1313SOL    HW1 4838   3.694   5.113   4.665
 1313SOL    HW2 4839   3.738   5.266   4.630
 1314SOL     OW 4840   0.210   1.019   6.294
 1314SOL    HW1 4841   0.155   0.935   6.292
 1314SOL    HW2 4842   0.284   1.008   6.361
 1315SOL     OW 4843   1.713   6.648   4.105
 1315SOL    HW1 4844   1.728   6.734   4.154
 1315SOL    HW2 4845   1.663   6.585   4.164
 1316SOL     OW 4846   3.393   5.924   3.849
 1316SOL    HW1 4847   3.426   6.010   3.888
 1316SOL    HW2 4848   3.470   5.872   3.812
 1317SOL     OW 4849   0.096   2.961   3.800
 1317SOL    HW1 4850   0.106   2.904   3.882
 1317SOL    HW2 4851   0.087   3.057   3.828
 1318SOL     OW 4852   0.854   7.001   2.321
 1318SOL    HW1 4853   0.899   6.913   2.304
 1318SOL    HW2 4854   0.907   0.053   2.279
 1319SOL     OW 4855   0.619   6.605   0.964
 1319SOL    HW1 4856   0.541   6.574   0.909
 1319SOL    HW2 4857   0.701   6.610   0.907
 1320SOL     OW 4858   5.237   5.332   5.229
 1320SOL    HW1 4859   5.149   5.304   5.267
 1320SOL    HW2 4860   5.311   5.298   5.287
 1321SOL     OW 4861   3.366   1.531   1.001
 1321SOL    HW1 4862   3.443   1.468   1.011
 1321SOL    HW2 4863   3.289   1.497   1.055
 1322SOL     OW 4864   4.562   1.202   6.323
 1322SOL    HW1 4865   4.564   1.199   6.223
 1322SOL    HW2 4866   4.622   1.275   6.355
 1323SOL     OW 4867   6.463   0.829   4.202
 1323SOL    HW1 4868   6.473   0.836   4.103
 1323SOL    HW2 4869   6.549   0.797   4.242
 1324SOL     OW 4870   1.054   2.485   0.275
 1324SOL    HW1 4871   0.973   2.480   0.216
 1324SOL    HW2 4872   1.056   2.406   0.335
 1325SOL     OW 4873   4.531   4.812   3.928
 1325SOL    HW1 4874   4.517   4.885   3.861
 1325SOL    HW2 4875   4.621   4.824   3.971
 1326SOL     OW 4876   5.492   4.070   4.410
 1326SOL    HW1 4877   5.417   4.026   4.459
 1326SOL    HW2 4878   5.507   4.021   4.323
 1327SOL     OW 4879   3.015   6.168   3.813
 1327SOL    HW1 4880   3.064   6.255   3.819
 1327SOL    HW2 4881   2.953   6.170   3.734
 1328SOL     OW 4882   2.351   1.823   1.445
 1328SOL    HW1 4883   2.436   1.770   1.445
 1328SOL    HW2 4884   2.337   1.862   1.536
 1329SOL     OW 4885   1.580   5.755   1.515
 1329SOL    HW1 4886   1.582   5.796   1.606
 1329SOL    HW2 4887   1.501   5.695   1.507
 1330SOL     OW 4888   5.414   6.754   1.654
 1330SOL    HW1 4889   5.360   6.830   1.620
 1330SOL    HW2 4890   5.395   6.740   1.751
 1331SOL     OW 4891   0.512   2.129   1.690
 1331SOL    HW1 4892   0.604   2.161   1.667
 1331SOL    HW2 4893   0.516   2.037   1.728
 1332SOL     OW 4894   4.740   2.117   0.822
 1332SOL    HW1 4895   4.808   2.181   0.785
 1332SOL    HW2 4896   4.650   2.140   0.786
 1333SOL     OW 4897   4.052   3.338   5.682
 1333SOL    HW1 4898   4.041   3.376   5.590
 1333SOL    HW2 4899   4.129   3.273   5.682
 1334SOL     OW 4900   1.917   3.206   4.432
 1334SOL    HW1 4901   1.883   3.270   4.363
 1334SOL    HW2 4902   1.908   3.247   4.523
 1335SOL     OW 4903   1.867   5.086   4.018
 1335SOL    HW1 4904   1.778   5.064   4.058
 1335SOL    HW2 4905   1.918   5.002   4.004
 1336SOL     OW 4906   0.105   6.528   5.188
 1336SOL    HW1 4907   0.095   6.626   5.173
 1336SOL    HW2 4908   0.025   6.480   5.152
 1337SOL     OW 4909   3.285   6.891   6.412
 1337SOL    HW1 4910   3.324   6.836   6.339
 1337SOL    HW2 4911   3.264   6.982   6.378
 1338SOL     OW 4912   3.956   4.821   0.845
 1338SOL    HW1 4913   4.049   4.802   0.814
 1338SOL    HW2 4914   3.891   4.785   0.778
 1339SOL     OW 4915   0.040   3.997   6.513
 1339SOL    HW1 4916   0.113   3.959   6.570
 1339SOL    HW2 4917   6.978   3.943   6.527
 1340SOL     OW 4918   3.021   2.019   6.173
 1340SOL    HW1 4919   3.080   1.939   6.166
 1340SOL    HW2 4920   2.940   2.005   6.116
 1341SOL     OW 4921   5.553   1.543   4.136
 1341SOL    HW1 4922   5.601   1.620   4.095
 1341SOL    HW2 4923   5.604   1.459   4.120
 1342SOL     OW 4924   0.248   6.845   0.437
 1342SOL    HW1 4925   0.219   6.831   0.532
 1342SOL    HW2 4926   0.246   6.943   0.416
 1343SOL     OW 4927   3.199   6.118   3.407
 1343SOL    HW1 4928   3.122   6.066   3.370
 1343SOL    HW2 4929   3.223   6.081   3.497
 1344SOL     OW 4930   4.842   1.796   2.311
 1344SOL    HW1 4931   4.937   1.768   2.293
 1344SOL    HW2 4932   4.783   1.715   2.310
 1345SOL     OW 4933   6.531   5.842   2.367
 1345SOL    HW1 4934   6.512   5.912   2.298
 1345SOL    HW2 4935   6.497   5.753   2.335
 1346SOL     OW 4936   6.682   1.895   3.069
 1346SOL    HW1 4937   6.590   1.856   3.066
 1346SOL    HW2 4938   6.685   1.970   3.135
 1347SOL     OW 4939   4.371   1.229   3.704
 1347SOL    HW1 4940   4.337   1.273   3.787
 1347SOL    HW2 4941   4.415   1.142   3.728
 1348SOL     OW 4942   5.183   6.273   4.696
 1348SOL    HW1 4943   5.189   6.248   4.793
 1348SOL    HW2 4944   5.199   6.371   4.686
 1349SOL     OW 4945   5.243   1.955   0.162
 1349SOL    HW1 4946   5.332   1.996   0.179
 1349SOL    HW2 4947   5.192   1.950   0.249
 1350SOL     OW 4948   3.592   1.428   4.410
 1350SOL    HW1 4949   3.604   1.370   4.491
 1350SOL    HW2 4950   3.550   1.515   4.437
 1351SOL     OW 4951   1.243   1.529   3.950
 1351SOL    HW1 4952   1.244   1.617   3.997
 1351SOL    HW2 4953   1.315   1.528   3.880
 1352SOL     OW 4954   1.307   6.123   4.613
 1352SOL    HW1 4955   1.275   6.039   4.659
 1352SOL    HW2 4956   1.315   6.197   4.680
 1353SOL     OW 4957   2.798   3.244   5.879
 1353SOL    HW1 4958   2.869   3.315   5.882
 1353SOL    HW2 4959   2.727   3.271   5.814
 1354SOL     OW 4960   0.108   6.637   6.955
 1354SOL    HW1 4961   0.184   6.592   7.001
 1354SOL    HW2 4962   0.023   6.620   7.006
 1355SOL     OW 4963   4.911   3.378   0.441
 1355SOL    HW1 4964   4.870   3.389   0.531
 1355SOL    HW2 4965   4.890   3.459   0.385
 1356SOL     OW 4966   3.740   2.925   2.446
 1356SOL    HW1 4967   3.672   2.920   2.372
 1356SOL    HW2 4968   3.786   2.837   2.456
 1357SOL     OW 4969   3.621   2.272   5.556
 1357SOL    HW1 4970   3.694   2.251   5.621
 1357SOL    HW2 4971   3.551   2.327   5.602
 1358SOL     OW 4972   1.599   3.012   5.610
 1358SOL    HW1 4973   1.530   3.022   5.682
 1358SOL    HW2 4974   1.564   3.050   5.524
 1359SOL     OW 4975   0.757   1.799   6.544
 1359SOL    HW1 4976   0.854   1.824   6.546
 1359SOL    HW2 4977   0.746   1.709   6.502
 1360SOL     OW 4978   3.384   3.195   4.628
 1360SOL    HW1 4979   3.303   3.249   4.605
 1360SOL    HW2 4980   3.383   3.173   4.726
 1361SOL     OW 4981   1.179   6.376   0.902
 1361SOL    HW1 4982   1.235   6.298   0.930
 1361SOL    HW2 4983   1.218   6.417   0.819
 1362SOL     OW 4984   3.594   1.194   6.827
 1362SOL    HW1 4985   3.534   1.272   6.845
 1362SOL    HW2 4986   3.593   1.132   6.905
 1363SOL     OW 4987   6.620   6.489   1.306
 1363SOL    HW1 4988   6.577   6.399   1.299
 1363SOL    HW2 4989   6.570   6.555   1.250
 1364SOL     OW 4990   1.157   3.401   0.852
 1364SOL    HW1 4991   1.166   3.302   0.844
 1364SOL    HW2 4992   1.107   3.424   0.935
 1365SOL     OW 4993   1.201   3.447   6.559
 1365SOL    HW1 4994   1.269   3.516   6.585
 1365SOL    HW2 4995   1.188   3.450   6.460
 1366SOL     OW 4996   3.719   1.022   1.589
 1366SOL    HW1 4997   3.706   1.120   1.572
 1366SOL    HW2 4998   3.756   0.978   1.508
 1367SOL     OW 4999   1.448   6.952   4.395
 1367SOL    HW1 5000   1.383   7.011   4.443
 1367SOL    HW2 5001   1.406   6.916   4.312
 1368SOL     OW 5002   1.606   6.252   4.647
 1368SOL    HW1 5003   1.666   6.211   4.715
 1368SOL    HW2 5004   1.518   6.274   4.688
 1369SOL     OW 5005   2.232   5.621   3.532
 1369SOL    HW1 5006   2.141   5.661   3.540
 1369SOL    HW2 5007   2.231   5.550   3.461
 1370SOL     OW 5008   7.011   3.006   2.865
 1370SOL    HW1 5009   0.023   2.947   2.939
 1370SOL    HW2 5010   0.066   3.031   2.806
 1371SOL     OW 5011   6.095   1.630   6.674
 1371SOL    HW1 5012   6.116   1.721   6.709
 1371SOL    HW2 5013   6.002   1.604   6.700
 1372SOL     OW 5014   5.240   2.887   2.203
 1372SOL    HW1 5015   5.194   2.976   2.202
 1372SOL    HW2 5016   5.184   2.822   2.254
 1373SOL     OW 5017   4.708   2.666   1.384
 1373SOL    HW1 5018   4.608   2.668   1.381
 1373SOL    HW2 5019   4.739   2.677   1.478
 1374SOL     OW 5020   3.798   4.071   3.429
 1374SOL    HW1 5021   3.706   4.108   3.445
 1374SOL    HW2 5022   3.829   4.098   3.338
 1375SOL     OW 5023   5.417   3.942   5.155
 1375SOL    HW1 5024   5.409   3.870   5.225
 1375SOL    HW2 5025   5.386   3.907   5.067
 1376SOL     OW 5026   3.202   4.747   6.155
 1376SOL    HW1 5027   3.129   4.804   6.119
 1376SOL    HW2 5028   3.289   4.796   6.149
 1377SOL     OW 5029   1.113   2.085   3.569
 1377SOL    HW1 5030   1.034   2.137   3.535
 1377SOL    HW2 5031   1.143   2.021   3.499
 1378SOL     OW 5032   4.378   2.447   4.141
 1378SOL    HW1 5033   4.446   2.467   4.070
 1378SOL    HW2 5034   4.289   2.481   4.112
 1379SOL     OW 5035   4.758   5.893   6.414
 1379SOL    HW1 5036   4.843   5.853   6.446
 1379SOL    HW2 5037   4.755   5.990   6.439
 1380SOL     OW 5038   0.257   5.996   4.052
 1380SOL    HW1 5039   0.181   6.046   4.011
 1380SOL    HW2 5040   0.332   5.990   3.985
 1381SOL     OW 5041   0.172   2.599   6.307
 1381SOL    HW1 5042   0.224   2.684   6.296
 1381SOL    HW2 5043   0.210   2.529   6.248
 1382SOL     OW 5044   4.378   2.299   5.793
 1382SOL    HW1 5045   4.341   2.215   5.752
 1382SOL    HW2 5046   4.391   2.285   5.891
 1383SOL     OW 5047   5.688   0.605   0.786
 1383SOL    HW1 5048   5.629   0.641   0.714
 1383SOL    HW2 5049   5.783   0.632   0.767
 1384SOL     OW 5050   5.539   2.332   2.587
 1384SOL    HW1 5051   5.622   2.278   2.603
 1384SOL    HW2 5052   5.560   2.406   2.524
 1385SOL     OW 5053   6.689   6.610   1.827
 1385SOL    HW1 5054   6.689   6.515   1.795
 1385SOL    HW2 5055   6.596   6.646   1.823
 1386SOL     OW 5056   1.783   0.208   4.181
 1386SOL    HW1 5057   1.738   0.224   4.269
 1386SOL    HW2 5058   1.727   0.149   4.124
 1387SOL     OW 5059   0.898   5.904   1.866
 1387SOL    HW1 5060   0.938   5.886   1.956
 1387SOL    HW2 5061   0.816   5.847   1.855
 1388SOL     OW 5062   6.590   0.992   1.815
 1388SOL    HW1 5063   6.624   1.062   1.751
 1388SOL    HW2 5064   6.667   0.944   1.856
 1389SOL     OW 5065   6.328   1.230   1.645
 1389SOL    HW1 5066   6.279   1.164   1.703
 1389SOL    HW2 5067   6.426   1.209   1.646
 1390SOL     OW 5068   1.042   1.602   4.273
 1390SOL    HW1 5069   0.961   1.622   4.329
 1390SOL    HW2 5070   1.054   1.503   4.267
 1391SOL     OW 5071   0.831   3.168   3.427
 1391SOL    HW1 5072   0.824   3.122   3.515
 1391SOL    HW2 5073   0.854   3.101   3.356
 1392SOL     OW 5074   5.819   5.278   3.663
 1392SOL    HW1 5075   5.828   5.179   3.647
 1392SOL    HW2 5076   5.722   5.302   3.665
 1393SOL     OW 5077   3.883   5.251   6.921
 1393SOL    HW1 5078   3.962   5.302   6.889
 1393SOL    HW2 5079   3.852   5.288   7.009
 1394SOL     OW 5080   1.216   6.566   6.648
 1394SOL    HW1 5081   1.269   6.580   6.564
 1394SOL    HW2 5082   1.204   6.654   6.694
 1395SOL     OW 5083   3.827   4.686   6.346
 1395SOL    HW1 5084   3.850   4.710   6.440
 1395SOL    HW2 5085   3.911   4.668   6.295
 1396SOL     OW 5086   5.077   5.769   3.424
 1396SOL    HW1 5087   5.015   5.806   3.355
 1396SOL    HW2 5088   5.025   5.717   3.491
 1397SOL     OW 5089   5.553   6.329   5.145
 1397SOL    HW1 5090   5.526   6.353   5.052
 1397SOL    HW2 5091   5.644   6.287   5.144
 1398SOL     OW 5092   1.347   6.965   5.396
 1398SOL    HW1 5093   1.302   0.033   5.389
 1398SOL    HW2 5094   1.446   6.978   5.391
 1399SOL     OW 5095   3.280   5.200   2.432
 1399SOL    HW1 5096   3.213   5.137   2.472
 1399SOL    HW2 5097   3.274   5.195   2.332
 1400SOL     OW 5098   1.272   6.868   3.485
 1400SOL    HW1 5099   1.314   6.949   3.526
 1400SOL    HW2 5100   1.325   6.787   3.509
 1401SOL     OW 5101   6.300   2.177   4.047
 1401SOL    HW1 5102   6.336   2.084   4.058
 1401SOL    HW2 5103   6.259   2.206   4.134
 1402SOL     OW 5104   5.628   2.530   6.993
 1402SOL    HW1 5105   5.648   2.479   0.056
 1402SOL    HW2 5106   5.530   2.548   6.988
 1403SOL     OW 5107   3.599   0.625   1.722
 1403SOL    HW1 5108   3.682   0.616   1.667
 1403SOL    HW2 5109   3.562   0.534   1.741
 1404SOL     OW 5110   4.366   1.084   0.269
 1404SOL    HW1 5111   4.378   1.022   0.192
 1404SOL    HW2 5112   4.450   1.135   0.285
 1405SOL     OW 5113   3.788   2.851   1.188
 1405SOL    HW1 5114   3.765   2.764   1.145
 1405SOL    HW2 5115   3.885   2.853   1.211
 1406SOL     OW 5116   0.974   3.532   2.382
 1406SOL    HW1 5117   0.962   3.516   2.284
 1406SOL    HW2 5118   1.071   3.549   2.401
 1407SOL     OW 5119   0.140   2.600   2.498
 1407SOL    HW1 5120   0.087   2.641   2.424
 1407SOL    HW2 5121   0.088   2.527   2.541
 1408SOL     OW 5122   6.240   5.414   6.332
 1408SOL    HW1 5123   6.284   5.469   6.261
 1408SOL    HW2 5124   6.265   5.448   6.422
 1409SOL     OW 5125   0.399   1.543   4.231
 1409SOL    HW1 5126   0.418   1.480   4.306
 1409SOL    HW2 5127   0.357   1.493   4.155
 1410SOL     OW 5128   6.742   1.733   0.123
 1410SOL    HW1 5129   6.777   1.798   0.055
 1410SOL    HW2 5130   6.806   1.658   0.134
 1411SOL     OW 5131   1.774   1.251   1.325
 1411SOL    HW1 5132   1.718   1.254   1.242
 1411SOL    HW2 5133   1.866   1.220   1.301
 1412SOL     OW 5134   1.701   2.596   0.311
 1412SOL    HW1 5135   1.650   2.575   0.227
 1412SOL    HW2 5136   1.799   2.592   0.292
 1413SOL     OW 5137   3.242   0.207   3.441
 1413SOL    HW1 5138   3.264   0.207   3.344
 1413SOL    HW2 5139   3.324   0.227   3.495
 1414SOL     OW 5140   1.618   1.170   2.402
 1414SOL    HW1 5141   1.572   1.193   2.317
 1414SOL    HW2 5142   1.626   1.252   2.459
 1415SOL     OW 5143   5.820   6.751   4.975
 1415SOL    HW1 5144   5.788   6.705   4.892
 1415SOL    HW2 5145   5.910   6.791   4.958
 1416SOL     OW 5146   4.688   5.478   3.378
 1416SOL    HW1 5147   4.641   5.511   3.295
 1416SOL    HW2 5148   4.619   5.449   3.445
 1417SOL     OW 5149   3.752   2.467   5.889
 1417SOL    HW1 5150   3.851   2.482   5.899
 1417SOL    HW2 5151   3.728   2.380   5.932
 1418SOL     OW 5152   3.214   4.050   3.644
 1418SOL    HW1 5153   3.117   4.032   3.663
 1418SOL    HW2 5154   3.222   4.119   3.572
 1419SOL     OW 5155   3.501   6.750   3.540
 1419SOL    HW1 5156   3.509   6.786   3.633
 1419SOL    HW2 5157   3.478   6.825   3.478
 1420SOL     OW 5158   0.980   6.307   2.897
 1420SOL    HW1 5159   0.922   6.325   2.818
 1420SOL    HW2 5160   1.051   6.377   2.902
 1421SOL     OW 5161   3.823   0.857   2.717
 1421SOL    HW1 5162   3.778   0.885   2.632
 1421SOL    HW2 5163   3.845   0.937   2.772
 1422SOL     OW 5164   2.364   6.236   0.746
 1422SOL    HW1 5165   2.302   6.313   0.760
 1422SOL    HW2 5166   2.314   6.159   0.707
 1423SOL     OW 5167   5.265   1.060   2.363
 1423SOL    HW1 5168   5.268   1.156   2.393
 1423SOL    HW2 5169   5.280   1.056   2.264
 1424SOL     OW 5170   6.935   5.534   2.758
 1424SOL    HW1 5171   6.840   5.566   2.751
 1424SOL    HW2 5172   6.984   5.590   2.825
 1425SOL     OW 5173   2.206   0.567   4.544
 1425SOL    HW1 5174   2.246   0.625   4.473
 1425SOL    HW2 5175   2.110   0.590   4.556
 1426SOL     OW 5176   1.636   1.554   6.068
 1426SOL    HW1 5177   1.675   1.545   5.976
 1426SOL    HW2 5178   1.537   1.538   6.064
 1427SOL     OW 5179   5.231   2.064   6.167
 1427SOL    HW1 5180   5.149   2.011   6.142
 1427SOL    HW2 5181   5.203   2.155   6.199
 1428SOL     OW 5182   5.345   0.892   0.806
 1428SOL    HW1 5183   5.399   0.859   0.884
 1428SOL    HW2 5184   5.312   0.813   0.754
 1429SOL     OW 5185   5.548   5.749   0.279
 1429SOL    HW1 5186   5.598   5.703   0.352
 1429SOL    HW2 5187   5.455   5.768   0.310
 1430SOL     OW 5188   3.166   4.959   2.538
 1430SOL    HW1 5189   3.138   4.886   2.600
 1430SOL    HW2 5190   3.130   4.940   2.446
 1431SOL     OW 5191   1.860   0.125   0.624
 1431SOL    HW1 5192   1.902   0.040   0.592
 1431SOL    HW2 5193   1.801   0.106   0.702
 1432SOL     OW 5194   3.364   0.027   1.433
 1432SOL    HW1 5195   3.277   7.004   1.454
 1432SOL    HW2 5196   3.434   7.016   1.497
 1433SOL     OW 5197   5.312   6.900   3.494
 1433SOL    HW1 5198   5.380   6.973   3.485
 1433SOL    HW2 5199   5.358   6.816   3.522
 1434SOL     OW 5200   1.087   1.073   5.459
 1434SOL    HW1 5201   1.155   1.146   5.452
 1434SOL    HW2 5202   1.101   1.023   5.544
 1435SOL     OW 5203   6.616   2.512   3.674
 1435SOL    HW1 5204   6.664   2.544   3.756
 1435SOL    HW2 5205   6.626   2.579   3.601
 1436SOL     OW 5206   5.190   3.385   1.354
 1436SOL    HW1 5207   5.260   3.454   1.367
 1436SOL    HW2 5208   5.118   3.421   1.294
 1437SOL     OW 5209   4.548   0.618   2.591
 1437SOL    HW1 5210   4.492   0.633   2.672
 1437SOL    HW2 5211   4.519   0.534   2.545
 1438SOL     OW 5212   2.412   0.216   2.212
 1438SOL    HW1 5213   2.328   0.162   2.218
 1438SOL    HW2 5214   2.484   0.172   2.266
 1439SOL     OW 5215   0.689   5.742   1.768
 1439SOL    HW1 5216   0.687   5.647   1.799
 1439SOL    HW2 5217   0.596   5.770   1.744
 1440SOL     OW 5218   2.279   2.737   1.552
 1440SOL    HW1 5219   2.303   2.821   1.504
 1440SOL    HW2 5220   2.356   2.673   1.549
 1441SOL     OW 5221   4.762   6.073   6.606
 1441SOL    HW1 5222   4.822   6.140   6.649
 1441SOL    HW2 5223   4.701   6.033   6.675
 1442SOL     OW 5224   5.323   6.116   1.536
 1442SOL    HW1 5225   5.293   6.129   1.631
 1442SOL    HW2 5226   5.374   6.030   1.530
 1443SOL     OW 5227   6.728   3.073   1.999
 1443SOL    HW1 5228   6.744   3.105   1.905
 1443SOL    HW2 5229   6.646   3.015   2.000
 1444SOL     OW 5230   0.342   6.155   5.405
 1444SOL    HW1 5231   0.276   6.178   5.334
 1444SOL    HW2 5232   0.410   6.227   5.413
 1445SOL     OW 5233   0.577   2.374   0.958
 1445SOL    HW1 5234   0.507   2.334   1.017
 1445SOL    HW2 5235   0.606   2.306   0.891
 1446SOL     OW 5236   6.709   5.149   1.280
 1446SOL    HW1 5237   6.621   5.146   1.327
 1446SOL    HW2 5238   6.694   5.160   1.182
 1447SOL     OW 5239   0.130   6.511   4.099
 1447SOL    HW1 5240   0.207   6.538   4.157
 1447SOL    HW2 5241   0.081   6.593   4.069
 1448SOL     OW 5242   1.647   1.359   5.803
 1448SOL    HW1 5243   1.632   1.337   5.706
 1448SOL    HW2 5244   1.698   1.445   5.810
 1449SOL     OW 5245   1.607   3.012   2.814
 1449SOL    HW1 5246   1.664   2.960   2.751
 1449SOL    HW2 5247   1.664   3.070   2.871
 1450SOL     OW 5248   3.362   1.920   2.900
 1450SOL    HW1 5249   3.282   1.873   2.861
 1450SOL    HW2 5250   3.444   1.892   2.850
 1451SOL     OW 5251   4.234   1.881   2.777
 1451SOL    HW1 5252   4.213   1.977   2.797
 1451SOL    HW2 5253   4.177   1.850   2.701
 1452SOL     OW 5254   4.284   2.854   5.688
 1452SOL    HW1 5255   4.345   2.774   5.690
 1452SOL    HW2 5256   4.189   2.824   5.684
 1453SOL     OW 5257   1.343   3.455   5.211
 1453SOL    HW1 5258   1.253   3.417   5.232
 1453SOL    HW2 5259   1.398   3.461   5.294
 1454SOL     OW 5260   3.040   2.151   2.492
 1454SOL    HW1 5261   3.048   2.173   2.589
 1454SOL    HW2 5262   3.126   2.113   2.458
 1455SOL     OW 5263   0.444   5.471   2.236
 1455SOL    HW1 5264   0.500   5.549   2.206
 1455SOL    HW2 5265   0.389   5.499   2.314
 1456SOL     OW 5266   6.795   5.594   4.033
 1456SOL    HW1 5267   6.841   5.671   4.077
 1456SOL    HW2 5268   6.699   5.592   4.062
 1457SOL     OW 5269   1.039   5.460   5.420
 1457SOL    HW1 5270   1.026   5.368   5.383
 1457SOL    HW2 5271   1.132   5.469   5.456
 1458SOL     OW 5272   6.574   5.217   4.827
 1458SOL    HW1 5273   6.500   5.258   4.774
 1458SOL    HW2 5274   6.644   5.181   4.765
 1459SOL     OW 5275   6.522   6.136   5.222
 1459SOL    HW1 5276   6.524   6.146   5.322
 1459SOL    HW2 5277   6.476   6.050   5.199
 1460SOL     OW 5278   1.746   5.791   4.735
 1460SOL    HW1 5279   1.650   5.778   4.759
 1460SOL    HW2 5280   1.753   5.862   4.664
 1461SOL     OW 5281   5.856   3.765   3.574
 1461SOL    HW1 5282   5.884   3.850   3.619
 1461SOL    HW2 5283   5.851   3.691   3.641
 1462SOL     OW 5284   0.623   1.463   2.276
 1462SOL    HW1 5285   0.670   1.432   2.194
 1462SOL    HW2 5286   0.637   1.397   2.350
 1463SOL     OW 5287   1.517   4.753   6.935
 1463SOL    HW1 5288   1.612   4.728   6.951
 1463SOL    HW2 5289   1.460   4.718   7.010
 1464SOL     OW 5290   1.110   4.483   5.213
 1464SOL    HW1 5291   1.163   4.450   5.291
 1464SOL    HW2 5292   1.035   4.421   5.194
 1465SOL     OW 5293   1.297   2.874   5.930
 1465SOL    HW1 5294   1.239   2.794   5.915
 1465SOL    HW2 5295   1.386   2.845   5.965
 1466SOL     OW 5296   6.021   0.786   2.729
 1466SOL    HW1 5297   5.953   0.764   2.798
 1466SOL    HW2 5298   6.047   0.703   2.680
 1467SOL     OW 5299   0.405   0.153   3.675
 1467SOL    HW1 5300   0.472   0.102   3.623
 1467SOL    HW2 5301   0.395   0.112   3.766
 1468SOL     OW 5302   3.405   6.474   3.545
 1468SOL    HW1 5303   3.425   6.572   3.542
 1468SOL    HW2 5304   3.331   6.453   3.482
 1469SOL     OW 5305   5.761   4.559   3.282
 1469SOL    HW1 5306   5.669   4.520   3.277
 1469SOL    HW2 5307   5.828   4.493   3.248
 1470SOL     OW 5308   6.550   1.972   2.281
 1470SOL    HW1 5309   6.549   2.072   2.282
 1470SOL    HW2 5310   6.546   1.939   2.186
 1471SOL     OW 5311   5.159   6.956   6.895
 1471SOL    HW1 5312   5.080   7.012   6.917
 1471SOL    HW2 5313   5.224   7.010   6.840
 1472SOL     OW 5314   2.221   0.655   6.680
 1472SOL    HW1 5315   2.275   0.584   6.635
 1472SOL    HW2 5316   2.186   0.719   6.612
 1473SOL     OW 5317   1.737   5.457   3.431
 1473SOL    HW1 5318   1.781   5.481   3.518
 1473SOL    HW2 5319   1.724   5.357   3.428
 1474SOL     OW 5320   1.465   3.765   1.691
 1474SOL    HW1 5321   1.516   3.743   1.607
 1474SOL    HW2 5322   1.507   3.843   1.736
 1475SOL     OW 5323   6.210   0.045   6.466
 1475SOL    HW1 5324   6.214   6.972   6.500
 1475SOL    HW2 5325   6.275   0.102   6.515
 1476SOL     OW 5326   5.480   0.422   6.900
 1476SOL    HW1 5327   5.413   0.409   6.827
 1476SOL    HW2 5328   5.488   0.337   6.952
 1477SOL     OW 5329   3.208   4.083   1.953
 1477SOL    HW1 5330   3.277   4.094   2.023
 1477SOL    HW2 5331   3.176   3.988   1.951
 1478SOL     OW 5332   5.196   4.269   6.130
 1478SOL    HW1 5333   5.272   4.219   6.172
 1478SOL    HW2 5334   5.128   4.290   6.201
 1479SOL     OW 5335   4.800   4.574   1.152
 1479SOL    HW1 5336   4.852   4.656   1.128
 1479SOL    HW2 5337   4.825   4.543   1.244
 1480SOL     OW 5338   3.033   1.685   3.922
 1480SOL    HW1 5339   3.060   1.608   3.979
 1480SOL    HW2 5340   2.965   1.741   3.971
 1481SOL     OW 5341   4.414   1.685   5.685
 1481SOL    HW1 5342   4.408   1.747   5.607
 1481SOL    HW2 5343   4.509   1.657   5.699
 1482SOL     OW 5344   6.418   1.440   1.828
 1482SOL    HW1 5345   6.379   1.386   1.754
 1482SOL    HW2 5346   6.504   1.399   1.858
 1483SOL     OW 5347   6.159   6.534   0.302
 1483SOL    HW1 5348   6.075   6.528   0.356
 1483SOL    HW2 5349   6.229   6.476   0.342
 1484SOL     OW 5350   3.159   6.039   4.718
 1484SOL    HW1 5351   3.086   5.991   4.767
 1484SOL    HW2 5352   3.247   5.997   4.739
 1485SOL     OW 5353   5.125   3.873   3.435
 1485SOL    HW1 5354   5.036   3.870   3.479
 1485SOL    HW2 5355   5.141   3.964   3.397
 1486SOL     OW 5356   5.982   6.267   4.253
 1486SOL    HW1 5357   5.931   6.213   4.186
 1486SOL    HW2 5358   5.925   6.283   4.333
 1487SOL     OW 5359   5.783   0.894   0.044
 1487SOL    HW1 5360   5.714   0.821   0.046
 1487SOL    HW2 5361   5.868   0.858   0.006
 1488SOL     OW 5362   6.835   2.877   2.661
 1488SOL    HW1 5363   6.847   2.779   2.648
 1488SOL    HW2 5364   6.894   2.908   2.735
 1489SOL     OW 5365   3.308   5.428   0.044
 1489SOL    HW1 5366   3.228   5.443   7.008
 1489SOL    HW2 5367   3.320   5.329   0.058
 1490SOL     OW 5368   5.769   2.839   2.483
 1490SOL    HW1 5369   5.763   2.926   2.532
 1490SOL    HW2 5370   5.765   2.856   2.384
 1491SOL     OW 5371   5.408   2.677   4.540
 1491SOL    HW1 5372   5.446   2.659   4.630
 1491SOL    HW2 5373   5.308   2.677   4.545
 1492SOL     OW 5374   1.182   2.467   2.106
 1492SOL    HW1 5375   1.260   2.408   2.127
 1492SOL    HW2 5376   1.145   2.444   2.016
 1493SOL     OW 5377   5.862   2.211   6.270
 1493SOL    HW1 5378   5.926   2.145   6.308
 1493SOL    HW2 5379   5.889   2.304   6.297
 1494SOL     OW 5380   1.438   3.901   6.593
 1494SOL    HW1 5381   1.443   4.001   6.588
 1494SOL    HW2 5382   1.343   3.872   6.596
 1495SOL     OW 5383   6.352   4.289   3.790
 1495SOL    HW1 5384   6.322   4.219   3.855
 1495SOL    HW2 5385   6.450   4.279   3.771
 1496SOL     OW 5386   6.638   6.260   5.492
 1496SOL    HW1 5387   6.641   6.199   5.571
 1496SOL    HW2 5388   6.731   6.286   5.466
 1497SOL     OW 5389   4.684   2.454   2.853
 1497SOL    HW1 5390   4.639   2.521   2.794
 1497SOL    HW2 5391   4.675   2.363   2.812
 1498SOL     OW 5392   3.301   4.543   0.875
 1498SOL    HW1 5393   3.290   4.642   0.876
 1498SOL    HW2 5394   3.248   4.502   0.949
 1499SOL     OW 5395   0.910   3.959   4.054
 1499SOL    HW1 5396   0.846   3.886   4.030
 1499SOL    HW2 5397   0.906   3.975   4.153
 1500SOL     OW 5398   2.382   5.404   1.934
 1500SOL    HW1 5399   2.413   5.436   2.024
 1500SOL    HW2 5400   2.436   5.446   1.862
 1501SOL     OW 5401   5.424   1.388   1.185
 1501SOL    HW1 5402   5.356   1.457   1.211
 1501SOL    HW2 5403   5.449   1.334   1.264
 1502SOL     OW 5404   0.488   5.927   6.068
 1502SOL    HW1 5405   0.419   5.986   6.110
 1502SOL    HW2 5406   0.448   5.884   5.986
 1503SOL     OW 5407   6.606   5.809   1.851
 1503SOL    HW1 5408   6.693   5.826   1.805
 1503SOL    HW2 5409   6.582   5.887   1.908
 1504SOL     OW 5410   1.760   0.260   3.424
 1504SOL    HW1 5411   1.851   0.222   3.410
 1504SOL    HW2 5412   1.751   0.289   3.520
 1505SOL     OW 5413   6.768   4.759   4.962
 1505SOL    HW1 5414   6.787   4.848   5.003
 1505SOL    HW2 5415   6.769   4.689   5.033
 1506SOL     OW 5416   1.126   1.107   0.970
 1506SOL    HW1 5417   1.207   1.165   0.966
 1506SOL    HW2 5418   1.049   1.159   1.008
 1507SOL     OW 5419   2.596   2.116   3.635
 1507SOL    HW1 5420   2.667   2.186   3.630
 1507SOL    HW2 5421   2.614   2.046   3.566
 1508SOL     OW 5422   1.567   0.918   2.114
 1508SOL    HW1 5423   1.647   0.968   2.148
 1508SOL    HW2 5424   1.516   0.976   2.050
 1509SOL     OW 5425   4.310   1.375   4.438
 1509SOL    HW1 5426   4.309   1.419   4.528
 1509SOL    HW2 5427   4.236   1.412   4.382
 1510SOL     OW 5428   2.600   6.705   5.106
 1510SOL    HW1 5429   2.630   6.783   5.162
 1510SOL    HW2 5430   2.537   6.737   5.036
 1511SOL     OW 5431   3.770   4.267   5.741
 1511SOL    HW1 5432   3.823   4.198   5.790
 1511SOL    HW2 5433   3.681   4.278   5.784
 1512SOL     OW 5434   5.258   6.322   0.796
 1512SOL    HW1 5435   5.197   6.265   0.851
 1512SOL    HW2 5436   5.231   6.418   0.807
 1513SOL     OW 5437   3.339   0.202   5.547
 1513SOL    HW1 5438   3.287   0.123   5.514
 1513SOL    HW2 5439   3.427   0.206   5.499
 1514SOL     OW 5440   2.940   1.769   0.149
 1514SOL    HW1 5441   2.977   1.813   0.231
 1514SOL    HW2 5442   3.006   1.701   0.115
 1515SOL     OW 5443   3.321   1.297   2.199
 1515SOL    HW1 5444   3.412   1.327   2.229
 1515SOL    HW2 5445   3.290   1.358   2.125
 1516SOL     OW 5446   6.635   6.980   6.561
 1516SOL    HW1 5447   6.645   0.058   6.575
 1516SOL    HW2 5448   6.705   6.948   6.497
 1517SOL     OW 5449   2.472   6.161   2.883
 1517SOL    HW1 5450   2.539   6.157   2.958
 1517SOL    HW2 5451   2.391   6.209   2.913
 1518SOL     OW 5452   1.189   2.772   6.773
 1518SOL    HW1 5453   1.183   2.710   6.852
 1518SOL    HW2 5454   1.184   2.867   6.805
 1519SOL     OW 5455   0.454   4.241   6.508
 1519SOL    HW1 5456   0.445   4.157   6.455
 1519SOL    HW2 5457   0.378   4.248   6.573
 1520SOL     OW 5458   6.959   6.666   3.469
 1520SOL    HW1 5459   0.010   6.639   3.406
 1520SOL    HW2 5460   6.914   6.584   3.506
 1521SOL     OW 5461   2.182   4.726   6.838
 1521SOL    HW1 5462   2.208   4.810   6.791
 1521SOL    HW2 5463   2.216   4.647   6.787
 1522SOL     OW 5464   6.152   6.759   3.704
 1522SOL    HW1 5465   6.207   6.842   3.703
 1522SOL    HW2 5466   6.061   6.779   3.667
 1523SOL     OW 5467   2.548   6.444   0.412
 1523SOL    HW1 5468   2.493   6.474   0.334
 1523SOL    HW2 5469   2.616   6.514   0.433
 1524SOL     OW 5470   1.908   2.616   4.565
 1524SOL    HW1 5471   1.946   2.618   4.658
 1524SOL    HW2 5472   1.906   2.709   4.528
 1525SOL     OW 5473   6.115   4.218   0.178
 1525SOL    HW1 5474   6.138   4.284   0.250
 1525SOL    HW2 5475   6.155   4.249   0.091
 1526SOL     OW 5476   0.897   1.375   1.458
 1526SOL    HW1 5477   0.849   1.419   1.535
 1526SOL    HW2 5478   0.831   1.322   1.405
 1527SOL     OW 5479   4.972   1.017   4.044
 1527SOL    HW1 5480   5.053   1.041   4.097
 1527SOL    HW2 5481   4.945   0.923   4.066
 1528SOL     OW 5482   4.021   3.466   2.723
 1528SOL    HW1 5483   4.021   3.439   2.627
 1528SOL    HW2 5484   4.076   3.401   2.776
 1529SOL     OW 5485   4.184   0.864   5.363
 1529SOL    HW1 5486   4.089   0.855   5.331
 1529SOL    HW2 5487   4.187   0.927   5.440
 1530SOL     OW 5488   2.640   0.039   1.759
 1530SOL    HW1 5489   2.586   0.046   1.842
 1530SOL    HW2 5490   2.625   0.121   1.702
 1531SOL     OW 5491   5.618   5.865   4.264
 1531SOL    HW1 5492   5.632   5.963   4.257
 1531SOL    HW2 5493   5.612   5.825   4.173
 1532SOL     OW 5494   2.675   5.440   2.328
 1532SOL    HW1 5495   2.664   5.424   2.426
 1532SOL    HW2 5496   2.658   5.354   2.279
 1533SOL     OW 5497   5.581   6.678   1.301
 1533SOL    HW1 5498   5.485   6.660   1.323
 1533SOL    HW2 5499   5.638   6.605   1.338
 1534SOL     OW 5500   2.189   4.668   6.494
 1534SOL    HW1 5501   2.127   4.613   6.550
 1534SOL    HW2 5502   2.154   4.762   6.487
 1535SOL     OW 5503   4.869   4.675   3.497
 1535SOL    HW1 5504   4.873   4.753   3.560
 1535SOL    HW2 5505   4.934   4.690   3.423
 1536SOL     OW 5506   4.360   4.195   6.310
 1536SOL    HW1 5507   4.331   4.174   6.216
 1536SOL    HW2 5508   4.377   4.110   6.360
 1537SOL     OW 5509   3.440   5.948   2.279
 1537SOL    HW1 5510   3.462   5.967   2.375
 1537SOL    HW2 5511   3.524   5.936   2.227
 1538SOL     OW 5512   2.225   1.146   0.475
 1538SOL    HW1 5513   2.212   1.192   0.387
 1538SOL    HW2 5514   2.294   1.195   0.528
 1539SOL     OW 5515   0.146   3.025   0.798
 1539SOL    HW1 5516   0.070   2.962   0.787
 1539SOL    HW2 5517   0.167   3.036   0.896
 1540SOL     OW 5518   3.916   5.576   3.835
 1540SOL    HW1 5519   3.998   5.619   3.873
 1540SOL    HW2 5520   3.843   5.579   3.903
 1541SOL     OW 5521   4.862   2.459   5.448
 1541SOL    HW1 5522   4.831   2.468   5.354
 1541SOL    HW2 5523   4.943   2.401   5.452
 1542SOL     OW 5524   0.594   4.679   2.681
 1542SOL    HW1 5525   0.530   4.635   2.618
 1542SOL    HW2 5526   0.661   4.611   2.714
 1543SOL     OW 5527   3.686   5.246   1.090
 1543SOL    HW1 5528   3.673   5.257   0.991
 1543SOL    HW2 5529   3.693   5.149   1.112
 1544SOL     OW 5530   4.078   3.483   4.082
 1544SOL    HW1 5531   4.012   3.408   4.086
 1544SOL    HW2 5532   4.103   3.511   4.175
 1545SOL     OW 5533   6.127   5.247   1.168
 1545SOL    HW1 5534   6.209   5.303   1.155
 1545SOL    HW2 5535   6.053   5.304   1.202
 1546SOL     OW 5536   6.399   6.466   5.474
 1546SOL    HW1 5537   6.412   6.541   5.540
 1546SOL    HW2 5538   6.481   6.410   5.469
 1547SOL     OW 5539   1.639   3.171   6.260
 1547SOL    HW1 5540   1.651   3.170   6.161
 1547SOL    HW2 5541   1.578   3.246   6.286
 1548SOL     OW 5542   6.579   2.339   0.176
 1548SOL    HW1 5543   6.540   2.371   0.091
 1548SOL    HW2 5544   6.550   2.244   0.193
 1549SOL     OW 5545   5.241   0.359   3.917
 1549SOL    HW1 5546   5.168   0.292   3.927
 1549SOL    HW2 5547   5.201   0.450   3.903
 1550SOL     OW 5548   2.954   3.872   4.545
 1550SOL    HW1 5549   2.909   3.928   4.475
 1550SOL    HW2 5550   2.973   3.781   4.508
 1551SOL     OW 5551   6.769   5.182   5.984
 1551SOL    HW1 5552   6.817   5.142   6.062
 1551SOL    HW2 5553   6.724   5.267   6.012
 1552SOL     OW 5554   1.839   3.860   1.233
 1552SOL    HW1 5555   1.913   3.795   1.218
 1552SOL    HW2 5556   1.760   3.835   1.178
 1553SOL     OW 5557   1.562   2.074   5.318
 1553SOL    HW1 5558   1.623   2.077   5.397
 1553SOL    HW2 5559   1.524   2.165   5.302
 1554SOL     OW 5560   4.570   1.872   3.638
 1554SOL    HW1 5561   4.580   1.970   3.656
 1554SOL    HW2 5562   4.647   1.840   3.583
 1555SOL     OW 5563   6.009   4.843   4.946
 1555SOL    HW1 5564   5.949   4.795   4.883
 1555SOL    HW2 5565   5.960   4.920   4.987
 1556SOL     OW 5566   1.572   1.093   5.944
 1556SOL    HW1 5567   1.555   1.018   6.009
 1556SOL    HW2 5568   1.608   1.172   5.994
 1557SOL     OW 5569   1.174   1.925   6.250
 1557SOL    HW1 5570   1.234   1.853   6.214
 1557SOL    HW2 5571   1.122   1.889   6.328
 1558SOL     OW 5572   6.542   0.054   4.500
 1558SOL    HW1 5573   6.501   0.037   4.589
 1558SOL    HW2 5574   6.479   0.110   4.445
 1559SOL     OW 5575   1.520   1.134   6.288
 1559SOL    HW1 5576   1.526   1.158   6.385
 1559SOL    HW2 5577   1.592   1.180   6.238
 1560SOL     OW 5578   6.925   0.472   0.599
 1560SOL    HW1 5579   6.837   0.516   0.579
 1560SOL    HW2 5580   6.969   0.447   0.513
 1561SOL     OW 5581   5.838   6.252   1.528
 1561SOL    HW1 5582   5.825   6.162   1.486
 1561SOL    HW2 5583   5.922   6.252   1.581
 1562SOL     OW 5584   5.582   6.864   4.281
 1562SOL    HW1 5585   5.584   6.907   4.191
 1562SOL    HW2 5586   5.571   6.765   4.270
 1563SOL     OW 5587   2.877   0.159   6.109
 1563SOL    HW1 5588   2.886   0.088   6.179
 1563SOL    HW2 5589   2.939   0.139   6.033
 1564SOL     OW 5590   1.420   2.689   3.015
 1564SOL    HW1 5591   1.434   2.781   3.051
 1564SOL    HW2 5592   1.325   2.678   2.986
 1565SOL     OW 5593   6.250   4.768   0.983
 1565SOL    HW1 5594   6.265   4.833   1.057
 1565SOL    HW2 5595   6.205   4.686   1.020
 1566SOL     OW 5596   5.976   4.693   2.308
 1566SOL    HW1 5597   6.045   4.731   2.370
 1566SOL    HW2 5598   5.915   4.766   2.278
 1567SOL     OW 5599   0.018   5.788   5.650
 1567SOL    HW1 5600   0.083   5.756   5.719
 1567SOL    HW2 5601   0.027   5.733   5.567
 1568SOL     OW 5602   0.349   6.534   0.610
 1568SOL    HW1 5603   0.312   6.442   0.620
 1568SOL    HW2 5604   0.402   6.540   0.526
 1569SOL     OW 5605   3.033   5.648   5.506
 1569SOL    HW1 5606   3.062   5.669   5.413
 1569SOL    HW2 5607   3.093   5.579   5.546
 1570SOL     OW 5608   2.898   1.802   2.062
 1570SOL    HW1 5609   2.821   1.833   2.007
 1570SOL    HW2 5610   2.921   1.872   2.130
 1571SOL     OW 5611   0.143   2.915   6.800
 1571SOL    HW1 5612   0.211   2.879   6.737
 1571SOL    HW2 5613   0.075   2.968   6.749
 1572SOL     OW 5614   0.355   5.469   3.745
 1572SOL    HW1 5615   0.417   5.420   3.806
 1572SOL    HW2 5616   0.406   5.508   3.669
 1573SOL     OW 5617   4.384   0.294   0.234
 1573SOL    HW1 5618   4.389   0.266   0.330
 1573SOL    HW2 5619   4.296   0.339   0.217
 1574SOL     OW 5620   5.208   3.997   1.544
 1574SOL    HW1 5621   5.240   4.092   1.538
 1574SOL    HW2 5622   5.177   3.967   1.455
 1575SOL     OW 5623   3.702   2.301   0.327
 1575SOL    HW1 5624   3.681   2.375   0.263
 1575SOL    HW2 5625   3.668   2.214   0.289
 1576SOL     OW 5626   6.312   5.315   3.295
 1576SOL    HW1 5627   6.240   5.281   3.356
 1576SOL    HW2 5628   6.398   5.323   3.346
 1577SOL     OW 5629   1.370   0.653   0.787
 1577SOL    HW1 5630   1.450   0.652   0.847
 1577SOL    HW2 5631   1.368   0.738   0.736
 1578SOL     OW 5632   6.034   6.013   4.666
 1578SOL    HW1 5633   5.977   5.942   4.706
 1578SOL    HW2 5634   6.067   5.983   4.576
 1579SOL     OW 5635   0.268   0.820   3.269
 1579SOL    HW1 5636   0.185   0.803   3.216
 1579SOL    HW2 5637   0.276   0.918   3.287
 1580SOL     OW 5638   3.405   4.209   5.515
 1580SOL    HW1 5639   3.501   4.209   5.543
 1580SOL    HW2 5640   3.396   4.259   5.429
 1581SOL     OW 5641   6.150   3.216   4.601
 1581SOL    HW1 5642   6.163   3.239   4.504
 1581SOL    HW2 5643   6.198   3.283   4.658
 1582SOL     OW 5644   6.292   6.580   3.930
 1582SOL    HW1 5645   6.220   6.625   3.879
 1582SOL    HW2 5646   6.253   6.528   4.006
 1583SOL     OW 5647   2.048   2.977   1.323
 1583SOL    HW1 5648   2.043   3.076   1.331
 1583SOL    HW2 5649   2.042   2.950   1.227
 1584SOL     OW 5650   2.369   0.258   6.327
 1584SOL    HW1 5651   2.275   0.228   6.314
 1584SOL    HW2 5652   2.428   0.211   6.261
 1585SOL     OW 5653   5.620   1.063   6.514
 1585SOL    HW1 5654   5.562   1.018   6.446
 1585SOL    HW2 5655   5.668   0.994   6.568
 1586SOL     OW 5656   4.030   3.226   3.375
 1586SOL    HW1 5657   4.030   3.246   3.473
 1586SOL    HW2 5658   4.010   3.129   3.361
 1587SOL     OW 5659   1.854   6.821   5.981
 1587SOL    HW1 5660   1.865   6.722   5.994
 1587SOL    HW2 5661   1.911   6.850   5.905
 1588SOL     OW 5662   6.256   4.316   0.382
 1588SOL    HW1 5663   6.299   4.258   0.313
 1588SOL    HW2 5664   6.326   4.363   0.435
 1589SOL     OW 5665   5.322   4.671   2.842
 1589SOL    HW1 5666   5.311   4.623   2.755
 1589SOL    HW2 5667   5.383   4.619   2.902
 1590SOL     OW 5668   2.301   6.164   4.355
 1590SOL    HW1 5669   2.283   6.188   4.260
 1590SOL    HW2 5670   2.370   6.092   4.359
 1591SOL     OW 5671   2.170   3.238   0.284
 1591SOL    HW1 5672   2.073   3.216   0.277
 1591SOL    HW2 5673   2.204   3.266   0.194
 1592SOL     OW 5674   3.832   3.595   4.036
 1592SOL    HW1 5675   3.905   3.657   4.008
 1592SOL    HW2 5676   3.842   3.572   4.132
 1593SOL     OW 5677   1.468   4.354   4.006
 1593SOL    HW1 5678   1.485   4.345   3.907
 1593SOL    HW2 5679   1.555   4.348   4.055
 1594SOL     OW 5680   0.598   5.774   2.197
 1594SOL    HW1 5681   0.561   5.838   2.130
 1594SOL    HW2 5682   0.648   5.825   2.267
 1595SOL     OW 5683   6.267   3.383   4.764
 1595SOL    HW1 5684   6.231   3.348   4.851
 1595SOL    HW2 5685   6.364   3.403   4.774
 1596SOL     OW 5686   3.284   4.928   6.840
 1596SOL    HW1 5687   3.358   4.883   6.889
 1596SOL    HW2 5688   3.197   4.883   6.862
 1597SOL     OW 5689   2.443   6.739   1.175
 1597SOL    HW1 5690   2.492   6.788   1.247
 1597SOL    HW2 5691   2.510   6.694   1.115
 1598SOL     OW 5692   6.866   5.835   1.719
 1598SOL    HW1 5693   6.895   5.739   1.721
 1598SOL    HW2 5694   6.934   5.889   1.669
 1599SOL     OW 5695   2.878   5.370   0.178
 1599SOL    HW1 5696   2.912   5.462   0.159
 1599SOL    HW2 5697   2.843   5.330   0.093
 1600SOL     OW 5698   3.529   1.702   4.741
 1600SOL    HW1 5699   3.435   1.723   4.767
 1600SOL    HW2 5700   3.573   1.649   4.814
 1601SOL     OW 5701   1.516   5.410   4.679
 1601SOL    HW1 5702   1.461   5.489   4.654
 1601SOL    HW2 5703   1.613   5.433   4.672
 1602SOL     OW 5704   7.002   3.233   1.721
 1602SOL    HW1 5705   0.059   3.283   1.683
 1602SOL    HW2 5706   0.001   3.209   1.816
 1603SOL     OW 5707   6.078   6.735   0.705
 1603SOL    HW1 5708   6.149   6.806   0.714
 1603SOL    HW2 5709   5.992   6.777   0.679
 1604SOL     OW 5710   0.840   5.330   4.563
 1604SOL    HW1 5711   0.814   5.306   4.470
 1604SOL    HW2 5712   0.837   5.248   4.620
 1605SOL     OW 5713   4.850   5.170   2.318
 1605SOL    HW1 5714   4.885   5.098   2.378
 1605SOL    HW2 5715   4.829   5.131   2.228
 1606SOL     OW 5716   5.956   5.422   4.896
 1606SOL    HW1 5717   5.966   5.359   4.974
 1606SOL    HW2 5718   6.032   5.409   4.832
 1607SOL     OW 5719   5.521   3.861   1.529
 1607SOL    HW1 5720   5.578   3.906   1.597
 1607SOL    HW2 5721   5.425   3.885   1.545
 1608SOL     OW 5722   2.353   6.963   1.009
 1608SOL    HW1 5723   2.412   7.005   0.941
 1608SOL    HW2 5724   2.409   6.920   1.080
 1609SOL     OW 5725   5.787   1.848   5.499
 1609SOL    HW1 5726   5.718   1.850   5.571
 1609SOL    HW2 5727   5.777   1.928   5.440
 1610SOL     OW 5728   4.381   6.488   3.302
 1610SOL    HW1 5729   4.319   6.552   3.347
 1610SOL    HW2 5730   4.475   6.521   3.311
 1611SOL     OW 5731   4.194   3.737   1.735
 1611SOL    HW1 5732   4.273   3.793   1.709
 1611SOL    HW2 5733   4.124   3.795   1.777
 1612SOL     OW 5734   2.984   0.374   4.676
 1612SOL    HW1 5735   3.061   0.432   4.651
 1612SOL    HW2 5736   2.950   0.326   4.595
 1613SOL     OW 5737   2.386   0.436   1.703
 1613SOL    HW1 5738   2.329   0.356   1.717
 1613SOL    HW2 5739   2.330   0.519   1.710
 1614SOL     OW 5740   6.801   1.830   5.232
 1614SOL    HW1 5741   6.786   1.767   5.156
 1614SOL    HW2 5742   6.894   1.820   5.267
 1615SOL     OW 5743   6.497   5.569   5.664
 1615SOL    HW1 5744   6.526   5.475   5.648
 1615SOL    HW2 5745   6.539   5.603   5.748
 1616SOL     OW 5746   2.462   1.784   6.136
 1616SOL    HW1 5747   2.507   1.834   6.062
 1616SOL    HW2 5748   2.392   1.842   6.177
 1617SOL     OW 5749   3.244   1.028   3.433
 1617SOL    HW1 5750   3.156   1.015   3.477
 1617SOL    HW2 5751   3.237   1.003   3.336
 1618SOL     OW 5752   5.291   3.021   1.908
 1618SOL    HW1 5753   5.333   2.934   1.884
 1618SOL    HW2 5754   5.192   3.009   1.919
 1619SOL     OW 5755   1.538   2.883   4.768
 1619SOL    HW1 5756   1.592   2.965   4.750
 1619SOL    HW2 5757   1.450   2.909   4.808
 1620SOL     OW 5758   3.247   5.933   1.224
 1620SOL    HW1 5759   3.297   5.928   1.311
 1620SOL    HW2 5760   3.285   6.007   1.168
 1621SOL     OW 5761   2.161   2.360   1.522
 1621SOL    HW1 5762   2.183   2.408   1.607
 1621SOL    HW2 5763   2.211   2.273   1.518
 1622SOL     OW 5764   2.472   2.429   5.217
 1622SOL    HW1 5765   2.494   2.499   5.285
 1622SOL    HW2 5766   2.382   2.448   5.177
 1623SOL     OW 5767   2.334   2.019   4.546
 1623SOL    HW1 5768   2.377   1.941   4.591
 1623SOL    HW2 5769   2.246   1.990   4.508
 1624SOL     OW 5770   1.875   0.554   0.230
 1624SOL    HW1 5771   1.863   0.526   0.325
 1624SOL    HW2 5772   1.959   0.514   0.193
 1625SOL     OW 5773   1.354   0.208   1.123
 1625SOL    HW1 5774   1.407   0.279   1.075
 1625SOL    HW2 5775   1.257   0.220   1.102
 1626SOL     OW 5776   2.271   3.202   6.394
 1626SOL    HW1 5777   2.277   3.300   6.414
 1626SOL    HW2 5778   2.258   3.189   6.296
 1627SOL     OW 5779   4.737   4.230   3.133
 1627SOL    HW1 5780   4.794   4.157   3.171
 1627SOL    HW2 5781   4.789   4.280   3.064
 1628SOL     OW 5782   3.831   3.327   0.160
 1628SOL    HW1 5783   3.774   3.408   0.173
 1628SOL    HW2 5784   3.775   3.245   0.168
 1629SOL     OW 5785   2.330   2.420   2.896
 1629SOL    HW1 5786   2.380   2.381   2.818
 1629SOL    HW2 5787   2.318   2.350   2.966
 1630SOL     OW 5788   5.840   4.960   3.959
 1630SOL    HW1 5789   5.760   4.932   4.012
 1630SOL    HW2 5790   5.814   4.972   3.863
 1631SOL     OW 5791   1.157   0.606   5.966
 1631SOL    HW1 5792   1.117   0.538   6.028
 1631SOL    HW2 5793   1.243   0.571   5.929
 1632SOL     OW 5794   4.001   6.650   6.866
 1632SOL    HW1 5795   4.096   6.676   6.850
 1632SOL    HW2 5796   3.998   6.578   6.936
 1633SOL     OW 5797   6.535   3.915   2.815
 1633SOL    HW1 5798   6.501   3.942   2.905
 1633SOL    HW2 5799   6.462   3.867   2.766
 1634SOL     OW 5800   3.492   1.094   1.032
 1634SOL    HW1 5801   3.393   1.105   1.027
 1634SOL    HW2 5802   3.534   1.136   0.951
 1635SOL     OW 5803   1.494   4.016   3.483
 1635SOL    HW1 5804   1.537   3.934   3.521
 1635SOL    HW2 5805   1.482   4.005   3.385
 1636SOL     OW 5806   2.606   6.301   0.644
 1636SOL    HW1 5807   2.574   6.353   0.564
 1636SOL    HW2 5808   2.528   6.259   0.689
 1637SOL     OW 5809   1.026   2.667   2.513
 1637SOL    HW1 5810   1.095   2.731   2.478
 1637SOL    HW2 5811   0.960   2.716   2.570
 1638SOL     OW 5812   0.964   2.341   5.958
 1638SOL    HW1 5813   0.875   2.299   5.975
 1638SOL    HW2 5814   0.976   2.420   6.017
 1639SOL     OW 5815   3.919   5.214   2.849
 1639SOL    HW1 5816   3.880   5.306   2.852
 1639SOL    HW2 5817   3.978   5.201   2.929
 1640SOL     OW 5818   5.333   6.839   0.460
 1640SOL    HW1 5819   5.364   6.901   0.532
 1640SOL    HW2 5820   5.405   6.829   0.391
 1641SOL     OW 5821   6.288   2.725   4.521
 1641SOL    HW1 5822   6.261   2.819   4.501
 1641SOL    HW2 5823   6.338   2.722   4.607
 1642SOL     OW 5824   0.594   2.105   1.210
 1642SOL    HW1 5825   0.598   2.006   1.195
 1642SOL    HW2 5826   0.673   2.134   1.264
 1643SOL     OW 5827   3.955   0.016   5.685
 1643SOL    HW1 5828   3.975   6.945   5.718
 1643SOL    HW2 5829   3.984   0.024   5.589
 1644SOL     OW 5830   3.869   1.308   1.008
 1644SOL    HW1 5831   3.941   1.355   0.957
 1644SOL    HW2 5832   3.909   1.233   1.061
 1645SOL     OW 5833   2.507   5.662   5.767
 1645SOL    HW1 5834   2.583   5.630   5.823
 1645SOL    HW2 5835   2.423   5.662   5.821
 1646SOL     OW 5836   2.372   3.311   0.470
 1646SOL    HW1 5837   2.451   3.344   0.420
 1646SOL    HW2 5838   2.307   3.270   0.406
 1647SOL     OW 5839   6.022   3.459   2.136
 1647SOL    HW1 5840   6.050   3.372   2.095
 1647SOL    HW2 5841   5.979   3.441   2.225
 1648SOL     OW 5842   2.975   0.768   3.274
 1648SOL    HW1 5843   2.997   0.805   3.364
 1648SOL    HW2 5844   3.058   0.736   3.230
 1649SOL     OW 5845   2.627   0.450   4.010
 1649SOL    HW1 5846   2.538   0.461   4.054
 1649SOL    HW2 5847   2.654   0.537   3.968
 1650SOL     OW 5848   3.098   0.354   4.392
 1650SOL    HW1 5849   3.060   0.446   4.396
 1650SOL    HW2 5850   3.186   0.353   4.438
 1651SOL     OW 5851   1.501   6.789   2.584
 1651SOL    HW1 5852   1.542   6.777   2.675
 1651SOL    HW2 5853   1.459   6.703   2.555
 1652SOL     OW 5854   3.788   3.474   1.353
 1652SOL    HW1 5855   3.707   3.431   1.394
 1652SOL    HW2 5856   3.792   3.570   1.380
 1653SOL     OW 5857   1.220   4.321   1.225
 1653SOL    HW1 5858   1.192   4.303   1.320
 1653SOL    HW2 5859   1.151   4.377   1.181
 1654SOL     OW 5860   0.986   2.424   4.103
 1654SOL    HW1 5861   0.999   2.519   4.131
 1654SOL    HW2 5862   0.889   2.407   4.086
 1655SOL     OW 5863   4.237   4.231   5.371
 1655SOL    HW1 5864   4.176   4.293   5.421
 1655SOL    HW2 5865   4.252   4.265   5.279
 1656SOL     OW 5866   0.404   3.105   2.025
 1656SOL    HW1 5867   0.452   3.040   1.967
 1656SOL    HW2 5868   0.311   3.119   1.990
 1657SOL     OW 5869   1.130   0.981   5.708
 1657SOL    HW1 5870   1.078   0.900   5.736
 1657SOL    HW2 5871   1.201   1.000   5.776
 1658SOL     OW 5872   6.092   6.733   2.932
 1658SOL    HW1 5873   6.147   6.651   2.949
 1658SOL    HW2 5874   6.043   6.723   2.846
 1659SOL     OW 5875   5.534   2.796   6.502
 1659SOL    HW1 5876   5.592   2.848   6.438
 1659SOL    HW2 5877   5.457   2.853   6.530
 1660SOL     OW 5878   2.275   5.626   3.816
 1660SOL    HW1 5879   2.333   5.563   3.868
 1660SOL    HW2 5880   2.256   5.586   3.726
 1661SOL     OW 5881   2.703   0.826   3.212
 1661SOL    HW1 5882   2.797   0.796   3.228
 1661SOL    HW2 5883   2.652   0.753   3.165
 1662SOL     OW 5884   0.209   0.810   3.554
 1662SOL    HW1 5885   0.259   0.826   3.469
 1662SOL    HW2 5886   0.111   0.806   3.535
 1663SOL     OW 5887   1.564   0.227   3.222
 1663SOL    HW1 5888   1.584   0.303   3.162
 1663SOL    HW2 5889   1.631   0.223   3.296
 1664SOL     OW 5890   1.637   5.585   4.370
 1664SOL    HW1 5891   1.625   5.486   4.376
 1664SOL    HW2 5892   1.584   5.621   4.294
 1665SOL     OW 5893   0.263   1.388   4.034
 1665SOL    HW1 5894   0.166   1.399   4.010
 1665SOL    HW2 5895   0.288   1.292   4.027
 1666SOL     OW 5896   5.592   2.508   6.540
 1666SOL    HW1 5897   5.580   2.605   6.519
 1666SOL    HW2 5898   5.640   2.498   6.627
 1667SOL     OW 5899   0.036   0.473   1.048
 1667SOL    HW1 5900   0.053   0.375   1.042
 1667SOL    HW2 5901   6.973   0.496   0.997
 1668SOL     OW 5902   2.385   0.359   4.626
 1668SOL    HW1 5903   2.325   0.428   4.586
 1668SOL    HW2 5904   2.438   0.315   4.554
 1669SOL     OW 5905   5.351   6.135   6.152
 1669SOL    HW1 5906   5.289   6.058   6.134
 1669SOL    HW2 5907   5.403   6.116   6.235
 1670SOL     OW 5908   6.985   3.444   6.104
 1670SOL    HW1 5909   0.039   3.433   6.168
 1670SOL    HW2 5910   6.928   3.362   6.104
 1671SOL     OW 5911   5.989   5.009   0.729
 1671SOL    HW1 5912   5.944   4.926   0.762
 1671SOL    HW2 5913   5.983   5.081   0.799
 1672SOL     OW 5914   2.029   4.195   2.508
 1672SOL    HW1 5915   2.073   4.244   2.584
 1672SOL    HW2 5916   2.005   4.261   2.436
 1673SOL     OW 5917   6.525   3.024   3.206
 1673SOL    HW1 5918   6.450   3.088   3.191
 1673SOL    HW2 5919   6.591   3.033   3.132
 1674SOL     OW 5920   2.516   5.696   0.410
 1674SOL    HW1 5921   2.480   5.790   0.408
 1674SOL    HW2 5922   2.615   5.699   0.400
 1675SOL     OW 5923   4.973   1.959   6.170
 1675SOL    HW1 5924   4.965   1.861   6.190
 1675SOL    HW2 5925   4.956   2.011   6.254
 1676SOL     OW 5926   2.889   1.999   3.681
 1676SOL    HW1 5927   2.876   2.094   3.709
 1676SOL    HW2 5928   2.979   1.988   3.640
 1677SOL     OW 5929   5.303   0.223   5.964
 1677SOL    HW1 5930   5.226   0.203   5.903
 1677SOL    HW2 5931   5.307   0.322   5.981
 1678SOL     OW 5932   4.882   6.395   2.285
 1678SOL    HW1 5933   4.955   6.464   2.292
 1678SOL    HW2 5934   4.817   6.424   2.215
 1679SOL     OW 5935   6.701   4.884   0.130
 1679SOL    HW1 5936   6.751   4.798   0.126
 1679SOL    HW2 5937   6.617   4.872   0.183
 1680SOL     OW 5938   0.212   2.208   5.614
 1680SOL    HW1 5939   0.203   2.287   5.675
 1680SOL    HW2 5940   0.213   2.240   5.519
 1681SOL     OW 5941   4.394   5.582   0.245
 1681SOL    HW1 5942   4.434   5.653   0.187
 1681SOL    HW2 5943   4.458   5.559   0.318
 1682SOL     OW 5944   0.280   3.190   6.044
 1682SOL    HW1 5945   0.366   3.170   5.997
 1682SOL    HW2 5946   0.210   3.214   5.978
 1683SOL     OW 5947   5.585   5.157   5.281
 1683SOL    HW1 5948   5.576   5.252   5.253
 1683SOL    HW2 5949   5.648   5.151   5.359
 1684SOL     OW 5950   0.440   0.008   4.403
 1684SOL    HW1 5951   0.424   6.937   4.437
 1684SOL    HW2 5952   0.410   0.014   4.308
 1685SOL     OW 5953   1.001   2.011   0.107
 1685SOL    HW1 5954   1.060   2.089   0.087
 1685SOL    HW2 5955   0.992   2.001   0.206
 1686SOL     OW 5956   1.569   6.815   5.930
 1686SOL    HW1 5957   1.526   6.744   5.985
 1686SOL    HW2 5958   1.667   6.817   5.950
 1687SOL     OW 5959   3.102   6.552   2.231
 1687SOL    HW1 5960   3.095   6.525   2.327
 1687SOL    HW2 5961   3.190   6.598   2.217
 1688SOL     OW 5962   0.557   1.710   3.945
 1688SOL    HW1 5963   0.633   1.713   3.881
 1688SOL    HW2 5964   0.585   1.751   4.032
 1689SOL     OW 5965   2.278   1.752   1.742
 1689SOL    HW1 5966   2.346   1.681   1.759
 1689SOL    HW2 5967   2.250   1.794   1.828
 1690SOL     OW 5968   1.015   2.270   0.462
 1690SOL    HW1 5969   1.101   2.223   0.483
 1690SOL    HW2 5970   0.967   2.290   0.547
 1691SOL     OW 5971   4.647   4.301   3.751
 1691SOL    HW1 5972   4.656   4.224   3.814
 1691SOL    HW2 5973   4.667   4.270   3.658
 1692SOL     OW 5974   0.729   6.667   3.888
 1692SOL    HW1 5975   0.757   6.583   3.934
 1692SOL    HW2 5976   0.677   6.644   3.806
 1693SOL     OW 5977   3.786   2.169   4.353
 1693SOL    HW1 5978   3.853   2.186   4.425
 1693SOL    HW2 5979   3.833   2.159   4.265
 1694SOL     OW 5980   6.485   5.864   5.196
 1694SOL    HW1 5981   6.493   5.778   5.146
 1694SOL    HW2 5982   6.568   5.879   5.250
 1695SOL     OW 5983   3.963   1.713   6.242
 1695SOL    HW1 5984   4.040   1.714   6.179
 1695SOL    HW2 5985   3.996   1.705   6.336
 1696SOL     OW 5986   3.693   5.677   1.860
 1696SOL    HW1 5987   3.604   5.714   1.885
 1696SOL    HW2 5988   3.685   5.626   1.774
 1697SOL     OW 5989   1.594   1.578   2.101
 1697SOL    HW1 5990   1.514   1.586   2.160
 1697SOL    HW2 5991   1.671   1.541   2.154
 1698SOL     OW 5992   4.803   1.652   7.017
 1698SOL    HW1 5993   4.737   1.615   6.951
 1698SOL    HW2 5994   4.757   1.719   0.054
 1699SOL     OW 5995   2.426   4.689   1.443
 1699SOL    HW1 5996   2.396   4.603   1.483
 1699SOL    HW2 5997   2.484   4.738   1.508
 1700SOL     OW 5998   5.944   2.946   4.167
 1700SOL    HW1 5999   5.960   2.865   4.111
 1700SOL    HW2 6000   6.010   3.018   4.142
 1701SOL     OW 6001   5.698   2.707   4.684
 1701SOL    HW1 6002   5.666   2.613   4.699
 1701SOL    HW2 6003   5.754   2.710   4.601
 1702SOL     OW 6004   5.252   2.678   1.505
 1702SOL    HW1 6005   5.156   2.703   1.512
 1702SOL    HW2 6006   5.301   2.745   1.450
 1703SOL     OW 6007   2.341   3.865   1.268
 1703SOL    HW1 6008   2.317   3.961   1.281
 1703SOL    HW2 6009   2.309   3.812   1.347
 1704SOL     OW 6010   0.140   1.606   2.204
 1704SOL    HW1 6011   0.064   1.671   2.199
 1704SOL    HW2 6012   0.171   1.583   2.112
 1705SOL     OW 6013   4.161   3.253   2.855
 1705SOL    HW1 6014   4.180   3.202   2.771
 1705SOL    HW2 6015   4.241   3.251   2.914
 1706SOL     OW 6016   2.492   0.804   6.069
 1706SOL    HW1 6017   2.501   0.707   6.047
 1706SOL    HW2 6018   2.412   0.842   6.023
 1707SOL     OW 6019   5.050   1.477   2.083
 1707SOL    HW1 6020   4.998   1.452   2.165
 1707SOL    HW2 6021   5.072   1.574   2.086
 1708SOL     OW 6022   0.600   4.232   1.380
 1708SOL    HW1 6023   0.554   4.173   1.447
 1708SOL    HW2 6024   0.555   4.322   1.380
 1709SOL     OW 6025   3.277   5.524   3.365
 1709SOL    HW1 6026   3.196   5.519   3.423
 1709SOL    HW2 6027   3.338   5.448   3.386
 1710SOL     OW 6028   6.566   4.508   4.809
 1710SOL    HW1 6029   6.633   4.577   4.781
 1710SOL    HW2 6030   6.519   4.472   4.728
 1711SOL     OW 6031   0.676   4.403   5.671
 1711SOL    HW1 6032   0.612   4.479   5.661
 1711SOL    HW2 6033   0.720   4.408   5.760
 1712SOL     OW 6034   1.602   4.379   2.252
 1712SOL    HW1 6035   1.619   4.432   2.169
 1712SOL    HW2 6036   1.606   4.440   2.331
 1713SOL     OW 6037   2.894   3.459   1.054
 1713SOL    HW1 6038   2.968   3.486   1.116
 1713SOL    HW2 6039   2.844   3.541   1.025
 1714SOL     OW 6040   4.561   1.243   1.558
 1714SOL    HW1 6041   4.651   1.258   1.517
 1714SOL    HW2 6042   4.526   1.154   1.531
 1715SOL     OW 6043   1.107   3.586   3.277
 1715SOL    HW1 6044   1.201   3.562   3.300
 1715SOL    HW2 6045   1.050   3.579   3.360
 1716SOL     OW 6046   6.882   6.893   6.823
 1716SOL    HW1 6047   6.901   6.863   6.917
 1716SOL    HW2 6048   6.783   6.903   6.810
 1717SOL     OW 6049   2.972   0.605   6.891
 1717SOL    HW1 6050   2.977   0.705   6.888
 1717SOL    HW2 6051   3.062   0.567   6.871
 1718SOL     OW 6052   2.063   3.999   5.587
 1718SOL    HW1 6053   2.127   4.005   5.510
 1718SOL    HW2 6054   2.073   3.910   5.632
 1719SOL     OW 6055   2.012   2.969   0.998
 1719SOL    HW1 6056   2.071   3.049   0.993
 1719SOL    HW2 6057   1.919   2.997   1.019
 1720SOL     OW 6058   0.075   2.265   2.142
 1720SOL    HW1 6059   0.158   2.280   2.195
 1720SOL    HW2 6060   0.095   2.207   2.063
 1721SOL     OW 6061   1.116   5.839   4.098
 1721SOL    HW1 6062   1.204   5.883   4.115
 1721SOL    HW2 6063   1.130   5.747   4.062
 1722SOL     OW 6064   5.497   0.070   1.763
 1722SOL    HW1 6065   5.479   0.166   1.783
 1722SOL    HW2 6066   5.438   0.039   1.689
 1723SOL     OW 6067   6.006   1.392   3.130
 1723SOL    HW1 6068   5.976   1.312   3.181
 1723SOL    HW2 6069   5.958   1.395   3.042
 1724SOL     OW 6070   4.724   0.649   0.253
 1724SOL    HW1 6071   4.808   0.702   0.260
 1724SOL    HW2 6072   4.677   0.671   0.167
 1725SOL     OW 6073   3.484   5.821   1.946
 1725SOL    HW1 6074   3.552   5.857   2.010
 1725SOL    HW2 6075   3.393   5.828   1.986
 1726SOL     OW 6076   6.105   4.230   4.817
 1726SOL    HW1 6077   6.113   4.329   4.832
 1726SOL    HW2 6078   6.012   4.201   4.841
 1727SOL     OW 6079   2.386   4.797   6.183
 1727SOL    HW1 6080   2.430   4.877   6.224
 1727SOL    HW2 6081   2.394   4.719   6.245
 1728SOL     OW 6082   4.868   5.610   3.561
 1728SOL    HW1 6083   4.850   5.611   3.660
 1728SOL    HW2 6084   4.793   5.564   3.514
 1729SOL     OW 6085   0.511   3.130   2.272
 1729SOL    HW1 6086   0.463   3.124   2.185
 1729SOL    HW2 6087   0.463   3.193   2.333
 1730SOL     OW 6088   4.706   2.163   4.829
 1730SOL    HW1 6089   4.670   2.128   4.915
 1730SOL    HW2 6090   4.635   2.157   4.759
 1731SOL     OW 6091   0.418   6.781   6.433
 1731SOL    HW1 6092   0.373   6.692   6.447
 1731SOL    HW2 6093   0.359   6.853   6.469
 1732SOL     OW 6094   1.123   4.199   0.095
 1732SOL    HW1 6095   1.113   4.298   0.098
 1732SOL    HW2 6096   1.037   4.157   0.065
 1733SOL     OW 6097   1.455   4.469   6.535
 1733SOL    HW1 6098   1.426   4.482   6.440
 1733SOL    HW2 6099   1.442   4.373   6.561
 1734SOL     OW 6100   5.505   4.142   0.769
 1734SOL    HW1 6101   5.413   4.158   0.735
 1734SOL    HW2 6102   5.571   4.155   0.696
 1735SOL     OW 6103   4.731   5.234   6.721
 1735SOL    HW1 6104   4.775   5.275   6.641
 1735SOL    HW2 6105   4.638   5.269   6.729
 1736SOL     OW 6106   3.571   3.231   0.571
 1736SOL    HW1 6107   3.658   3.266   0.604
 1736SOL    HW2 6108   3.502   3.238   0.644
 1737SOL     OW 6109   0.867   5.729   3.321
 1737SOL    HW1 6110   0.959   5.697   3.297
 1737SOL    HW2 6111   0.863   5.828   3.314
 1738SOL     OW 6112   0.750   1.139   2.217
 1738SOL    HW1 6113   0.763   1.040   2.222
 1738SOL    HW2 6114   0.830   1.185   2.255
 1739SOL     OW 6115   4.079   2.028   6.560
 1739SOL    HW1 6116   4.174   2.014   6.590
 1739SOL    HW2 6117   4.025   2.065   6.635
 1740SOL     OW 6118   0.583   2.013   6.608
 1740SOL    HW1 6119   0.663   1.953   6.605
 1740SOL    HW2 6120   0.574   2.051   6.700
 1741SOL     OW 6121   0.777   0.797   2.768
 1741SOL    HW1 6122   0.842   0.871   2.783
 1741SOL    HW2 6123   0.820   0.725   2.713
 1742SOL     OW 6124   6.292   6.162   4.087
 1742SOL    HW1 6125   6.329   6.230   4.150
 1742SOL    HW2 6126   6.227   6.206   4.026
 1743SOL     OW 6127   4.263   1.021   0.680
 1743SOL    HW1 6128   4.194   1.046   0.612
 1743SOL    HW2 6129   4.243   1.068   0.766
 1744SOL     OW 6130   3.991   6.167   1.474
 1744SOL    HW1 6131   4.058   6.154   1.547
 1744SOL    HW2 6132   4.039   6.188   1.388
 1745SOL     OW 6133   0.352   2.279   5.184
 1745SOL    HW1 6134   0.437   2.308   5.229
 1745SOL    HW2 6135   0.351   2.179   5.176
 1746SOL     OW 6136   2.947   0.786   6.598
 1746SOL    HW1 6137   2.854   0.755   6.580
 1746SOL    HW2 6138   3.012   0.722   6.558
 1747SOL     OW 6139   3.913   6.954   4.803
 1747SOL    HW1 6140   3.895   0.019   4.756
 1747SOL    HW2 6141   4.008   6.952   4.835
 1748SOL     OW 6142   6.016   0.907   2.023
 1748SOL    HW1 6143   5.958   0.967   2.078
 1748SOL    HW2 6144   6.083   0.863   2.082
 1749SOL     OW 6145   5.183   0.174   6.449
 1749SOL    HW1 6146   5.150   0.250   6.393
 1749SOL    HW2 6147   5.274   0.146   6.418
 1750SOL     OW 6148   3.600   0.673   2.850
 1750SOL    HW1 6149   3.605   0.736   2.772
 1750SOL    HW2 6150   3.536   0.599   2.828
 1751SOL     OW 6151   1.869   5.744   4.364
 1751SOL    HW1 6152   1.775   5.713   4.348
 1751SOL    HW2 6153   1.932   5.668   4.351
 1752SOL     OW 6154   6.862   1.908   6.124
 1752SOL    HW1 6155   6.924   1.920   6.202
 1752SOL    HW2 6156   6.911   1.926   6.039
 1753SOL     OW 6157   2.062   6.667   2.154
 1753SOL    HW1 6158   1.984   6.718   2.116
 1753SOL    HW2 6159   2.049   6.656   2.253
 1754SOL     OW 6160   3.170   3.073   3.443
 1754SOL    HW1 6161   3.187   3.009   3.368
 1754SOL    HW2 6162   3.076   3.063   3.475
 1755SOL     OW 6163   0.011   4.254   6.933
 1755SOL    HW1 6164   0.069   4.305   6.869
 1755SOL    HW2 6165   0.044   4.269   0.005
 1756SOL     OW 6166   5.842   4.691   5.170
 1756SOL    HW1 6167   5.818   4.598   5.196
 1756SOL    HW2 6168   5.895   4.690   5.085
 1757SOL     OW 6169   3.748   0.586   5.087
 1757SOL    HW1 6170   3.791   0.572   5.176
 1757SOL    HW2 6171   3.797   0.657   5.037
 1758SOL     OW 6172   2.640   1.362   3.505
 1758SOL    HW1 6173   2.579   1.286   3.482
 1758SOL    HW2 6174   2.596   1.448   3.480
 1759SOL     OW 6175   6.710   6.446   6.189
 1759SOL    HW1 6176   6.615   6.474   6.174
 1759SOL    HW2 6177   6.721   6.351   6.162
 1760SOL     OW 6178   4.644   6.349   3.098
 1760SOL    HW1 6179   4.550   6.365   3.068
 1760SOL    HW2 6180   4.688   6.436   3.119
 1761SOL     OW 6181   5.727   3.424   1.286
 1761SOL    HW1 6182   5.803   3.484   1.264
 1761SOL    HW2 6183   5.750   3.330   1.259
 1762SOL     OW 6184   6.003   2.989   0.367
 1762SOL    HW1 6185   6.076   3.049   0.399
 1762SOL    HW2 6186   5.931   3.045   0.326
 1763SOL     OW 6187   2.298   2.542   4.330
 1763SOL    HW1 6188   2.217   2.492   4.299
 1763SOL    HW2 6189   2.294   2.552   4.429
 1764SOL     OW 6190   6.577   3.890   3.151
 1764SOL    HW1 6191   6.560   3.802   3.106
 1764SOL    HW2 6192   6.610   3.874   3.244
 1765SOL     OW 6193   1.395   3.289   5.948
 1765SOL    HW1 6194   1.297   3.304   5.936
 1765SOL    HW2 6195   1.443   3.377   5.950
 1766SOL     OW 6196   5.636   4.088   5.236
 1766SOL    HW1 6197   5.553   4.051   5.196
 1766SOL    HW2 6198   5.706   4.016   5.240
 1767SOL     OW 6199   6.920   4.983   1.341
 1767SOL    HW1 6200   6.870   4.896   1.338
 1767SOL    HW2 6201   6.859   5.057   1.315
 1768SOL     OW 6202   5.963   0.078   2.756
 1768SOL    HW1 6203   5.947   0.162   2.807
 1768SOL    HW2 6204   6.062   0.064   2.746
 1769SOL     OW 6205   4.475   0.958   3.767
 1769SOL    HW1 6206   4.565   0.980   3.804
 1769SOL    HW2 6207   4.485   0.890   3.695
 1770SOL     OW 6208   3.396   5.798   5.538
 1770SOL    HW1 6209   3.408   5.892   5.569
 1770SOL    HW2 6210   3.336   5.796   5.458
 1771SOL     OW 6211   5.017   5.893   6.953
 1771SOL    HW1 6212   5.089   5.961   6.936
 1771SOL    HW2 6213   5.046   5.831   0.004
 1772SOL     OW 6214   2.280   5.662   2.785
 1772SOL    HW1 6215   2.198   5.717   2.771
 1772SOL    HW2 6216   2.358   5.722   2.799
 1773SOL     OW 6217   1.965   6.885   0.191
 1773SOL    HW1 6218   1.962   6.829   0.274
 1773SOL    HW2 6219   1.900   6.850   0.124
 1774SOL     OW 6220   2.517   5.138   1.647
 1774SOL    HW1 6221   2.523   5.176   1.555
 1774SOL    HW2 6222   2.603   5.094   1.671
 1775SOL     OW 6223   0.710   5.295   0.571
 1775SOL    HW1 6224   0.678   5.207   0.607
 1775SOL    HW2 6225   0.792   5.323   0.621
 1776SOL     OW 6226   3.106   5.686   4.919
 1776SOL    HW1 6227   3.189   5.645   4.958
 1776SOL    HW2 6228   3.029   5.623   4.931
 1777SOL     OW 6229   4.323   5.927   6.641
 1777SOL    HW1 6230   4.314   5.878   6.727
 1777SOL    HW2 6231   4.298   6.023   6.654
 1778SOL     OW 6232   0.461   3.462   5.936
 1778SOL    HW1 6233   0.520   3.412   5.872
 1778SOL    HW2 6234   0.366   3.450   5.908
 1779SOL     OW 6235   4.203   6.551   4.928
 1779SOL    HW1 6236   4.266   6.628   4.941
 1779SOL    HW2 6237   4.131   6.578   4.865
 1780SOL     OW 6238   4.172   2.009   0.011
 1780SOL    HW1 6239   4.117   1.931   0.043
 1780SOL    HW2 6240   4.266   1.979   7.017
 1781SOL     OW 6241   2.010   5.824   3.552
 1781SOL    HW1 6242   2.012   5.907   3.497
 1781SOL    HW2 6243   2.040   5.844   3.645
 1782SOL     OW 6244   3.111   1.436   4.474
 1782SOL    HW1 6245   3.146   1.529   4.462
 1782SOL    HW2 6246   3.186   1.375   4.500
 1783SOL     OW 6247   2.195   5.841   0.327
 1783SOL    HW1 6248   2.180   5.808   0.420
 1783SOL    HW2 6249   2.292   5.855   0.311
 1784SOL     OW 6250   1.603   6.549   6.440
 1784SOL    HW1 6251   1.540   6.472   6.452
 1784SOL    HW2 6252   1.672   6.547   6.511
 1785SOL     OW 6253   6.813   5.339   2.936
 1785SOL    HW1 6254   6.846   5.400   2.864
 1785SOL    HW2 6255   6.864   5.356   3.020
 1786SOL     OW 6256   3.808   2.578   1.494
 1786SOL    HW1 6257   3.753   2.564   1.577
 1786SOL    HW2 6258   3.804   2.674   1.467
 1787SOL     OW 6259   3.638   0.393   5.433
 1787SOL    HW1 6260   3.638   0.296   5.456
 1787SOL    HW2 6261   3.728   0.432   5.454
 1788SOL     OW 6262   1.639   5.109   5.082
 1788SOL    HW1 6263   1.611   5.205   5.089
 1788SOL    HW2 6264   1.645   5.084   4.985
 1789SOL     OW 6265   5.304   6.589   0.529
 1789SOL    HW1 6266   5.387   6.540   0.505
 1789SOL    HW2 6267   5.313   6.685   0.504
 1790SOL     OW 6268   2.033   6.803   2.737
 1790SOL    HW1 6269   2.063   6.893   2.705
 1790SOL    HW2 6270   1.948   6.778   2.690
 1791SOL     OW 6271   0.872   6.709   3.611
 1791SOL    HW1 6272   0.905   6.648   3.683
 1791SOL    HW2 6273   0.793   6.761   3.645
 1792SOL     OW 6274   0.940   3.561   4.562
 1792SOL    HW1 6275   0.935   3.539   4.659
 1792SOL    HW2 6276   1.036   3.559   4.532
 1793SOL     OW 6277   0.149   0.397   4.209
 1793SOL    HW1 6278   0.213   0.415   4.134
 1793SOL    HW2 6279   0.187   0.327   4.270
 1794SOL     OW 6280   4.652   5.878   6.182
 1794SOL    HW1 6281   4.587   5.802   6.191
 1794SOL    HW2 6282   4.697   5.894   6.270
 1795SOL     OW 6283   1.099   3.547   0.129
 1795SOL    HW1 6284   1.115   3.633   0.080
 1795SOL    HW2 6285   1.004   3.543   0.161
 1796SOL     OW 6286   3.868   0.189   5.273
 1796SOL    HW1 6287   3.805   0.215   5.346
 1796SOL    HW2 6288   3.820   0.189   5.186
 1797SOL     OW 6289   0.241   1.307   1.819
 1797SOL    HW1 6290   0.232   1.405   1.835
 1797SOL    HW2 6291   0.322   1.289   1.764
 1798SOL     OW 6292   6.103   1.672   3.175
 1798SOL    HW1 6293   6.072   1.634   3.087
 1798SOL    HW2 6294   6.188   1.627   3.202
 1799SOL     OW 6295   2.460   0.373   0.389
 1799SOL    HW1 6296   2.547   0.354   0.342
 1799SOL    HW2 6297   2.404   0.432   0.331
 1800SOL     OW 6298   2.849   4.705   2.320
 1800SOL    HW1 6299   2.841   4.690   2.222
 1800SOL    HW2 6300   2.824   4.621   2.369
 1801SOL     OW 6301   5.594   6.543   0.520
 1801SOL    HW1 6302   5.645   6.616   0.475
 1801SOL    HW2 6303   5.637   6.522   0.607
 1802SOL     OW 6304   6.141   5.272   4.422
 1802SOL    HW1 6305   6.061   5.267   4.483
 1802SOL    HW2 6306   6.130   5.348   4.358
 1803SOL     OW 6307   6.482   4.769   0.242
 1803SOL    HW1 6308   6.463   4.701   0.171
 1803SOL    HW2 6309   6.490   4.723   0.331
 1804SOL     OW 6310   3.180   3.852   5.887
 1804SOL    HW1 6311   3.183   3.875   5.789
 1804SOL    HW2 6312   3.151   3.933   5.939
 1805SOL     OW 6313   6.409   2.848   6.914
 1805SOL    HW1 6314   6.375   2.886   6.999
 1805SOL    HW2 6315   6.498   2.803   6.930
 1806SOL     OW 6316   6.646   6.477   0.438
 1806SOL    HW1 6317   6.740   6.507   0.421
 1806SOL    HW2 6318   6.588   6.506   0.362
 1807SOL     OW 6319   6.778   1.808   5.657
 1807SOL    HW1 6320   6.776   1.729   5.717
 1807SOL    HW2 6321   6.868   1.815   5.613
 1808SOL     OW 6322   2.559   5.143   3.956
 1808SOL    HW1 6323   2.483   5.120   4.016
 1808SOL    HW2 6324   2.627   5.195   4.007
 1809SOL     OW 6325   3.832   0.452   6.326
 1809SOL    HW1 6326   3.878   0.426   6.241
 1809SOL    HW2 6327   3.773   0.378   6.356
 1810SOL     OW 6328   3.009   6.513   3.126
 1810SOL    HW1 6329   2.958   6.582   3.075
 1810SOL    HW2 6330   3.107   6.533   3.118
 1811SOL     OW 6331   5.823   5.595   3.117
 1811SOL    HW1 6332   5.816   5.640   3.206
 1811SOL    HW2 6333   5.888   5.520   3.122
 1812SOL     OW 6334   4.292   5.077   5.305
 1812SOL    HW1 6335   4.305   5.137   5.383
 1812SOL    HW2 6336   4.215   5.015   5.323
 1813SOL     OW 6337   6.935   6.222   5.541
 1813SOL    HW1 6338   6.991   6.146   5.573
 1813SOL    HW2 6339   6.940   6.297   5.607
 1814SOL     OW 6340   4.857   0.351   2.505
 1814SOL    HW1 6341   4.802   0.325   2.426
 1814SOL    HW2 6342   4.847   0.449   2.521
 1815SOL     OW 6343   0.219   1.489   3.213
 1815SOL    HW1 6344   0.219   1.583   3.247
 1815SOL    HW2 6345   0.244   1.487   3.117
 1816SOL     OW 6346   1.407   5.476   0.545
 1816SOL    HW1 6347   1.391   5.544   0.616
 1816SOL    HW2 6348   1.340   5.489   0.472
 1817SOL     OW 6349   1.415   4.450   1.999
 1817SOL    HW1 6350   1.504   4.492   1.986
 1817SOL    HW2 6351   1.361   4.458   1.915
 1818SOL     OW 6352   0.559   1.699   2.738
 1818SOL    HW1 6353   0.466   1.683   2.705
 1818SOL    HW2 6354   0.590   1.789   2.706
 1819SOL     OW 6355   1.111   4.044   3.019
 1819SOL    HW1 6356   1.119   3.970   3.086
 1819SOL    HW2 6357   1.180   4.033   2.948
 1820SOL     OW 6358   5.626   6.253   2.966
 1820SOL    HW1 6359   5.585   6.323   3.025
 1820SOL    HW2 6360   5.591   6.264   2.873
 1821SOL     OW 6361   1.440   2.187   3.006
 1821SOL    HW1 6362   1.347   2.216   3.028
 1821SOL    HW2 6363   1.479   2.140   3.085
 1822SOL     OW 6364   3.120   3.536   2.254
 1822SOL    HW1 6365   3.213   3.551   2.286
 1822SOL    HW2 6366   3.121   3.469   2.179
 1823SOL     OW 6367   4.070   0.212   2.455
 1823SOL    HW1 6368   4.134   0.219   2.532
 1823SOL    HW2 6369   4.090   0.129   2.403
 1824SOL     OW 6370   4.717   1.459   1.849
 1824SOL    HW1 6371   4.699   1.505   1.936
 1824SOL    HW2 6372   4.635   1.464   1.791
 1825SOL     OW 6373   0.818   0.063   1.944
 1825SOL    HW1 6374   0.911   0.061   1.908
 1825SOL    HW2 6375   0.758   0.010   1.884
 1826SOL     OW 6376   2.754   5.749   6.230
 1826SOL    HW1 6377   2.745   5.752   6.131
 1826SOL    HW2 6378   2.800   5.664   6.257
 1827SOL     OW 6379   5.710   0.337   0.817
 1827SOL    HW1 6380   5.708   0.431   0.784
 1827SOL    HW2 6381   5.703   0.274   0.739
 1828SOL     OW 6382   2.737   3.002   0.431
 1828SOL    HW1 6383   2.665   2.938   0.407
 1828SOL    HW2 6384   2.702   3.068   0.498
 1829SOL     OW 6385   5.511   5.481   2.382
 1829SOL    HW1 6386   5.600   5.438   2.368
 1829SOL    HW2 6387   5.514   5.539   2.463
 1830SOL     OW 6388   4.742   6.917   4.637
 1830SOL    HW1 6389   4.738   6.943   4.540
 1830SOL    HW2 6390   4.659   6.867   4.661
 1831SOL     OW 6391   5.278   1.417   3.051
 1831SOL    HW1 6392   5.218   1.445   2.976
 1831SOL    HW2 6393   5.241   1.452   3.138
 1832SOL     OW 6394   5.306   2.827   6.691
 1832SOL    HW1 6395   5.246   2.869   6.759
 1832SOL    HW2 6396   5.317   2.730   6.712
 1833SOL     OW 6397   5.738   1.872   6.308
 1833SOL    HW1 6398   5.748   1.950   6.370
 1833SOL    HW2 6399   5.817   1.867   6.247
 1834SOL     OW 6400   2.559   4.362   6.949
 1834SOL    HW1 6401   2.590   4.343   6.856
 1834SOL    HW2 6402   2.517   4.280   6.987
 1835SOL     OW 6403   1.970   5.026   0.204
 1835SOL    HW1 6404   1.920   5.059   0.285
 1835SOL    HW2 6405   2.068   5.039   0.218
 1836SOL     OW 6406   0.806   6.537   0.327
 1836SOL    HW1 6407   0.869   6.504   0.398
 1836SOL    HW2 6408   0.836   6.504   0.238
 1837SOL     OW 6409   0.363   2.807   4.169
 1837SOL    HW1 6410   0.352   2.724   4.224
 1837SOL    HW2 6411   0.440   2.796   4.106
 1838SOL     OW 6412   0.399   2.600   4.354
 1838SOL    HW1 6413   0.410   2.513   4.402
 1838SOL    HW2 6414   0.436   2.674   4.409
 1839SOL     OW 6415   1.236   1.469   6.959
 1839SOL    HW1 6416   1.230   1.378   6.917
 1839SOL    HW2 6417   1.228   1.539   6.889
 1840SOL     OW 6418   1.168   5.235   1.480
 1840SOL    HW1 6419   1.164   5.334   1.494
 1840SOL    HW2 6420   1.101   5.190   1.539
 1841SOL     OW 6421   1.967   2.912   3.803
 1841SOL    HW1 6422   2.054   2.960   3.817
 1841SOL    HW2 6423   1.955   2.844   3.875
 1842SOL     OW 6424   1.336   5.845   6.323
 1842SOL    HW1 6425   1.344   5.782   6.245
 1842SOL    HW2 6426   1.285   5.801   6.396
 1843SOL     OW 6427   4.501   2.136   5.513
 1843SOL    HW1 6428   4.477   2.233   5.523
 1843SOL    HW2 6429   4.599   2.124   5.529
 1844SOL     OW 6430   5.545   4.974   3.799
 1844SOL    HW1 6431   5.572   4.891   3.848
 1844SOL    HW2 6432   5.458   4.959   3.752
 1845SOL     OW 6433   4.957   6.652   0.946
 1845SOL    HW1 6434   5.049   6.636   0.981
 1845SOL    HW2 6435   4.957   6.641   0.846
 1846SOL     OW 6436   3.635   1.554   5.800
 1846SOL    HW1 6437   3.627   1.475   5.739
 1846SOL    HW2 6438   3.729   1.562   5.832
 1847SOL     OW 6439   1.290   6.072   6.155
 1847SOL    HW1 6440   1.198   6.068   6.117
 1847SOL    HW2 6441   1.305   5.995   6.216
 1848SOL     OW 6442   1.992   1.127   4.170
 1848SOL    HW1 6443   1.974   1.161   4.078
 1848SOL    HW2 6444   2.088   1.142   4.194
 1849SOL     OW 6445   2.255   0.888   5.995
 1849SOL    HW1 6446   2.253   0.887   6.095
 1849SOL    HW2 6447   2.163   0.874   5.960
 1850SOL     OW 6448   5.323   1.770   1.696
 1850SOL    HW1 6449   5.274   1.810   1.618
 1850SOL    HW2 6450   5.420   1.791   1.689
 1851SOL     OW 6451   6.974   4.564   2.408
 1851SOL    HW1 6452   6.971   4.622   2.489
 1851SOL    HW2 6453   6.882   4.553   2.371
 1852SOL     OW 6454   5.475   1.528   6.037
 1852SOL    HW1 6455   5.498   1.625   6.026
 1852SOL    HW2 6456   5.378   1.515   6.018
 1853SOL     OW 6457   1.425   4.702   0.621
 1853SOL    HW1 6458   1.458   4.610   0.642
 1853SOL    HW2 6459   1.465   4.767   0.685
 1854SOL     OW 6460   2.580   5.186   4.299
 1854SOL    HW1 6461   2.617   5.094   4.312
 1854SOL    HW2 6462   2.497   5.197   4.354
 1855SOL     OW 6463   6.528   4.586   1.508
 1855SOL    HW1 6464   6.503   4.493   1.536
 1855SOL    HW2 6465   6.619   4.607   1.542
 1856SOL     OW 6466   5.770   3.129   0.269
 1856SOL    HW1 6467   5.761   3.194   0.194
 1856SOL    HW2 6468   5.710   3.050   0.252
 1857SOL     OW 6469   5.483   1.145   3.330
 1857SOL    HW1 6470   5.493   1.236   3.288
 1857SOL    HW2 6471   5.416   1.150   3.404
 1858SOL     OW 6472   5.093   4.505   2.389
 1858SOL    HW1 6473   5.107   4.570   2.464
 1858SOL    HW2 6474   5.148   4.533   2.311
 1859SOL     OW 6475   5.780   2.100   3.455
 1859SOL    HW1 6476   5.683   2.103   3.478
 1859SOL    HW2 6477   5.831   2.159   3.518
 1860SOL     OW 6478   3.828   2.173   5.109
 1860SOL    HW1 6479   3.916   2.125   5.119
 1860SOL    HW2 6480   3.827   2.253   5.168
 1861SOL     OW 6481   5.355   6.361   2.281
 1861SOL    HW1 6482   5.274   6.309   2.254
 1861SOL    HW2 6483   5.418   6.301   2.331
 1862SOL     OW 6484   2.711   2.196   0.730
 1862SOL    HW1 6485   2.774   2.163   0.660
 1862SOL    HW2 6486   2.618   2.200   0.692
 1863SOL     OW 6487   1.927   1.573   1.324
 1863SOL    HW1 6488   1.888   1.639   1.388
 1863SOL    HW2 6489   1.937   1.615   1.234
 1864SOL     OW 6490   0.487   6.650   3.210
 1864SOL    HW1 6491   0.562   6.583   3.214
 1864SOL    HW2 6492   0.485   6.691   3.119
 1865SOL     OW 6493   5.185   3.385   6.527
 1865SOL    HW1 6494   5.232   3.437   6.455
 1865SOL    HW2 6495   5.222   3.292   6.530
 1866SOL     OW 6496   5.874   5.380   1.591
 1866SOL    HW1 6497   5.819   5.437   1.651
 1866SOL    HW2 6498   5.965   5.420   1.581
 1867SOL     OW 6499   1.413   4.511   6.244
 1867SOL    HW1 6500   1.395   4.587   6.181
 1867SOL    HW2 6501   1.353   4.434   6.222
 1868SOL     OW 6502   6.726   4.110   5.384
 1868SOL    HW1 6503   6.651   4.093   5.321
 1868SOL    HW2 6504   6.808   4.135   5.333
 1869SOL     OW 6505   5.464   1.328   4.511
 1869SOL    HW1 6506   5.558   1.359   4.497
 1869SOL    HW2 6507   5.418   1.320   4.423
 1870SOL     OW 6508   2.161   4.075   4.772
 1870SOL    HW1 6509   2.233   4.080   4.842
 1870SOL    HW2 6510   2.101   3.997   4.791
 1871SOL     OW 6511   1.745   0.725   1.243
 1871SOL    HW1 6512   1.819   0.767   1.189
 1871SOL    HW2 6513   1.657   0.750   1.203
 1872SOL     OW 6514   1.688   5.725   6.232
 1872SOL    HW1 6515   1.651   5.767   6.315
 1872SOL    HW2 6516   1.713   5.797   6.167
 1873SOL     OW 6517   5.270   6.642   6.581
 1873SOL    HW1 6518   5.217   6.701   6.519
 1873SOL    HW2 6519   5.224   6.638   6.670
 1874SOL     OW 6520   0.617   3.636   2.649
 1874SOL    HW1 6521   0.658   3.693   2.578
 1874SOL    HW2 6522   0.575   3.695   2.718
 1875SOL     OW 6523   0.441   6.602   2.182
 1875SOL    HW1 6524   0.431   6.678   2.118
 1875SOL    HW2 6525   0.538   6.592   2.205
 1876SOL     OW 6526   2.061   6.333   4.370
 1876SOL    HW1 6527   2.117   6.254   4.393
 1876SOL    HW2 6528   2.043   6.334   4.272
 1877SOL     OW 6529   0.510   0.156   4.092
 1877SOL    HW1 6530   0.423   0.106   4.093
 1877SOL    HW2 6531   0.498   0.242   4.042
 1878SOL     OW 6532   6.614   2.938   5.950
 1878SOL    HW1 6533   6.656   2.887   6.025
 1878SOL    HW2 6534   6.577   3.024   5.984
 1879SOL     OW 6535   1.891   5.294   5.671
 1879SOL    HW1 6536   1.931   5.277   5.760
 1879SOL    HW2 6537   1.954   5.348   5.615
 1880SOL     OW 6538   6.503   0.563   4.139
 1880SOL    HW1 6539   6.487   0.662   4.139
 1880SOL    HW2 6540   6.462   0.523   4.058
 1881SOL     OW 6541   0.171   2.011   6.743
 1881SOL    HW1 6542   0.176   2.108   6.766
 1881SOL    HW2 6543   0.242   1.989   6.677
 1882SOL     OW 6544   0.802   6.806   0.263
 1882SOL    HW1 6545   0.846   6.717   0.278
 1882SOL    HW2 6546   0.708   6.792   0.232
 1883SOL     OW 6547   0.303   1.933   4.044
 1883SOL    HW1 6548   0.362   1.906   4.120
 1883SOL    HW2 6549   0.220   1.976   4.081
 1884SOL     OW 6550   5.870   2.375   1.575
 1884SOL    HW1 6551   5.863   2.328   1.487
 1884SOL    HW2 6552   5.788   2.430   1.589
 1885SOL     OW 6553   3.296   1.320   4.638
 1885SOL    HW1 6554   3.393   1.298   4.631
 1885SOL    HW2 6555   3.272   1.339   4.733
 1886SOL     OW 6556   0.299   6.150   3.625
 1886SOL    HW1 6557   0.281   6.153   3.527
 1886SOL    HW2 6558   0.389   6.107   3.641
 1887SOL     OW 6559   2.598   5.404   6.344
 1887SOL    HW1 6560   2.598   5.502   6.326
 1887SOL    HW2 6561   2.687   5.376   6.379
 1888SOL     OW 6562   2.160   0.028   3.081
 1888SOL    HW1 6563   2.189   0.050   3.174
 1888SOL    HW2 6564   2.227   0.063   3.016
 1889SOL     OW 6565   0.118   3.268   2.585
 1889SOL    HW1 6566   0.028   3.251   2.626
 1889SOL    HW2 6567   0.105   3.303   2.492
 1890SOL     OW 6568   1.527   6.012   4.870
 1890SOL    HW1 6569   1.562   6.011   4.776
 1890SOL    HW2 6570   1.570   5.939   4.922
 1891SOL     OW 6571   4.132   3.662   3.312
 1891SOL    HW1 6572   4.093   3.738   3.364
 1891SOL    HW2 6573   4.232   3.665   3.318
 1892SOL     OW 6574   6.938   0.507   2.790
 1892SOL    HW1 6575   6.887   0.590   2.813
 1892SOL    HW2 6576   6.900   0.429   2.840
 1893SOL     OW 6577   4.064   3.224   4.324
 1893SOL    HW1 6578   4.011   3.154   4.372
 1893SOL    HW2 6579   4.034   3.230   4.229
 1894SOL     OW 6580   3.410   2.962   4.503
 1894SOL    HW1 6581   3.433   3.046   4.552
 1894SOL    HW2 6582   3.314   2.939   4.520
 1895SOL     OW 6583   0.790   6.240   1.265
 1895SOL    HW1 6584   0.744   6.329   1.270
 1895SOL    HW2 6585   0.761   6.193   1.182
 1896SOL     OW 6586   5.797   3.187   1.142
 1896SOL    HW1 6587   5.796   3.107   1.082
 1896SOL    HW2 6588   5.891   3.207   1.169
 1897SOL     OW 6589   2.199   4.559   3.365
 1897SOL    HW1 6590   2.108   4.518   3.373
 1897SOL    HW2 6591   2.264   4.507   3.420
 1898SOL     OW 6592   1.772   6.164   2.399
 1898SOL    HW1 6593   1.867   6.131   2.400
 1898SOL    HW2 6594   1.714   6.094   2.356
 1899SOL     OW 6595   6.920   0.963   2.059
 1899SOL    HW1 6596   6.907   0.902   2.137
 1899SOL    HW2 6597   6.887   0.919   1.976
 1900SOL     OW 6598   2.985   6.249   6.540
 1900SOL    HW1 6599   3.033   6.209   6.617
 1900SOL    HW2 6600   2.969   6.178   6.470
 1901SOL     OW 6601   3.772   2.995   2.909
 1901SOL    HW1 6602   3.693   2.934   2.914
 1901SOL    HW2 6603   3.776   3.037   2.819
 1902SOL     OW 6604   1.324   6.695   5.305
 1902SOL    HW1 6605   1.279   6.756   5.370
 1902SOL    HW2 6606   1.258   6.663   5.237
 1903SOL     OW 6607   1.230   1.724   4.135
 1903SOL    HW1 6608   1.164   1.674   4.191
 1903SOL    HW2 6609   1.218   1.822   4.148
 1904SOL     OW 6610   5.982   5.646   1.804
 1904SOL    HW1 6611   5.891   5.681   1.824
 1904SOL    HW2 6612   5.985   5.547   1.818
 1905SOL     OW 6613   0.472   3.031   3.911
 1905SOL    HW1 6614   0.450   2.934   3.925
 1905SOL    HW2 6615   0.402   3.087   3.956
 1906SOL     OW 6616   0.482   6.069   3.834
 1906SOL    HW1 6617   0.390   6.107   3.825
 1906SOL    HW2 6618   0.548   6.144   3.835
 1907SOL     OW 6619   6.187   2.868   0.750
 1907SOL    HW1 6620   6.237   2.791   0.711
 1907SOL    HW2 6621   6.229   2.953   0.720
 1908SOL     OW 6622   3.917   0.641   1.933
 1908SOL    HW1 6623   3.823   0.667   1.952
 1908SOL    HW2 6624   3.971   0.723   1.915
 1909SOL     OW 6625   6.213   5.225   5.191
 1909SOL    HW1 6626   6.198   5.151   5.256
 1909SOL    HW2 6627   6.295   5.205   5.137
 1910SOL     OW 6628   0.350   5.875   5.349
 1910SOL    HW1 6629   0.386   5.908   5.262
 1910SOL    HW2 6630   0.363   5.944   5.420
 1911SOL     OW 6631   5.764   6.433   4.070
 1911SOL    HW1 6632   5.827   6.380   4.127
 1911SOL    HW2 6633   5.679   6.381   4.057
 1912SOL     OW 6634   3.273   4.873   2.001
 1912SOL    HW1 6635   3.326   4.902   1.921
 1912SOL    HW2 6636   3.327   4.807   2.054
 1913SOL     OW 6637   3.045   4.170   6.283
 1913SOL    HW1 6638   2.986   4.111   6.339
 1913SOL    HW2 6639   3.088   4.238   6.342
 1914SOL     OW 6640   4.232   3.952   0.356
 1914SOL    HW1 6641   4.152   3.946   0.416
 1914SOL    HW2 6642   4.297   4.018   0.394
 1915SOL     OW 6643   4.012   2.289   0.316
 1915SOL    HW1 6644   3.993   2.306   0.413
 1915SOL    HW2 6645   3.929   2.256   0.270
 1916SOL     OW 6646   3.618   1.417   2.592
 1916SOL    HW1 6647   3.601   1.515   2.582
 1916SOL    HW2 6648   3.717   1.401   2.601
 1917SOL     OW 6649   2.770   3.642   1.437
 1917SOL    HW1 6650   2.765   3.622   1.535
 1917SOL    HW2 6651   2.809   3.563   1.389
 1918SOL     OW 6652   5.143   2.706   4.382
 1918SOL    HW1 6653   5.209   2.644   4.340
 1918SOL    HW2 6654   5.139   2.791   4.330
 1919SOL     OW 6655   6.651   1.342   6.479
 1919SOL    HW1 6656   6.710   1.262   6.491
 1919SOL    HW2 6657   6.557   1.317   6.500
 1920SOL     OW 6658   4.658   3.749   0.777
 1920SOL    HW1 6659   4.668   3.792   0.866
 1920SOL    HW2 6660   4.675   3.817   0.705
 1921SOL     OW 6661   3.287   2.333   6.695
 1921SOL    HW1 6662   3.387   2.332   6.698
 1921SOL    HW2 6663   3.252   2.242   6.720
 1922SOL     OW 6664   3.798   3.587   4.754
 1922SOL    HW1 6665   3.836   3.572   4.846
 1922SOL    HW2 6666   3.799   3.501   4.704
 1923SOL     OW 6667   3.126   0.723   4.018
 1923SOL    HW1 6668   3.219   0.701   3.989
 1923SOL    HW2 6669   3.073   0.755   3.940
 1924SOL     OW 6670   5.451   0.975   1.136
 1924SOL    HW1 6671   5.362   0.929   1.142
 1924SOL    HW2 6672   5.499   0.945   1.054
 1925SOL     OW 6673   1.526   4.456   1.157
 1925SOL    HW1 6674   1.493   4.541   1.117
 1925SOL    HW2 6675   1.484   4.378   1.110
 1926SOL     OW 6676   2.942   6.621   1.829
 1926SOL    HW1 6677   2.916   6.679   1.907
 1926SOL    HW2 6678   2.907   6.661   1.745
 1927SOL     OW 6679   1.967   5.206   0.688
 1927SOL    HW1 6680   1.958   5.130   0.753
 1927SOL    HW2 6681   1.886   5.264   0.694
 1928SOL     OW 6682   0.661   4.176   2.698
 1928SOL    HW1 6683   0.697   4.269   2.696
 1928SOL    HW2 6684   0.637   4.151   2.791
 1929SOL     OW 6685   3.507   0.646   3.432
 1929SOL    HW1 6686   3.520   0.664   3.334
 1929SOL    HW2 6687   3.484   0.731   3.478
 1930SOL     OW 6688   3.622   3.522   0.177
 1930SOL    HW1 6689   3.583   3.522   0.269
 1930SOL    HW2 6690   3.552   3.547   0.110
 1931SOL     OW 6691   6.195   3.809   3.766
 1931SOL    HW1 6692   6.146   3.859   3.837
 1931SOL    HW2 6693   6.176   3.711   3.775
 1932SOL     OW 6694   4.680   0.985   1.741
 1932SOL    HW1 6695   4.752   1.047   1.771
 1932SOL    HW2 6696   4.688   0.969   1.642
 1933SOL     OW 6697   1.661   1.176   1.090
 1933SOL    HW1 6698   1.584   1.229   1.054
 1933SOL    HW2 6699   1.644   1.079   1.076
 1934SOL     OW 6700   6.393   0.587   6.960
 1934SOL    HW1 6701   6.435   0.636   0.015
 1934SOL    HW2 6702   6.337   0.650   6.906
 1935SOL     OW 6703   6.472   5.103   3.974
 1935SOL    HW1 6704   6.381   5.137   3.997
 1935SOL    HW2 6705   6.512   5.160   3.902
 1936SOL     OW 6706   5.423   3.395   6.735
 1936SOL    HW1 6707   5.377   3.480   6.709
 1936SOL    HW2 6708   5.477   3.362   6.658
 1937SOL     OW 6709   0.737   4.705   6.617
 1937SOL    HW1 6710   0.802   4.636   6.586
 1937SOL    HW2 6711   0.776   4.796   6.603
 1938SOL     OW 6712   6.712   1.601   6.545
 1938SOL    HW1 6713   6.681   1.508   6.524
 1938SOL    HW2 6714   6.642   1.666   6.516
 1939SOL     OW 6715   0.152   0.735   4.192
 1939SOL    HW1 6716   0.241   0.735   4.239
 1939SOL    HW2 6717   0.120   0.641   4.181
 1940SOL     OW 6718   1.144   5.528   1.596
 1940SOL    HW1 6719   1.136   5.616   1.550
 1940SOL    HW2 6720   1.176   5.541   1.689
 1941SOL     OW 6721   6.032   0.385   3.921
 1941SOL    HW1 6722   5.954   0.322   3.910
 1941SOL    HW2 6723   6.013   0.448   3.996
 1942SOL     OW 6724   0.556   6.070   1.773
 1942SOL    HW1 6725   0.517   5.985   1.737
 1942SOL    HW2 6726   0.485   6.140   1.778
 1943SOL     OW 6727   0.778   3.643   4.365
 1943SOL    HW1 6728   0.818   3.724   4.321
 1943SOL    HW2 6729   0.830   3.622   4.448
 1944SOL     OW 6730   0.310   3.692   3.929
 1944SOL    HW1 6731   0.244   3.752   3.884
 1944SOL    HW2 6732   0.393   3.686   3.874
 1945SOL     OW 6733   5.095   1.773   2.139
 1945SOL    HW1 6734   5.156   1.827   2.196
 1945SOL    HW2 6735   5.085   1.816   2.049
 1946SOL     OW 6736   5.881   5.007   6.860
 1946SOL    HW1 6737   5.907   5.059   6.779
 1946SOL    HW2 6738   5.909   4.912   6.850
 1947SOL     OW 6739   5.836   5.682   2.858
 1947SOL    HW1 6740   5.811   5.646   2.948
 1947SOL    HW2 6741   5.802   5.620   2.787
 1948SOL     OW 6742   5.310   3.378   3.256
 1948SOL    HW1 6743   5.264   3.320   3.189
 1948SOL    HW2 6744   5.245   3.406   3.326
 1949SOL     OW 6745   3.246   3.865   6.479
 1949SOL    HW1 6746   3.246   3.926   6.558
 1949SOL    HW2 6747   3.339   3.858   6.442
 1950SOL     OW 6748   3.360   3.838   3.750
 1950SOL    HW1 6749   3.275   3.888   3.735
 1950SOL    HW2 6750   3.405   3.873   3.833
 1951SOL     OW 6751   0.415   5.284   6.195
 1951SOL    HW1 6752   0.340   5.255   6.135
 1951SOL    HW2 6753   0.502   5.259   6.153
 1952SOL     OW 6754   5.709   4.031   0.277
 1952SOL    HW1 6755   5.734   4.101   0.210
 1952SOL    HW2 6756   5.695   3.944   0.230
 1953SOL     OW 6757   0.650   1.049   6.588
 1953SOL    HW1 6758   0.651   1.067   6.687
 1953SOL    HW2 6759   0.712   0.974   6.568
 1954SOL     OW 6760   3.846   6.674   2.830
 1954SOL    HW1 6761   3.766   6.709   2.878
 1954SOL    HW2 6762   3.822   6.650   2.736
 1955SOL     OW 6763   6.579   3.703   3.992
 1955SOL    HW1 6764   6.678   3.707   3.996
 1955SOL    HW2 6765   6.547   3.756   3.913
 1956SOL     OW 6766   4.535   1.688   1.547
 1956SOL    HW1 6767   4.528   1.783   1.517
 1956SOL    HW2 6768   4.631   1.660   1.548
 1957SOL     OW 6769   7.005   2.908   4.518
 1957SOL    HW1 6770   7.017   2.827   4.574
 1957SOL    HW2 6771   0.051   2.978   4.544
 1958SOL     OW 6772   5.123   2.231   0.291
 1958SOL    HW1 6773   5.188   2.212   0.365
 1958SOL    HW2 6774   5.033   2.193   0.315
 1959SOL     OW 6775   1.933   1.536   6.296
 1959SOL    HW1 6776   1.946   1.572   6.204
 1959SOL    HW2 6777   1.989   1.454   6.308
 1960SOL     OW 6778   4.784   4.732   2.071
 1960SOL    HW1 6779   4.717   4.795   2.111
 1960SOL    HW2 6780   4.821   4.673   2.142
 1961SOL     OW 6781   0.143   3.997   4.126
 1961SOL    HW1 6782   0.231   3.980   4.171
 1961SOL    HW2 6783   0.149   4.082   4.073
 1962SOL     OW 6784   0.266   0.062   2.445
 1962SOL    HW1 6785   0.305   0.144   2.486
 1962SOL    HW2 6786   0.290   7.003   2.500
 1963SOL     OW 6787   0.873   1.393   6.724
 1963SOL    HW1 6788   0.813   1.408   6.803
 1963SOL    HW2 6789   0.860   1.301   6.689
 1964SOL     OW 6790   5.580   3.354   0.540
 1964SOL    HW1 6791   5.546   3.286   0.604
 1964SOL    HW2 6792   5.535   3.442   0.557
 1965SOL     OW 6793   5.139   4.832   4.678
 1965SOL    HW1 6794   5.170   4.854   4.770
 1965SOL    HW2 6795   5.207   4.776   4.631
 1966SOL     OW 6796   1.519   5.084   6.549
 1966SOL    HW1 6797   1.552   5.009   6.606
 1966SOL    HW2 6798   1.422   5.070   6.528
 1967SOL     OW 6799   6.522   2.460   4.432
 1967SOL    HW1 6800   6.590   2.531   4.450
 1967SOL    HW2 6801   6.447   2.498   4.378
 1968SOL     OW 6802   2.771   1.278   6.012
 1968SOL    HW1 6803   2.697   1.214   6.034
 1968SOL    HW2 6804   2.761   1.308   5.917
 1969SOL     OW 6805   6.918   6.451   1.634
 1969SOL    HW1 6806   6.894   6.470   1.538
 1969SOL    HW2 6807   6.960   6.532   1.675
 1970SOL     OW 6808   5.128   4.001   2.801
 1970SOL    HW1 6809   5.059   3.942   2.759
 1970SOL    HW2 6810   5.150   3.967   2.892
 1971SOL     OW 6811   1.256   5.434   4.378
 1971SOL    HW1 6812   1.294   5.525   4.358
 1971SOL    HW2 6813   1.211   5.436   4.467
 1972SOL     OW 6814   5.331   2.067   3.086
 1972SOL    HW1 6815   5.261   2.005   3.051
 1972SOL    HW2 6816   5.373   2.116   3.009
 1973SOL     OW 6817   4.539   2.421   0.002
 1973SOL    HW1 6818   4.608   2.430   6.951
 1973SOL    HW2 6819   4.468   2.491   7.009
 1974SOL     OW 6820   2.131   6.065   4.556
 1974SOL    HW1 6821   2.054   6.031   4.502
 1974SOL    HW2 6822   2.188   6.124   4.498
 1975SOL     OW 6823   1.996   2.565   2.367
 1975SOL    HW1 6824   1.923   2.581   2.301
 1975SOL    HW2 6825   2.085   2.580   2.324
 1976SOL     OW 6826   2.496   0.638   4.632
 1976SOL    HW1 6827   2.442   0.575   4.687
 1976SOL    HW2 6828   2.439   0.678   4.560
 1977SOL     OW 6829   1.394   4.526   0.092
 1977SOL    HW1 6830   1.467   4.507   0.158
 1977SOL    HW2 6831   1.348   4.611   0.117
 1978SOL     OW 6832   2.561   0.577   2.428
 1978SOL    HW1 6833   2.492   0.505   2.426
 1978SOL    HW2 6834   2.528   0.655   2.481
 1979SOL     OW 6835   5.497   3.055   7.003
 1979SOL    HW1 6836   5.536   3.061   6.912
 1979SOL    HW2 6837   5.542   2.982   0.034
 1980SOL     OW 6838   4.168   0.245   1.779
 1980SOL    HW1 6839   4.112   0.165   1.759
 1980SOL    HW2 6840   4.263   0.226   1.756
 1981SOL     OW 6841   4.512   2.571   1.755
 1981SOL    HW1 6842   4.419   2.606   1.764
 1981SOL    HW2 6843   4.574   2.648   1.739
 1982SOL     OW 6844   2.034   2.264   6.745
 1982SOL    HW1 6845   1.951   2.308   6.779
 1982SOL    HW2 6846   2.060   2.305   6.658
 1983SOL     OW 6847   6.842   2.187   1.386
 1983SOL    HW1 6848   6.782   2.130   1.330
 1983SOL    HW2 6849   6.845   2.152   1.479
 1984SOL     OW 6850   4.784   3.406   6.024
 1984SOL    HW1 6851   4.719   3.330   6.027
 1984SOL    HW2 6852   4.788   3.443   5.931
 1985SOL     OW 6853   5.308   5.615   4.464
 1985SOL    HW1 6854   5.279   5.690   4.524
 1985SOL    HW2 6855   5.263   5.531   4.493
 1986SOL     OW 6856   3.007   3.158   3.122
 1986SOL    HW1 6857   3.036   3.143   3.028
 1986SOL    HW2 6858   2.968   3.073   3.159
 1987SOL     OW 6859   1.947   1.474   1.891
 1987SOL    HW1 6860   1.910   1.412   1.822
 1987SOL    HW2 6861   2.042   1.449   1.910
 1988SOL     OW 6862   1.205   1.946   2.799
 1988SOL    HW1 6863   1.110   1.967   2.821
 1988SOL    HW2 6864   1.229   1.856   2.837
 1989SOL     OW 6865   3.671   5.520   3.651
 1989SOL    HW1 6866   3.752   5.545   3.704
 1989SOL    HW2 6867   3.653   5.422   3.660
 1990SOL     OW 6868   3.911   6.473   0.797
 1990SOL    HW1 6869   3.987   6.415   0.828
 1990SOL    HW2 6870   3.939   6.523   0.715
 1991SOL     OW 6871   3.016   5.387   2.554
 1991SOL    HW1 6872   3.105   5.424   2.529
 1991SOL    HW2 6873   2.977   5.338   2.476
 1992SOL     OW 6874   0.990   6.909   3.468
 1992SOL    HW1 6875   1.089   6.893   3.471
 1992SOL    HW2 6876   0.945   6.850   3.534
 1993SOL     OW 6877   1.436   0.989   1.885
 1993SOL    HW1 6878   1.494   0.939   1.821
 1993SOL    HW2 6879   1.458   1.086   1.881
 1994SOL     OW 6880   2.877   3.188   1.909
 1994SOL    HW1 6881   2.849   3.265   1.965
 1994SOL    HW2 6882   2.813   3.176   1.833
 1995SOL     OW 6883   5.910   0.848   3.827
 1995SOL    HW1 6884   5.939   0.878   3.736
 1995SOL    HW2 6885   5.991   0.827   3.882
 1996SOL     OW 6886   5.063   0.270   1.502
 1996SOL    HW1 6887   5.024   0.328   1.430
 1996SOL    HW2 6888   5.059   0.174   1.473
 1997SOL     OW 6889   2.912   1.807   2.924
 1997SOL    HW1 6890   2.914   1.773   3.019
 1997SOL    HW2 6891   2.835   1.869   2.913
 1998SOL     OW 6892   2.237   3.436   1.287
 1998SOL    HW1 6893   2.252   3.513   1.349
 1998SOL    HW2 6894   2.325   3.391   1.269
 1999SOL     OW 6895   0.804   6.917   5.738
 1999SOL    HW1 6896   0.825   6.888   5.644
 1999SOL    HW2 6897   0.775   6.838   5.792
 2000SOL     OW 6898   4.731   3.899   6.694
 2000SOL    HW1 6899   4.750   3.866   6.602
 2000SOL    HW2 6900   4.754   3.827   6.761
 2001SOL     OW 6901   1.197   1.962   0.744
 2001SOL    HW1 6902   1.284   1.983   0.788
 2001SOL    HW2 6903   1.181   1.863   0.745
 2002SOL     OW 6904   6.128   4.652   6.493
 2002SOL    HW1 6905   6.153   4.613   6.582
 2002SOL    HW2 6906   6.039   4.617   6.464
 2003SOL     OW 6907   6.803   5.687   1.109
 2003SOL    HW1 6908   6.892   5.690   1.063
 2003SOL    HW2 6909   6.817   5.682   1.208
 2004SOL     OW 6910   3.549   0.707   2.371
 2004SOL    HW1 6911   3.472   0.678   2.315
 2004SOL    HW2 6912   3.578   0.631   2.429
 2005SOL     OW 6913   1.812   6.422   0.079
 2005SOL    HW1 6914   1.909   6.443   0.092
 2005SOL    HW2 6915   1.801   6.325   0.056
 2006SOL     OW 6916   5.966   0.130   1.948
 2006SOL    HW1 6917   5.967   0.113   2.046
 2006SOL    HW2 6918   5.915   0.214   1.929
 2007SOL     OW 6919   5.762   5.364   5.477
 2007SOL    HW1 6920   5.752   5.269   5.508
 2007SOL    HW2 6921   5.856   5.394   5.493
 2008SOL     OW 6922   2.218   3.074   2.727
 2008SOL    HW1 6923   2.246   3.098   2.635
 2008SOL    HW2 6924   2.184   2.980   2.728
 2009SOL     OW 6925   6.085   0.588   3.718
 2009SOL    HW1 6926   6.177   0.627   3.721
 2009SOL    HW2 6927   6.074   0.524   3.794
 2010SOL     OW 6928   6.807   1.380   1.507
 2010SOL    HW1 6929   6.795   1.464   1.560
 2010SOL    HW2 6930   6.905   1.364   1.490
 2011SOL     OW 6931   0.987   0.581   5.028
 2011SOL    HW1 6932   1.028   0.616   4.944
 2011SOL    HW2 6933   0.889   0.597   5.027
 2012SOL     OW 6934   6.905   2.028   0.617
 2012SOL    HW1 6935   6.877   1.939   0.653
 2012SOL    HW2 6936   6.853   2.050   0.535
 2013SOL     OW 6937   0.494   2.310   1.906
 2013SOL    HW1 6938   0.545   2.396   1.899
 2013SOL    HW2 6939   0.517   2.252   1.828
 2014SOL     OW 6940   4.008   1.880   3.663
 2014SOL    HW1 6941   4.045   1.790   3.686
 2014SOL    HW2 6942   3.921   1.869   3.615
 2015SOL     OW 6943   3.513   6.306   1.504
 2015SOL    HW1 6944   3.599   6.339   1.466
 2015SOL    HW2 6945   3.531   6.234   1.571
 2016SOL     OW 6946   2.170   0.832   4.737
 2016SOL    HW1 6947   2.106   0.892   4.785
 2016SOL    HW2 6948   2.121   0.751   4.704
 2017SOL     OW 6949   1.747   6.850   4.836
 2017SOL    HW1 6950   1.714   6.900   4.755
 2017SOL    HW2 6951   1.784   6.762   4.807
 2018SOL     OW 6952   0.567   1.046   4.510
 2018SOL    HW1 6953   0.592   0.953   4.537
 2018SOL    HW2 6954   0.592   1.109   4.583
 2019SOL     OW 6955   0.875   5.110   6.990
 2019SOL    HW1 6956   0.921   5.197   6.974
 2019SOL    HW2 6957   0.825   5.082   6.908
 2020SOL     OW 6958   2.007   6.978   1.562
 2020SOL    HW1 6959   1.937   0.029   1.560
 2020SOL    HW2 6960   2.097   7.020   1.560
 2021SOL     OW 6961   0.396   5.221   3.347
 2021SOL    HW1 6962   0.431   5.288   3.412
 2021SOL    HW2 6963   0.472   5.172   3.304
 2022SOL     OW 6964   2.210   2.676   3.954
 2022SOL    HW1 6965   2.111   2.690   3.962
 2022SOL    HW2 6966   2.257   2.724   4.028
 2023SOL     OW 6967   0.508   5.854   6.632
 2023SOL    HW1 6968   0.459   5.914   6.568
 2023SOL    HW2 6969   0.604   5.848   6.604
 2024SOL     OW 6970   6.384   6.379   3.562
 2024SOL    HW1 6971   6.464   6.408   3.615
 2024SOL    HW2 6972   6.399   6.287   3.526
 2025SOL     OW 6973   1.708   0.503   4.574
 2025SOL    HW1 6974   1.670   0.465   4.658
 2025SOL    HW2 6975   1.634   0.525   4.511
 2026SOL     OW 6976   1.477   6.637   5.741
 2026SOL    HW1 6977   1.513   6.679   5.658
 2026SOL    HW2 6978   1.530   6.668   5.820
 2027SOL     OW 6979   6.454   6.861   2.917
 2027SOL    HW1 6980   6.512   6.930   2.958
 2027SOL    HW2 6981   6.429   6.793   2.986
 2028SOL     OW 6982   1.967   5.801   4.893
 2028SOL    HW1 6983   1.877   5.785   4.852
 2028SOL    HW2 6984   2.024   5.852   4.828
 2029SOL     OW 6985   6.803   2.091   0.353
 2029SOL    HW1 6986   6.711   2.087   0.314
 2029SOL    HW2 6987   6.846   2.178   0.328
 2030SOL     OW 6988   1.847   6.160   2.699
 2030SOL    HW1 6989   1.846   6.242   2.755
 2030SOL    HW2 6990   1.817   6.183   2.606
 2031SOL     OW 6991   6.714   0.470   4.721
 2031SOL    HW1 6992   6.720   0.549   4.660
 2031SOL    HW2 6993   6.723   0.501   4.816
 2032SOL     OW 6994   2.912   3.035   6.493
 2032SOL    HW1 6995   2.820   3.015   6.526
 2032SOL    HW2 6996   2.930   2.982   6.410
 2033SOL     OW 6997   2.718   0.021   1.444
 2033SOL    HW1 6998   2.806   0.013   1.491
 2033SOL    HW2 6999   2.656   0.078   1.497
 2034SOL     OW 7000   0.743   3.821   4.738
 2034SOL    HW1 7001   0.737   3.921   4.738
 2034SOL    HW2 7002   0.728   3.786   4.830
 2035SOL     OW 7003   4.874   5.868   3.235
 2035SOL    HW1 7004   4.885   5.809   3.155
 2035SOL    HW2 7005   4.841   5.958   3.205
 2036SOL     OW 7006   0.044   3.202   5.884
 2036SOL    HW1 7007   6.988   3.174   5.941
 2036SOL    HW2 7008   0.011   3.258   5.808
 2037SOL     OW 7009   1.183   2.317   6.733
 2037SOL    HW1 7010   1.267   2.347   6.777
 2037SOL    HW2 7011   1.108   2.320   6.799
 2038SOL     OW 7012   1.794   0.681   6.040
 2038SOL    HW1 7013   1.814   0.779   6.033
 2038SOL    HW2 7014   1.845   0.643   6.117
 2039SOL     OW 7015   5.194   5.956   4.098
 2039SOL    HW1 7016   5.141   5.872   4.087
 2039SOL    HW2 7017   5.254   5.969   4.019
 2040SOL     OW 7018   2.630   1.563   0.683
 2040SOL    HW1 7019   2.686   1.567   0.766
 2040SOL    HW2 7020   2.535   1.586   0.705
 2041SOL     OW 7021   2.973   0.355   0.184
 2041SOL    HW1 7022   3.005   0.320   0.096
 2041SOL    HW2 7023   2.922   0.283   0.231
 2042SOL     OW 7024   6.951   0.057   4.853
 2042SOL    HW1 7025   6.899   0.088   4.932
 2042SOL    HW2 7026   6.976   0.136   4.796
 2043SOL     OW 7027   1.303   3.477   0.373
 2043SOL    HW1 7028   1.291   3.470   0.472
 2043SOL    HW2 7029   1.228   3.531   0.334
 2044SOL     OW 7030   3.664   0.951   2.485
 2044SOL    HW1 7031   3.624   0.874   2.435
 2044SOL    HW2 7032   3.599   1.027   2.484
 2045SOL     OW 7033   1.946   5.635   3.305
 2045SOL    HW1 7034   1.866   5.575   3.307
 2045SOL    HW2 7035   1.954   5.682   3.393
 2046SOL     OW 7036   0.549   2.403   5.889
 2046SOL    HW1 7037   0.607   2.452   5.954
 2046SOL    HW2 7038   0.470   2.364   5.937
 2047SOL     OW 7039   7.000   0.209   1.894
 2047SOL    HW1 7040   6.939   0.272   1.846
 2047SOL    HW2 7041   0.024   0.149   1.827
 2048SOL     OW 7042   1.994   1.276   3.894
 2048SOL    HW1 7043   1.970   1.191   3.846
 2048SOL    HW2 7044   1.966   1.355   3.839
 2049SOL     OW 7045   4.349   1.908   5.525
 2049SOL    HW1 7046   4.332   1.866   5.436
 2049SOL    HW2 7047   4.429   1.968   5.519
 2050SOL     OW 7048   0.020   1.366   2.360
 2050SOL    HW1 7049   0.036   1.285   2.303
 2050SOL    HW2 7050   0.075   1.442   2.325
 2051SOL     OW 7051   3.484   6.925   6.186
 2051SOL    HW1 7052   3.488   0.001   6.208
 2051SOL    HW2 7053   3.532   6.873   6.257
 2052SOL     OW 7054   0.640   4.470   0.591
 2052SOL    HW1 7055   0.653   4.372   0.580
 2052SOL    HW2 7056   0.659   4.497   0.685
 2053SOL     OW 7057   4.615   5.390   1.583
 2053SOL    HW1 7058   4.591   5.298   1.615
 2053SOL    HW2 7059   4.709   5.410   1.610
 2054SOL     OW 7060   2.954   3.699   3.707
 2054SOL    HW1 7061   2.931   3.625   3.771
 2054SOL    HW2 7062   2.982   3.780   3.758
 2055SOL     OW 7063   3.154   3.185   5.522
 2055SOL    HW1 7064   3.207   3.140   5.594
 2055SOL    HW2 7065   3.212   3.199   5.442
 2056SOL     OW 7066   2.566   5.724   2.331
 2056SOL    HW1 7067   2.640   5.656   2.324
 2056SOL    HW2 7068   2.593   5.795   2.395
 2057SOL     OW 7069   6.516   3.277   4.333
 2057SOL    HW1 7070   6.497   3.186   4.368
 2057SOL    HW2 7071   6.537   3.339   4.409
 2058SOL     OW 7072   5.647   0.581   3.474
 2058SOL    HW1 7073   5.567   0.586   3.534
 2058SOL    HW2 7074   5.725   0.543   3.524
 2059SOL     OW 7075   2.634   1.038   6.064
 2059SOL    HW1 7076   2.717   1.025   6.009
 2059SOL    HW2 7077   2.583   0.953   6.068
 2060SOL     OW 7078   1.613   2.274   6.376
 2060SOL    HW1 7079   1.565   2.187   6.362
 2060SOL    HW2 7080   1.702   2.271   6.330
 2061SOL     OW 7081   2.344   2.816   3.751
 2061SOL    HW1 7082   2.298   2.747   3.807
 2061SOL    HW2 7083   2.441   2.817   3.773
 2062SOL     OW 7084   5.019   5.265   3.757
 2062SOL    HW1 7085   4.964   5.184   3.775
 2062SOL    HW2 7086   4.964   5.347   3.769
 2063SOL     OW 7087   1.227   1.637   4.466
 2063SOL    HW1 7088   1.166   1.619   4.388
 2063SOL    HW2 7089   1.233   1.736   4.480
 2064SOL     OW 7090   0.517   3.847   4.540
 2064SOL    HW1 7091   0.450   3.783   4.503
 2064SOL    HW2 7092   0.592   3.796   4.583
 2065SOL     OW 7093   3.540   3.840   5.759
 2065SOL    HW1 7094   3.527   3.819   5.856
 2065SOL    HW2 7095   3.459   3.885   5.723
 2066SOL     OW 7096   2.345   2.289   4.545
 2066SOL    HW1 7097   2.255   2.328   4.529
 2066SOL    HW2 7098   2.337   2.189   4.553
 2067SOL     OW 7099   6.390   4.641   2.770
 2067SOL    HW1 7100   6.417   4.717   2.712
 2067SOL    HW2 7101   6.333   4.577   2.718
 2068SOL     OW 7102   3.067   6.711   4.591
 2068SOL    HW1 7103   2.983   6.743   4.548
 2068SOL    HW2 7104   3.082   6.761   4.676
 2069SOL     OW 7105   5.700   2.123   2.682
 2069SOL    HW1 7106   5.755   2.161   2.756
 2069SOL    HW2 7107   5.731   2.031   2.660
 2070SOL     OW 7108   0.252   5.406   1.446
 2070SOL    HW1 7109   0.167   5.353   1.440
 2070SOL    HW2 7110   0.293   5.393   1.536
 2071SOL     OW 7111   6.713   2.261   3.763
 2071SOL    HW1 7112   6.679   2.329   3.698
 2071SOL    HW2 7113   6.665   2.270   3.850
 2072SOL     OW 7114   5.067   3.155   6.113
 2072SOL    HW1 7115   5.127   3.152   6.033
 2072SOL    HW2 7116   4.983   3.105   6.094
 2073SOL     OW 7117   3.290   5.716   6.917
 2073SOL    HW1 7118   3.234   5.633   6.921
 2073SOL    HW2 7119   3.384   5.694   6.942
 2074SOL     OW 7120   3.585   4.623   5.352
 2074SOL    HW1 7121   3.560   4.567   5.431
 2074SOL    HW2 7122   3.509   4.685   5.330
 2075SOL     OW 7123   5.185   0.816   1.109
 2075SOL    HW1 7124   5.224   0.778   1.193
 2075SOL    HW2 7125   5.097   0.860   1.130
 2076SOL     OW 7126   6.907   0.200   3.879
 2076SOL    HW1 7127   6.816   0.195   3.837
 2076SOL    HW2 7128   6.934   0.295   3.890
 2077SOL     OW 7129   0.803   4.238   0.885
 2077SOL    HW1 7130   0.730   4.225   0.953
 2077SOL    HW2 7131   0.879   4.177   0.905
 2078SOL     OW 7132   0.835   2.506   0.102
 2078SOL    HW1 7133   0.812   2.598   0.071
 2078SOL    HW2 7134   0.754   2.464   0.145
 2079SOL     OW 7135   5.154   2.011   3.459
 2079SOL    HW1 7136   5.101   2.053   3.533
 2079SOL    HW2 7137   5.216   2.078   3.420
 2080SOL     OW 7138   2.136   3.046   5.192
 2080SOL    HW1 7139   2.191   3.119   5.232
 2080SOL    HW2 7140   2.188   3.001   5.120
 2081SOL     OW 7141   0.396   5.728   3.280
 2081SOL    HW1 7142   0.478   5.674   3.263
 2081SOL    HW2 7143   0.390   5.751   3.377
 2082SOL     OW 7144   6.570   6.147   3.828
 2082SOL    HW1 7145   6.620   6.105   3.753
 2082SOL    HW2 7146   6.495   6.087   3.857
 2083SOL     OW 7147   1.156   5.778   3.234
 2083SOL    HW1 7148   1.162   5.860   3.290
 2083SOL    HW2 7149   1.105   5.799   3.150
 2084SOL     OW 7150   5.634   2.525   1.624
 2084SOL    HW1 7151   5.553   2.528   1.682
 2084SOL    HW2 7152   5.608   2.501   1.530
 2085SOL     OW 7153   6.488   5.113   6.637
 2085SOL    HW1 7154   6.524   5.074   6.552
 2085SOL    HW2 7155   6.447   5.040   6.692
 2086SOL     OW 7156   5.214   1.032   5.371
 2086SOL    HW1 7157   5.159   1.032   5.287
 2086SOL    HW2 7158   5.244   0.939   5.392
 2087SOL     OW 7159   4.488   1.203   6.035
 2087SOL    HW1 7160   4.524   1.123   5.987
 2087SOL    HW2 7161   4.528   1.286   5.996
 2088SOL     OW 7162   0.336   3.493   5.501
 2088SOL    HW1 7163   0.296   3.466   5.588
 2088SOL    HW2 7164   0.430   3.525   5.515
 2089SOL     OW 7165   2.901   4.863   4.461
 2089SOL    HW1 7166   2.996   4.832   4.456
 2089SOL    HW2 7167   2.862   4.839   4.550
 2090SOL     OW 7168   5.025   2.496   6.236
 2090SOL    HW1 7169   5.093   2.430   6.268
 2090SOL    HW2 7170   4.940   2.448   6.216
 2091SOL     OW 7171   5.671   0.003   0.861
 2091SOL    HW1 7172   5.652   6.968   0.780
 2091SOL    HW2 7173   5.585   0.039   0.896
 2092SOL     OW 7174   4.060   3.134   2.554
 2092SOL    HW1 7175   3.981   3.137   2.616
 2092SOL    HW2 7176   4.035   3.087   2.470
 2093SOL     OW 7177   4.563   0.075   6.854
 2093SOL    HW1 7178   4.464   0.081   6.863
 2093SOL    HW2 7179   4.605   0.059   6.943
 2094SOL     OW 7180   4.441   2.878   1.560
 2094SOL    HW1 7181   4.382   2.825   1.621
 2094SOL    HW2 7182   4.441   2.835   1.469
 2095SOL     OW 7183   4.594   5.526   3.657
 2095SOL    HW1 7184   4.585   5.581   3.740
 2095SOL    HW2 7185   4.504   5.500   3.623
 2096SOL     OW 7186   4.210   0.215   2.684
 2096SOL    HW1 7187   4.268   0.280   2.732
 2096SOL    HW2 7188   4.177   0.145   2.748
 2097SOL     OW 7189   2.529   5.501   5.177
 2097SOL    HW1 7190   2.445   5.491   5.123
 2097SOL    HW2 7191   2.586   5.420   5.166
 2098SOL     OW 7192   1.828   6.889   4.175
 2098SOL    HW1 7193   1.902   6.865   4.113
 2098SOL    HW2 7194   1.784   6.973   4.145
 2099SOL     OW 7195   4.371   1.382   0.265
 2099SOL    HW1 7196   4.314   1.312   0.221
 2099SOL    HW2 7197   4.337   1.399   0.358
 2100SOL     OW 7198   4.603   0.264   0.871
 2100SOL    HW1 7199   4.610   0.168   0.901
 2100SOL    HW2 7200   4.635   0.271   0.777
 2101SOL     OW 7201   1.361   0.324   2.737
 2101SOL    HW1 7202   1.367   0.227   2.762
 2101SOL    HW2 7203   1.403   0.338   2.648
 2102SOL     OW 7204   4.111   3.388   2.454
 2102SOL    HW1 7205   4.089   3.291   2.458
 2102SOL    HW2 7206   4.210   3.399   2.440
 2103SOL     OW 7207   1.783   0.132   1.618
 2103SOL    HW1 7208   1.760   0.135   1.715
 2103SOL    HW2 7209   1.769   0.222   1.577
 2104SOL     OW 7210   0.933   4.072   2.387
 2104SOL    HW1 7211   0.985   4.003   2.337
 2104SOL    HW2 7212   0.972   4.081   2.479
 2105SOL     OW 7213   5.147   6.200   4.965
 2105SOL    HW1 7214   5.229   6.145   4.980
 2105SOL    HW2 7215   5.067   6.147   4.992
 2106SOL     OW 7216   3.394   3.165   0.763
 2106SOL    HW1 7217   3.346   3.241   0.806
 2106SOL    HW2 7218   3.340   3.081   0.775
 2107SOL     OW 7219   6.232   4.703   4.918
 2107SOL    HW1 7220   6.321   4.744   4.942
 2107SOL    HW2 7221   6.159   4.768   4.939
 2108SOL     OW 7222   4.183   6.324   5.710
 2108SOL    HW1 7223   4.170   6.337   5.808
 2108SOL    HW2 7224   4.239   6.242   5.694
 2109SOL     OW 7225   2.491   5.912   2.122
 2109SOL    HW1 7226   2.491   5.823   2.167
 2109SOL    HW2 7227   2.544   5.977   2.176
 2110SOL     OW 7228   3.940   5.583   0.166
 2110SOL    HW1 7229   4.036   5.580   0.136
 2110SOL    HW2 7230   3.936   5.601   0.264
 2111SOL     OW 7231   0.611   2.389   0.255
 2111SOL    HW1 7232   0.680   2.321   0.280
 2111SOL    HW2 7233   0.629   2.474   0.304
 2112SOL     OW 7234   0.698   0.543   6.530
 2112SOL    HW1 7235   0.612   0.591   6.544
 2112SOL    HW2 7236   0.703   0.509   6.436
 2113SOL     OW 7237   6.578   1.855   4.140
 2113SOL    HW1 7238   6.617   1.900   4.221
 2113SOL    HW2 7239   6.491   1.812   4.165
 2114SOL     OW 7240   3.372   0.602   5.791
 2114SOL    HW1 7241   3.342   0.511   5.764
 2114SOL    HW2 7242   3.304   0.670   5.762
 2115SOL     OW 7243   0.010   6.747   3.960
 2115SOL    HW1 7244   0.030   6.803   3.879
 2115SOL    HW2 7245   0.033   6.798   4.043
 2116SOL     OW 7246   2.131   6.936   6.278
 2116SOL    HW1 7247   2.225   6.902   6.281
 2116SOL    HW2 7248   2.070   6.867   6.316
 2117SOL     OW 7249   5.728   2.957   0.984
 2117SOL    HW1 7250   5.798   2.942   0.915
 2117SOL    HW2 7251   5.730   2.882   1.051
 2118SOL     OW 7252   0.021   3.212   2.249
 2118SOL    HW1 7253   0.025   3.146   2.323
 2118SOL    HW2 7254   0.049   3.302   2.283
 2119SOL     OW 7255   2.220   2.601   7.020
 2119SOL    HW1 7256   2.263   2.627   6.934
 2119SOL    HW2 7257   2.211   2.502   0.004
 2120SOL     OW 7258   6.240   1.489   0.633
 2120SOL    HW1 7259   6.234   1.457   0.728
 2120SOL    HW2 7260   6.268   1.412   0.575
 2121SOL     OW 7261   2.699   5.711   1.981
 2121SOL    HW1 7262   2.734   5.617   1.990
 2121SOL    HW2 7263   2.752   5.772   2.040
 2122SOL     OW 7264   0.706   1.151   5.113
 2122SOL    HW1 7265   0.618   1.200   5.116
 2122SOL    HW2 7266   0.745   1.147   5.205
 2123SOL     OW 7267   1.066   4.322   3.475
 2123SOL    HW1 7268   1.068   4.348   3.572
 2123SOL    HW2 7269   1.098   4.398   3.419
 2124SOL     OW 7270   5.314   3.571   6.363
 2124SOL    HW1 7271   5.279   3.657   6.325
 2124SOL    HW2 7272   5.410   3.582   6.386
 2125SOL     OW 7273   2.333   5.356   5.782
 2125SOL    HW1 7274   2.376   5.409   5.709
 2125SOL    HW2 7275   2.397   5.347   5.859
 2126SOL     OW 7276   2.847   5.521   2.130
 2126SOL    HW1 7277   2.787   5.483   2.201
 2126SOL    HW2 7278   2.899   5.598   2.168
 2127SOL     OW 7279   1.384   3.910   4.375
 2127SOL    HW1 7280   1.337   3.876   4.294
 2127SOL    HW2 7281   1.404   4.008   4.364
 2128SOL     OW 7282   5.415   3.104   0.500
 2128SOL    HW1 7283   5.425   3.129   0.403
 2128SOL    HW2 7284   5.320   3.119   0.529
 2129SOL     OW 7285   5.689   4.385   3.825
 2129SOL    HW1 7286   5.722   4.464   3.877
 2129SOL    HW2 7287   5.732   4.302   3.860
 2130SOL     OW 7288   2.360   0.095   2.918
 2130SOL    HW1 7289   2.397   0.071   2.829
 2130SOL    HW2 7290   2.371   0.194   2.933
 2131SOL     OW 7291   5.822   0.151   6.783
 2131SOL    HW1 7292   5.796   0.072   6.839
 2131SOL    HW2 7293   5.767   0.152   6.699
 2132SOL     OW 7294   2.985   1.447   0.390
 2132SOL    HW1 7295   2.944   1.370   0.439
 2132SOL    HW2 7296   3.071   1.472   0.434
 2133SOL     OW 7297   3.780   3.347   1.987
 2133SOL    HW1 7298   3.807   3.438   1.958
 2133SOL    HW2 7299   3.861   3.295   2.014
 2134SOL     OW 7300   2.516   0.394   4.859
 2134SOL    HW1 7301   2.541   0.303   4.891
 2134SOL    HW2 7302   2.481   0.389   4.765
 2135SOL     OW 7303   0.388   5.977   4.562
 2135SOL    HW1 7304   0.347   5.979   4.471
 2135SOL    HW2 7305   0.341   6.042   4.621
 2136SOL     OW 7306   0.371   4.745   3.721
 2136SOL    HW1 7307   0.383   4.806   3.643
 2136SOL    HW2 7308   0.446   4.759   3.786
 2137SOL     OW 7309   6.929   0.313   4.742
 2137SOL    HW1 7310   6.851   0.374   4.731
 2137SOL    HW2 7311   6.979   0.338   4.825
 2138SOL     OW 7312   1.235   2.193   0.135
 2138SOL    HW1 7313   1.275   2.103   0.126
 2138SOL    HW2 7314   1.293   2.251   0.193
 2139SOL     OW 7315   3.812   6.147   4.420
 2139SOL    HW1 7316   3.748   6.216   4.385
 2139SOL    HW2 7317   3.808   6.066   4.362
 2140SOL     OW 7318   1.476   5.447   3.673
 2140SOL    HW1 7319   1.513   5.475   3.584
 2140SOL    HW2 7320   1.513   5.358   3.699
 2141SOL     OW 7321   6.657   0.482   6.892
 2141SOL    HW1 7322   6.651   0.431   6.978
 2141SOL    HW2 7323   6.570   0.528   6.874
 2142SOL     OW 7324   3.702   0.930   3.429
 2142SOL    HW1 7325   3.791   0.975   3.432
 2142SOL    HW2 7326   3.691   0.886   3.340
 2143SOL     OW 7327   3.770   5.703   0.584
 2143SOL    HW1 7328   3.684   5.674   0.542
 2143SOL    HW2 7329   3.768   5.681   0.682
 2144SOL     OW 7330   0.858   1.174   1.865
 2144SOL    HW1 7331   0.866   1.145   1.770
 2144SOL    HW2 7332   0.949   1.172   1.908
 2145SOL     OW 7333   2.635   5.929   3.600
 2145SOL    HW1 7334   2.553   5.882   3.568
 2145SOL    HW2 7335   2.695   5.865   3.647
 2146SOL     OW 7336   3.337   2.011   1.235
 2146SOL    HW1 7337   3.269   1.961   1.289
 2146SOL    HW2 7338   3.391   2.071   1.294
 2147SOL     OW 7339   0.009   0.448   3.846
 2147SOL    HW1 7340   0.046   0.538   3.870
 2147SOL    HW2 7341   0.066   0.406   3.776
 2148SOL     OW 7342   6.396   4.155   3.226
 2148SOL    HW1 7343   6.474   4.167   3.286
 2148SOL    HW2 7344   6.414   4.200   3.138
 2149SOL     OW 7345   2.408   1.102   2.449
 2149SOL    HW1 7346   2.370   1.162   2.520
 2149SOL    HW2 7347   2.403   1.148   2.361
 2150SOL     OW 7348   5.404   0.929   2.745
 2150SOL    HW1 7349   5.310   0.961   2.732
 2150SOL    HW2 7350   5.466   1.007   2.744
 2151SOL     OW 7351   4.520   4.512   5.667
 2151SOL    HW1 7352   4.571   4.556   5.741
 2151SOL    HW2 7353   4.529   4.412   5.676
 2152SOL     OW 7354   6.963   6.321   3.134
 2152SOL    HW1 7355   6.914   6.252   3.187
 2152SOL    HW2 7356   6.922   6.329   3.044
 2153SOL     OW 7357   4.259   1.726   3.932
 2153SOL    HW1 7358   4.239   1.816   3.892
 2153SOL    HW2 7359   4.259   1.657   3.860
 2154SOL     OW 7360   4.906   7.012   4.150
 2154SOL    HW1 7361   4.860   6.967   4.073
 2154SOL    HW2 7362   4.890   0.089   4.146
 2155SOL     OW 7363   5.699   4.247   0.951
 2155SOL    HW1 7364   5.691   4.221   1.048
 2155SOL    HW2 7365   5.609   4.239   0.908
 2156SOL     OW 7366   5.904   6.036   2.415
 2156SOL    HW1 7367   5.974   6.081   2.360
 2156SOL    HW2 7368   5.946   5.963   2.469
 2157SOL     OW 7369   4.999   1.457   3.714
 2157SOL    HW1 7370   5.050   1.371   3.713
 2157SOL    HW2 7371   4.934   1.457   3.790
 2158SOL     OW 7372   4.026   0.881   3.744
 2158SOL    HW1 7373   3.927   0.868   3.745
 2158SOL    HW2 7374   4.050   0.959   3.803
 2159SOL     OW 7375   2.338   1.514   4.867
 2159SOL    HW1 7376   2.312   1.588   4.928
 2159SOL    HW2 7377   2.437   1.497   4.875
 2160SOL     OW 7378   2.440   3.936   0.713
 2160SOL    HW1 7379   2.505   3.879   0.764
 2160SOL    HW2 7380   2.383   3.878   0.656
 2161SOL     OW 7381   4.586   2.318   2.442
 2161SOL    HW1 7382   4.557   2.272   2.527
 2161SOL    HW2 7383   4.505   2.341   2.388
 2162SOL     OW 7384   2.274   1.865   2.411
 2162SOL    HW1 7385   2.182   1.835   2.385
 2162SOL    HW2 7386   2.321   1.901   2.330
 2163SOL     OW 7387   4.430   1.575   0.954
 2163SOL    HW1 7388   4.409   1.590   0.857
 2163SOL    HW2 7389   4.379   1.641   1.009
 2164SOL     OW 7390   6.505   0.508   1.738
 2164SOL    HW1 7391   6.468   0.506   1.830
 2164SOL    HW2 7392   6.450   0.569   1.681
 2165SOL     OW 7393   1.906   0.623   2.280
 2165SOL    HW1 7394   1.989   0.622   2.336
 2165SOL    HW2 7395   1.825   0.627   2.339
 2166SOL     OW 7396   5.448   2.602   4.876
 2166SOL    HW1 7397   5.509   2.531   4.841
 2166SOL    HW2 7398   5.355   2.566   4.881
 2167SOL     OW 7399   3.329   1.553   1.394
 2167SOL    HW1 7400   3.317   1.511   1.484
 2167SOL    HW2 7401   3.393   1.498   1.340
 2168SOL     OW 7402   5.525   6.826   4.751
 2168SOL    HW1 7403   5.534   6.917   4.709
 2168SOL    HW2 7404   5.434   6.817   4.790
 2169SOL     OW 7405   5.038   1.931   5.710
 2169SOL    HW1 7406   4.962   1.982   5.750
 2169SOL    HW2 7407   5.003   1.853   5.659
 2170SOL     OW 7408   4.910   5.705   4.604
 2170SOL    HW1 7409   4.904   5.672   4.699
 2170SOL    HW2 7410   4.888   5.630   4.542
 2171SOL     OW 7411   0.359   2.913   0.280
 2171SOL    HW1 7412   0.433   2.869   0.228
 2171SOL    HW2 7413   0.291   2.845   0.305
 2172SOL     OW 7414   2.700   0.329   2.601
 2172SOL    HW1 7415   2.726   0.423   2.579
 2172SOL    HW2 7416   2.768   0.289   2.662
 2173SOL     OW 7417   4.269   1.794   4.470
 2173SOL    HW1 7418   4.203   1.796   4.394
 2173SOL    HW2 7419   4.329   1.873   4.464
 2174SOL     OW 7420   0.739   5.928   5.425
 2174SOL    HW1 7421   0.694   6.007   5.384
 2174SOL    HW2 7422   0.758   5.860   5.354
 2175SOL     OW 7423   1.070   0.120   6.795
 2175SOL    HW1 7424   1.169   0.104   6.803
 2175SOL    HW2 7425   1.029   0.119   6.885
 2176SOL     OW 7426   2.263   2.740   2.023
 2176SOL    HW1 7427   2.212   2.740   1.938
 2176SOL    HW2 7428   2.236   2.818   2.079
 2177SOL     OW 7429   0.946   1.320   2.287
 2177SOL    HW1 7430   1.007   1.358   2.219
 2177SOL    HW2 7431   0.970   1.355   2.378
 2178SOL     OW 7432   6.702   6.126   0.378
 2178SOL    HW1 7433   6.706   6.183   0.460
 2178SOL    HW2 7434   6.727   6.032   0.401
 2179SOL     OW 7435   2.229   4.040   4.078
 2179SOL    HW1 7436   2.322   4.004   4.073
 2179SOL    HW2 7437   2.168   3.983   4.022
 2180SOL     OW 7438   3.278   2.906   3.258
 2180SOL    HW1 7439   3.376   2.892   3.271
 2180SOL    HW2 7440   3.250   2.865   3.171
 2181SOL     OW 7441   3.292   6.978   0.775
 2181SOL    HW1 7442   3.244   6.987   0.688
 2181SOL    HW2 7443   3.386   6.949   0.758
 2182SOL     OW 7444   4.373   3.767   0.200
 2182SOL    HW1 7445   4.327   3.838   0.254
 2182SOL    HW2 7446   4.441   3.721   0.257
 2183SOL     OW 7447   4.941   2.786   1.761
 2183SOL    HW1 7448   4.960   2.849   1.835
 2183SOL    HW2 7449   4.842   2.779   1.746
 2184SOL     OW 7450   4.598   2.876   6.316
 2184SOL    HW1 7451   4.564   2.858   6.224
 2184SOL    HW2 7452   4.668   2.808   6.339
 2185SOL     OW 7453   6.889   6.591   2.224
 2185SOL    HW1 7454   6.833   6.634   2.294
 2185SOL    HW2 7455   6.952   6.658   2.186
 2186SOL     OW 7456   0.056   4.349   2.867
 2186SOL    HW1 7457   6.980   4.364   2.886
 2186SOL    HW2 7458   0.070   4.255   2.837
 2187SOL     OW 7459   6.348   0.243   6.603
 2187SOL    HW1 7460   6.270   0.302   6.624
 2187SOL    HW2 7461   6.397   0.222   6.688
 2188SOL     OW 7462   4.612   2.509   3.695
 2188SOL    HW1 7463   4.555   2.479   3.618
 2188SOL    HW2 7464   4.638   2.605   3.682
 2189SOL     OW 7465   3.816   6.384   6.772
 2189SOL    HW1 7466   3.735   6.441   6.756
 2189SOL    HW2 7467   3.885   6.438   6.820
 2190SOL     OW 7468   5.937   3.593   1.197
 2190SOL    HW1 7469   5.962   3.671   1.254
 2190SOL    HW2 7470   5.867   3.621   1.131
 2191SOL     OW 7471   3.370   0.529   0.481
 2191SOL    HW1 7472   3.341   0.600   0.416
 2191SOL    HW2 7473   3.401   0.448   0.431
 2192SOL     OW 7474   4.187   6.601   1.532
 2192SOL    HW1 7475   4.225   6.527   1.588
 2192SOL    HW2 7476   4.259   6.640   1.475
 2193SOL     OW 7477   0.265   6.137   4.738
 2193SOL    HW1 7478   0.212   6.161   4.819
 2193SOL    HW2 7479   0.358   6.174   4.746
 2194SOL     OW 7480   2.504   6.728   2.770
 2194SOL    HW1 7481   2.470   6.661   2.704
 2194SOL    HW2 7482   2.459   6.714   2.858
 2195SOL     OW 7483   0.387   5.008   2.652
 2195SOL    HW1 7484   0.351   4.921   2.685
 2195SOL    HW2 7485   0.379   5.012   2.553
 2196SOL     OW 7486   4.534   3.971   0.373
 2196SOL    HW1 7487   4.541   3.990   0.471
 2196SOL    HW2 7488   4.556   3.875   0.355
 2197SOL     OW 7489   4.788   3.832   0.185
 2197SOL    HW1 7490   4.870   3.788   0.220
 2197SOL    HW2 7491   4.800   3.932   0.188
 2198SOL     OW 7492   0.706   4.745   6.323
 2198SOL    HW1 7493   0.652   4.710   6.399
 2198SOL    HW2 7494   0.799   4.766   6.355
 2199SOL     OW 7495   4.031   1.872   3.217
 2199SOL    HW1 7496   4.067   1.859   3.125
 2199SOL    HW2 7497   3.932   1.878   3.213
 2200SOL     OW 7498   4.332   0.231   3.944
 2200SOL    HW1 7499   4.251   0.188   3.904
 2200SOL    HW2 7500   4.358   0.310   3.889
 2201SOL     OW 7501   5.123   4.795   4.376
 2201SOL    HW1 7502   5.037   4.839   4.402
 2201SOL    HW2 7503   5.199   4.851   4.409
 2202SOL     OW 7504   4.890   5.839   4.233
 2202SOL    HW1 7505   4.803   5.875   4.201
 2202SOL    HW2 7506   4.892   5.842   4.333
 2203SOL     OW 7507   2.133   1.519   2.589
 2203SOL    HW1 7508   2.043   1.487   2.618
 2203SOL    HW2 7509   2.136   1.618   2.596
 2204SOL     OW 7510   3.455   2.447   1.243
 2204SOL    HW1 7511   3.524   2.393   1.292
 2204SOL    HW2 7512   3.491   2.473   1.154
 2205SOL     OW 7513   3.331   0.542   1.926
 2205SOL    HW1 7514   3.308   0.629   1.882
 2205SOL    HW2 7515   3.259   0.475   1.908
 2206SOL     OW 7516   1.810   4.310   0.165
 2206SOL    HW1 7517   1.879   4.369   0.209
 2206SOL    HW2 7518   1.789   4.345   0.074
 2207SOL     OW 7519   6.274   4.400   5.080
 2207SOL    HW1 7520   6.192   4.447   5.048
 2207SOL    HW2 7521   6.298   4.433   5.172
 2208SOL     OW 7522   6.469   5.096   2.021
 2208SOL    HW1 7523   6.480   5.028   1.948
 2208SOL    HW2 7524   6.396   5.066   2.083
 2209SOL     OW 7525   6.598   0.001   1.730
 2209SOL    HW1 7526   6.500   0.004   1.709
 2209SOL    HW2 7527   6.612   6.981   1.820
 2210SOL     OW 7528   2.416   4.421   3.685
 2210SOL    HW1 7529   2.363   4.499   3.717
 2210SOL    HW2 7530   2.469   4.448   3.604
 2211SOL     OW 7531   5.493   0.463   5.992
 2211SOL    HW1 7532   5.540   0.551   5.993
 2211SOL    HW2 7533   5.541   0.400   5.930
 2212SOL     OW 7534   2.204   6.243   6.186
 2212SOL    HW1 7535   2.303   6.239   6.199
 2212SOL    HW2 7536   2.158   6.230   6.274
 2213SOL     OW 7537   4.690   1.093   3.465
 2213SOL    HW1 7538   4.677   1.183   3.507
 2213SOL    HW2 7539   4.677   1.101   3.366
 2214SOL     OW 7540   4.302   0.093   4.402
 2214SOL    HW1 7541   4.393   0.131   4.390
 2214SOL    HW2 7542   4.242   0.125   4.328
 2215SOL     OW 7543   5.614   2.223   6.114
 2215SOL    HW1 7544   5.693   2.217   6.176
 2215SOL    HW2 7545   5.537   2.264   6.162
 2216SOL     OW 7546   3.233   1.594   2.377
 2216SOL    HW1 7547   3.317   1.580   2.325
 2216SOL    HW2 7548   3.166   1.524   2.351
 2217SOL     OW 7549   2.685   0.094   0.955
 2217SOL    HW1 7550   2.730   0.183   0.962
 2217SOL    HW2 7551   2.634   0.076   1.039
 2218SOL     OW 7552   6.506   0.905   2.250
 2218SOL    HW1 7553   6.549   0.815   2.239
 2218SOL    HW2 7554   6.498   0.949   2.161
 2219SOL     OW 7555   2.216   2.137   2.973
 2219SOL    HW1 7556   2.313   2.149   2.953
 2219SOL    HW2 7557   2.164   2.135   2.887
 2220SOL     OW 7558   2.110   6.181   2.823
 2220SOL    HW1 7559   2.058   6.232   2.754
 2220SOL    HW2 7560   2.101   6.083   2.806
 2221SOL     OW 7561   0.065   6.680   4.890
 2221SOL    HW1 7562   7.020   6.734   4.837
 2221SOL    HW2 7563   0.086   6.726   4.976
 2222SOL     OW 7564   5.761   5.690   3.953
 2222SOL    HW1 7565   5.671   5.715   3.990
 2222SOL    HW2 7566   5.748   5.641   3.867
 2223SOL     OW 7567   6.496   6.673   2.434
 2223SOL    HW1 7568   6.467   6.678   2.338
 2223SOL    HW2 7569   6.595   6.688   2.440
 2224SOL     OW 7570   1.085   5.808   1.651
 2224SOL    HW1 7571   1.091   5.855   1.563
 2224SOL    HW2 7572   1.000   5.832   1.697
 2225SOL     OW 7573   0.592   4.417   0.250
 2225SOL    HW1 7574   0.519   4.474   0.213
 2225SOL    HW2 7575   0.552   4.338   0.296
 2226SOL     OW 7576   3.742   3.767   3.297
 2226SOL    HW1 7577   3.729   3.668   3.292
 2226SOL    HW2 7578   3.756   3.795   3.392
 2227SOL     OW 7579   2.211   2.141   5.122
 2227SOL    HW1 7580   2.254   2.110   5.037
 2227SOL    HW2 7581   2.125   2.092   5.135
 2228SOL     OW 7582   1.537   4.434   4.341
 2228SOL    HW1 7583   1.530   4.389   4.430
 2228SOL    HW2 7584   1.472   4.510   4.337
 2229SOL     OW 7585   5.763   5.502   2.635
 2229SOL    HW1 7586   5.688   5.545   2.585
 2229SOL    HW2 7587   5.731   5.417   2.677
 2230SOL     OW 7588   1.814   5.514   2.766
 2230SOL    HW1 7589   1.759   5.592   2.738
 2230SOL    HW2 7590   1.805   5.500   2.864
 2231SOL     OW 7591   2.129   5.698   0.543
 2231SOL    HW1 7592   2.201   5.693   0.612
 2231SOL    HW2 7593   2.090   5.607   0.529
 2232SOL     OW 7594   5.848   2.230   3.814
 2232SOL    HW1 7595   5.942   2.195   3.815
 2232SOL    HW2 7596   5.848   2.329   3.823
 2233SOL     OW 7597   3.206   1.502   0.557
 2233SOL    HW1 7598   3.190   1.472   0.651
 2233SOL    HW2 7599   3.277   1.572   0.556
 2234SOL     OW 7600   4.619   2.351   1.293
 2234SOL    HW1 7601   4.594   2.319   1.385
 2234SOL    HW2 7602   4.718   2.360   1.287
 2235SOL     OW 7603   1.934   2.760   2.126
 2235SOL    HW1 7604   1.934   2.774   2.027
 2235SOL    HW2 7605   1.850   2.798   2.166
 2236SOL     OW 7606   1.025   3.915   5.295
 2236SOL    HW1 7607   1.081   3.990   5.333
 2236SOL    HW2 7608   0.933   3.920   5.333
 2237SOL     OW 7609   5.877   2.762   3.159
 2237SOL    HW1 7610   5.833   2.786   3.246
 2237SOL    HW2 7611   5.976   2.758   3.173
 2238SOL     OW 7612   5.319   6.634   0.160
 2238SOL    HW1 7613   5.291   6.721   0.200
 2238SOL    HW2 7614   5.407   6.644   0.115
 2239SOL     OW 7615   7.006   5.854   1.481
 2239SOL    HW1 7616   6.981   5.947   1.454
 2239SOL    HW2 7617   0.072   5.829   1.438
 2240SOL     OW 7618   0.099   3.679   1.270
 2240SOL    HW1 7619   0.096   3.638   1.179
 2240SOL    HW2 7620   0.150   3.765   1.266
 2241SOL     OW 7621   1.019   7.008   3.861
 2241SOL    HW1 7622   0.942   6.968   3.911
 2241SOL    HW2 7623   1.083   6.935   3.837
 2242SOL     OW 7624   1.946   1.571   3.321
 2242SOL    HW1 7625   2.036   1.578   3.278
 2242SOL    HW2 7626   1.912   1.662   3.343
 2243SOL     OW 7627   1.370   0.595   4.671
 2243SOL    HW1 7628   1.425   0.525   4.718
 2243SOL    HW2 7629   1.296   0.625   4.732
 2244SOL     OW 7630   3.415   0.343   4.505
 2244SOL    HW1 7631   3.368   0.394   4.576
 2244SOL    HW2 7632   3.412   0.245   4.526
 2245SOL     OW 7633   0.675   2.611   1.600
 2245SOL    HW1 7634   0.736   2.578   1.528
 2245SOL    HW2 7635   0.707   2.576   1.688
 2246SOL     OW 7636   0.740   4.116   4.765
 2246SOL    HW1 7637   0.661   4.132   4.825
 2246SOL    HW2 7638   0.824   4.144   4.811
 2247SOL     OW 7639   2.003   2.447   3.962
 2247SOL    HW1 7640   2.011   2.360   3.913
 2247SOL    HW2 7641   2.035   2.435   4.056
 2248SOL     OW 7642   5.842   3.704   5.785
 2248SOL    HW1 7643   5.751   3.723   5.823
 2248SOL    HW2 7644   5.907   3.688   5.860
 2249SOL     OW 7645   5.655   5.893   4.783
 2249SOL    HW1 7646   5.746   5.852   4.785
 2249SOL    HW2 7647   5.640   5.936   4.693
 2250SOL     OW 7648   4.330   4.594   2.036
 2250SOL    HW1 7649   4.365   4.501   2.024
 2250SOL    HW2 7650   4.262   4.613   1.965
 2251SOL     OW 7651   0.823   1.179   5.370
 2251SOL    HW1 7652   0.908   1.137   5.401
 2251SOL    HW2 7653   0.745   1.136   5.416
 2252SOL     OW 7654   3.352   1.367   6.868
 2252SOL    HW1 7655   3.402   1.444   6.908
 2252SOL    HW2 7656   3.278   1.339   6.930
 2253SOL     OW 7657   0.842   3.900   1.039
 2253SOL    HW1 7658   0.785   3.953   1.103
 2253SOL    HW2 7659   0.938   3.910   1.065
 2254SOL     OW 7660   1.772   5.115   6.075
 2254SOL    HW1 7661   1.736   5.194   6.123
 2254SOL    HW2 7662   1.862   5.137   6.035
 2255SOL     OW 7663   6.860   3.825   6.394
 2255SOL    HW1 7664   6.769   3.848   6.430
 2255SOL    HW2 7665   6.860   3.729   6.364
 2256SOL     OW 7666   3.262   5.801   2.094
 2256SOL    HW1 7667   3.291   5.848   2.177
 2256SOL    HW2 7668   3.180   5.846   2.058
 2257SOL     OW 7669   0.944   4.750   5.928
 2257SOL    HW1 7670   0.989   4.662   5.910
 2257SOL    HW2 7671   0.881   4.740   6.005
 2258SOL     OW 7672   2.352   6.626   6.017
 2258SOL    HW1 7673   2.436   6.640   5.964
 2258SOL    HW2 7674   2.284   6.695   5.990
 2259SOL     OW 7675   6.165   1.641   6.385
 2259SOL    HW1 7676   6.110   1.584   6.324
 2259SOL    HW2 7677   6.132   1.630   6.479
 2260SOL     OW 7678   4.644   3.234   0.800
 2260SOL    HW1 7679   4.623   3.239   0.703
 2260SOL    HW2 7680   4.741   3.253   0.814
 2261SOL     OW 7681   2.413   0.177   5.135
 2261SOL    HW1 7682   2.423   0.180   5.036
 2261SOL    HW2 7683   2.375   0.264   5.167
 2262SOL     OW 7684   2.563   1.603   4.238
 2262SOL    HW1 7685   2.502   1.681   4.242
 2262SOL    HW2 7686   2.542   1.547   4.158
 2263SOL     OW 7687   0.251   4.552   5.732
 2263SOL    HW1 7688   0.230   4.599   5.818
 2263SOL    HW2 7689   0.173   4.560   5.670
 2264SOL     OW 7690   3.589   3.283   4.112
 2264SOL    HW1 7691   3.573   3.312   4.207
 2264SOL    HW2 7692   3.540   3.198   4.094
 2265SOL     OW 7693   0.859   5.900   4.053
 2265SOL    HW1 7694   0.806   5.882   3.970
 2265SOL    HW2 7695   0.952   5.865   4.040
 2266SOL     OW 7696   0.008   0.638   5.330
 2266SOL    HW1 7697   0.040   0.667   5.420
 2266SOL    HW2 7698   0.063   0.560   5.299
 2267SOL     OW 7699   6.041   1.634   5.207
 2267SOL    HW1 7700   6.069   1.573   5.282
 2267SOL    HW2 7701   5.944   1.654   5.216
 2268SOL     OW 7702   0.477   6.908   0.289
 2268SOL    HW1 7703   0.541   6.967   0.339
 2268SOL    HW2 7704   0.408   6.874   0.352
 2269SOL     OW 7705   6.817   6.310   2.892
 2269SOL    HW1 7706   6.834   6.305   2.793
 2269SOL    HW2 7707   6.735   6.364   2.908
 2270SOL     OW 7708   3.624   3.003   3.723
 2270SOL    HW1 7709   3.558   3.001   3.648
 2270SOL    HW2 7710   3.579   2.973   3.808
 2271SOL     OW 7711   1.629   3.743   2.511
 2271SOL    HW1 7712   1.560   3.815   2.522
 2271SOL    HW2 7713   1.614   3.696   2.424
 2272SOL     OW 7714   4.946   0.772   5.836
 2272SOL    HW1 7715   4.954   0.722   5.749
 2272SOL    HW2 7716   4.959   0.870   5.820
 2273SOL     OW 7717   0.156   0.916   1.994
 2273SOL    HW1 7718   0.058   0.936   1.996
 2273SOL    HW2 7719   0.204   0.980   2.055
 2274SOL     OW 7720   6.896   5.048   2.868
 2274SOL    HW1 7721   6.898   5.021   2.772
 2274SOL    HW2 7722   6.865   5.143   2.875
 2275SOL     OW 7723   4.576   6.286   3.607
 2275SOL    HW1 7724   4.532   6.254   3.523
 2275SOL    HW2 7725   4.506   6.313   3.673
 2276SOL     OW 7726   3.606   6.222   2.982
 2276SOL    HW1 7727   3.521   6.174   3.003
 2276SOL    HW2 7728   3.587   6.296   2.917
 2277SOL     OW 7729   3.796   3.119   2.680
 2277SOL    HW1 7730   3.730   3.193   2.695
 2277SOL    HW2 7731   3.761   3.057   2.609
 2278SOL     OW 7732   3.987   4.808   1.106
 2278SOL    HW1 7733   4.050   4.737   1.137
 2278SOL    HW2 7734   3.987   4.811   1.006
 2279SOL     OW 7735   5.435   4.168   5.394
 2279SOL    HW1 7736   5.353   4.188   5.340
 2279SOL    HW2 7737   5.515   4.174   5.335
 2280SOL     OW 7738   5.752   0.967   6.154
 2280SOL    HW1 7739   5.660   0.984   6.119
 2280SOL    HW2 7740   5.748   0.896   6.225
 2281SOL     OW 7741   2.140   0.297   0.464
 2281SOL    HW1 7742   2.142   0.339   0.373
 2281SOL    HW2 7743   2.210   0.339   0.521
 2282SOL     OW 7744   3.829   0.168   2.708
 2282SOL    HW1 7745   3.904   0.195   2.769
 2282SOL    HW2 7746   3.822   0.234   2.633
 2283SOL     OW 7747   0.893   3.130   0.970
 2283SOL    HW1 7748   0.874   3.208   0.910
 2283SOL    HW2 7749   0.984   3.094   0.949
 2284SOL     OW 7750   1.975   2.805   0.712
 2284SOL    HW1 7751   1.958   2.853   0.798
 2284SOL    HW2 7752   1.931   2.716   0.714
 2285SOL     OW 7753   2.491   2.902   0.339
 2285SOL    HW1 7754   2.404   2.942   0.367
 2285SOL    HW2 7755   2.497   2.808   0.374
 2286SOL     OW 7756   6.529   5.817   3.918
 2286SOL    HW1 7757   6.586   5.822   3.836
 2286SOL    HW2 7758   6.457   5.886   3.913
 2287SOL     OW 7759   2.342   1.798   0.728
 2287SOL    HW1 7760   2.308   1.773   0.637
 2287SOL    HW2 7761   2.272   1.778   0.796
 2288SOL     OW 7762   2.939   5.905   4.247
 2288SOL    HW1 7763   2.885   5.921   4.329
 2288SOL    HW2 7764   2.990   5.988   4.224
 2289SOL     OW 7765   4.112   6.983   6.177
 2289SOL    HW1 7766   4.120   0.055   6.140
 2289SOL    HW2 7767   4.027   6.975   6.228
 2290SOL     OW 7768   1.953   3.427   5.886
 2290SOL    HW1 7769   2.004   3.343   5.909
 2290SOL    HW2 7770   1.859   3.418   5.918
 2291SOL     OW 7771   3.293   2.349   0.359
 2291SOL    HW1 7772   3.272   2.443   0.336
 2291SOL    HW2 7773   3.298   2.294   0.275
 2292SOL     OW 7774   4.892   2.030   2.914
 2292SOL    HW1 7775   4.820   2.001   2.977
 2292SOL    HW2 7776   4.885   1.978   2.829
 2293SOL     OW 7777   0.510   0.847   0.056
 2293SOL    HW1 7778   0.585   0.789   0.088
 2293SOL    HW2 7779   0.439   0.853   0.126
 2294SOL     OW 7780   6.666   2.215   5.486
 2294SOL    HW1 7781   6.765   2.197   5.488
 2294SOL    HW2 7782   6.622   2.148   5.426
 2295SOL     OW 7783   5.637   5.341   0.052
 2295SOL    HW1 7784   5.694   5.259   0.045
 2295SOL    HW2 7785   5.551   5.317   0.097
 2296SOL     OW 7786   3.588   5.753   4.632
 2296SOL    HW1 7787   3.660   5.764   4.701
 2296SOL    HW2 7788   3.626   5.710   4.550
 2297SOL     OW 7789   6.483   2.815   0.283
 2297SOL    HW1 7790   6.406   2.845   0.227
 2297SOL    HW2 7791   6.565   2.807   0.226
 2298SOL     OW 7792   2.409   3.448   5.304
 2298SOL    HW1 7793   2.326   3.492   5.269
 2298SOL    HW2 7794   2.476   3.519   5.327
 2299SOL     OW 7795   6.455   3.069   4.648
 2299SOL    HW1 7796   6.379   3.134   4.636
 2299SOL    HW2 7797   6.487   3.038   4.559
 2300SOL     OW 7798   4.392   0.418   3.282
 2300SOL    HW1 7799   4.422   0.509   3.253
 2300SOL    HW2 7800   4.471   0.356   3.283
 2301SOL     OW 7801   4.499   3.250   5.788
 2301SOL    HW1 7802   4.405   3.219   5.772
 2301SOL    HW2 7803   4.557   3.219   5.713
 2302SOL     OW 7804   0.133   3.137   4.618
 2302SOL    HW1 7805   0.210   3.086   4.659
 2302SOL    HW2 7806   0.065   3.155   4.688
 2303SOL     OW 7807   2.638   1.955   6.487
 2303SOL    HW1 7808   2.541   1.932   6.493
 2303SOL    HW2 7809   2.681   1.941   6.576
 2304SOL     OW 7810   3.923   0.095   3.736
 2304SOL    HW1 7811   3.923   0.171   3.670
 2304SOL    HW2 7812   3.871   0.019   3.699
 2305SOL     OW 7813   2.537   6.074   4.822
 2305SOL    HW1 7814   2.603   6.105   4.753
 2305SOL    HW2 7815   2.578   6.001   4.877
 2306SOL     OW 7816   0.566   4.571   5.386
 2306SOL    HW1 7817   0.660   4.542   5.400
 2306SOL    HW2 7818   0.521   4.581   5.475
 2307SOL     OW 7819   5.941   3.997   5.005
 2307SOL    HW1 7820   5.881   4.003   4.925
 2307SOL    HW2 7821   5.938   4.084   5.055
 2308SOL     OW 7822   1.465   6.097   2.901
 2308SOL    HW1 7823   1.476   5.999   2.887
 2308SOL    HW2 7824   1.411   6.136   2.826
 2309SOL     OW 7825   1.999   1.013   4.861
 2309SOL    HW1 7826   1.901   1.015   4.884
 2309SOL    HW2 7827   2.051   1.052   4.937
 2310SOL     OW 7828   5.138   6.257   0.317
 2310SOL    HW1 7829   5.176   6.240   0.408
 2310SOL    HW2 7830   5.213   6.263   0.251
 2311SOL     OW 7831   2.521   5.465   0.620
 2311SOL    HW1 7832   2.529   5.418   0.532
 2311SOL    HW2 7833   2.549   5.560   0.609
 2312SOL     OW 7834   2.577   4.709   2.456
 2312SOL    HW1 7835   2.593   4.687   2.359
 2312SOL    HW2 7836   2.529   4.796   2.462
 2313SOL     OW 7837   4.906   5.437   1.555
 2313SOL    HW1 7838   4.904   5.521   1.500
 2313SOL    HW2 7839   4.961   5.454   1.637
 2314SOL     OW 7840   2.286   4.257   2.738
 2314SOL    HW1 7841   2.312   4.198   2.662
 2314SOL    HW2 7842   2.223   4.328   2.705
 2315SOL     OW 7843   3.764   1.860   6.467
 2315SOL    HW1 7844   3.764   1.935   6.534
 2315SOL    HW2 7845   3.851   1.810   6.474
 2316SOL     OW 7846   6.047   4.530   1.406
 2316SOL    HW1 7847   6.044   4.556   1.503
 2316SOL    HW2 7848   6.089   4.440   1.396
 2317SOL     OW 7849   0.310   6.395   3.428
 2317SOL    HW1 7850   0.238   6.464   3.432
 2317SOL    HW2 7851   0.279   6.318   3.372
 2318SOL     OW 7852   6.616   1.655   3.324
 2318SOL    HW1 7853   6.552   1.599   3.377
 2318SOL    HW2 7854   6.566   1.730   3.281
 2319SOL     OW 7855   1.058   5.563   2.980
 2319SOL    HW1 7856   1.157   5.552   2.982
 2319SOL    HW2 7857   1.035   5.658   3.001
 2320SOL     OW 7858   6.895   4.624   3.089
 2320SOL    HW1 7859   6.832   4.613   3.012
 2320SOL    HW2 7860   6.941   4.713   3.081
 2321SOL     OW 7861   3.337   4.883   3.851
 2321SOL    HW1 7862   3.385   4.797   3.831
 2321SOL    HW2 7863   3.241   4.863   3.871
 2322SOL     OW 7864   2.091   1.961   4.448
 2322SOL    HW1 7865   2.072   1.875   4.496
 2322SOL    HW2 7866   2.060   1.953   4.353
 2323SOL     OW 7867   5.604   3.954   1.279
 2323SOL    HW1 7868   5.571   3.931   1.370
 2323SOL    HW2 7869   5.629   3.870   1.231
 2324SOL     OW 7870   0.720   5.489   3.971
 2324SOL    HW1 7871   0.647   5.425   3.946
 2324SOL    HW2 7872   0.709   5.516   4.067
 2325SOL     OW 7873   6.201   2.063   0.820
 2325SOL    HW1 7874   6.180   1.975   0.863
 2325SOL    HW2 7875   6.282   2.102   0.862
 2326SOL     OW 7876   0.392   5.571   0.258
 2326SOL    HW1 7877   0.390   5.471   0.267
 2326SOL    HW2 7878   0.465   5.608   0.316
 2327SOL     OW 7879   4.886   1.744   2.928
 2327SOL    HW1 7880   4.934   1.802   2.994
 2327SOL    HW2 7881   4.887   1.649   2.961
 2328SOL     OW 7882   6.230   5.196   3.999
 2328SOL    HW1 7883   6.202   5.104   3.971
 2328SOL    HW2 7884   6.150   5.255   4.006
 2329SOL     OW 7885   1.581   6.450   3.501
 2329SOL    HW1 7886   1.665   6.498   3.476
 2329SOL    HW2 7887   1.603   6.359   3.535
 2330SOL     OW 7888   2.141   4.270   0.260
 2330SOL    HW1 7889   2.072   4.333   0.296
 2330SOL    HW2 7890   2.231   4.300   0.290
 2331SOL     OW 7891   1.695   4.902   5.261
 2331SOL    HW1 7892   1.703   4.981   5.199
 2331SOL    HW2 7893   1.659   4.824   5.211
 2332SOL     OW 7894   6.819   3.585   6.288
 2332SOL    HW1 7895   6.761   3.513   6.326
 2332SOL    HW2 7896   6.885   3.546   6.225
 2333SOL     OW 7897   2.419   4.364   3.939
 2333SOL    HW1 7898   2.421   4.391   3.842
 2333SOL    HW2 7899   2.401   4.266   3.945
 2334SOL     OW 7900   2.518   0.079   5.909
 2334SOL    HW1 7901   2.489   0.072   6.004
 2334SOL    HW2 7902   2.476   0.005   5.855
 2335SOL     OW 7903   4.744   4.070   4.318
 2335SOL    HW1 7904   4.727   4.151   4.262
 2335SOL    HW2 7905   4.820   4.088   4.381
 2336SOL     OW 7906   4.637   1.294   5.567
 2336SOL    HW1 7907   4.562   1.278   5.631
 2336SOL    HW2 7908   4.719   1.246   5.599
 2337SOL     OW 7909   5.623   0.802   5.011
 2337SOL    HW1 7910   5.689   0.752   4.956
 2337SOL    HW2 7911   5.530   0.770   4.989
 2338SOL     OW 7912   1.564   6.955   6.882
 2338SOL    HW1 7913   1.653   6.990   6.854
 2338SOL    HW2 7914   1.533   6.886   6.817
 2339SOL     OW 7915   3.542   4.708   6.364
 2339SOL    HW1 7916   3.636   4.716   6.332
 2339SOL    HW2 7917   3.503   4.799   6.377
 2340SOL     OW 7918   4.091   4.890   4.025
 2340SOL    HW1 7919   3.992   4.877   4.022
 2340SOL    HW2 7920   4.134   4.832   3.955
 2341SOL     OW 7921   0.270   3.794   5.732
 2341SOL    HW1 7922   0.227   3.767   5.646
 2341SOL    HW2 7923   0.227   3.744   5.808
 2342SOL     OW 7924   5.364   0.836   5.856
 2342SOL    HW1 7925   5.273   0.879   5.853
 2342SOL    HW2 7926   5.410   0.863   5.940
 2343SOL     OW 7927   1.050   5.804   2.127
 2343SOL    HW1 7928   1.009   5.712   2.126
 2343SOL    HW2 7929   1.102   5.816   2.211
 2344SOL     OW 7930   2.309   0.819   2.921
 2344SOL    HW1 7931   2.274   0.771   2.840
 2344SOL    HW2 7932   2.392   0.869   2.895
 2345SOL     OW 7933   1.271   2.689   2.270
 2345SOL    HW1 7934   1.330   2.657   2.345
 2345SOL    HW2 7935   1.224   2.610   2.229
 2346SOL     OW 7936   5.106   3.107   5.083
 2346SOL    HW1 7937   5.139   3.105   4.989
 2346SOL    HW2 7938   5.107   3.014   5.120
 2347SOL     OW 7939   1.711   3.978   0.831
 2347SOL    HW1 7940   1.681   3.892   0.871
 2347SOL    HW2 7941   1.728   3.966   0.733
 2348SOL     OW 7942   3.151   0.188   1.373
 2348SOL    HW1 7943   3.249   0.172   1.374
 2348SOL    HW2 7944   3.115   0.180   1.466
 2349SOL     OW 7945   5.773   2.701   0.138
 2349SOL    HW1 7946   5.752   2.637   0.212
 2349SOL    HW2 7947   5.725   2.672   0.054
 2350SOL     OW 7948   2.372   5.824   5.562
 2350SOL    HW1 7949   2.363   5.750   5.495
 2350SOL    HW2 7950   2.405   5.787   5.649
 2351SOL     OW 7951   2.024   5.036   3.424
 2351SOL    HW1 7952   2.061   5.098   3.355
 2351SOL    HW2 7953   2.014   5.086   3.510
 2352SOL     OW 7954   5.985   5.646   6.538
 2352SOL    HW1 7955   6.080   5.648   6.568
 2352SOL    HW2 7956   5.942   5.561   6.568
 2353SOL     OW 7957   3.328   2.876   6.243
 2353SOL    HW1 7958   3.232   2.901   6.235
 2353SOL    HW2 7959   3.380   2.955   6.278
 2354SOL     OW 7960   3.440   1.836   2.175
 2354SOL    HW1 7961   3.367   1.900   2.196
 2354SOL    HW2 7962   3.420   1.747   2.217
 2355SOL     OW 7963   0.010   1.362   2.020
 2355SOL    HW1 7964   0.005   1.291   2.090
 2355SOL    HW2 7965   0.093   1.349   1.966
 2356SOL     OW 7966   3.625   4.991   3.755
 2356SOL    HW1 7967   3.720   4.960   3.755
 2356SOL    HW2 7968   3.599   5.017   3.849
 2357SOL     OW 7969   0.931   5.811   1.186
 2357SOL    HW1 7970   0.959   5.874   1.258
 2357SOL    HW2 7971   0.898   5.726   1.227
 2358SOL     OW 7972   2.164   0.751   5.625
 2358SOL    HW1 7973   2.197   0.753   5.530
 2358SOL    HW2 7974   2.242   0.758   5.687
 2359SOL     OW 7975   3.404   2.752   6.023
 2359SOL    HW1 7976   3.326   2.690   6.018
 2359SOL    HW2 7977   3.403   2.799   6.112
 2360SOL     OW 7978   3.023   4.943   1.156
 2360SOL    HW1 7979   3.000   4.937   1.059
 2360SOL    HW2 7980   3.102   4.885   1.175
 2361SOL     OW 7981   3.512   4.888   1.379
 2361SOL    HW1 7982   3.424   4.931   1.363
 2361SOL    HW2 7983   3.571   4.901   1.299
 2362SOL     OW 7984   2.738   4.986   4.284
 2362SOL    HW1 7985   2.799   4.955   4.358
 2362SOL    HW2 7986   2.745   4.922   4.207
 2363SOL     OW 7987   2.618   3.878   1.376
 2363SOL    HW1 7988   2.656   3.786   1.384
 2363SOL    HW2 7989   2.523   3.872   1.344
 2364SOL     OW 7990   4.896   0.862   2.497
 2364SOL    HW1 7991   4.990   0.842   2.466
 2364SOL    HW2 7992   4.897   0.945   2.552
 2365SOL     OW 7993   5.993   3.938   2.766
 2365SOL    HW1 7994   5.994   3.894   2.855
 2365SOL    HW2 7995   6.042   3.881   2.700
 2366SOL     OW 7996   3.539   5.443   5.301
 2366SOL    HW1 7997   3.531   5.520   5.237
 2366SOL    HW2 7998   3.624   5.394   5.284
 2367SOL     OW 7999   6.059   4.396   5.398
 2367SOL    HW1 8000   5.974   4.371   5.350
 2367SOL    HW2 8001   6.073   4.334   5.475
 2368SOL     OW 8002   5.344   1.264   5.368
 2368SOL    HW1 8003   5.294   1.177   5.372
 2368SOL    HW2 8004   5.315   1.321   5.445
 2369SOL     OW 8005   3.924   1.824   4.008
 2369SOL    HW1 8006   3.825   1.823   4.025
 2369SOL    HW2 8007   3.950   1.915   3.973
 2370SOL     OW 8008   3.976   1.881   0.990
 2370SOL    HW1 8009   4.040   1.823   0.941
 2370SOL    HW2 8010   3.904   1.825   1.030
 2371SOL     OW 8011   2.776   6.818   3.136
 2371SOL    HW1 8012   2.689   6.859   3.109
 2371SOL    HW2 8013   2.806   6.858   3.223
 2372SOL     OW 8014   6.066   6.738   6.191
 2372SOL    HW1 8015   6.011   6.738   6.107
 2372SOL    HW2 8016   6.093   6.832   6.213
 2373SOL     OW 8017   6.496   4.046   5.594
 2373SOL    HW1 8018   6.418   3.990   5.567
 2373SOL    HW2 8019   6.463   4.130   5.638
 2374SOL     OW 8020   0.418   5.816   2.904
 2374SOL    HW1 8021   0.446   5.910   2.886
 2374SOL    HW2 8022   0.448   5.789   2.995
 2375SOL     OW 8023   1.587   0.173   4.684
 2375SOL    HW1 8024   1.597   0.075   4.665
 2375SOL    HW2 8025   1.674   0.210   4.716
 2376SOL     OW 8026   5.636   3.203   3.616
 2376SOL    HW1 8027   5.580   3.238   3.541
 2376SOL    HW2 8028   5.693   3.276   3.653
 2377SOL     OW 8029   3.661   4.668   5.979
 2377SOL    HW1 8030   3.689   4.587   6.030
 2377SOL    HW2 8031   3.638   4.741   6.043
 2378SOL     OW 8032   0.728   0.294   0.450
 2378SOL    HW1 8033   0.772   0.378   0.418
 2378SOL    HW2 8034   0.640   0.282   0.405
 2379SOL     OW 8035   0.664   4.806   2.406
 2379SOL    HW1 8036   0.569   4.809   2.376
 2379SOL    HW2 8037   0.668   4.805   2.506
 2380SOL     OW 8038   4.561   5.800   6.601
 2380SOL    HW1 8039   4.476   5.852   6.595
 2380SOL    HW2 8040   4.628   5.837   6.537
 2381SOL     OW 8041   2.065   3.907   3.909
 2381SOL    HW1 8042   2.110   3.873   3.826
 2381SOL    HW2 8043   2.008   3.834   3.947
 2382SOL     OW 8044   6.412   6.186   2.675
 2382SOL    HW1 8045   6.498   6.236   2.673
 2382SOL    HW2 8046   6.346   6.231   2.615
 2383SOL     OW 8047   5.384   4.094   6.228
 2383SOL    HW1 8048   5.459   4.038   6.194
 2383SOL    HW2 8049   5.420   4.169   6.284
 2384SOL     OW 8050   1.189   1.970   3.340
 2384SOL    HW1 8051   1.219   2.053   3.294
 2384SOL    HW2 8052   1.220   1.890   3.288
 2385SOL     OW 8053   0.489   0.889   0.830
 2385SOL    HW1 8054   0.498   0.802   0.782
 2385SOL    HW2 8055   0.577   0.937   0.829
 2386SOL     OW 8056   6.730   4.742   6.216
 2386SOL    HW1 8057   6.630   4.743   6.213
 2386SOL    HW2 8058   6.766   4.778   6.130
 2387SOL     OW 8059   6.881   0.308   3.019
 2387SOL    HW1 8060   6.924   0.365   3.089
 2387SOL    HW2 8061   6.886   0.212   3.047
 2388SOL     OW 8062   1.977   4.156   3.769
 2388SOL    HW1 8063   2.029   4.182   3.850
 2388SOL    HW2 8064   1.976   4.057   3.760
 2389SOL     OW 8065   3.594   0.343   2.776
 2389SOL    HW1 8066   3.524   0.288   2.731
 2389SOL    HW2 8067   3.683   0.297   2.769
 2390SOL     OW 8068   4.965   3.125   5.330
 2390SOL    HW1 8069   5.028   3.155   5.259
 2390SOL    HW2 8070   5.017   3.108   5.414
 2391SOL     OW 8071   2.577   3.877   6.256
 2391SOL    HW1 8072   2.671   3.852   6.231
 2391SOL    HW2 8073   2.546   3.952   6.197
 2392SOL     OW 8074   4.028   5.130   5.704
 2392SOL    HW1 8075   4.064   5.076   5.780
 2392SOL    HW2 8076   4.095   5.199   5.678
 2393SOL     OW 8077   4.337   4.558   0.150
 2393SOL    HW1 8078   4.309   4.463   0.163
 2393SOL    HW2 8079   4.437   4.565   0.156
 2394SOL     OW 8080   6.863   2.690   3.244
 2394SOL    HW1 8081   6.816   2.711   3.159
 2394SOL    HW2 8082   6.961   2.679   3.226
 2395SOL     OW 8083   1.236   2.323   3.802
 2395SOL    HW1 8084   1.170   2.277   3.742
 2395SOL    HW2 8085   1.244   2.419   3.775
 2396SOL     OW 8086   0.491   0.478   6.147
 2396SOL    HW1 8087   0.453   0.445   6.060
 2396SOL    HW2 8088   0.449   0.566   6.170
 2397SOL     OW 8089   2.104   4.798   6.076
 2397SOL    HW1 8090   2.122   4.738   5.998
 2397SOL    HW2 8091   2.189   4.815   6.125
 2398SOL     OW 8092   4.014   6.413   4.663
 2398SOL    HW1 8093   4.009   6.512   4.653
 2398SOL    HW2 8094   3.969   6.369   4.585
 2399SOL     OW 8095   3.071   1.773   2.507
 2399SOL    HW1 8096   2.981   1.769   2.464
 2399SOL    HW2 8097   3.138   1.726   2.450
 2400SOL     OW 8098   1.253   2.122   6.551
 2400SOL    HW1 8099   1.213   2.208   6.581
 2400SOL    HW2 8100   1.316   2.088   6.621
 2401SOL     OW 8101   1.225   6.806   1.004
 2401SOL    HW1 8102   1.319   6.773   1.008
 2401SOL    HW2 8103   1.224   6.904   0.985
 2402SOL     OW 8104   0.360   3.096   1.674
 2402SOL    HW1 8105   0.411   3.071   1.593
 2402SOL    HW2 8106   0.269   3.053   1.672
 2403SOL     OW 8107   3.064   4.379   5.285
 2403SOL    HW1 8108   3.031   4.295   5.327
 2403SOL    HW2 8109   2.987   4.429   5.245
 2404SOL     OW 8110   6.254   1.939   2.210
 2404SOL    HW1 8111   6.191   1.940   2.132
 2404SOL    HW2 8112   6.308   2.023   2.211
 2405SOL     OW 8113   2.592   3.183   0.581
 2405SOL    HW1 8114   2.571   3.099   0.631
 2405SOL    HW2 8115   2.507   3.227   0.553
 2406SOL     OW 8116   4.237   5.876   5.249
 2406SOL    HW1 8117   4.212   5.809   5.319
 2406SOL    HW2 8118   4.214   5.840   5.159
 2407SOL     OW 8119   2.056   1.879   3.498
 2407SOL    HW1 8120   2.139   1.907   3.450
 2407SOL    HW2 8121   2.081   1.819   3.574
 2408SOL     OW 8122   4.454   6.806   5.222
 2408SOL    HW1 8123   4.547   6.826   5.190
 2408SOL    HW2 8124   4.452   6.812   5.322
 2409SOL     OW 8125   1.175   3.281   6.773
 2409SOL    HW1 8126   1.233   3.312   6.848
 2409SOL    HW2 8127   1.206   3.324   6.688
 2410SOL     OW 8128   6.520   3.758   4.687
 2410SOL    HW1 8129   6.612   3.728   4.664
 2410SOL    HW2 8130   6.478   3.802   4.608
 2411SOL     OW 8131   2.917   1.509   1.153
 2411SOL    HW1 8132   2.867   1.573   1.211
 2411SOL    HW2 8133   2.941   1.555   1.067
 2412SOL     OW 8134   3.590   2.485   0.132
 2412SOL    HW1 8135   3.559   2.428   0.056
 2412SOL    HW2 8136   3.522   2.556   0.149
 2413SOL     OW 8137   6.570   3.670   6.152
 2413SOL    HW1 8138   6.651   3.630   6.195
 2413SOL    HW2 8139   6.498   3.600   6.146
 2414SOL     OW 8140   6.386   1.687   4.610
 2414SOL    HW1 8141   6.373   1.752   4.686
 2414SOL    HW2 8142   6.483   1.665   4.602
 2415SOL     OW 8143   3.216   3.956   5.270
 2415SOL    HW1 8144   3.193   4.047   5.236
 2415SOL    HW2 8145   3.284   3.963   5.343
 2416SOL     OW 8146   6.971   3.418   3.512
 2416SOL    HW1 8147   0.009   3.479   3.565
 2416SOL    HW2 8148   6.876   3.448   3.521
 2417SOL     OW 8149   3.477   2.657   1.751
 2417SOL    HW1 8150   3.440   2.656   1.658
 2417SOL    HW2 8151   3.468   2.749   1.789
 2418SOL     OW 8152   6.040   3.447   6.510
 2418SOL    HW1 8153   5.961   3.388   6.495
 2418SOL    HW2 8154   6.122   3.391   6.520
 2419SOL     OW 8155   3.463   0.925   2.796
 2419SOL    HW1 8156   3.467   0.954   2.892
 2419SOL    HW2 8157   3.500   0.998   2.738
 2420SOL     OW 8158   0.941   3.024   1.301
 2420SOL    HW1 8159   0.846   3.002   1.322
 2420SOL    HW2 8160   0.989   2.942   1.270
 2421SOL     OW 8161   2.841   0.395   3.059
 2421SOL    HW1 8162   2.910   0.465   3.039
 2421SOL    HW2 8163   2.765   0.436   3.108
 2422SOL     OW 8164   3.662   6.673   0.502
 2422SOL    HW1 8165   3.565   6.677   0.526
 2422SOL    HW2 8166   3.713   6.737   0.559
 2423SOL     OW 8167   3.631   4.936   4.650
 2423SOL    HW1 8168   3.611   4.946   4.748
 2423SOL    HW2 8169   3.545   4.935   4.599
 2424SOL     OW 8170   5.088   0.360   6.298
 2424SOL    HW1 8171   5.153   0.402   6.234
 2424SOL    HW2 8172   4.997   0.395   6.280
 2425SOL     OW 8173   4.599   5.258   4.899
 2425SOL    HW1 8174   4.675   5.244   4.836
 2425SOL    HW2 8175   4.568   5.169   4.934
 2426SOL     OW 8176   3.107   2.393   5.499
 2426SOL    HW1 8177   3.088   2.487   5.468
 2426SOL    HW2 8178   3.175   2.351   5.438
 2427SOL     OW 8179   4.448   1.939   6.978
 2427SOL    HW1 8180   4.489   2.007   0.018
 2427SOL    HW2 8181   4.485   1.849   7.000
 2428SOL     OW 8182   1.722   1.725   2.457
 2428SOL    HW1 8183   1.697   1.793   2.389
 2428SOL    HW2 8184   1.663   1.733   2.537
 2429SOL     OW 8185   5.233   5.926   1.874
 2429SOL    HW1 8186   5.168   5.851   1.864
 2429SOL    HW2 8187   5.202   6.005   1.821
 2430SOL     OW 8188   6.549   6.811   0.029
 2430SOL    HW1 8189   6.564   6.869   6.971
 2430SOL    HW2 8190   6.589   6.853   0.110
 2431SOL     OW 8191   1.809   2.159   1.246
 2431SOL    HW1 8192   1.861   2.239   1.216
 2431SOL    HW2 8193   1.807   2.091   1.173
 2432SOL     OW 8194   3.186   6.222   2.528
 2432SOL    HW1 8195   3.249   6.221   2.449
 2432SOL    HW2 8196   3.114   6.290   2.513
 2433SOL     OW 8197   0.621   4.360   4.050
 2433SOL    HW1 8198   0.697   4.397   4.103
 2433SOL    HW2 8199   0.641   4.367   3.952
 2434SOL     OW 8200   3.851   2.019   2.850
 2434SOL    HW1 8201   3.813   2.080   2.780
 2434SOL    HW2 8202   3.891   2.073   2.923
 2435SOL     OW 8203   5.858   6.807   5.991
 2435SOL    HW1 8204   5.815   6.879   6.045
 2435SOL    HW2 8205   5.787   6.750   5.949
 2436SOL     OW 8206   0.286   2.451   0.231
 2436SOL    HW1 8207   0.311   2.422   0.139
 2436SOL    HW2 8208   0.331   2.393   0.299
 2437SOL     OW 8209   1.210   4.719   1.392
 2437SOL    HW1 8210   1.141   4.680   1.330
 2437SOL    HW2 8211   1.294   4.666   1.384
 2438SOL     OW 8212   3.642   1.865   4.371
 2438SOL    HW1 8213   3.675   1.868   4.276
 2438SOL    HW2 8214   3.579   1.941   4.387
 2439SOL     OW 8215   0.411   5.909   6.865
 2439SOL    HW1 8216   0.451   5.882   6.778
 2439SOL    HW2 8217   0.470   5.878   6.940
 2440SOL     OW 8218   6.568   2.510   5.134
 2440SOL    HW1 8219   6.624   2.507   5.217
 2440SOL    HW2 8220   6.501   2.584   5.143
 2441SOL     OW 8221   6.447   0.357   0.082
 2441SOL    HW1 8222   6.403   0.420   0.018
 2441SOL    HW2 8223   6.382   0.286   0.109
 2442SOL     OW 8224   5.485   2.978   2.702
 2442SOL    HW1 8225   5.463   3.037   2.779
 2442SOL    HW2 8226   5.407   2.919   2.681
 2443SOL     OW 8227   0.538   3.076   0.950
 2443SOL    HW1 8228   0.551   3.120   0.862
 2443SOL    HW2 8229   0.620   3.024   0.974
 2444SOL     OW 8230   3.331   5.199   2.721
 2444SOL    HW1 8231   3.300   5.178   2.628
 2444SOL    HW2 8232   3.386   5.283   2.720
 2445SOL     OW 8233   0.625   1.847   1.221
 2445SOL    HW1 8234   0.631   1.757   1.264
 2445SOL    HW2 8235   0.577   1.839   1.134
 2446SOL     OW 8236   6.692   5.585   0.719
 2446SOL    HW1 8237   6.622   5.529   0.763
 2446SOL    HW2 8238   6.660   5.613   0.629
 2447SOL     OW 8239   2.150   6.916   6.905
 2447SOL    HW1 8240   2.241   6.931   6.942
 2447SOL    HW2 8241   2.154   6.845   6.834
 2448SOL     OW 8242   5.468   0.649   4.185
 2448SOL    HW1 8243   5.491   0.601   4.100
 2448SOL    HW2 8244   5.538   0.718   4.204
 2449SOL     OW 8245   2.043   3.684   1.167
 2449SOL    HW1 8246   2.138   3.655   1.161
 2449SOL    HW2 8247   1.993   3.624   1.229
 2450SOL     OW 8248   6.646   6.545   5.223
 2450SOL    HW1 8249   6.556   6.502   5.209
 2450SOL    HW2 8250   6.677   6.528   5.317
 2451SOL     OW 8251   1.813   6.794   7.005
 2451SOL    HW1 8252   1.844   6.838   6.920
 2451SOL    HW2 8253   1.717   6.766   6.994
 2452SOL     OW 8254   1.976   2.303   3.377
 2452SOL    HW1 8255   1.934   2.213   3.370
 2452SOL    HW2 8256   2.046   2.313   3.306
 2453SOL     OW 8257   1.110   2.326   6.349
 2453SOL    HW1 8258   1.191   2.377   6.376
 2453SOL    HW2 8259   1.128   2.278   6.263
 2454SOL     OW 8260   2.733   6.599   0.076
 2454SOL    HW1 8261   2.793   6.533   0.122
 2454SOL    HW2 8262   2.757   6.691   0.106
 2455SOL     OW 8263   4.858   2.002   0.173
 2455SOL    HW1 8264   4.873   2.040   0.264
 2455SOL    HW2 8265   4.893   2.066   0.104
 2456SOL     OW 8266   0.926   3.492   5.931
 2456SOL    HW1 8267   0.978   3.578   5.933
 2456SOL    HW2 8268   0.894   3.471   6.024
 2457SOL     OW 8269   5.208   1.639   5.969
 2457SOL    HW1 8270   5.254   1.728   5.972
 2457SOL    HW2 8271   5.115   1.648   6.005
 2458SOL     OW 8272   1.311   0.150   2.272
 2458SOL    HW1 8273   1.352   0.059   2.273
 2458SOL    HW2 8274   1.317   0.189   2.180
 2459SOL     OW 8275   1.531   6.552   1.378
 2459SOL    HW1 8276   1.457   6.530   1.314
 2459SOL    HW2 8277   1.575   6.467   1.408
 2460SOL     OW 8278   0.396   0.807   4.320
 2460SOL    HW1 8279   0.415   0.833   4.415
 2460SOL    HW2 8280   0.472   0.754   4.284
 2461SOL     OW 8281   2.512   1.564   3.117
 2461SOL    HW1 8282   2.442   1.578   3.186
 2461SOL    HW2 8283   2.603   1.574   3.158
 2462SOL     OW 8284   0.486   6.153   0.575
 2462SOL    HW1 8285   0.500   6.109   0.486
 2462SOL    HW2 8286   0.486   6.084   0.647
 2463SOL     OW 8287   6.980   6.795   0.857
 2463SOL    HW1 8288   6.881   6.796   0.845
 2463SOL    HW2 8289   7.004   6.844   0.941
 2464SOL     OW 8290   0.950   2.396   4.886
 2464SOL    HW1 8291   0.876   2.460   4.902
 2464SOL    HW2 8292   1.033   2.446   4.862
 2465SOL     OW 8293   6.529   1.462   0.314
 2465SOL    HW1 8294   6.587   1.404   0.372
 2465SOL    HW2 8295   6.480   1.406   0.248
 2466SOL     OW 8296   0.982   2.083   1.180
 2466SOL    HW1 8297   0.974   2.179   1.153
 2466SOL    HW2 8298   0.948   2.024   1.107
 2467SOL     OW 8299   5.278   2.383   5.102
 2467SOL    HW1 8300   5.238   2.306   5.052
 2467SOL    HW2 8301   5.227   2.466   5.081
 2468SOL     OW 8302   2.680   0.008   4.186
 2468SOL    HW1 8303   2.697   7.000   4.280
 2468SOL    HW2 8304   2.736   6.975   4.123
 2469SOL     OW 8305   2.891   1.503   6.145
 2469SOL    HW1 8306   2.985   1.519   6.117
 2469SOL    HW2 8307   2.871   1.405   6.141
 2470SOL     OW 8308   1.700   5.481   6.608
 2470SOL    HW1 8309   1.780   5.541   6.619
 2470SOL    HW2 8310   1.718   5.415   6.535
 2471SOL     OW 8311   3.131   5.722   2.864
 2471SOL    HW1 8312   3.094   5.758   2.949
 2471SOL    HW2 8313   3.073   5.647   2.831
 2472SOL     OW 8314   5.100   1.058   2.847
 2472SOL    HW1 8315   5.123   1.114   2.927
 2472SOL    HW2 8316   5.001   1.058   2.834
 2473SOL     OW 8317   0.929   4.132   4.564
 2473SOL    HW1 8318   0.933   4.033   4.551
 2473SOL    HW2 8319   0.855   4.154   4.627
 2474SOL     OW 8320   1.685   0.048   0.865
 2474SOL    HW1 8321   1.628   7.001   0.817
 2474SOL    HW2 8322   1.677   0.034   0.964
 2475SOL     OW 8323   5.517   1.973   0.695
 2475SOL    HW1 8324   5.548   2.020   0.612
 2475SOL    HW2 8325   5.591   1.973   0.762
 2476SOL     OW 8326   4.919   0.090   6.963
 2476SOL    HW1 8327   4.949   0.117   0.033
 2476SOL    HW2 8328   4.873   0.167   6.919
 2477SOL     OW 8329   3.364   1.585   3.537
 2477SOL    HW1 8330   3.436   1.653   3.547
 2477SOL    HW2 8331   3.371   1.517   3.611
 2478SOL     OW 8332   3.526   0.563   4.337
 2478SOL    HW1 8333   3.546   0.506   4.258
 2478SOL    HW2 8334   3.450   0.525   4.388
 2479SOL     OW 8335   6.139   4.479   1.707
 2479SOL    HW1 8336   6.194   4.556   1.675
 2479SOL    HW2 8337   6.191   4.394   1.694
 2480SOL     OW 8338   3.178   2.197   1.553
 2480SOL    HW1 8339   3.208   2.103   1.539
 2480SOL    HW2 8340   3.081   2.204   1.530
 2481SOL     OW 8341   2.954   6.954   2.226
 2481SOL    HW1 8342   2.928   6.898   2.305
 2481SOL    HW2 8343   2.929   6.906   2.142
 2482SOL     OW 8344   6.966   3.461   6.883
 2482SOL    HW1 8345   6.895   3.406   6.928
 2482SOL    HW2 8346   6.933   3.492   6.794
 2483SOL     OW 8347   2.317   2.154   1.513
 2483SOL    HW1 8348   2.326   2.119   1.607
 2483SOL    HW2 8349   2.404   2.141   1.465
 2484SOL     OW 8350   4.592   0.554   6.417
 2484SOL    HW1 8351   4.513   0.552   6.355
 2484SOL    HW2 8352   4.580   0.627   6.484
 2485SOL     OW 8353   0.438   1.573   6.595
 2485SOL    HW1 8354   0.436   1.587   6.694
 2485SOL    HW2 8355   0.532   1.574   6.562
 2486SOL     OW 8356   6.375   6.141   3.455
 2486SOL    HW1 8357   6.448   6.149   3.386
 2486SOL    HW2 8358   6.364   6.045   3.480
 2487SOL     OW 8359   4.472   6.371   0.243
 2487SOL    HW1 8360   4.507   6.319   0.321
 2487SOL    HW2 8361   4.535   6.361   0.165
 2488SOL     OW 8362   6.899   3.894   0.561
 2488SOL    HW1 8363   6.872   3.930   0.651
 2488SOL    HW2 8364   6.897   3.794   0.564
 2489SOL     OW 8365   6.127   5.652   4.900
 2489SOL    HW1 8366   6.117   5.693   4.991
 2489SOL    HW2 8367   6.149   5.555   4.910
 2490SOL     OW 8368   2.816   5.882   2.165
 2490SOL    HW1 8369   2.858   5.875   2.255
 2490SOL    HW2 8370   2.876   5.932   2.103
 2491SOL     OW 8371   4.033   4.795   1.660
 2491SOL    HW1 8372   4.021   4.885   1.618
 2491SOL    HW2 8373   3.950   4.741   1.650
 2492SOL     OW 8374   6.884   5.302   1.613
 2492SOL    HW1 8375   6.851   5.329   1.523
 2492SOL    HW2 8376   6.906   5.384   1.667
 2493SOL     OW 8377   6.201   6.171   0.764
 2493SOL    HW1 8378   6.165   6.150   0.673
 2493SOL    HW2 8379   6.197   6.270   0.779
 2494SOL     OW 8380   6.872   4.017   0.814
 2494SOL    HW1 8381   6.873   4.032   0.913
 2494SOL    HW2 8382   6.788   4.057   0.775
 2495SOL     OW 8383   6.784   3.103   2.258
 2495SOL    HW1 8384   6.854   3.174   2.249
 2495SOL    HW2 8385   6.760   3.068   2.167
 2496SOL     OW 8386   5.654   3.976   6.150
 2496SOL    HW1 8387   5.742   3.940   6.118
 2496SOL    HW2 8388   5.625   4.051   6.090
 2497SOL     OW 8389   0.740   6.929   3.859
 2497SOL    HW1 8390   0.766   6.954   3.952
 2497SOL    HW2 8391   0.714   6.832   3.857
 2498SOL     OW 8392   2.173   3.515   4.580
 2498SOL    HW1 8393   2.139   3.540   4.489
 2498SOL    HW2 8394   2.185   3.599   4.634
 2499SOL     OW 8395   6.263   3.595   1.774
 2499SOL    HW1 8396   6.269   3.607   1.675
 2499SOL    HW2 8397   6.349   3.557   1.808
 2500SOL     OW 8398   3.401   3.502   2.248
 2500SOL    HW1 8399   3.436   3.567   2.316
 2500SOL    HW2 8400   3.462   3.422   2.245
 2501SOL     OW 8401   6.201   5.524   5.154
 2501SOL    HW1 8402   6.270   5.567   5.212
 2501SOL    HW2 8403   6.210   5.424   5.159
 2502SOL     OW 8404   2.818   5.564   3.914
 2502SOL    HW1 8405   2.807   5.518   3.826
 2502SOL    HW2 8406   2.743   5.538   3.975
 2503SOL     OW 8407   2.273   0.176   5.480
 2503SOL    HW1 8408   2.253   0.132   5.393
 2503SOL    HW2 8409   2.188   0.208   5.522
 2504SOL     OW 8410   4.200   0.254   3.090
 2504SOL    HW1 8411   4.267   0.198   3.040
 2504SOL    HW2 8412   4.243   0.291   3.172
 2505SOL     OW 8413   5.493   4.549   4.369
 2505SOL    HW1 8414   5.527   4.456   4.383
 2505SOL    HW2 8415   5.456   4.557   4.276
 2506SOL     OW 8416   6.087   5.183   6.401
 2506SOL    HW1 8417   6.142   5.101   6.388
 2506SOL    HW2 8418   6.141   5.264   6.377
 2507SOL     OW 8419   6.290   3.822   3.498
 2507SOL    HW1 8420   6.249   3.833   3.588
 2507SOL    HW2 8421   6.217   3.812   3.430
 2508SOL     OW 8422   5.731   1.111   3.700
 2508SOL    HW1 8423   5.703   1.053   3.623
 2508SOL    HW2 8424   5.823   1.147   3.683
 2509SOL     OW 8425   0.228   2.947   6.148
 2509SOL    HW1 8426   0.250   3.041   6.122
 2509SOL    HW2 8427   0.231   2.889   6.067
 2510SOL     OW 8428   3.220   4.017   2.500
 2510SOL    HW1 8429   3.162   4.093   2.471
 2510SOL    HW2 8430   3.252   3.967   2.420
 2511SOL     OW 8431   2.335   0.842   4.527
 2511SOL    HW1 8432   2.267   0.876   4.462
 2511SOL    HW2 8433   2.293   0.836   4.618
 2512SOL     OW 8434   3.556   4.942   3.479
 2512SOL    HW1 8435   3.560   4.921   3.577
 2512SOL    HW2 8436   3.636   4.997   3.453
 2513SOL     OW 8437   1.911   5.667   6.386
 2513SOL    HW1 8438   1.825   5.655   6.336
 2513SOL    HW2 8439   1.958   5.579   6.393
 2514SOL     OW 8440   1.013   2.106   2.618
 2514SOL    HW1 8441   0.983   2.199   2.641
 2514SOL    HW2 8442   1.047   2.103   2.524
 2515SOL     OW 8443   6.898   1.751   1.119
 2515SOL    HW1 8444   6.866   1.803   1.199
 2515SOL    HW2 8445   6.860   1.792   1.036
 2516SOL     OW 8446   6.679   2.509   4.890
 2516SOL    HW1 8447   6.597   2.487   4.837
 2516SOL    HW2 8448   6.654   2.521   4.986
 2517SOL     OW 8449   0.249   1.479   4.645
 2517SOL    HW1 8450   0.162   1.522   4.622
 2517SOL    HW2 8451   0.234   1.414   4.720
 2518SOL     OW 8452   3.141   3.903   1.312
 2518SOL    HW1 8453   3.058   3.930   1.362
 2518SOL    HW2 8454   3.178   3.819   1.352
 2519SOL     OW 8455   1.135   1.270   0.561
 2519SOL    HW1 8456   1.042   1.271   0.598
 2519SOL    HW2 8457   1.156   1.179   0.526
 2520SOL     OW 8458   2.721   2.782   1.133
 2520SOL    HW1 8459   2.667   2.863   1.108
 2520SOL    HW2 8460   2.660   2.711   1.169
 2521SOL     OW 8461   5.145   0.542   5.358
 2521SOL    HW1 8462   5.165   0.506   5.449
 2521SOL    HW2 8463   5.065   0.495   5.320
 2522SOL     OW 8464   1.899   1.970   0.205
 2522SOL    HW1 8465   1.890   1.916   0.121
 2522SOL    HW2 8466   1.919   2.065   0.181
 2523SOL     OW 8467   0.999   5.504   5.693
 2523SOL    HW1 8468   1.042   5.491   5.604
 2523SOL    HW2 8469   0.942   5.587   5.690
 2524SOL     OW 8470   1.143   2.124   4.975
 2524SOL    HW1 8471   1.172   2.218   4.993
 2524SOL    HW2 8472   1.187   2.091   4.892
 2525SOL     OW 8473   6.531   2.478   5.944
 2525SOL    HW1 8474   6.587   2.514   5.870
 2525SOL    HW2 8475   6.450   2.535   5.957
 2526SOL     OW 8476   1.733   0.851   0.659
 2526SOL    HW1 8477   1.798   0.926   0.670
 2526SOL    HW2 8478   1.743   0.787   0.735
 2527SOL     OW 8479   4.090   5.392   6.758
 2527SOL    HW1 8480   4.150   5.328   6.805
 2527SOL    HW2 8481   4.145   5.454   6.701
 2528SOL     OW 8482   4.708   5.315   6.135
 2528SOL    HW1 8483   4.746   5.341   6.046
 2528SOL    HW2 8484   4.608   5.312   6.129
 2529SOL     OW 8485   0.075   5.829   5.278
 2529SOL    HW1 8486   0.168   5.837   5.314
 2529SOL    HW2 8487   0.043   5.735   5.288
 2530SOL     OW 8488   2.277   5.851   6.924
 2530SOL    HW1 8489   2.177   5.852   6.920
 2530SOL    HW2 8490   2.307   5.783   6.991
 2531SOL     OW 8491   0.500   4.480   6.038
 2531SOL    HW1 8492   0.546   4.468   6.126
 2531SOL    HW2 8493   0.408   4.441   6.043
 2532SOL     OW 8494   5.704   5.910   2.300
 2532SOL    HW1 8495   5.761   5.985   2.332
 2532SOL    HW2 8496   5.632   5.891   2.368
 2533SOL     OW 8497   4.287   0.818   3.962
 2533SOL    HW1 8498   4.331   0.877   3.894
 2533SOL    HW2 8499   4.190   0.807   3.939
 2534SOL     OW 8500   4.706   1.463   2.684
 2534SOL    HW1 8501   4.780   1.487   2.620
 2534SOL    HW2 8502   4.636   1.534   2.681
 2535SOL     OW 8503   3.570   3.110   6.451
 2535SOL    HW1 8504   3.471   3.094   6.450
 2535SOL    HW2 8505   3.589   3.205   6.429
 2536SOL     OW 8506   1.125   0.305   0.786
 2536SOL    HW1 8507   1.037   0.299   0.738
 2536SOL    HW2 8508   1.111   0.287   0.883
 2537SOL     OW 8509   4.266   6.354   4.754
 2537SOL    HW1 8510   4.187   6.358   4.694
 2537SOL    HW2 8511   4.243   6.396   4.842
 2538SOL     OW 8512   5.554   3.886   3.719
 2538SOL    HW1 8513   5.512   3.824   3.653
 2538SOL    HW2 8514   5.650   3.902   3.693
 2539SOL     OW 8515   5.013   2.241   5.385
 2539SOL    HW1 8516   4.997   2.173   5.314
 2539SOL    HW2 8517   5.102   2.224   5.427
 2540SOL     OW 8518   2.707   2.366   1.740
 2540SOL    HW1 8519   2.664   2.307   1.808
 2540SOL    HW2 8520   2.789   2.408   1.778
 2541SOL     OW 8521   3.227   7.020   3.634
 2541SOL    HW1 8522   3.223   0.052   3.549
 2541SOL    HW2 8523   3.137   0.001   3.679
 2542SOL     OW 8524   2.056   5.693   5.587
 2542SOL    HW1 8525   2.014   5.763   5.528
 2542SOL    HW2 8526   2.080   5.613   5.532
 2543SOL     OW 8527   0.714   0.933   4.095
 2543SOL    HW1 8528   0.743   0.850   4.046
 2543SOL    HW2 8529   0.668   0.995   4.031
 2544SOL     OW 8530   0.666   5.425   6.120
 2544SOL    HW1 8531   0.765   5.435   6.122
 2544SOL    HW2 8532   0.624   5.502   6.169
 2545SOL     OW 8533   2.492   5.546   2.996
 2545SOL    HW1 8534   2.473   5.588   3.084
 2545SOL    HW2 8535   2.450   5.599   2.923
 2546SOL     OW 8536   6.804   0.836   1.848
 2546SOL    HW1 8537   6.797   0.854   1.750
 2546SOL    HW2 8538   6.800   0.737   1.864
 2547SOL     OW 8539   0.520   3.770   5.347
 2547SOL    HW1 8540   0.490   3.693   5.403
 2547SOL    HW2 8541   0.500   3.752   5.251
 2548SOL     OW 8542   0.381   0.748   6.183
 2548SOL    HW1 8543   0.440   0.822   6.216
 2548SOL    HW2 8544   0.304   0.787   6.133
 2549SOL     OW 8545   5.653   2.516   2.803
 2549SOL    HW1 8546   5.637   2.549   2.710
 2549SOL    HW2 8547   5.675   2.419   2.801
 2550SOL     OW 8548   5.272   5.226   6.754
 2550SOL    HW1 8549   5.345   5.282   6.714
 2550SOL    HW2 8550   5.286   5.219   6.852
 2551SOL     OW 8551   1.295   4.928   6.491
 2551SOL    HW1 8552   1.203   4.954   6.521
 2551SOL    HW2 8553   1.336   4.867   6.558
 2552SOL     OW 8554   1.588   5.692   3.490
 2552SOL    HW1 8555   1.523   5.745   3.436
 2552SOL    HW2 8556   1.618   5.612   3.438
 2553SOL     OW 8557   4.575   3.158   0.518
 2553SOL    HW1 8558   4.478   3.137   0.524
 2553SOL    HW2 8559   4.592   3.218   0.440
 2554SOL     OW 8560   0.874   1.586   0.762
 2554SOL    HW1 8561   0.965   1.620   0.735
 2554SOL    HW2 8562   0.812   1.591   0.683
 2555SOL     OW 8563   0.070   0.231   6.361
 2555SOL    HW1 8564   0.004   0.171   6.315
 2555SOL    HW2 8565   0.162   0.210   6.327
 2556SOL     OW 8566   3.981   4.954   0.276
 2556SOL    HW1 8567   3.936   4.931   0.362
 2556SOL    HW2 8568   4.078   4.928   0.281
 2557SOL     OW 8569   2.004   4.594   0.003
 2557SOL    HW1 8570   2.039   4.641   6.943
 2557SOL    HW2 8571   1.909   4.623   0.019
 2558SOL     OW 8572   4.159   0.564   5.416
 2558SOL    HW1 8573   4.169   0.497   5.343
 2558SOL    HW2 8574   4.154   0.656   5.377
 2559SOL     OW 8575   0.606   5.071   5.003
 2559SOL    HW1 8576   0.552   5.141   4.957
 2559SOL    HW2 8577   0.694   5.061   4.956
 2560SOL     OW 8578   6.214   0.964   0.733
 2560SOL    HW1 8579   6.265   1.002   0.809
 2560SOL    HW2 8580   6.116   0.971   0.752
 2561SOL     OW 8581   3.215   5.847   4.036
 2561SOL    HW1 8582   3.289   5.878   3.977
 2561SOL    HW2 8583   3.211   5.747   4.034
 2562SOL     OW 8584   1.994   3.563   0.300
 2562SOL    HW1 8585   1.904   3.526   0.276
 2562SOL    HW2 8586   2.006   3.560   0.399
 2563SOL     OW 8587   1.674   0.741   1.933
 2563SOL    HW1 8588   1.761   0.767   1.892
 2563SOL    HW2 8589   1.657   0.797   2.014
 2564SOL     OW 8590   1.405   5.933   2.516
 2564SOL    HW1 8591   1.492   5.929   2.465
 2564SOL    HW2 8592   1.369   6.026   2.512
 2565SOL     OW 8593   0.861   0.538   1.381
 2565SOL    HW1 8594   0.776   0.496   1.349
 2565SOL    HW2 8595   0.907   0.476   1.444
 2566SOL     OW 8596   2.298   6.820   5.017
 2566SOL    HW1 8597   2.316   6.866   5.103
 2566SOL    HW2 8598   2.201   6.798   5.010
 2567SOL     OW 8599   0.936   0.602   0.763
 2567SOL    HW1 8600   0.860   0.574   0.823
 2567SOL    HW2 8601   0.984   0.679   0.804
 2568SOL     OW 8602   5.667   3.672   0.683
 2568SOL    HW1 8603   5.606   3.742   0.721
 2568SOL    HW2 8604   5.637   3.648   0.591
 2569SOL     OW 8605   2.461   0.803   2.581
 2569SOL    HW1 8606   2.522   0.855   2.640
 2569SOL    HW2 8607   2.394   0.865   2.540
 2570SOL     OW 8608   5.476   2.467   6.277
 2570SOL    HW1 8609   5.509   2.466   6.371
 2570SOL    HW2 8610   5.446   2.559   6.253
 2571SOL     OW 8611   1.226   3.748   4.540
 2571SOL    HW1 8612   1.282   3.737   4.623
 2571SOL    HW2 8613   1.267   3.818   4.481
 2572SOL     OW 8614   1.408   4.793   3.573
 2572SOL    HW1 8615   1.486   4.807   3.634
 2572SOL    HW2 8616   1.344   4.728   3.616
 2573SOL     OW 8617   1.551   0.295   6.779
 2573SOL    HW1 8618   1.553   0.379   6.834
 2573SOL    HW2 8619   1.620   0.301   6.707
 2574SOL     OW 8620   6.324   3.688   0.531
 2574SOL    HW1 8621   6.419   3.720   0.524
 2574SOL    HW2 8622   6.310   3.640   0.618
 2575SOL     OW 8623   0.602   6.434   6.019
 2575SOL    HW1 8624   0.539   6.512   6.010
 2575SOL    HW2 8625   0.601   6.380   5.935
 2576SOL     OW 8626   4.670   6.664   5.522
 2576SOL    HW1 8627   4.583   6.619   5.500
 2576SOL    HW2 8628   4.743   6.596   5.521
 2577SOL     OW 8629   1.347   3.517   2.345
 2577SOL    HW1 8630   1.442   3.543   2.326
 2577SOL    HW2 8631   1.334   3.420   2.326
 2578SOL     OW 8632   4.221   1.855   1.969
 2578SOL    HW1 8633   4.264   1.938   1.933
 2578SOL    HW2 8634   4.252   1.776   1.917
 2579SOL     OW 8635   0.327   6.070   3.098
 2579SOL    HW1 8636   0.248   6.116   3.059
 2579SOL    HW2 8637   0.405   6.079   3.035
 2580SOL     OW 8638   2.875   2.251   5.499
 2580SOL    HW1 8639   2.898   2.191   5.423
 2580SOL    HW2 8640   2.954   2.307   5.522
 2581SOL     OW 8641   3.529   0.014   5.813
 2581SOL    HW1 8642   3.460   6.963   5.811
 2581SOL    HW2 8643   3.489   0.097   5.851
 2582SOL     OW 8644   6.912   3.714   0.853
 2582SOL    HW1 8645   6.996   3.689   0.805
 2582SOL    HW2 8646   6.919   3.808   0.886
 2583SOL     OW 8647   5.106   0.635   0.913
 2583SOL    HW1 8648   5.135   0.714   0.967
 2583SOL    HW2 8649   5.147   0.640   0.822
 2584SOL     OW 8650   3.603   4.112   6.569
 2584SOL    HW1 8651   3.515   4.065   6.565
 2584SOL    HW2 8652   3.659   4.071   6.641
 2585SOL     OW 8653   2.493   5.293   0.110
 2585SOL    HW1 8654   2.470   5.281   0.207
 2585SOL    HW2 8655   2.591   5.276   0.096
 2586SOL     OW 8656   2.163   1.230   3.399
 2586SOL    HW1 8657   2.109   1.198   3.477
 2586SOL    HW2 8658   2.200   1.321   3.419
 2587SOL     OW 8659   5.760   1.324   4.444
 2587SOL    HW1 8660   5.858   1.344   4.442
 2587SOL    HW2 8661   5.746   1.233   4.483
 2588SOL     OW 8662   4.340   1.261   6.700
 2588SOL    HW1 8663   4.300   1.352   6.686
 2588SOL    HW2 8664   4.380   1.256   6.791
 2589SOL     OW 8665   1.893   6.397   0.405
 2589SOL    HW1 8666   1.967   6.438   0.351
 2589SOL    HW2 8667   1.922   6.308   0.439
 2590SOL     OW 8668   2.313   5.010   0.491
 2590SOL    HW1 8669   2.334   5.075   0.564
 2590SOL    HW2 8670   2.224   4.969   0.508
 2591SOL     OW 8671   5.034   6.223   3.367
 2591SOL    HW1 8672   5.116   6.193   3.415
 2591SOL    HW2 8673   4.998   6.305   3.411
 2592SOL     OW 8674   3.370   3.656   0.981
 2592SOL    HW1 8675   3.444   3.591   0.966
 2592SOL    HW2 8676   3.292   3.633   0.924
 2593SOL     OW 8677   2.873   4.710   6.655
 2593SOL    HW1 8678   2.929   4.680   6.577
 2593SOL    HW2 8679   2.784   4.664   6.652
 2594SOL     OW 8680   2.194   3.010   3.378
 2594SOL    HW1 8681   2.252   2.948   3.430
 2594SOL    HW2 8682   2.240   3.035   3.293
 2595SOL     OW 8683   1.721   1.070   2.915
 2595SOL    HW1 8684   1.726   0.999   2.844
 2595SOL    HW2 8685   1.699   1.158   2.873
 2596SOL     OW 8686   0.172   1.222   0.944
 2596SOL    HW1 8687   0.152   1.148   1.008
 2596SOL    HW2 8688   0.240   1.191   0.877
 2597SOL     OW 8689   6.523   6.052   0.816
 2597SOL    HW1 8690   6.465   6.054   0.735
 2597SOL    HW2 8691   6.507   5.967   0.867
 2598SOL     OW 8692   4.894   2.824   2.140
 2598SOL    HW1 8693   4.986   2.824   2.102
 2598SOL    HW2 8694   4.840   2.897   2.097
 2599SOL     OW 8695   2.626   5.890   2.548
 2599SOL    HW1 8696   2.698   5.824   2.570
 2599SOL    HW2 8697   2.540   5.859   2.589
 2600SOL     OW 8698   5.479   5.136   4.404
 2600SOL    HW1 8699   5.488   5.234   4.418
 2600SOL    HW2 8700   5.512   5.112   4.313
 2601SOL     OW 8701   6.883   1.179   3.784
 2601SOL    HW1 8702   6.783   1.178   3.779
 2601SOL    HW2 8703   6.916   1.087   3.807
 2602SOL     OW 8704   0.948   4.670   2.859
 2602SOL    HW1 8705   1.039   4.633   2.877
 2602SOL    HW2 8706   0.897   4.605   2.803
 2603SOL     OW 8707   1.350   5.881   2.020
 2603SOL    HW1 8708   1.408   5.838   2.089
 2603SOL    HW2 8709   1.358   5.831   1.934
 2604SOL     OW 8710   5.156   3.125   3.279
 2604SOL    HW1 8711   5.105   3.064   3.219
 2604SOL    HW2 8712   5.219   3.072   3.335
 2605SOL     OW 8713   1.370   2.399   0.807
 2605SOL    HW1 8714   1.383   2.480   0.748
 2605SOL    HW2 8715   1.459   2.367   0.838
 2606SOL     OW 8716   5.169   3.770   0.796
 2606SOL    HW1 8717   5.269   3.768   0.794
 2606SOL    HW2 8718   5.138   3.859   0.830
 2607SOL     OW 8719   2.494   2.759   1.824
 2607SOL    HW1 8720   2.416   2.758   1.887
 2607SOL    HW2 8721   2.489   2.681   1.762
 2608SOL     OW 8722   3.344   4.926   4.571
 2608SOL    HW1 8723   3.268   4.872   4.606
 2608SOL    HW2 8724   3.347   5.014   4.619
 2609SOL     OW 8725   0.146   1.691   1.246
 2609SOL    HW1 8726   0.050   1.705   1.219
 2609SOL    HW2 8727   0.202   1.680   1.164
 2610SOL     OW 8728   1.441   4.549   4.955
 2610SOL    HW1 8729   1.411   4.499   4.874
 2610SOL    HW2 8730   1.476   4.485   5.023
 2611SOL     OW 8731   5.593   1.137   5.373
 2611SOL    HW1 8732   5.510   1.189   5.356
 2611SOL    HW2 8733   5.578   1.040   5.353
 2612SOL     OW 8734   6.901   6.600   0.418
 2612SOL    HW1 8735   6.939   6.669   0.480
 2612SOL    HW2 8736   6.972   6.535   0.393
 2613SOL     OW 8737   1.657   6.756   0.476
 2613SOL    HW1 8738   1.590   6.823   0.445
 2613SOL    HW2 8739   1.691   6.703   0.398
 2614SOL     OW 8740   5.669   2.340   1.082
 2614SOL    HW1 8741   5.754   2.375   1.041
 2614SOL    HW2 8742   5.673   2.241   1.087
 2615SOL     OW 8743   1.060   3.588   6.798
 2615SOL    HW1 8744   1.135   3.549   6.745
 2615SOL    HW2 8745   1.084   3.681   6.826
 2616SOL     OW 8746   1.302   1.314   4.676
 2616SOL    HW1 8747   1.338   1.312   4.582
 2616SOL    HW2 8748   1.375   1.339   4.739
 2617SOL     OW 8749   5.311   0.447   0.210
 2617SOL    HW1 8750   5.266   0.510   0.274
 2617SOL    HW2 8751   5.261   0.445   0.124
 2618SOL     OW 8752   1.376   1.012   0.199
 2618SOL    HW1 8753   1.459   0.959   0.213
 2618SOL    HW2 8754   1.392   1.107   0.226
 2619SOL     OW 8755   4.820   1.114   2.671
 2619SOL    HW1 8756   4.751   1.185   2.655
 2619SOL    HW2 8757   4.776   1.029   2.699
 2620SOL     OW 8758   5.948   2.310   2.307
 2620SOL    HW1 8759   5.927   2.401   2.270
 2620SOL    HW2 8760   6.044   2.305   2.331
 2621SOL     OW 8761   2.539   6.506   1.440
 2621SOL    HW1 8762   2.572   6.594   1.405
 2621SOL    HW2 8763   2.617   6.450   1.469
 2622SOL     OW 8764   2.386   3.750   6.543
 2622SOL    HW1 8765   2.426   3.785   6.627
 2622SOL    HW2 8766   2.391   3.650   6.543
 2623SOL     OW 8767   0.164   1.706   3.646
 2623SOL    HW1 8768   0.144   1.803   3.630
 2623SOL    HW2 8769   0.207   1.695   3.735
 2624SOL     OW 8770   1.648   2.072   5.757
 2624SOL    HW1 8771   1.686   2.100   5.669
 2624SOL    HW2 8772   1.559   2.116   5.770
 2625SOL     OW 8773   3.241   5.343   6.134
 2625SOL    HW1 8774   3.339   5.360   6.139
 2625SOL    HW2 8775   3.196   5.420   6.090
 2626SOL     OW 8776   6.980   6.931   0.476
 2626SOL    HW1 8777   0.010   6.954   0.559
 2626SOL    HW2 8778   0.013   6.957   0.396
 2627SOL     OW 8779   2.209   0.117   5.810
 2627SOL    HW1 8780   2.281   0.091   5.746
 2627SOL    HW2 8781   2.121   0.117   5.763
 2628SOL     OW 8782   6.854   5.368   1.323
 2628SOL    HW1 8783   6.945   5.348   1.285
 2628SOL    HW2 8784   6.796   5.287   1.314
 2629SOL     OW 8785   2.889   3.733   3.000
 2629SOL    HW1 8786   2.948   3.780   3.066
 2629SOL    HW2 8787   2.865   3.643   3.036
 2630SOL     OW 8788   3.430   0.935   4.732
 2630SOL    HW1 8789   3.353   0.971   4.679
 2630SOL    HW2 8790   3.512   0.935   4.675
 2631SOL     OW 8791   4.917   6.057   0.671
 2631SOL    HW1 8792   4.908   6.157   0.678
 2631SOL    HW2 8793   4.965   6.034   0.587
 2632SOL     OW 8794   4.487   5.216   1.801
 2632SOL    HW1 8795   4.491   5.248   1.895
 2632SOL    HW2 8796   4.392   5.201   1.774
 2633SOL     OW 8797   0.059   2.941   5.770
 2633SOL    HW1 8798   0.068   3.024   5.826
 2633SOL    HW2 8799   0.120   2.948   5.691
 2634SOL     OW 8800   2.031   2.023   6.160
 2634SOL    HW1 8801   2.072   2.008   6.070
 2634SOL    HW2 8802   2.096   1.997   6.231
 2635SOL     OW 8803   3.803   5.293   3.220
 2635SOL    HW1 8804   3.880   5.272   3.159
 2635SOL    HW2 8805   3.718   5.290   3.168
 2636SOL     OW 8806   3.024   6.594   6.285
 2636SOL    HW1 8807   3.045   6.691   6.279
 2636SOL    HW2 8808   3.091   6.548   6.342
 2637SOL     OW 8809   0.297   1.550   2.952
 2637SOL    HW1 8810   0.233   1.610   2.905
 2637SOL    HW2 8811   0.290   1.458   2.914
 2638SOL     OW 8812   0.811   6.319   4.920
 2638SOL    HW1 8813   0.778   6.345   5.010
 2638SOL    HW2 8814   0.879   6.385   4.888
 2639SOL     OW 8815   4.935   5.555   4.865
 2639SOL    HW1 8816   4.912   5.461   4.840
 2639SOL    HW2 8817   5.033   5.562   4.884
 2640SOL     OW 8818   2.281   1.095   3.202
 2640SOL    HW1 8819   2.352   1.154   3.163
 2640SOL    HW2 8820   2.243   1.137   3.284
 2641SOL     OW 8821   5.345   2.190   0.472
 2641SOL    HW1 8822   5.337   2.223   0.566
 2641SOL    HW2 8823   5.441   2.192   0.444
 2642SOL     OW 8824   0.294   0.302   2.561
 2642SOL    HW1 8825   0.293   0.401   2.577
 2642SOL    HW2 8826   0.206   0.262   2.587
 2643SOL     OW 8827   2.002   4.347   4.276
 2643SOL    HW1 8828   2.013   4.398   4.361
 2643SOL    HW2 8829   2.025   4.251   4.292
 2644SOL     OW 8830   5.659   5.448   3.425
 2644SOL    HW1 8831   5.616   5.498   3.350
 2644SOL    HW2 8832   5.679   5.355   3.396
 2645SOL     OW 8833   4.549   5.565   2.657
 2645SOL    HW1 8834   4.621   5.634   2.660
 2645SOL    HW2 8835   4.460   5.609   2.646
 2646SOL     OW 8836   1.009   1.915   6.497
 2646SOL    HW1 8837   1.097   1.921   6.543
 2646SOL    HW2 8838   0.963   2.004   6.500
 2647SOL     OW 8839   4.399   0.105   2.985
 2647SOL    HW1 8840   4.495   0.079   2.983
 2647SOL    HW2 8841   4.353   0.069   2.904
 2648SOL     OW 8842   1.904   0.487   5.838
 2648SOL    HW1 8843   1.935   0.421   5.906
 2648SOL    HW2 8844   1.861   0.566   5.884
 2649SOL     OW 8845   6.102   1.761   3.664
 2649SOL    HW1 8846   6.086   1.777   3.567
 2649SOL    HW2 8847   6.021   1.788   3.716
 2650SOL     OW 8848   2.078   6.683   4.673
 2650SOL    HW1 8849   2.113   6.591   4.657
 2650SOL    HW2 8850   2.018   6.710   4.597
 2651SOL     OW 8851   3.429   1.458   3.172
 2651SOL    HW1 8852   3.506   1.509   3.209
 2651SOL    HW2 8853   3.419   1.479   3.075
 2652SOL     OW 8854   4.591   3.600   5.592
 2652SOL    HW1 8855   4.523   3.572   5.659
 2652SOL    HW2 8856   4.588   3.538   5.514
 2653SOL     OW 8857   2.000   6.347   6.908
 2653SOL    HW1 8858   1.934   6.272   6.913
 2653SOL    HW2 8859   2.080   6.326   6.964
 2654SOL     OW 8860   6.454   0.534   0.878
 2654SOL    HW1 8861   6.517   0.553   0.803
 2654SOL    HW2 8862   6.365   0.505   0.841
 2655SOL     OW 8863   5.121   6.720   3.482
 2655SOL    HW1 8864   5.185   6.796   3.476
 2655SOL    HW2 8865   5.077   6.719   3.572
 2656SOL     OW 8866   4.708   6.934   4.908
 2656SOL    HW1 8867   4.690   6.836   4.916
 2656SOL    HW2 8868   4.709   6.960   4.811
 2657SOL     OW 8869   1.843   3.434   6.255
 2657SOL    HW1 8870   1.942   3.437   6.270
 2657SOL    HW2 8871   1.796   3.459   6.340
 2658SOL     OW 8872   3.805   4.394   0.323
 2658SOL    HW1 8873   3.768   4.416   0.413
 2658SOL    HW2 8874   3.746   4.328   0.278
 2659SOL     OW 8875   0.469   2.074   5.537
 2659SOL    HW1 8876   0.457   2.071   5.438
 2659SOL    HW2 8877   0.486   1.982   5.572
 2660SOL     OW 8878   1.353   1.422   0.531
 2660SOL    HW1 8879   1.324   1.495   0.469
 2660SOL    HW2 8880   1.274   1.365   0.554
 2661SOL     OW 8881   2.029   1.007   0.981
 2661SOL    HW1 8882   1.968   1.075   0.940
 2661SOL    HW2 8883   2.124   1.030   0.961
 2662SOL     OW 8884   2.572   1.681   1.515
 2662SOL    HW1 8885   2.587   1.585   1.536
 2662SOL    HW2 8886   2.620   1.738   1.581
 2663SOL     OW 8887   3.653   0.599   0.766
 2663SOL    HW1 8888   3.724   0.552   0.818
 2663SOL    HW2 8889   3.583   0.534   0.738
 2664SOL     OW 8890   5.044   3.709   5.791
 2664SOL    HW1 8891   5.085   3.628   5.750
 2664SOL    HW2 8892   5.116   3.773   5.819
 2665SOL     OW 8893   1.122   3.287   4.637
 2665SOL    HW1 8894   1.219   3.284   4.660
 2665SOL    HW2 8895   1.081   3.198   4.653
 2666SOL     OW 8896   1.751   4.052   1.895
 2666SOL    HW1 8897   1.816   3.982   1.866
 2666SOL    HW2 8898   1.731   4.041   1.992
 2667SOL     OW 8899   6.130   2.519   4.567
 2667SOL    HW1 8900   6.197   2.582   4.530
 2667SOL    HW2 8901   6.074   2.566   4.635
 2668SOL     OW 8902   5.496   0.813   4.461
 2668SOL    HW1 8903   5.428   0.744   4.438
 2668SOL    HW2 8904   5.483   0.843   4.555
 2669SOL     OW 8905   2.576   1.331   2.094
 2669SOL    HW1 8906   2.488   1.308   2.135
 2669SOL    HW2 8907   2.581   1.430   2.079
 2670SOL     OW 8908   0.366   0.423   1.395
 2670SOL    HW1 8909   0.370   0.521   1.416
 2670SOL    HW2 8910   0.451   0.379   1.424
 2671SOL     OW 8911   5.624   4.488   6.124
 2671SOL    HW1 8912   5.692   4.463   6.054
 2671SOL    HW2 8913   5.534   4.496   6.081
 2672SOL     OW 8914   2.024   1.797   2.359
 2672SOL    HW1 8915   1.994   1.861   2.288
 2672SOL    HW2 8916   1.961   1.720   2.362
 2673SOL     OW 8917   3.540   0.253   3.072
 2673SOL    HW1 8918   3.514   0.289   3.162
 2673SOL    HW2 8919   3.636   0.272   3.054
 2674SOL     OW 8920   6.029   5.855   3.660
 2674SOL    HW1 8921   6.022   5.830   3.563
 2674SOL    HW2 8922   5.937   5.866   3.698
 2675SOL     OW 8923   4.709   1.042   3.918
 2675SOL    HW1 8924   4.651   0.991   3.982
 2675SOL    HW2 8925   4.803   1.042   3.951
 2676SOL     OW 8926   4.041   3.451   5.432
 2676SOL    HW1 8927   4.083   3.539   5.411
 2676SOL    HW2 8928   4.022   3.402   5.347
 2677SOL     OW 8929   1.547   5.862   0.951
 2677SOL    HW1 8930   1.622   5.853   1.016
 2677SOL    HW2 8931   1.581   5.902   0.866
 2678SOL     OW 8932   3.568   1.978   1.945
 2678SOL    HW1 8933   3.585   2.073   1.971
 2678SOL    HW2 8934   3.503   1.937   2.010
 2679SOL     OW 8935   2.146   3.319   2.442
 2679SOL    HW1 8936   2.237   3.280   2.425
 2679SOL    HW2 8937   2.083   3.246   2.468
 2680SOL     OW 8938   5.891   2.434   6.432
 2680SOL    HW1 8939   5.820   2.408   6.497
 2680SOL    HW2 8940   5.877   2.529   6.404
 2681SOL     OW 8941   2.565   2.487   3.325
 2681SOL    HW1 8942   2.661   2.459   3.322
 2681SOL    HW2 8943   2.536   2.516   3.233
 2682SOL     OW 8944   3.467   4.030   2.620
 2682SOL    HW1 8945   3.373   4.021   2.586
 2682SOL    HW2 8946   3.479   3.972   2.701
 2683SOL     OW 8947   1.723   3.153   1.347
 2683SOL    HW1 8948   1.632   3.187   1.370
 2683SOL    HW2 8949   1.723   3.121   1.252
 2684SOL     OW 8950   5.422   0.581   3.601
 2684SOL    HW1 8951   5.333   0.589   3.557
 2684SOL    HW2 8952   5.445   0.667   3.647
 2685SOL     OW 8953   2.034   6.590   5.730
 2685SOL    HW1 8954   2.025   6.576   5.829
 2685SOL    HW2 8955   1.944   6.608   5.691
 2686SOL     OW 8956   2.182   2.323   6.028
 2686SOL    HW1 8957   2.131   2.398   6.068
 2686SOL    HW2 8958   2.199   2.253   6.098
 2687SOL     OW 8959   3.696   2.503   1.759
 2687SOL    HW1 8960   3.609   2.551   1.762
 2687SOL    HW2 8961   3.687   2.415   1.806
 2688SOL     OW 8962   4.262   2.133   0.244
 2688SOL    HW1 8963   4.224   2.105   0.156
 2688SOL    HW2 8964   4.202   2.200   0.286
 2689SOL     OW 8965   6.835   3.961   2.341
 2689SOL    HW1 8966   6.864   4.053   2.314
 2689SOL    HW2 8967   6.739   3.963   2.368
 2690SOL     OW 8968   5.150   1.019   4.309
 2690SOL    HW1 8969   5.093   1.047   4.387
 2690SOL    HW2 8970   5.241   1.060   4.317
 2691SOL     OW 8971   5.789   3.718   3.923
 2691SOL    HW1 8972   5.810   3.809   3.960
 2691SOL    HW2 8973   5.690   3.706   3.919
 2692SOL     OW 8974   1.604   5.003   1.325
 2692SOL    HW1 8975   1.560   5.004   1.415
 2692SOL    HW2 8976   1.540   4.966   1.257
 2693SOL     OW 8977   0.615   6.008   2.587
 2693SOL    HW1 8978   0.533   6.049   2.626
 2693SOL    HW2 8979   0.685   6.079   2.575
 2694SOL     OW 8980   2.437   0.253   2.649
 2694SOL    HW1 8981   2.535   0.274   2.651
 2694SOL    HW2 8982   2.424   0.154   2.642
 2695SOL     OW 8983   6.340   5.865   3.479
 2695SOL    HW1 8984   6.356   5.826   3.569
 2695SOL    HW2 8985   6.310   5.793   3.416
 2696SOL     OW 8986   3.742   4.482   6.174
 2696SOL    HW1 8987   3.712   4.397   6.217
 2696SOL    HW2 8988   3.780   4.543   6.244
 2697SOL     OW 8989   4.320   2.259   0.577
 2697SOL    HW1 8990   4.330   2.337   0.514
 2697SOL    HW2 8991   4.263   2.286   0.654
 2698SOL     OW 8992   1.644   5.677   0.307
 2698SOL    HW1 8993   1.649   5.585   0.269
 2698SOL    HW2 8994   1.732   5.700   0.349
 2699SOL     OW 8995   2.837   6.801   2.442
 2699SOL    HW1 8996   2.845   6.812   2.541
 2699SOL    HW2 8997   2.783   6.720   2.421
 2700SOL     OW 8998   4.413   2.082   1.927
 2700SOL    HW1 8999   4.428   2.019   1.850
 2700SOL    HW2 9000   4.500   2.124   1.953
 2701SOL     OW 9001   5.342   3.754   5.593
 2701SOL    HW1 9002   5.325   3.834   5.650
 2701SOL    HW2 9003   5.323   3.671   5.646
 2702SOL     OW 9004   1.822   1.948   4.825
 2702SOL    HW1 9005   1.805   1.917   4.919
 2702SOL    HW2 9006   1.817   2.048   4.822
 2703SOL     OW 9007   2.104   6.041   1.650
 2703SOL    HW1 9008   2.173   5.969   1.655
 2703SOL    HW2 9009   2.134   6.112   1.587
 2704SOL     OW 9010   4.408   0.971   3.443
 2704SOL    HW1 9011   4.349   0.900   3.480
 2704SOL    HW2 9012   4.444   1.027   3.517
 2705SOL     OW 9013   0.926   6.899   5.482
 2705SOL    HW1 9014   1.007   6.842   5.479
 2705SOL    HW2 9015   0.952   6.995   5.474
 2706SOL     OW 9016   0.337   4.521   4.388
 2706SOL    HW1 9017   0.361   4.612   4.421
 2706SOL    HW2 9018   0.412   4.458   4.407
 2707SOL     OW 9019   4.164   1.128   3.055
 2707SOL    HW1 9020   4.162   1.120   3.155
 2707SOL    HW2 9021   4.218   1.208   3.029
 2708SOL     OW 9022   5.784   3.097   5.624
 2708SOL    HW1 9023   5.769   3.022   5.689
 2708SOL    HW2 9024   5.699   3.149   5.615
 2709SOL     OW 9025   5.289   1.094   5.701
 2709SOL    HW1 9026   5.312   1.101   5.604
 2709SOL    HW2 9027   5.357   1.144   5.755
 2710SOL     OW 9028   0.999   3.017   4.223
 2710SOL    HW1 9029   1.082   3.067   4.248
 2710SOL    HW2 9030   1.000   2.999   4.124
 2711SOL     OW 9031   5.002   1.024   1.640
 2711SOL    HW1 9032   5.040   1.112   1.613
 2711SOL    HW2 9033   4.925   1.001   1.580
 2712SOL     OW 9034   4.918   6.461   1.903
 2712SOL    HW1 9035   5.016   6.443   1.912
 2712SOL    HW2 9036   4.904   6.542   1.847
 2713SOL     OW 9037   3.719   4.915   5.238
 2713SOL    HW1 9038   3.790   4.984   5.221
 2713SOL    HW2 9039   3.762   4.825   5.248
 2714SOL     OW 9040   2.755   4.639   6.047
 2714SOL    HW1 9041   2.661   4.628   6.080
 2714SOL    HW2 9042   2.819   4.613   6.119
 2715SOL     OW 9043   4.439   6.667   0.265
 2715SOL    HW1 9044   4.477   6.713   0.345
 2715SOL    HW2 9045   4.466   6.570   0.267
 2716SOL     OW 9046   4.995   1.139   2.187
 2716SOL    HW1 9047   5.035   1.150   2.096
 2716SOL    HW2 9048   5.061   1.093   2.246
 2717SOL     OW 9049   0.429   1.928   2.386
 2717SOL    HW1 9050   0.377   1.962   2.309
 2717SOL    HW2 9051   0.416   1.829   2.394
 2718SOL     OW 9052   6.650   1.348   5.940
 2718SOL    HW1 9053   6.621   1.252   5.939
 2718SOL    HW2 9054   6.658   1.379   6.035
 2719SOL     OW 9055   0.893   4.638   3.647
 2719SOL    HW1 9056   0.800   4.668   3.629
 2719SOL    HW2 9057   0.955   4.717   3.639
 2720SOL     OW 9058   1.947   5.176   6.461
 2720SOL    HW1 9059   2.011   5.242   6.498
 2720SOL    HW2 9060   1.876   5.224   6.408
 2721SOL     OW 9061   2.232   6.024   3.666
 2721SOL    HW1 9062   2.265   5.964   3.594
 2721SOL    HW2 9063   2.267   5.993   3.754
 2722SOL     OW 9064   3.353   4.048   6.668
 2722SOL    HW1 9065   3.386   4.140   6.647
 2722SOL    HW2 9066   3.281   4.053   6.736
 2723SOL     OW 9067   4.484   5.402   0.501
 2723SOL    HW1 9068   4.460   5.324   0.444
 2723SOL    HW2 9069   4.536   5.370   0.581
 2724SOL     OW 9070   6.889   6.074   0.912
 2724SOL    HW1 9071   6.945   6.112   0.838
 2724SOL    HW2 9072   6.845   5.990   0.880
 2725SOL     OW 9073   5.958   4.526   2.658
 2725SOL    HW1 9074   5.974   4.623   2.680
 2725SOL    HW2 9075   5.860   4.508   2.655
 2726SOL     OW 9076   6.523   2.956   2.888
 2726SOL    HW1 9077   6.611   2.992   2.918
 2726SOL    HW2 9078   6.534   2.912   2.798
 2727SOL     OW 9079   1.548   4.807   4.007
 2727SOL    HW1 9080   1.506   4.775   3.921
 2727SOL    HW2 9081   1.600   4.732   4.048
 2728SOL     OW 9082   5.008   4.985   5.877
 2728SOL    HW1 9083   4.995   5.083   5.889
 2728SOL    HW2 9084   5.029   4.943   5.965
 2729SOL     OW 9085   0.178   0.264   0.482
 2729SOL    HW1 9086   0.137   0.238   0.570
 2729SOL    HW2 9087   0.119   0.329   0.435
 2730SOL     OW 9088   1.456   5.263   2.754
 2730SOL    HW1 9089   1.394   5.342   2.752
 2730SOL    HW2 9090   1.542   5.287   2.709
 2731SOL     OW 9091   4.197   3.715   5.314
 2731SOL    HW1 9092   4.296   3.706   5.323
 2731SOL    HW2 9093   4.170   3.806   5.345
 2732SOL     OW 9094   4.471   0.837   2.372
 2732SOL    HW1 9095   4.510   0.774   2.439
 2732SOL    HW2 9096   4.541   0.861   2.305
 2733SOL     OW 9097   0.873   0.235   0.672
 2733SOL    HW1 9098   0.808   0.252   0.597
 2733SOL    HW2 9099   0.879   0.136   0.688
 2734SOL     OW 9100   2.999   0.312   1.622
 2734SOL    HW1 9101   2.939   0.383   1.656
 2734SOL    HW2 9102   2.979   0.226   1.670
 2735SOL     OW 9103   0.726   2.548   2.603
 2735SOL    HW1 9104   0.799   2.492   2.643
 2735SOL    HW2 9105   0.755   2.643   2.601
 2736SOL     OW 9106   5.666   4.534   2.666
 2736SOL    HW1 9107   5.627   4.526   2.574
 2736SOL    HW2 9108   5.633   4.459   2.723
 2737SOL     OW 9109   2.756   0.315   6.299
 2737SOL    HW1 9110   2.790   0.293   6.208
 2737SOL    HW2 9111   2.680   0.380   6.292
 2738SOL     OW 9112   5.305   6.557   1.269
 2738SOL    HW1 9113   5.349   6.467   1.265
 2738SOL    HW2 9114   5.243   6.560   1.347
 2739SOL     OW 9115   0.696   5.313   1.494
 2739SOL    HW1 9116   0.759   5.368   1.548
 2739SOL    HW2 9117   0.657   5.368   1.421
 2740SOL     OW 9118   6.684   5.780   5.401
 2740SOL    HW1 9119   6.710   5.700   5.456
 2740SOL    HW2 9120   6.618   5.835   5.451
 2741SOL     OW 9121   0.339   6.984   6.955
 2741SOL    HW1 9122   0.279   6.903   6.954
 2741SOL    HW2 9123   0.294   0.038   6.907
 2742SOL     OW 9124   2.534   4.938   2.133
 2742SOL    HW1 9125   2.447   4.933   2.084
 2742SOL    HW2 9126   2.568   4.846   2.149
 2743SOL     OW 9127   5.985   1.973   2.794
 2743SOL    HW1 9128   5.971   2.006   2.887
 2743SOL    HW2 9129   5.907   1.918   2.765
 2744SOL     OW 9130   3.013   3.674   2.767
 2744SOL    HW1 9131   2.963   3.685   2.853
 2744SOL    HW2 9132   2.957   3.624   2.701
 2745SOL     OW 9133   0.774   6.222   6.842
 2745SOL    HW1 9134   0.713   6.285   6.795
 2745SOL    HW2 9135   0.869   6.252   6.831
 2746SOL     OW 9136   1.480   0.860   4.689
 2746SOL    HW1 9137   1.575   0.892   4.690
 2746SOL    HW2 9138   1.477   0.764   4.663
 2747SOL     OW 9139   4.738   4.818   0.186
 2747SOL    HW1 9140   4.806   4.822   0.113
 2747SOL    HW2 9141   4.663   4.757   0.160
 2748SOL     OW 9142   4.110   7.021   0.434
 2748SOL    HW1 9143   4.124   0.055   0.351
 2748SOL    HW2 9144   4.018   0.016   0.470
 2749SOL     OW 9145   3.555   0.440   6.996
 2749SOL    HW1 9146   3.601   0.352   6.982
 2749SOL    HW2 9147   3.618   0.514   6.975
 2750SOL     OW 9148   1.951   6.281   1.998
 2750SOL    HW1 9149   2.021   6.350   1.981
 2750SOL    HW2 9150   1.875   6.322   2.049
 2751SOL     OW 9151   6.467   5.243   1.623
 2751SOL    HW1 9152   6.555   5.213   1.658
 2751SOL    HW2 9153   6.399   5.170   1.636
 2752SOL     OW 9154   4.338   5.105   6.380
 2752SOL    HW1 9155   4.426   5.070   6.413
 2752SOL    HW2 9156   4.264   5.061   6.430
 2753SOL     OW 9157   4.898   4.851   6.176
 2753SOL    HW1 9158   4.954   4.908   6.236
 2753SOL    HW2 9159   4.858   4.776   6.229
 2754SOL     OW 9160   1.354   0.891   4.965
 2754SOL    HW1 9161   1.376   0.867   4.870
 2754SOL    HW2 9162   1.390   0.821   5.026
 2755SOL     OW 9163   3.407   0.278   2.320
 2755SOL    HW1 9164   3.484   0.219   2.292
 2755SOL    HW2 9165   3.323   0.245   2.278
 2756SOL     OW 9166   4.769   5.241   6.391
 2756SOL    HW1 9167   4.727   5.258   6.302
 2756SOL    HW2 9168   4.826   5.319   6.417
 2757SOL     OW 9169   0.868   4.752   0.438
 2757SOL    HW1 9170   0.772   4.746   0.410
 2757SOL    HW2 9171   0.873   4.761   0.537
 2758SOL     OW 9172   4.609   0.136   5.923
 2758SOL    HW1 9173   4.678   0.063   5.925
 2758SOL    HW2 9174   4.519   0.095   5.935
 2759SOL     OW 9175   4.779   4.815   3.729
 2759SOL    HW1 9176   4.793   4.729   3.777
 2759SOL    HW2 9177   4.689   4.816   3.687
 2760SOL     OW 9178   0.812   5.988   3.276
 2760SOL    HW1 9179   0.857   6.022   3.193
 2760SOL    HW2 9180   0.825   6.053   3.350
 2761SOL     OW 9181   2.309   4.856   4.947
 2761SOL    HW1 9182   2.406   4.855   4.922
 2761SOL    HW2 9183   2.273   4.948   4.934
 2762SOL     OW 9184   1.975   2.313   5.758
 2762SOL    HW1 9185   1.979   2.372   5.839
 2762SOL    HW2 9186   1.943   2.222   5.785
 2763SOL     OW 9187   5.370   6.792   2.110
 2763SOL    HW1 9188   5.303   6.865   2.100
 2763SOL    HW2 9189   5.358   6.749   2.200
 2764SOL     OW 9190   6.167   0.645   1.768
 2764SOL    HW1 9191   6.083   0.664   1.819
 2764SOL    HW2 9192   6.239   0.706   1.798
 2765SOL     OW 9193   5.318   1.685   3.766
 2765SOL    HW1 9194   5.325   1.640   3.677
 2765SOL    HW2 9195   5.259   1.765   3.758
 2766SOL     OW 9196   5.824   6.853   2.406
 2766SOL    HW1 9197   5.913   6.821   2.375
 2766SOL    HW2 9198   5.776   6.899   2.331
 2767SOL     OW 9199   6.523   4.149   5.193
 2767SOL    HW1 9200   6.450   4.172   5.258
 2767SOL    HW2 9201   6.523   4.215   5.118
 2768SOL     OW 9202   5.731   0.807   6.613
 2768SOL    HW1 9203   5.794   0.805   6.690
 2768SOL    HW2 9204   5.648   0.756   6.636
 2769SOL     OW 9205   1.101   3.945   1.081
 2769SOL    HW1 9206   1.189   3.930   1.127
 2769SOL    HW2 9207   1.108   4.027   1.024
 2770SOL     OW 9208   4.806   6.125   2.419
 2770SOL    HW1 9209   4.821   6.223   2.407
 2770SOL    HW2 9210   4.736   6.094   2.354
 2771SOL     OW 9211   4.662   0.226   1.648
 2771SOL    HW1 9212   4.658   0.201   1.551
 2771SOL    HW2 9213   4.638   0.322   1.659
 2772SOL     OW 9214   3.506   0.971   0.000
 2772SOL    HW1 9215   3.507   0.907   0.077
 2772SOL    HW2 9216   3.441   1.044   0.018
 2773SOL     OW 9217   3.018   4.447   1.327
 2773SOL    HW1 9218   2.962   4.421   1.405
 2773SOL    HW2 9219   3.058   4.365   1.286
 2774SOL     OW 9220   5.014   3.027   1.962
 2774SOL    HW1 9221   5.041   3.116   1.925
 2774SOL    HW2 9222   4.919   3.031   1.994
 2775SOL     OW 9223   0.056   6.946   2.329
 2775SOL    HW1 9224   0.127   7.007   2.364
 2775SOL    HW2 9225   6.988   6.974   2.365
 2776SOL     OW 9226   3.078   5.945   0.064
 2776SOL    HW1 9227   3.057   5.882   7.010
 2776SOL    HW2 9228   3.176   5.943   0.083
 2777SOL     OW 9229   1.389   2.536   4.074
 2777SOL    HW1 9230   1.315   2.469   4.075
 2777SOL    HW2 9231   1.351   2.627   4.096
 2778SOL     OW 9232   3.031   2.123   5.298
 2778SOL    HW1 9233   3.081   2.196   5.250
 2778SOL    HW2 9234   2.968   2.079   5.235
 2779SOL     OW 9235   6.332   0.858   0.512
 2779SOL    HW1 9236   6.277   0.893   0.588
 2779SOL    HW2 9237   6.284   0.780   0.470
 2780SOL     OW 9238   3.323   5.908   6.523
 2780SOL    HW1 9239   3.319   5.923   6.621
 2780SOL    HW2 9240   3.406   5.950   6.486
 2781SOL     OW 9241   5.366   4.018   6.669
 2781SOL    HW1 9242   5.419   3.955   6.611
 2781SOL    HW2 9243   5.331   4.093   6.614
 2782SOL     OW 9244   3.639   0.792   5.336
 2782SOL    HW1 9245   3.613   0.749   5.423
 2782SOL    HW2 9246   3.588   0.748   5.261
 2783SOL     OW 9247   0.270   3.984   5.076
 2783SOL    HW1 9248   0.177   3.975   5.041
 2783SOL    HW2 9249   0.287   4.079   5.101
 2784SOL     OW 9250   2.694   1.918   1.636
 2784SOL    HW1 9251   2.673   1.954   1.545
 2784SOL    HW2 9252   2.759   1.980   1.681
 2785SOL     OW 9253   6.253   2.240   2.367
 2785SOL    HW1 9254   6.267   2.243   2.268
 2785SOL    HW2 9255   6.193   2.163   2.390
 2786SOL     OW 9256   3.817   0.252   1.280
 2786SOL    HW1 9257   3.803   0.349   1.301
 2786SOL    HW2 9258   3.730   0.204   1.286
 2787SOL     OW 9259   1.753   4.092   5.957
 2787SOL    HW1 9260   1.784   4.088   5.862
 2787SOL    HW2 9261   1.821   4.141   6.012
 2788SOL     OW 9262   1.268   2.994   0.534
 2788SOL    HW1 9263   1.252   2.944   0.619
 2788SOL    HW2 9264   1.275   2.928   0.459
 2789SOL     OW 9265   0.289   3.527   3.626
 2789SOL    HW1 9266   0.366   3.587   3.646
 2789SOL    HW2 9267   0.275   3.522   3.527
 2790SOL     OW 9268   3.863   6.436   4.253
 2790SOL    HW1 9269   3.814   6.438   4.340
 2790SOL    HW2 9270   3.962   6.441   4.271
 2791SOL     OW 9271   1.757   3.337   2.327
 2791SOL    HW1 9272   1.798   3.273   2.261
 2791SOL    HW2 9273   1.751   3.293   2.416
 2792SOL     OW 9274   0.482   1.749   6.002
 2792SOL    HW1 9275   0.503   1.838   5.962
 2792SOL    HW2 9276   0.545   1.729   6.077
 2793SOL     OW 9277   4.676   0.611   4.126
 2793SOL    HW1 9278   4.603   0.587   4.190
 2793SOL    HW2 9279   4.650   0.582   4.034
 2794SOL     OW 9280   0.743   1.380   2.045
 2794SOL    HW1 9281   0.744   1.298   2.102
 2794SOL    HW2 9282   0.828   1.387   1.994
 2795SOL     OW 9283   0.737   3.788   0.815
 2795SOL    HW1 9284   0.777   3.834   0.894
 2795SOL    HW2 9285   0.637   3.792   0.821
 2796SOL     OW 9286   4.052   4.769   2.033
 2796SOL    HW1 9287   4.093   4.714   1.960
 2796SOL    HW2 9288   4.068   4.725   2.121
 2797SOL     OW 9289   4.629   4.172   5.257
 2797SOL    HW1 9290   4.694   4.210   5.322
 2797SOL    HW2 9291   4.547   4.141   5.306
 2798SOL     OW 9292   1.898   3.657   3.141
 2798SOL    HW1 9293   1.857   3.693   3.057
 2798SOL    HW2 9294   1.997   3.668   3.136
 2799SOL     OW 9295   6.672   5.719   5.830
 2799SOL    HW1 9296   6.703   5.708   5.924
 2799SOL    HW2 9297   6.727   5.790   5.784
 2800SOL     OW 9298   2.566   0.518   6.305
 2800SOL    HW1 9299   2.594   0.596   6.360
 2800SOL    HW2 9300   2.470   0.498   6.321
 2801SOL     OW 9301   3.896   5.165   2.036
 2801SOL    HW1 9302   3.817   5.202   2.084
 2801SOL    HW2 9303   3.891   5.065   2.036
 2802SOL     OW 9304   6.437   0.319   6.356
 2802SOL    HW1 9305   6.376   0.309   6.435
 2802SOL    HW2 9306   6.501   0.395   6.372
 2803SOL     OW 9307   2.979   5.937   4.884
 2803SOL    HW1 9308   3.041   5.860   4.900
 2803SOL    HW2 9309   2.903   5.933   4.949
 2804SOL     OW 9310   0.554   5.265   2.561
 2804SOL    HW1 9311   0.609   5.230   2.485
 2804SOL    HW2 9312   0.547   5.364   2.555
 2805SOL     OW 9313   6.593   4.056   6.654
 2805SOL    HW1 9314   6.675   4.102   6.688
 2805SOL    HW2 9315   6.620   3.991   6.583
 2806SOL     OW 9316   6.268   5.258   2.823
 2806SOL    HW1 9317   6.184   5.310   2.839
 2806SOL    HW2 9318   6.249   5.182   2.762
 2807SOL     OW 9319   3.807   5.026   3.415
 2807SOL    HW1 9320   3.861   4.943   3.414
 2807SOL    HW2 9321   3.834   5.085   3.338
 2808SOL     OW 9322   4.851   6.459   4.488
 2808SOL    HW1 9323   4.880   6.530   4.552
 2808SOL    HW2 9324   4.820   6.379   4.540
 2809SOL     OW 9325   5.339   2.263   0.120
 2809SOL    HW1 9326   5.390   2.179   0.101
 2809SOL    HW2 9327   5.251   2.240   0.161
 2810SOL     OW 9328   2.361   1.014   6.539
 2810SOL    HW1 9329   2.451   1.016   6.495
 2810SOL    HW2 9330   2.324   1.106   6.546
 2811SOL     OW 9331   0.339   0.490   4.024
 2811SOL    HW1 9332   0.356   0.585   3.998
 2811SOL    HW2 9333   0.398   0.430   3.970
 2812SOL     OW 9334   4.658   4.739   2.815
 2812SOL    HW1 9335   4.732   4.684   2.777
 2812SOL    HW2 9336   4.582   4.680   2.840
 2813SOL     OW 9337   6.290   1.810   6.014
 2813SOL    HW1 9338   6.386   1.785   6.022
 2813SOL    HW2 9339   6.276   1.863   5.930
 2814SOL     OW 9340   5.433   4.649   5.121
 2814SOL    HW1 9341   5.434   4.561   5.073
 2814SOL    HW2 9342   5.499   4.711   5.079
 2815SOL     OW 9343   1.396   1.107   3.912
 2815SOL    HW1 9344   1.382   1.024   3.858
 2815SOL    HW2 9345   1.313   1.162   3.911
 2816SOL     OW 9346   4.301   6.242   3.333
 2816SOL    HW1 9347   4.311   6.340   3.316
 2816SOL    HW2 9348   4.374   6.192   3.286
 2817SOL     OW 9349   1.245   1.430   1.336
 2817SOL    HW1 9350   1.219   1.338   1.365
 2817SOL    HW2 9351   1.345   1.437   1.333
 2818SOL     OW 9352   1.427   2.348   6.840
 2818SOL    HW1 9353   1.509   2.307   6.800
 2818SOL    HW2 9354   1.436   2.447   6.842
 2819SOL     OW 9355   6.487   3.253   1.494
 2819SOL    HW1 9356   6.446   3.250   1.585
 2819SOL    HW2 9357   6.577   3.295   1.500
 2820SOL     OW 9358   4.961   3.306   4.040
 2820SOL    HW1 9359   5.051   3.266   4.019
 2820SOL    HW2 9360   4.923   3.262   4.120
 2821SOL     OW 9361   1.278   3.330   2.764
 2821SOL    HW1 9362   1.377   3.324   2.776
 2821SOL    HW2 9363   1.255   3.416   2.718
 2822SOL     OW 9364   3.028   2.614   0.459
 2822SOL    HW1 9365   3.075   2.617   0.548
 2822SOL    HW2 9366   3.096   2.620   0.386
 2823SOL     OW 9367   1.142   0.465   4.249
 2823SOL    HW1 9368   1.043   0.480   4.238
 2823SOL    HW2 9369   1.176   0.413   4.171
 2824SOL     OW 9370   3.456   2.213   6.125
 2824SOL    HW1 9371   3.491   2.216   6.218
 2824SOL    HW2 9372   3.418   2.302   6.101
 2825SOL     OW 9373   5.731   5.724   0.976
 2825SOL    HW1 9374   5.740   5.759   1.069
 2825SOL    HW2 9375   5.822   5.703   0.939
 2826SOL     OW 9376   4.865   3.743   4.389
 2826SOL    HW1 9377   4.885   3.648   4.366
 2826SOL    HW2 9378   4.841   3.794   4.307
 2827SOL     OW 9379   0.105   6.694   5.989
 2827SOL    HW1 9380   0.078   6.747   5.909
 2827SOL    HW2 9381   0.131   6.755   6.063
 2828SOL     OW 9382   3.151   1.900   6.460
 2828SOL    HW1 9383   3.203   1.846   6.394
 2828SOL    HW2 9384   3.114   1.981   6.415
 2829SOL     OW 9385   2.915   1.164   6.861
 2829SOL    HW1 9386   2.830   1.130   6.821
 2829SOL    HW2 9387   2.982   1.179   6.789
 2830SOL     OW 9388   3.175   3.721   6.924
 2830SOL    HW1 9389   3.186   3.818   6.906
 2830SOL    HW2 9390   3.105   3.683   6.863
 2831SOL     OW 9391   6.553   6.647   3.919
 2831SOL    HW1 9392   6.453   6.635   3.917
 2831SOL    HW2 9393   6.584   6.656   4.014
 2832SOL     OW 9394   0.297   0.731   2.335
 2832SOL    HW1 9395   0.327   0.653   2.281
 2832SOL    HW2 9396   0.320   0.716   2.431
 2833SOL     OW 9397   6.010   3.272   2.596
 2833SOL    HW1 9398   6.045   3.192   2.548
 2833SOL    HW2 9399   5.954   3.327   2.534
 2834SOL     OW 9400   4.438   0.815   5.268
 2834SOL    HW1 9401   4.345   0.819   5.306
 2834SOL    HW2 9402   4.433   0.799   5.169
 2835SOL     OW 9403   6.209   6.416   3.363
 2835SOL    HW1 9404   6.235   6.352   3.291
 2835SOL    HW2 9405   6.290   6.444   3.414
 2836SOL     OW 9406   6.254   0.222   1.187
 2836SOL    HW1 9407   6.161   0.191   1.203
 2836SOL    HW2 9408   6.311   0.197   1.265
 2837SOL     OW 9409   5.875   2.627   4.157
 2837SOL    HW1 9410   5.974   2.610   4.150
 2837SOL    HW2 9411   5.843   2.666   4.071
 2838SOL     OW 9412   1.896   4.836   4.312
 2838SOL    HW1 9413   1.915   4.745   4.275
 2838SOL    HW2 9414   1.843   4.827   4.397
 2839SOL     OW 9415   5.130   3.089   0.614
 2839SOL    HW1 9416   5.122   3.072   0.712
 2839SOL    HW2 9417   5.105   3.007   0.563
 2840SOL     OW 9418   6.880   2.681   4.779
 2840SOL    HW1 9419   6.824   2.613   4.828
 2840SOL    HW2 9420   6.974   2.676   4.811
 2841SOL     OW 9421   0.100   5.935   0.099
 2841SOL    HW1 9422   0.034   5.954   0.026
 2841SOL    HW2 9423   0.102   5.837   0.117
 2842SOL     OW 9424   5.967   3.589   2.942
 2842SOL    HW1 9425   5.936   3.683   2.958
 2842SOL    HW2 9426   5.889   3.530   2.923
 2843SOL     OW 9427   4.137   0.699   3.567
 2843SOL    HW1 9428   4.104   0.767   3.632
 2843SOL    HW2 9429   4.099   0.719   3.476
 2844SOL     OW 9430   1.686   4.166   5.196
 2844SOL    HW1 9431   1.660   4.142   5.289
 2844SOL    HW2 9432   1.781   4.136   5.179
 2845SOL     OW 9433   0.746   3.721   6.105
 2845SOL    HW1 9434   0.707   3.690   6.192
 2845SOL    HW2 9435   0.679   3.709   6.032
 2846SOL     OW 9436   5.356   1.128   6.300
 2846SOL    HW1 9437   5.337   1.088   6.389
 2846SOL    HW2 9438   5.411   1.211   6.312
 2847SOL     OW 9439   4.026   4.798   4.297
 2847SOL    HW1 9440   3.969   4.834   4.222
 2847SOL    HW2 9441   3.969   4.786   4.378
 2848SOL     OW 9442   2.381   6.956   5.675
 2848SOL    HW1 9443   2.334   6.903   5.604
 2848SOL    HW2 9444   2.433   0.009   5.632
 2849SOL     OW 9445   1.919   2.593   1.655
 2849SOL    HW1 9446   2.017   2.579   1.662
 2849SOL    HW2 9447   1.878   2.518   1.603
 2850SOL     OW 9448   4.091   1.497   1.175
 2850SOL    HW1 9449   4.021   1.538   1.233
 2850SOL    HW2 9450   4.169   1.470   1.231
 2851SOL     OW 9451   2.812   5.651   5.648
 2851SOL    HW1 9452   2.770   5.741   5.634
 2851SOL    HW2 9453   2.895   5.644   5.592
 2852SOL     OW 9454   0.242   2.250   6.407
 2852SOL    HW1 9455   0.311   2.317   6.436
 2852SOL    HW2 9456   0.275   2.158   6.426
 2853SOL     OW 9457   3.688   2.850   1.531
 2853SOL    HW1 9458   3.595   2.887   1.532
 2853SOL    HW2 9459   3.751   2.917   1.491
 2854SOL     OW 9460   0.539   0.640   3.789
 2854SOL    HW1 9461   0.512   0.705   3.717
 2854SOL    HW2 9462   0.515   0.678   3.878
 2855SOL     OW 9463   3.378   1.645   4.172
 2855SOL    HW1 9464   3.406   1.610   4.261
 2855SOL    HW2 9465   3.304   1.711   4.183
 2856SOL     OW 9466   3.313   1.296   5.723
 2856SOL    HW1 9467   3.230   1.330   5.680
 2856SOL    HW2 9468   3.321   1.334   5.815
 2857SOL     OW 9469   3.830   2.967   4.072
 2857SOL    HW1 9470   3.742   2.933   4.040
 2857SOL    HW2 9471   3.828   2.974   4.172
 2858SOL     OW 9472   5.223   2.853   2.806
 2858SOL    HW1 9473   5.229   2.929   2.871
 2858SOL    HW2 9474   5.130   2.816   2.808
 2859SOL     OW 9475   5.282   5.675   6.629
 2859SOL    HW1 9476   5.345   5.736   6.677
 2859SOL    HW2 9477   5.223   5.628   6.695
 2860SOL     OW 9478   4.475   2.580   0.878
 2860SOL    HW1 9479   4.441   2.507   0.937
 2860SOL    HW2 9480   4.572   2.594   0.897
 2861SOL     OW 9481   4.398   4.514   6.062
 2861SOL    HW1 9482   4.323   4.490   6.123
 2861SOL    HW2 9483   4.361   4.537   5.972
 2862SOL     OW 9484   6.502   0.005   3.521
 2862SOL    HW1 9485   6.469   6.931   3.520
 2862SOL    HW2 9486   6.519   0.035   3.427
 2863SOL     OW 9487   5.869   0.318   0.071
 2863SOL    HW1 9488   5.844   0.374   7.013
 2863SOL    HW2 9489   5.912   0.233   0.041
 2864SOL     OW 9490   4.068   2.152   1.026
 2864SOL    HW1 9491   4.006   2.075   1.012
 2864SOL    HW2 9492   4.031   2.213   1.096
 2865SOL     OW 9493   4.805   5.084   5.147
 2865SOL    HW1 9494   4.709   5.109   5.137
 2865SOL    HW2 9495   4.854   5.109   5.064
 2866SOL     OW 9496   0.184   6.932   6.498
 2866SOL    HW1 9497   0.221   0.004   6.492
 2866SOL    HW2 9498   0.183   6.902   6.593
 2867SOL     OW 9499   6.347   4.003   4.565
 2867SOL    HW1 9500   6.253   3.971   4.554
 2867SOL    HW2 9501   6.355   4.055   4.650
 2868SOL     OW 9502   1.672   4.645   5.137
 2868SOL    HW1 9503   1.757   4.649   5.084
 2868SOL    HW2 9504   1.596   4.620   5.078
 2869SOL     OW 9505   5.967   1.344   2.126
 2869SOL    HW1 9506   6.033   1.352   2.052
 2869SOL    HW2 9507   5.974   1.253   2.168
 2870SOL     OW 9508   4.313   2.355   1.958
 2870SOL    HW1 9509   4.388   2.416   1.986
 2870SOL    HW2 9510   4.350   2.266   1.934
 2871SOL     OW 9511   1.328   1.636   5.886
 2871SOL    HW1 9512   1.324   1.643   5.786
 2871SOL    HW2 9513   1.355   1.724   5.925
 2872SOL     OW 9514   1.838   0.246   3.830
 2872SOL    HW1 9515   1.785   0.244   3.915
 2872SOL    HW2 9516   1.837   0.338   3.792
 2873SOL     OW 9517   6.427   5.604   2.223
 2873SOL    HW1 9518   6.332   5.596   2.194
 2873SOL    HW2 9519   6.485   5.614   2.142
 2874SOL     OW 9520   4.857   2.262   1.813
 2874SOL    HW1 9521   4.923   2.325   1.854
 2874SOL    HW2 9522   4.826   2.197   1.882
 2875SOL     OW 9523   3.323   4.767   0.629
 2875SOL    HW1 9524   3.236   4.729   0.598
 2875SOL    HW2 9525   3.323   4.774   0.729
 2876SOL     OW 9526   5.853   2.196   2.070
 2876SOL    HW1 9527   5.893   2.223   2.158
 2876SOL    HW2 9528   5.903   2.241   1.996
 2877SOL     OW 9529   1.517   3.511   5.429
 2877SOL    HW1 9530   1.556   3.602   5.444
 2877SOL    HW2 9531   1.466   3.483   5.510
 2878SOL     OW 9532   4.290   5.013   0.176
 2878SOL    HW1 9533   4.261   4.918   0.187
 2878SOL    HW2 9534   4.374   5.016   0.123
 2879SOL     OW 9535   5.020   4.305   6.741
 2879SOL    HW1 9536   4.934   4.293   6.692
 2879SOL    HW2 9537   5.007   4.368   6.818
 2880SOL     OW 9538   1.864   6.425   3.252
 2880SOL    HW1 9539   1.822   6.337   3.232
 2880SOL    HW2 9540   1.919   6.419   3.334
 2881SOL     OW 9541   6.921   0.254   0.003
 2881SOL    HW1 9542   6.946   0.182   0.069
 2881SOL    HW2 9543   6.933   0.219   6.931
 2882SOL     OW 9544   6.678   3.787   3.456
 2882SOL    HW1 9545   6.777   3.800   3.460
 2882SOL    HW2 9546   6.631   3.872   3.481
 2883SOL     OW 9547   3.549   6.632   2.128
 2883SOL    HW1 9548   3.612   6.705   2.100
 2883SOL    HW2 9549   3.515   6.585   2.046
 2884SOL     OW 9550   1.998   4.835   3.252
 2884SOL    HW1 9551   2.063   4.858   3.179
 2884SOL    HW2 9552   2.011   4.897   3.329
 2885SOL     OW 9553   1.215   2.052   4.706
 2885SOL    HW1 9554   1.239   2.001   4.623
 2885SOL    HW2 9555   1.267   2.137   4.708
 2886SOL     OW 9556   2.420   2.657   6.247
 2886SOL    HW1 9557   2.517   2.648   6.271
 2886SOL    HW2 9558   2.395   2.588   6.180
 2887SOL     OW 9559   2.638   1.156   5.246
 2887SOL    HW1 9560   2.727   1.146   5.203
 2887SOL    HW2 9561   2.581   1.218   5.191
 2888SOL     OW 9562   0.013   5.677   6.691
 2888SOL    HW1 9563   0.085   5.618   6.654
 2888SOL    HW2 9564   0.054   5.762   6.724
 2889SOL     OW 9565   1.067   0.841   0.908
 2889SOL    HW1 9566   1.129   0.789   0.968
 2889SOL    HW2 9567   1.080   0.939   0.924
 2890SOL     OW 9568   2.268   0.444   0.663
 2890SOL    HW1 9569   2.235   0.441   0.758
 2890SOL    HW2 9570   2.294   0.538   0.641
 2891SOL     OW 9571   2.957   4.886   5.157
 2891SOL    HW1 9572   2.963   4.805   5.099
 2891SOL    HW2 9573   2.948   4.859   5.253
 2892SOL     OW 9574   4.119   3.979   5.351
 2892SOL    HW1 9575   4.188   4.047   5.377
 2892SOL    HW2 9576   4.052   4.021   5.290
 2893SOL     OW 9577   3.314   0.651   4.834
 2893SOL    HW1 9578   3.397   0.696   4.866
 2893SOL    HW2 9579   3.243   0.719   4.816
 2894SOL     OW 9580   4.183   3.233   1.955
 2894SOL    HW1 9581   4.195   3.325   1.917
 2894SOL    HW2 9582   4.256   3.214   2.020
 2895SOL     OW 9583   3.585   2.937   0.438
 2895SOL    HW1 9584   3.591   3.035   0.457
 2895SOL    HW2 9585   3.573   2.887   0.524
 2896SOL     OW 9586   1.569   4.411   0.330
 2896SOL    HW1 9587   1.500   4.371   0.391
 2896SOL    HW2 9588   1.624   4.338   0.289
 2897SOL     OW 9589   0.526   6.799   3.439
 2897SOL    HW1 9590   0.520   6.880   3.380
 2897SOL    HW2 9591   0.513   6.717   3.383
 2898SOL     OW 9592   1.714   5.017   2.651
 2898SOL    HW1 9593   1.730   5.113   2.675
 2898SOL    HW2 9594   1.643   4.979   2.710
 2899SOL     OW 9595   5.547   0.780   0.969
 2899SOL    HW1 9596   5.520   0.717   1.042
 2899SOL    HW2 9597   5.626   0.742   0.920
 2900SOL     OW 9598   2.851   5.294   6.295
 2900SOL    HW1 9599   2.878   5.388   6.276
 2900SOL    HW2 9600   2.931   5.235   6.297
 2901SOL     OW 9601   2.891   6.509   1.330
 2901SOL    HW1 9602   2.904   6.608   1.318
 2901SOL    HW2 9603   2.897   6.464   1.241
 2902SOL     OW 9604   4.959   5.306   1.076
 2902SOL    HW1 9605   4.990   5.277   1.167
 2902SOL    HW2 9606   4.933   5.403   1.079
 2903SOL     OW 9607   3.027   2.592   1.720
 2903SOL    HW1 9608   2.978   2.541   1.790
 2903SOL    HW2 9609   3.112   2.545   1.697
 2904SOL     OW 9610   2.995   1.906   4.471
 2904SOL    HW1 9611   3.047   1.825   4.444
 2904SOL    HW2 9612   2.919   1.878   4.530
 2905SOL     OW 9613   0.805   2.208   2.021
 2905SOL    HW1 9614   0.707   2.199   2.034
 2905SOL    HW2 9615   0.848   2.238   2.107
 2906SOL     OW 9616   5.193   5.071   2.080
 2906SOL    HW1 9617   5.190   4.987   2.025
 2906SOL    HW2 9618   5.112   5.075   2.139
 2907SOL     OW 9619   5.776   0.650   4.836
 2907SOL    HW1 9620   5.815   0.658   4.744
 2907SOL    HW2 9621   5.839   0.599   4.894
 2908SOL     OW 9622   4.055   5.995   4.855
 2908SOL    HW1 9623   4.139   6.041   4.827
 2908SOL    HW2 9624   3.993   5.989   4.777
 2909SOL     OW 9625   2.305   6.095   5.891
 2909SOL    HW1 9626   2.225   6.035   5.904
 2909SOL    HW2 9627   2.329   6.099   5.794
 2910SOL     OW 9628   4.174   5.666   5.416
 2910SOL    HW1 9629   4.081   5.655   5.451
 2910SOL    HW2 9630   4.239   5.649   5.491
 2911SOL     OW 9631   2.453   4.359   3.252
 2911SOL    HW1 9632   2.529   4.334   3.193
 2911SOL    HW2 9633   2.381   4.290   3.246
 2912SOL     OW 9634   3.064   5.072   1.683
 2912SOL    HW1 9635   3.033   5.061   1.777
 2912SOL    HW2 9636   3.019   5.004   1.625
 2913SOL     OW 9637   0.513   2.954   1.486
 2913SOL    HW1 9638   0.451   2.880   1.461
 2913SOL    HW2 9639   0.598   2.915   1.520
 2914SOL     OW 9640   4.911   4.590   6.057
 2914SOL    HW1 9641   4.927   4.685   6.084
 2914SOL    HW2 9642   4.927   4.530   6.136
 2915SOL     OW 9643   4.866   1.487   3.034
 2915SOL    HW1 9644   4.855   1.482   3.134
 2915SOL    HW2 9645   4.788   1.443   2.990
 2916SOL     OW 9646   4.992   0.113   4.569
 2916SOL    HW1 9647   4.990   0.131   4.667
 2916SOL    HW2 9648   4.998   0.014   4.554
 2917SOL     OW 9649   3.925   0.236   2.187
 2917SOL    HW1 9650   3.958   0.307   2.126
 2917SOL    HW2 9651   3.989   0.224   2.263
 2918SOL     OW 9652   0.983   3.069   4.648
 2918SOL    HW1 9653   1.038   2.998   4.604
 2918SOL    HW2 9654   0.889   3.063   4.616
 2919SOL     OW 9655   5.494   5.654   7.015
 2919SOL    HW1 9656   5.566   5.584   7.011
 2919SOL    HW2 9657   5.510   5.713   0.073
 2920SOL     OW 9658   4.689   1.314   2.931
 2920SOL    HW1 9659   4.622   1.242   2.910
 2920SOL    HW2 9660   4.713   1.362   2.847
 2921SOL     OW 9661   6.438   1.678   0.700
 2921SOL    HW1 9662   6.364   1.636   0.648
 2921SOL    HW2 9663   6.495   1.606   0.741
 2922SOL     OW 9664   4.446   6.913   4.608
 2922SOL    HW1 9665   4.351   6.890   4.586
 2922SOL    HW2 9666   4.464   7.008   4.585
 2923SOL     OW 9667   0.425   4.465   6.670
 2923SOL    HW1 9668   0.350   4.401   6.688
 2923SOL    HW2 9669   0.475   4.435   6.589
 2924SOL     OW 9670   6.428   0.204   6.117
 2924SOL    HW1 9671   6.427   0.230   6.213
 2924SOL    HW2 9672   6.511   0.240   6.073
 2925SOL     OW 9673   6.480   4.566   0.063
 2925SOL    HW1 9674   6.542   4.502   0.108
 2925SOL    HW2 9675   6.458   4.532   6.992
 2926SOL     OW 9676   6.932   1.334   2.757
 2926SOL    HW1 9677   6.914   1.243   2.720
 2926SOL    HW2 9678   6.890   1.343   2.847
 2927SOL     OW 9679   6.925   3.499   2.898
 2927SOL    HW1 9680   7.021   3.516   2.875
 2927SOL    HW2 9681   6.866   3.532   2.824
 2928SOL     OW 9682   5.646   6.088   0.881
 2928SOL    HW1 9683   5.731   6.046   0.849
 2928SOL    HW2 9684   5.568   6.034   0.848
 2929SOL     OW 9685   0.729   0.234   5.121
 2929SOL    HW1 9686   0.666   0.294   5.071
 2929SOL    HW2 9687   0.748   0.274   5.211
 2930SOL     OW 9688   2.800   0.278   3.875
 2930SOL    HW1 9689   2.735   0.324   3.935
 2930SOL    HW2 9690   2.893   0.291   3.910
 2931SOL     OW 9691   4.507   4.799   6.401
 2931SOL    HW1 9692   4.553   4.884   6.428
 2931SOL    HW2 9693   4.455   4.763   6.479
 2932SOL     OW 9694   0.942   4.744   1.556
 2932SOL    HW1 9695   1.039   4.755   1.533
 2932SOL    HW2 9696   0.932   4.682   1.633
 2933SOL     OW 9697   4.771   2.277   3.700
 2933SOL    HW1 9698   4.700   2.235   3.645
 2933SOL    HW2 9699   4.760   2.377   3.699
 2934SOL     OW 9700   2.107   1.320   1.027
 2934SOL    HW1 9701   2.016   1.311   0.985
 2934SOL    HW2 9702   2.098   1.319   1.127
 2935SOL     OW 9703   6.966   0.965   1.273
 2935SOL    HW1 9704   6.974   0.872   1.308
 2935SOL    HW2 9705   0.007   1.025   1.324
 2936SOL     OW 9706   3.720   4.941   1.167
 2936SOL    HW1 9707   3.793   4.875   1.150
 2936SOL    HW2 9708   3.660   4.946   1.087
 2937SOL     OW 9709   2.792   4.496   0.024
 2937SOL    HW1 9710   2.815   4.551   6.965
 2937SOL    HW2 9711   2.700   4.459   0.014
 2938SOL     OW 9712   4.397   4.558   6.845
 2938SOL    HW1 9713   4.475   4.529   6.901
 2938SOL    HW2 9714   4.326   4.595   6.905
 2939SOL     OW 9715   6.932   6.431   5.722
 2939SOL    HW1 9716   6.955   6.516   5.674
 2939SOL    HW2 9717   7.010   6.403   5.778
 2940SOL     OW 9718   3.782   6.781   5.366
 2940SOL    HW1 9719   3.700   6.837   5.377
 2940SOL    HW2 9720   3.860   6.829   5.407
 2941SOL     OW 9721   3.849   1.792   5.153
 2941SOL    HW1 9722   3.758   1.831   5.159
 2941SOL    HW2 9723   3.849   1.702   5.197
 2942SOL     OW 9724   3.393   6.372   4.194
 2942SOL    HW1 9725   3.489   6.346   4.203
 2942SOL    HW2 9726   3.346   6.357   4.281
 2943SOL     OW 9727   5.739   4.789   2.707
 2943SOL    HW1 9728   5.725   4.694   2.677
 2943SOL    HW2 9729   5.837   4.808   2.710
 2944SOL     OW 9730   5.266   5.915   0.570
 2944SOL    HW1 9731   5.178   5.899   0.526
 2944SOL    HW2 9732   5.277   6.013   0.587
 2945SOL     OW 9733   2.922   3.295   4.505
 2945SOL    HW1 9734   3.006   3.325   4.550
 2945SOL    HW2 9735   2.886   3.215   4.552
 2946SOL     OW 9736   0.942   6.263   5.227
 2946SOL    HW1 9737   1.017   6.208   5.191
 2946SOL    HW2 9738   0.951   6.271   5.327
 2947SOL     OW 9739   6.952   5.316   6.707
 2947SOL    HW1 9740   6.866   5.293   6.752
 2947SOL    HW2 9741   6.981   5.408   6.732
 2948SOL     OW 9742   6.373   3.218   5.689
 2948SOL    HW1 9743   6.416   3.303   5.717
 2948SOL    HW2 9744   6.302   3.236   5.621
 2949SOL     OW 9745   0.542   6.548   0.399
 2949SOL    HW1 9746   0.632   6.525   0.363
 2949SOL    HW2 9747   0.476   6.553   0.324
 2950SOL     OW 9748   5.236   3.409   5.110
 2950SOL    HW1 9749   5.284   3.325   5.084
 2950SOL    HW2 9750   5.138   3.397   5.093
 2951SOL     OW 9751   5.765   0.631   0.213
 2951SOL    HW1 9752   5.854   0.585   0.218
 2951SOL    HW2 9753   5.752   0.689   0.293
 2952SOL     OW 9754   0.638   3.327   2.020
 2952SOL    HW1 9755   0.688   3.241   2.019
 2952SOL    HW2 9756   0.629   3.361   2.113
 2953SOL     OW 9757   5.932   1.831   2.083
 2953SOL    HW1 9758   5.978   1.746   2.108
 2953SOL    HW2 9759   5.855   1.811   2.022
 2954SOL     OW 9760   5.120   5.994   2.122
 2954SOL    HW1 9761   5.162   5.961   2.037
 2954SOL    HW2 9762   5.022   5.971   2.122
 2955SOL     OW 9763   6.206   1.888   1.097
 2955SOL    HW1 9764   6.128   1.829   1.116
 2955SOL    HW2 9765   6.270   1.885   1.174
 2956SOL     OW 9766   5.683   5.999   3.984
 2956SOL    HW1 9767   5.591   5.965   4.002
 2956SOL    HW2 9768   5.723   5.949   3.908
 2957SOL     OW 9769   1.467   4.624   1.643
 2957SOL    HW1 9770   1.441   4.715   1.676
 2957SOL    HW2 9771   1.468   4.624   1.543
 2958SOL     OW 9772   2.831   4.842   6.389
 2958SOL    HW1 9773   2.884   4.775   6.441
 2958SOL    HW2 9774   2.851   4.934   6.423
 2959SOL     OW 9775   3.654   4.948   0.261
 2959SOL    HW1 9776   3.615   5.024   0.312
 2959SOL    HW2 9777   3.754   4.953   0.266
 2960SOL     OW 9778   2.835   1.660   0.524
 2960SOL    HW1 9779   2.877   1.595   0.461
 2960SOL    HW2 9780   2.783   1.611   0.594
 2961SOL     OW 9781   5.690   1.310   4.173
 2961SOL    HW1 9782   5.751   1.248   4.124
 2961SOL    HW2 9783   5.722   1.319   4.268
 2962SOL     OW 9784   4.773   0.130   2.709
 2962SOL    HW1 9785   4.802   0.211   2.657
 2962SOL    HW2 9786   4.851   0.067   2.718
 2963SOL     OW 9787   2.190   3.179   4.897
 2963SOL    HW1 9788   2.170   3.244   4.970
 2963SOL    HW2 9789   2.264   3.118   4.925
 2964SOL     OW 9790   3.067   6.073   0.531
 2964SOL    HW1 9791   3.130   6.149   0.544
 2964SOL    HW2 9792   2.973   6.105   0.538
 2965SOL     OW 9793   0.411   3.142   6.357
 2965SOL    HW1 9794   0.420   3.232   6.314
 2965SOL    HW2 9795   0.356   3.150   6.440
 2966SOL     OW 9796   4.565   4.888   3.502
 2966SOL    HW1 9797   4.541   4.965   3.442
 2966SOL    HW2 9798   4.527   4.803   3.464
 2967SOL     OW 9799   5.828   2.589   4.431
 2967SOL    HW1 9800   5.816   2.583   4.332
 2967SOL    HW2 9801   5.926   2.599   4.452
 2968SOL     OW 9802   6.594   4.223   3.413
 2968SOL    HW1 9803   6.592   4.316   3.379
 2968SOL    HW2 9804   6.689   4.191   3.419
 2969SOL     OW 9805   3.691   1.647   4.952
 2969SOL    HW1 9806   3.744   1.727   4.925
 2969SOL    HW2 9807   3.624   1.672   5.022
 2970SOL     OW 9808   1.223   4.258   5.892
 2970SOL    HW1 9809   1.216   4.205   5.976
 2970SOL    HW2 9810   1.311   4.240   5.848
 2971SOL     OW 9811   5.742   3.513   2.062
 2971SOL    HW1 9812   5.713   3.445   1.995
 2971SOL    HW2 9813   5.835   3.493   2.092
 2972SOL     OW 9814   0.598   4.356   4.436
 2972SOL    HW1 9815   0.553   4.268   4.417
 2972SOL    HW2 9816   0.682   4.361   4.383
 2973SOL     OW 9817   6.250   0.073   3.918
 2973SOL    HW1 9818   6.244   0.089   4.016
 2973SOL    HW2 9819   6.323   0.009   3.898
 2974SOL     OW 9820   6.652   4.191   0.853
 2974SOL    HW1 9821   6.583   4.262   0.870
 2974SOL    HW2 9822   6.606   4.105   0.831
 2975SOL     OW 9823   6.413   1.456   3.949
 2975SOL    HW1 9824   6.335   1.469   3.888
 2975SOL    HW2 9825   6.483   1.525   3.929
 2976SOL     OW 9826   2.270   5.851   1.271
 2976SOL    HW1 9827   2.232   5.916   1.337
 2976SOL    HW2 9828   2.363   5.826   1.300
 2977SOL     OW 9829   3.298   6.924   3.884
 2977SOL    HW1 9830   3.210   6.922   3.931
 2977SOL    HW2 9831   3.287   6.967   3.795
 2978SOL     OW 9832   2.066   0.192   6.529
 2978SOL    HW1 9833   2.090   0.103   6.569
 2978SOL    HW2 9834   2.100   0.197   6.435
 2979SOL     OW 9835   2.965   1.449   3.165
 2979SOL    HW1 9836   2.958   1.360   3.211
 2979SOL    HW2 9837   3.061   1.474   3.154
 2980SOL     OW 9838   6.081   6.994   3.081
 2980SOL    HW1 9839   6.082   6.938   2.998
 2980SOL    HW2 9840   6.083   6.934   3.161
 2981SOL     OW 9841   1.813   1.847   6.059
 2981SOL    HW1 9842   1.871   1.904   6.116
 2981SOL    HW2 9843   1.717   1.867   6.078
 2982SOL     OW 9844   4.822   5.774   1.937
 2982SOL    HW1 9845   4.877   5.713   1.994
 2982SOL    HW2 9846   4.856   5.771   1.843
 2983SOL     OW 9847   0.330   1.142   2.531
 2983SOL    HW1 9848   0.381   1.179   2.453
 2983SOL    HW2 9849   0.320   1.214   2.600
 2984SOL     OW 9850   5.864   4.924   1.341
 2984SOL    HW1 9851   5.854   5.018   1.374
 2984SOL    HW2 9852   5.819   4.861   1.404
 2985SOL     OW 9853   6.167   2.566   3.107
 2985SOL    HW1 9854   6.177   2.634   3.181
 2985SOL    HW2 9855   6.101   2.496   3.135
 2986SOL     OW 9856   1.616   3.411   5.122
 2986SOL    HW1 9857   1.626   3.508   5.103
 2986SOL    HW2 9858   1.521   3.390   5.145
 2987SOL     OW 9859   5.204   1.852   4.909
 2987SOL    HW1 9860   5.252   1.819   4.990
 2987SOL    HW2 9861   5.270   1.893   4.846
 2988SOL     OW 9862   1.163   0.370   2.931
 2988SOL    HW1 9863   1.225   0.424   2.987
 2988SOL    HW2 9864   1.210   0.343   2.846
 2989SOL     OW 9865   6.782   5.338   0.468
 2989SOL    HW1 9866   6.723   5.280   0.412
 2989SOL    HW2 9867   6.737   5.425   0.488
 2990SOL     OW 9868   2.879   1.519   1.481
 2990SOL    HW1 9869   2.800   1.522   1.419
 2990SOL    HW2 9870   2.899   1.424   1.505
 2991SOL     OW 9871   6.437   4.471   6.832
 2991SOL    HW1 9872   6.446   4.379   6.870
 2991SOL    HW2 9873   6.486   4.477   6.745
 2992SOL     OW 9874   4.488   4.235   6.726
 2992SOL    HW1 9875   4.392   4.224   6.699
 2992SOL    HW2 9876   4.547   4.215   6.648
 2993SOL     OW 9877   1.357   4.430   6.863
 2993SOL    HW1 9878   1.338   4.516   6.816
 2993SOL    HW2 9879   1.379   4.448   6.959
 2994SOL     OW 9880   4.661   6.331   0.049
 2994SOL    HW1 9881   4.725   6.255   0.034
 2994SOL    HW2 9882   4.683   6.406   7.008
 2995SOL     OW 9883   2.674   0.786   5.786
 2995SOL    HW1 9884   2.590   0.828   5.750
 2995SOL    HW2 9885   2.650   0.725   5.862
 2996SOL     OW 9886   4.418   6.793   6.006
 2996SOL    HW1 9887   4.513   6.794   6.036
 2996SOL    HW2 9888   4.364   6.735   6.067
 2997SOL     OW 9889   3.990   5.681   0.434
 2997SOL    HW1 9890   4.069   5.732   0.468
 2997SOL    HW2 9891   3.920   5.676   0.505
 2998SOL     OW 9892   6.311   3.979   5.901
 2998SOL    HW1 9893   6.370   3.900   5.913
 2998SOL    HW2 9894   6.358   4.061   5.935
 2999SOL     OW 9895   2.350   1.462   1.828
 2999SOL    HW1 9896   2.426   1.398   1.836
 2999SOL    HW2 9897   2.301   1.468   1.914
 3000SOL     OW 9898   1.504   2.070   4.622
 3000SOL    HW1 9899   1.566   2.108   4.553
 3000SOL    HW2 9900   1.536   2.094   4.713
 3001SOL     OW 9901   4.923   5.880   5.758
 3001SOL    HW1 9902   4.968   5.790   5.762
 3001SOL    HW2 9903   4.847   5.875   5.693
 3002SOL     OW 9904   3.160   0.278   4.912
 3002SOL    HW1 9905   3.094   0.331   4.860
 3002SOL    HW2 9906   3.253   0.303   4.883
 3003SOL     OW 9907   1.405   6.903   5.695
 3003SOL    HW1 9908   1.481   6.856   5.740
 3003SOL    HW2 9909   1.389   6.864   5.605
 3004SOL     OW 9910   6.968   2.700   5.668
 3004SOL    HW1 9911   6.958   2.627   5.735
 3004SOL    HW2 9912   7.019   2.776   5.708
 3005SOL     OW 9913   4.988   2.014   0.637
 3005SOL    HW1 9914   4.999   2.043   0.732
 3005SOL    HW2 9915   4.945   1.923   0.635
 3006SOL     OW 9916   4.480   6.681   2.019
 3006SOL    HW1 9917   4.381   6.695   2.019
 3006SOL    HW2 9918   4.514   6.680   2.113
 3007SOL     OW 9919   5.988   5.385   1.913
 3007SOL    HW1 9920   6.071   5.361   1.964
 3007SOL    HW2 9921   5.928   5.306   1.907
 3008SOL     OW 9922   4.481   5.167   5.744
 3008SOL    HW1 9923   4.447   5.127   5.829
 3008SOL    HW2 9924   4.576   5.140   5.729
 3009SOL     OW 9925   1.416   0.351   2.464
 3009SOL    HW1 9926   1.371   0.269   2.428
 3009SOL    HW2 9927   1.442   0.412   2.389
 3010SOL     OW 9928   3.190   0.444   3.295
 3010SOL    HW1 9929   3.239   0.413   3.376
 3010SOL    HW2 9930   3.130   0.371   3.263
 3011SOL     OW 9931   5.242   0.377   0.678
 3011SOL    HW1 9932   5.242   0.325   0.763
 3011SOL    HW2 9933   5.298   0.329   0.609
 3012SOL     OW 9934   0.158   5.527   1.188
 3012SOL    HW1 9935   0.134   5.431   1.194
 3012SOL    HW2 9936   0.249   5.541   1.227
 3013SOL     OW 9937   5.760   4.735   1.656
 3013SOL    HW1 9938   5.827   4.706   1.725
 3013SOL    HW2 9939   5.713   4.817   1.687
 3014SOL     OW 9940   5.467   6.047   5.496
 3014SOL    HW1 9941   5.488   5.958   5.457
 3014SOL    HW2 9942   5.389   6.039   5.559
 3015SOL     OW 9943   2.820   1.182   0.103
 3015SOL    HW1 9944   2.857   1.191   0.010
 3015SOL    HW2 9945   2.823   1.271   0.148
 3016SOL     OW 9946   4.101   6.012   3.953
 3016SOL    HW1 9947   4.010   5.993   3.918
 3016SOL    HW2 9948   4.095   6.066   4.037
 3017SOL     OW 9949   0.826   6.113   1.725
 3017SOL    HW1 9950   0.726   6.113   1.737
 3017SOL    HW2 9951   0.866   6.042   1.783
 3018SOL     OW 9952   4.347   0.004   5.846
 3018SOL    HW1 9953   4.375   6.948   5.903
 3018SOL    HW2 9954   4.371   7.006   5.751
 3019SOL     OW 9955   4.669   0.745   1.482
 3019SOL    HW1 9956   4.616   0.733   1.398
 3019SOL    HW2 9957   4.652   0.668   1.544
 3020SOL     OW 9958   1.922   0.800   1.858
 3020SOL    HW1 9959   1.935   0.882   1.802
 3020SOL    HW2 9960   1.929   0.825   1.955
 3021SOL     OW 9961   4.296   0.857   6.485
 3021SOL    HW1 9962   4.333   0.812   6.403
 3021SOL    HW2 9963   4.201   0.830   6.498
 3022SOL     OW 9964   0.466   0.734   3.103
 3022SOL    HW1 9965   0.419   0.667   3.045
 3022SOL    HW2 9966   0.398   0.780   3.161
 3023SOL     OW 9967   5.576   0.361   1.708
 3023SOL    HW1 9968   5.663   0.410   1.710
 3023SOL    HW2 9969   5.568   0.311   1.622
 3024SOL     OW 9970   2.043   6.941   6.626
 3024SOL    HW1 9971   2.111   6.876   6.659
 3024SOL    HW2 9972   1.986   6.897   6.557
 3025SOL     OW 9973   1.848   2.227   1.755
 3025SOL    HW1 9974   1.867   2.274   1.841
 3025SOL    HW2 9975   1.908   2.148   1.746
 3026SOL     OW 9976   2.841   5.808   0.596
 3026SOL    HW1 9977   2.781   5.818   0.676
 3026SOL    HW2 9978   2.936   5.813   0.624
 3027SOL     OW 9979   1.326   1.814   3.737
 3027SOL    HW1 9980   1.229   1.823   3.756
 3027SOL    HW2 9981   1.351   1.717   3.735
 3028SOL     OW 9982   1.213   0.338   4.509
 3028SOL    HW1 9983   1.241   0.418   4.561
 3028SOL    HW2 9984   1.178   0.366   4.420
 3029SOL     OW 9985   6.290   4.967   5.903
 3029SOL    HW1 9986   6.253   5.046   5.952
 3029SOL    HW2 9987   6.215   4.910   5.870
 3030SOL     OW 9988   0.948   0.540   5.485
 3030SOL    HW1 9989   1.027   0.504   5.536
 3030SOL    HW2 9990   0.979   0.583   5.401
 3031SOL     OW 9991   0.142   5.855   6.269
 3031SOL    HW1 9992   0.188   5.767   6.280
 3031SOL    HW2 9993   0.044   5.841   6.264
 3032SOL     OW 9994   3.679   6.692   5.761
 3032SOL    HW1 9995   3.657   6.602   5.724
 3032SOL    HW2 9996   3.663   6.762   5.692
 3033SOL     OW 9997   4.658   4.699   5.948
 3033SOL    HW1 9998   4.586   4.675   6.013
 3033SOL    HW2 9999   4.746   4.662   5.980
 3034SOL     OW10000   2.716   6.978   4.465
 3034SOL    HW110001   2.650   6.963   4.538
 3034SOL    HW210002   2.795   6.917   4.479
 3035SOL     OW10003   5.989   0.073   0.012
 3035SOL    HW110004   5.976   7.005   0.056
 3035SOL    HW210005   6.012   0.060   6.937
 3036SOL     OW10006   0.717   5.010   5.550
 3036SOL    HW110007   0.740   5.105   5.525
 3036SOL    HW210008   0.655   4.972   5.481
 3037SOL     OW10009   5.221   6.552   6.221
 3037SOL    HW110010   5.292   6.520   6.284
 3037SOL    HW210011   5.172   6.629   6.262
 3038SOL     OW10012   5.986   5.779   5.809
 3038SOL    HW110013   6.040   5.827   5.877
 3038SOL    HW210014   6.014   5.683   5.806
 3039SOL     OW10015   0.423   5.393   0.562
 3039SOL    HW110016   0.514   5.357   0.583
 3039SOL    HW210017   0.401   5.375   0.466
 3040SOL     OW10018   2.828   0.995   0.426
 3040SOL    HW110019   2.893   0.920   0.436
 3040SOL    HW210020   2.796   1.000   0.331
 3041SOL     OW10021   1.823   2.275   6.225
 3041SOL    HW110022   1.857   2.187   6.192
 3041SOL    HW210023   1.776   2.323   6.151
 3042SOL     OW10024   5.903   0.295   1.013
 3042SOL    HW110025   5.840   0.308   0.937
 3042SOL    HW210026   5.997   0.308   0.980
 3043SOL     OW10027   0.136   5.466   6.532
 3043SOL    HW110028   0.086   5.393   6.487
 3043SOL    HW210029   0.172   5.433   6.619
 3044SOL     OW10030   2.498   3.177   6.622
 3044SOL    HW110031   2.568   3.116   6.583
 3044SOL    HW210032   2.445   3.217   6.547
 3045SOL     OW10033   4.725   2.637   4.731
 3045SOL    HW110034   4.683   2.670   4.647
 3045SOL    HW210035   4.657   2.591   4.788
 3046SOL     OW10036   2.315   2.261   6.296
 3046SOL    HW110037   2.399   2.299   6.258
 3046SOL    HW210038   2.272   2.327   6.357
 3047SOL     OW10039   6.956   5.310   1.872
 3047SOL    HW110040   0.023   5.263   1.865
 3047SOL    HW210041   6.894   5.257   1.930
 3048SOL     OW10042   3.482   2.997   2.023
 3048SOL    HW110043   3.550   3.034   1.960
 3048SOL    HW210044   3.417   2.939   1.973
 3049SOL     OW10045   0.837   0.393   1.072
 3049SOL    HW110046   0.808   0.477   1.025
 3049SOL    HW210047   0.785   0.384   1.157
 3050SOL     OW10048   1.486   0.514   4.148
 3050SOL    HW110049   1.486   0.520   4.248
 3050SOL    HW210050   1.580   0.498   4.116
 3051SOL     OW10051   2.774   4.846   5.836
 3051SOL    HW110052   2.736   4.796   5.914
 3051SOL    HW210053   2.755   4.795   5.751
 3052SOL     OW10054   5.123   6.492   2.769
 3052SOL    HW110055   5.148   6.508   2.674
 3052SOL    HW210056   5.026   6.468   2.775
 3053SOL     OW10057   3.950   6.787   1.851
 3053SOL    HW110058   4.030   6.779   1.791
 3053SOL    HW210059   3.970   6.746   1.940
 3054SOL     OW10060   1.805   4.100   5.692
 3054SOL    HW110061   1.850   4.190   5.691
 3054SOL    HW210062   1.871   4.030   5.667
 3055SOL     OW10063   6.408   6.566   2.733
 3055SOL    HW110064   6.331   6.530   2.680
 3055SOL    HW210065   6.405   6.666   2.733
 3056SOL     OW10066   5.627   0.813   2.212
 3056SOL    HW110067   5.719   0.800   2.247
 3056SOL    HW210068   5.585   0.893   2.255
 3057SOL     OW10069   6.452   5.243   2.458
 3057SOL    HW110070   6.465   5.341   2.440
 3057SOL    HW210071   6.530   5.192   2.422
 3058SOL     OW10072   5.736   6.498   1.436
 3058SOL    HW110073   5.705   6.547   1.517
 3058SOL    HW210074   5.761   6.404   1.461
 3059SOL     OW10075   2.656   2.336   6.531
 3059SOL    HW110076   2.665   2.296   6.440
 3059SOL    HW210077   2.559   2.348   6.553
 3060SOL     OW10078   0.205   6.352   6.208
 3060SOL    HW110079   0.129   6.307   6.254
 3060SOL    HW210080   0.264   6.282   6.166
 3061SOL     OW10081   0.729   0.745   6.097
 3061SOL    HW110082   0.659   0.789   6.153
 3061SOL    HW210083   0.770   0.812   6.036
 3062SOL     OW10084   3.228   4.899   6.482
 3062SOL    HW110085   3.160   4.962   6.519
 3062SOL    HW210086   3.291   4.950   6.422
 3063SOL     OW10087   2.420   5.704   0.940
 3063SOL    HW110088   2.465   5.662   1.019
 3063SOL    HW210089   2.355   5.773   0.971
 3064SOL     OW10090   0.342   4.616   3.125
 3064SOL    HW110091   0.365   4.645   3.218
 3064SOL    HW210092   0.418   4.638   3.063
 3065SOL     OW10093   3.139   1.707   1.283
 3065SOL    HW110094   3.206   1.666   1.346
 3065SOL    HW210095   3.114   1.641   1.213
 3066SOL     OW10096   5.478   4.977   0.731
 3066SOL    HW110097   5.496   4.985   0.829
 3066SOL    HW210098   5.535   5.042   0.681
 3067SOL     OW10099   4.218   6.882   3.065
 3067SOL    HW110100   4.159   6.816   3.112
 3067SOL    HW210101   4.288   6.915   3.128
 3068SOL     OW10102   6.564   4.533   6.598
 3068SOL    HW110103   6.539   4.595   6.523
 3068SOL    HW210104   6.572   4.440   6.563
 3069SOL     OW10105   1.383   4.676   3.285
 3069SOL    HW110106   1.404   4.678   3.383
 3069SOL    HW210107   1.466   4.656   3.233
 3070SOL     OW10108   4.438   1.966   3.857
 3070SOL    HW110109   4.494   1.936   3.934
 3070SOL    HW210110   4.461   1.912   3.776
 3071SOL     OW10111   5.834   0.400   3.592
 3071SOL    HW110112   5.922   0.369   3.556
 3071SOL    HW210113   5.779   0.321   3.618
 3072SOL     OW10114   0.096   0.818   1.597
 3072SOL    HW110115   0.028   0.768   1.543
 3072SOL    HW210116   0.066   0.913   1.607
 3073SOL     OW10117   2.100   1.890   4.808
 3073SOL    HW110118   2.107   1.836   4.892
 3073SOL    HW210119   2.005   1.919   4.796
 3074SOL     OW10120   4.785   3.887   5.856
 3074SOL    HW110121   4.760   3.831   5.777
 3074SOL    HW210122   4.884   3.890   5.865
 3075SOL     OW10123   0.358   5.799   0.934
 3075SOL    HW110124   0.265   5.797   0.971
 3075SOL    HW210125   0.403   5.712   0.954
 3076SOL     OW10126   0.724   0.795   5.260
 3076SOL    HW110127   0.811   0.833   5.292
 3076SOL    HW210128   0.649   0.833   5.314
 3077SOL     OW10129   4.653   4.623   3.332
 3077SOL    HW110130   4.647   4.682   3.251
 3077SOL    HW210131   4.723   4.658   3.394
 3078SOL     OW10132   1.625   3.102   0.182
 3078SOL    HW110133   1.573   3.182   0.212
 3078SOL    HW210134   1.612   3.028   0.248
 3079SOL     OW10135   5.365   2.945   6.124
 3079SOL    HW110136   5.314   2.949   6.038
 3079SOL    HW210137   5.331   3.016   6.185
 3080SOL     OW10138   5.970   6.669   2.260
 3080SOL    HW110139   5.920   6.582   2.251
 3080SOL    HW210140   6.013   6.691   2.172
 3081SOL     OW10141   1.140   4.559   5.873
 3081SOL    HW110142   1.152   4.617   5.792
 3081SOL    HW210143   1.189   4.473   5.861
 3082SOL     OW10144   3.520   0.062   2.232
 3082SOL    HW110145   3.468   7.017   2.178
 3082SOL    HW210146   3.613   0.027   2.246
 3083SOL     OW10147   3.793   7.017   2.219
 3083SOL    HW110148   3.844   0.074   2.184
 3083SOL    HW210149   3.806   7.010   2.318
 3084SOL     OW10150   4.339   6.125   4.238
 3084SOL    HW110151   4.389   6.206   4.208
 3084SOL    HW210152   4.370   6.097   4.329
 3085SOL     OW10153   1.130   5.041   2.262
 3085SOL    HW110154   1.064   4.971   2.234
 3085SOL    HW210155   1.209   5.039   2.200
 3086SOL     OW10156   6.337   1.244   4.303
 3086SOL    HW110157   6.277   1.198   4.238
 3086SOL    HW210158   6.394   1.177   4.350
 3087SOL     OW10159   5.919   3.915   1.584
 3087SOL    HW110160   5.853   3.985   1.613
 3087SOL    HW210161   5.885   3.824   1.610
 3088SOL     OW10162   3.011   3.780   6.392
 3088SOL    HW110163   3.090   3.841   6.402
 3088SOL    HW210164   3.024   3.698   6.447
 3089SOL     OW10165   3.689   1.831   1.706
 3089SOL    HW110166   3.661   1.840   1.802
 3089SOL    HW210167   3.740   1.912   1.678
 3090SOL     OW10168   6.061   1.719   0.857
 3090SOL    HW110169   6.134   1.651   0.856
 3090SOL    HW210170   6.018   1.721   0.947
 3091SOL     OW10171   2.172   6.223   0.072
 3091SOL    HW110172   2.223   6.180   7.018
 3091SOL    HW210173   2.116   6.155   0.118
 3092SOL     OW10174   4.044   5.206   0.178
 3092SOL    HW110175   4.026   5.110   0.199
 3092SOL    HW210176   3.958   5.255   0.168
 3093SOL     OW10177   4.925   6.956   3.329
 3093SOL    HW110178   4.927   6.863   3.365
 3093SOL    HW210179   5.009   6.973   3.277
 3094SOL     OW10180   3.580   5.351   4.911
 3094SOL    HW110181   3.636   5.289   4.856
 3094SOL    HW210182   3.546   5.426   4.853
 3095SOL     OW10183   1.891   5.261   5.000
 3095SOL    HW110184   1.921   5.253   5.095
 3095SOL    HW210185   1.803   5.308   4.997
 3096SOL     OW10186   0.811   1.548   5.522
 3096SOL    HW110187   0.784   1.611   5.449
 3096SOL    HW210188   0.903   1.512   5.504
 3097SOL     OW10189   1.855   0.823   0.132
 3097SOL    HW110190   1.952   0.849   0.139
 3097SOL    HW210191   1.842   0.734   0.174
 3098SOL     OW10192   4.046   2.555   0.921
 3098SOL    HW110193   3.966   2.504   0.890
 3098SOL    HW210194   4.076   2.519   1.010
 3099SOL     OW10195   1.400   5.820   5.393
 3099SOL    HW110196   1.375   5.876   5.314
 3099SOL    HW210197   1.473   5.756   5.368
 3100SOL     OW10198   6.529   6.983   5.937
 3100SOL    HW110199   6.490   6.972   5.846
 3100SOL    HW210200   6.484   0.038   5.983
 3101SOL     OW10201   3.531   0.488   1.146
 3101SOL    HW110202   3.478   0.571   1.164
 3101SOL    HW210203   3.522   0.424   1.222
 3102SOL     OW10204   1.095   5.814   0.055
 3102SOL    HW110205   1.110   5.764   0.140
 3102SOL    HW210206   1.024   5.769   0.001
 3103SOL     OW10207   4.249   4.409   1.671
 3103SOL    HW110208   4.287   4.350   1.743
 3103SOL    HW210209   4.179   4.358   1.620
 3104SOL     OW10210   5.671   5.593   3.715
 3104SOL    HW110211   5.631   5.504   3.691
 3104SOL    HW210212   5.634   5.664   3.655
 3105SOL     OW10213   6.014   5.697   4.045
 3105SOL    HW110214   5.995   5.772   4.110
 3105SOL    HW210215   5.947   5.699   3.971
 3106SOL     OW10216   6.895   3.266   4.934
 3106SOL    HW110217   6.940   3.177   4.933
 3106SOL    HW210218   6.801   3.255   4.966
 3107SOL     OW10219   2.993   7.014   3.718
 3107SOL    HW110220   2.970   0.081   3.676
 3107SOL    HW210221   2.924   6.945   3.692
 3108SOL     OW10222   2.344   0.446   2.909
 3108SOL    HW110223   2.315   0.481   2.998
 3108SOL    HW210224   2.424   0.496   2.877
 3109SOL     OW10225   4.543   5.598   3.173
 3109SOL    HW110226   4.550   5.672   3.239
 3109SOL    HW210227   4.559   5.633   3.081
 3110SOL     OW10228   0.735   2.871   1.635
 3110SOL    HW110229   0.832   2.885   1.658
 3110SOL    HW210230   0.717   2.773   1.626
 3111SOL     OW10231   0.646   4.926   1.904
 3111SOL    HW110232   0.678   4.952   1.995
 3111SOL    HW210233   0.605   4.835   1.908
 3112SOL     OW10234   3.007   3.498   5.758
 3112SOL    HW110235   2.989   3.482   5.661
 3112SOL    HW210236   3.086   3.444   5.786
 3113SOL     OW10237   4.132   6.452   4.336
 3113SOL    HW110238   4.155   6.438   4.240
 3113SOL    HW210239   4.194   6.399   4.393
 3114SOL     OW10240   5.049   5.562   0.783
 3114SOL    HW110241   5.092   5.483   0.740
 3114SOL    HW210242   4.949   5.551   0.780
 3115SOL     OW10243   3.209   2.963   2.191
 3115SOL    HW110244   3.197   2.914   2.105
 3115SOL    HW210245   3.282   2.921   2.244
 3116SOL     OW10246   0.055   1.259   6.710
 3116SOL    HW110247   7.002   1.302   6.761
 3116SOL    HW210248   0.103   1.329   6.657
 3117SOL     OW10249   3.426   4.145   6.307
 3117SOL    HW110250   3.411   4.051   6.277
 3117SOL    HW210251   3.443   4.203   6.227
 3118SOL     OW10252   6.096   5.242   6.898
 3118SOL    HW110253   6.074   5.145   6.913
 3118SOL    HW210254   6.015   5.297   6.918
 3119SOL     OW10255   2.289   4.242   6.633
 3119SOL    HW110256   2.318   4.248   6.538
 3119SOL    HW210257   2.322   4.156   6.673
 3120SOL     OW10258   2.445   5.074   6.946
 3120SOL    HW110259   2.434   5.167   6.982
 3120SOL    HW210260   2.533   5.037   6.977
 3121SOL     OW10261   0.255   5.780   3.530
 3121SOL    HW110262   0.195   5.705   3.503
 3121SOL    HW210263   0.246   5.797   3.628
 3122SOL     OW10264   3.399   5.538   1.377
 3122SOL    HW110265   3.345   5.602   1.323
 3122SOL    HW210266   3.417   5.577   1.467
 3123SOL     OW10267   3.566   6.951   4.284
 3123SOL    HW110268   3.623   6.965   4.364
 3123SOL    HW210269   3.548   6.853   4.272
 3124SOL     OW10270   3.672   6.780   6.025
 3124SOL    HW110271   3.620   6.863   6.046
 3124SOL    HW210272   3.668   6.762   5.927
 3125SOL     OW10273   0.027   1.920   6.341
 3125SOL    HW110274   0.099   1.862   6.378
 3125SOL    HW210275   0.019   2.003   6.397
 3126SOL     OW10276   3.987   6.404   6.563
 3126SOL    HW110277   3.966   6.429   6.469
 3126SOL    HW210278   3.905   6.411   6.619
 3127SOL     OW10279   1.022   1.106   4.415
 3127SOL    HW110280   1.093   1.042   4.447
 3127SOL    HW210281   0.964   1.059   4.348
 3128SOL     OW10282   1.477   0.690   1.197
 3128SOL    HW110283   1.460   0.779   1.155
 3128SOL    HW210284   1.422   0.621   1.151
 3129SOL     OW10285   0.905   2.980   3.224
 3129SOL    HW110286   0.853   2.895   3.220
 3129SOL    HW210287   0.993   2.967   3.178
 3130SOL     OW10288   2.460   5.245   3.095
 3130SOL    HW110289   2.557   5.224   3.102
 3130SOL    HW210290   2.449   5.341   3.069
 3131SOL     OW10291   0.650   2.842   4.145
 3131SOL    HW110292   0.661   2.747   4.115
 3131SOL    HW210293   0.709   2.901   4.091
 3132SOL     OW10294   5.240   3.786   6.180
 3132SOL    HW110295   5.142   3.775   6.198
 3132SOL    HW210296   5.255   3.869   6.126
 3133SOL     OW10297   2.273   1.777   3.686
 3133SOL    HW110298   2.323   1.793   3.771
 3133SOL    HW210299   2.321   1.709   3.631
 3134SOL     OW10300   5.999   2.818   2.028
 3134SOL    HW110301   5.921   2.803   1.967
 3134SOL    HW210302   6.036   2.730   2.056
 3135SOL     OW10303   1.152   2.218   2.970
 3135SOL    HW110304   1.088   2.143   2.987
 3135SOL    HW210305   1.188   2.211   2.877
 3136SOL     OW10306   6.117   0.577   4.779
 3136SOL    HW110307   6.203   0.539   4.746
 3136SOL    HW210308   6.081   0.642   4.712
 3137SOL     OW10309   0.460   1.775   4.593
 3137SOL    HW110310   0.376   1.816   4.628
 3137SOL    HW210311   0.481   1.693   4.644
 3138SOL     OW10312   6.137   2.260   4.289
 3138SOL    HW110313   6.162   2.234   4.382
 3138SOL    HW210314   6.037   2.270   4.282
 3139SOL     OW10315   4.786   5.646   5.073
 3139SOL    HW110316   4.852   5.619   5.003
 3139SOL    HW210317   4.693   5.625   5.043
 3140SOL     OW10318   6.141   5.919   6.005
 3140SOL    HW110319   6.161   5.943   6.100
 3140SOL    HW210320   6.226   5.906   5.954
 3141SOL     OW10321   0.902   6.753   1.939
 3141SOL    HW110322   0.921   6.844   1.900
 3141SOL    HW210323   0.869   6.693   1.866
 3142SOL     OW10324   3.460   0.158   0.520
 3142SOL    HW110325   3.459   0.074   0.465
 3142SOL    HW210326   3.382   0.159   0.582
 3143SOL     OW10327   0.243   1.591   0.210
 3143SOL    HW110328   0.242   1.514   0.274
 3143SOL    HW210329   0.178   1.660   0.241
 3144SOL     OW10330   2.841   2.792   0.055
 3144SOL    HW110331   2.868   2.825   0.146
 3144SOL    HW210332   2.923   2.767   0.003
 3145SOL     OW10333   2.673   5.027   2.730
 3145SOL    HW110334   2.631   4.981   2.652
 3145SOL    HW210335   2.766   5.056   2.706
 3146SOL     OW10336   2.364   6.921   3.923
 3146SOL    HW110337   2.387   6.925   4.020
 3146SOL    HW210338   2.324   6.833   3.901
 3147SOL     OW10339   3.837   4.279   0.649
 3147SOL    HW110340   3.831   4.201   0.711
 3147SOL    HW210341   3.748   4.295   0.607
 3148SOL     OW10342   2.684   5.796   4.685
 3148SOL    HW110343   2.688   5.810   4.784
 3148SOL    HW210344   2.673   5.699   4.665
 3149SOL     OW10345   2.361   6.477   5.507
 3149SOL    HW110346   2.287   6.544   5.518
 3149SOL    HW210347   2.332   6.407   5.442
 3150SOL     OW10348   6.593   0.290   4.164
 3150SOL    HW110349   6.557   0.372   4.207
 3150SOL    HW210350   6.607   0.307   4.066
 3151SOL     OW10351   3.272   6.822   1.608
 3151SOL    HW110352   3.319   6.734   1.609
 3151SOL    HW210353   3.324   6.888   1.662
 3152SOL     OW10354   1.475   4.958   6.272
 3152SOL    HW110355   1.569   4.924   6.280
 3152SOL    HW210356   1.413   4.899   6.323
 3153SOL     OW10357   6.918   4.074   3.149
 3153SOL    HW110358   7.009   4.116   3.158
 3153SOL    HW210359   6.927   3.985   3.103
 3154SOL     OW10360   5.647   2.580   5.889
 3154SOL    HW110361   5.568   2.536   5.849
 3154SOL    HW210362   5.619   2.666   5.934
 3155SOL     OW10363   4.496   5.813   0.128
 3155SOL    HW110364   4.579   5.866   0.146
 3155SOL    HW210365   4.420   5.850   0.183
 3156SOL     OW10366   3.300   3.806   3.430
 3156SOL    HW110367   3.224   3.763   3.380
 3156SOL    HW210368   3.263   3.871   3.496
 3157SOL     OW10369   2.320   2.088   4.868
 3157SOL    HW110370   2.418   2.089   4.850
 3157SOL    HW210371   2.273   2.040   4.794
 3158SOL     OW10372   4.798   6.910   1.705
 3158SOL    HW110373   4.729   6.838   1.694
 3158SOL    HW210374   4.779   6.984   1.641
 3159SOL     OW10375   5.408   4.939   0.329
 3159SOL    HW110376   5.460   4.893   0.401
 3159SOL    HW210377   5.470   4.995   0.274
 3160SOL     OW10378   6.176   4.689   0.564
 3160SOL    HW110379   6.255   4.682   0.503
 3160SOL    HW210380   6.192   4.762   0.631
 3161SOL     OW10381   1.040   1.336   4.252
 3161SOL    HW110382   1.040   1.278   4.334
 3161SOL    HW210383   1.060   1.281   4.171
 3162SOL     OW10384   6.984   0.146   6.013
 3162SOL    HW110385   6.972   0.124   6.109
 3162SOL    HW210386   6.895   0.144   5.967
 3163SOL     OW10387   1.726   4.409   5.522
 3163SOL    HW110388   1.676   4.335   5.478
 3163SOL    HW210389   1.790   4.372   5.589
 3164SOL     OW10390   6.397   5.058   5.576
 3164SOL    HW110391   6.451   4.974   5.589
 3164SOL    HW210392   6.307   5.034   5.540
 3165SOL     OW10393   7.012   2.903   1.255
 3165SOL    HW110394   0.074   2.846   1.259
 3165SOL    HW210395   6.947   2.862   1.191
 3166SOL     OW10396   3.671   2.951   6.219
 3166SOL    HW110397   3.595   2.971   6.157
 3166SOL    HW210398   3.664   3.008   6.301
 3167SOL     OW10399   0.280   5.024   2.039
 3167SOL    HW110400   0.372   5.041   2.072
 3167SOL    HW210401   0.245   4.939   2.079
 3168SOL     OW10402   6.100   2.791   1.056
 3168SOL    HW110403   6.009   2.828   1.074
 3168SOL    HW210404   6.127   2.815   0.963
 3169SOL     OW10405   2.789   2.160   5.803
 3169SOL    HW110406   2.806   2.176   5.706
 3169SOL    HW210407   2.704   2.204   5.829
 3170SOL     OW10408   3.487   0.058   4.809
 3170SOL    HW110409   3.536   0.010   4.882
 3170SOL    HW210410   3.447   0.142   4.845
 3171SOL     OW10411   6.111   5.716   2.940
 3171SOL    HW110412   6.022   5.687   2.905
 3171SOL    HW210413   6.183   5.664   2.894
 3172SOL     OW10414   5.688   6.782   5.610
 3172SOL    HW110415   5.635   6.813   5.530
 3172SOL    HW210416   5.733   6.696   5.588
 3173SOL     OW10417   1.958   1.034   1.740
 3173SOL    HW110418   1.999   1.001   1.654
 3173SOL    HW210419   1.936   1.131   1.731
 3174SOL     OW10420   2.335   3.215   6.863
 3174SOL    HW110421   2.397   3.206   6.784
 3174SOL    HW210422   2.346   3.136   6.923
 3175SOL     OW10423   0.086   6.196   0.275
 3175SOL    HW110424   0.182   6.209   0.250
 3175SOL    HW210425   0.028   6.203   0.193
 3176SOL     OW10426   0.677   5.580   0.096
 3176SOL    HW110427   0.621   5.550   0.018
 3176SOL    HW210428   0.693   5.503   0.157
 3177SOL     OW10429   0.910   0.284   4.023
 3177SOL    HW110430   0.886   0.201   3.972
 3177SOL    HW210431   0.941   0.354   3.959
 3178SOL     OW10432   3.483   3.128   0.168
 3178SOL    HW110433   3.461   3.185   0.089
 3178SOL    HW210434   3.421   3.148   0.243
 3179SOL     OW10435   1.230   2.603   4.466
 3179SOL    HW110436   1.138   2.588   4.430
 3179SOL    HW210437   1.291   2.530   4.434
 3180SOL     OW10438   6.568   1.300   6.760
 3180SOL    HW110439   6.494   1.242   6.794
 3180SOL    HW210440   6.614   1.254   6.684
 3181SOL     OW10441   0.382   1.606   2.372
 3181SOL    HW110442   0.307   1.600   2.307
 3181SOL    HW210443   0.468   1.585   2.325
 3182SOL     OW10444   1.650   5.348   5.881
 3182SOL    HW110445   1.749   5.365   5.883
 3182SOL    HW210446   1.604   5.410   5.944
 3183SOL     OW10447   4.652   3.543   1.346
 3183SOL    HW110448   4.727   3.604   1.372
 3183SOL    HW210449   4.597   3.521   1.427
 3184SOL     OW10450   0.493   1.911   3.090
 3184SOL    HW110451   0.484   1.951   2.998
 3184SOL    HW210452   0.528   1.818   3.082
 3185SOL     OW10453   0.178   6.322   7.006
 3185SOL    HW110454   0.238   6.288   6.933
 3185SOL    HW210455   0.224   6.396   0.035
 3186SOL     OW10456   3.517   0.196   1.301
 3186SOL    HW110457   3.534   0.276   1.358
 3186SOL    HW210458   3.456   0.133   1.350
 3187SOL     OW10459   3.262   4.185   0.373
 3187SOL    HW110460   3.292   4.278   0.349
 3187SOL    HW210461   3.327   4.145   0.437
 3188SOL     OW10462   3.792   6.895   3.623
 3188SOL    HW110463   3.699   6.918   3.651
 3188SOL    HW210464   3.796   6.798   3.599
 3189SOL     OW10465   6.259   6.486   2.276
 3189SOL    HW110466   6.232   6.582   2.281
 3189SOL    HW210467   6.327   6.475   2.204
 3190SOL     OW10468   1.342   0.267   2.040
 3190SOL    HW110469   1.377   0.353   2.003
 3190SOL    HW210470   1.351   0.195   1.971
 3191SOL     OW10471   3.359   1.280   0.466
 3191SOL    HW110472   3.312   1.193   0.451
 3191SOL    HW210473   3.291   1.353   0.478
 3192SOL     OW10474   5.462   3.008   4.127
 3192SOL    HW110475   5.546   3.053   4.097
 3192SOL    HW210476   5.484   2.916   4.162
 3193SOL     OW10477   5.281   4.689   1.509
 3193SOL    HW110478   5.189   4.725   1.491
 3193SOL    HW210479   5.279   4.631   1.589
 3194SOL     OW10480   2.828   5.660   4.913
 3194SOL    HW110481   2.850   5.615   4.999
 3194SOL    HW210482   2.759   5.731   4.929
 3195SOL     OW10483   6.414   4.260   4.214
 3195SOL    HW110484   6.379   4.176   4.172
 3195SOL    HW210485   6.338   4.312   4.253
 3196SOL     OW10486   6.923   6.494   6.385
 3196SOL    HW110487   6.833   6.486   6.342
 3196SOL    HW210488   6.923   6.572   6.448
 3197SOL     OW10489   0.408   4.346   5.811
 3197SOL    HW110490   0.471   4.404   5.864
 3197SOL    HW210491   0.334   4.402   5.775
 3198SOL     OW10492   5.836   6.837   0.628
 3198SOL    HW110493   5.755   6.784   0.653
 3198SOL    HW210494   5.834   6.857   0.530
 3199SOL     OW10495   3.016   1.416   3.519
 3199SOL    HW110496   3.109   1.436   3.486
 3199SOL    HW210497   2.961   1.381   3.443
 3200SOL     OW10498   6.531   2.056   0.289
 3200SOL    HW110499   6.498   2.031   0.380
 3200SOL    HW210500   6.460   2.038   0.221
 3201SOL     OW10501   3.984   4.837   2.984
 3201SOL    HW110502   3.914   4.817   3.052
 3201SOL    HW210503   3.949   4.904   2.918
 3202SOL     OW10504   1.122   5.251   1.898
 3202SOL    HW110505   1.183   5.176   1.924
 3202SOL    HW210506   1.032   5.214   1.873
 3203SOL     OW10507   4.141   0.177   0.913
 3203SOL    HW110508   4.193   0.095   0.933
 3203SOL    HW210509   4.174   0.218   0.828
 3204SOL     OW10510   6.595   6.912   1.991
 3204SOL    HW110511   6.534   6.956   2.057
 3204SOL    HW210512   6.689   6.937   2.011
 3205SOL     OW10513   1.340   3.574   4.363
 3205SOL    HW110514   1.385   3.500   4.414
 3205SOL    HW210515   1.283   3.627   4.426
 3206SOL     OW10516   2.114   6.431   0.262
 3206SOL    HW110517   2.123   6.514   0.207
 3206SOL    HW210518   2.148   6.353   0.210
 3207SOL     OW10519   1.904   0.998   3.127
 3207SOL    HW110520   1.989   1.017   3.077
 3207SOL    HW210521   1.826   1.026   3.070
 3208SOL     OW10522   5.979   6.554   5.760
 3208SOL    HW110523   5.930   6.533   5.676
 3208SOL    HW210524   5.945   6.497   5.834
 3209SOL     OW10525   1.158   6.758   3.779
 3209SOL    HW110526   1.197   6.714   3.860
 3209SOL    HW210527   1.221   6.750   3.703
 3210SOL     OW10528   0.350   6.233   1.768
 3210SOL    HW110529   0.294   6.187   1.699
 3210SOL    HW210530   0.291   6.274   1.838
 3211SOL     OW10531   0.425   4.546   4.032
 3211SOL    HW110532   0.472   4.610   3.972
 3211SOL    HW210533   0.490   4.479   4.067
 3212SOL     OW10534   4.455   2.446   5.090
 3212SOL    HW110535   4.359   2.422   5.099
 3212SOL    HW210536   4.509   2.362   5.077
 3213SOL     OW10537   5.294   0.405   1.431
 3213SOL    HW110538   5.215   0.374   1.484
 3213SOL    HW210539   5.374   0.350   1.457
 3214SOL     OW10540   4.656   4.230   0.079
 3214SOL    HW110541   4.643   4.164   0.005
 3214SOL    HW210542   4.567   4.258   0.115
 3215SOL     OW10543   6.399   1.261   0.171
 3215SOL    HW110544   6.410   1.167   0.203
 3215SOL    HW210545   6.396   1.263   0.071
 3216SOL     OW10546   5.189   6.492   5.235
 3216SOL    HW110547   5.090   6.485   5.247
 3216SOL    HW210548   5.219   6.584   5.258
 3217SOL     OW10549   0.209   4.442   6.441
 3217SOL    HW110550   0.229   4.344   6.428
 3217SOL    HW210551   0.294   4.494   6.437
 3218SOL     OW10552   4.061   2.395   1.602
 3218SOL    HW110553   3.985   2.449   1.567
 3218SOL    HW210554   4.026   2.328   1.667
 3219SOL     OW10555   0.746   1.509   3.187
 3219SOL    HW110556   0.753   1.570   3.266
 3219SOL    HW210557   0.683   1.547   3.121
 3220SOL     OW10558   6.630   2.884   6.425
 3220SOL    HW110559   6.611   2.786   6.423
 3220SOL    HW210560   6.653   2.912   6.518
 3221SOL     OW10561   3.860   0.532   1.664
 3221SOL    HW110562   3.946   0.523   1.614
 3221SOL    HW210563   3.878   0.569   1.755
 3222SOL     OW10564   6.378   3.814   2.242
 3222SOL    HW110565   6.458   3.768   2.203
 3222SOL    HW210566   6.300   3.752   2.240
 3223SOL     OW10567   1.276   4.294   5.107
 3223SOL    HW110568   1.239   4.236   5.179
 3223SOL    HW210569   1.247   4.389   5.123
 3224SOL     OW10570   2.647   6.211   1.299
 3224SOL    HW110571   2.577   6.166   1.354
 3224SOL    HW210572   2.605   6.247   1.215
 3225SOL     OW10573   1.534   1.973   0.741
 3225SOL    HW110574   1.615   1.918   0.721
 3225SOL    HW210575   1.554   2.069   0.720
 3226SOL     OW10576   6.694   1.581   3.659
 3226SOL    HW110577   6.753   1.500   3.662
 3226SOL    HW210578   6.655   1.597   3.750
 3227SOL     OW10579   2.671   1.523   5.001
 3227SOL    HW110580   2.600   1.481   5.057
 3227SOL    HW210581   2.699   1.458   4.930
 3228SOL     OW10582   4.997   3.383   5.027
 3228SOL    HW110583   4.917   3.443   5.030
 3228SOL    HW210584   4.969   3.290   5.005
 3229SOL     OW10585   4.363   1.535   4.657
 3229SOL    HW110586   4.273   1.553   4.696
 3229SOL    HW210587   4.373   1.582   4.570
 3230SOL     OW10588   1.659   6.948   4.612
 3230SOL    HW110589   1.578   6.940   4.555
 3230SOL    HW210590   1.733   6.991   4.560
 3231SOL     OW10591   4.188   4.761   0.270
 3231SOL    HW110592   4.109   4.702   0.292
 3231SOL    HW210593   4.268   4.703   0.253
 3232SOL     OW10594   0.925   3.855   3.387
 3232SOL    HW110595   0.964   3.946   3.372
 3232SOL    HW210596   0.987   3.786   3.350
 3233SOL     OW10597   2.464   4.097   0.493
 3233SOL    HW110598   2.452   4.041   0.575
 3233SOL    HW210599   2.553   4.076   0.452
 3234SOL     OW10600   6.784   1.545   4.247
 3234SOL    HW110601   6.718   1.477   4.215
 3234SOL    HW210602   6.877   1.508   4.240
 3235SOL     OW10603   6.253   0.730   2.428
 3235SOL    HW110604   6.332   0.676   2.399
 3235SOL    HW210605   6.284   0.815   2.470
 3236SOL     OW10606   6.826   1.848   1.374
 3236SOL    HW110607   6.904   1.867   1.434
 3236SOL    HW210608   6.763   1.785   1.420
 3237SOL     OW10609   2.847   5.908   4.495
 3237SOL    HW110610   2.934   5.863   4.511
 3237SOL    HW210611   2.774   5.856   4.539
 3238SOL     OW10612   6.483   6.540   6.733
 3238SOL    HW110613   6.525   6.615   6.682
 3238SOL    HW210614   6.527   6.532   6.823
 3239SOL     OW10615   1.924   6.430   6.389
 3239SOL    HW110616   2.005   6.489   6.394
 3239SOL    HW210617   1.951   6.335   6.403
 3240SOL     OW10618   1.455   2.421   4.498
 3240SOL    HW110619   1.537   2.364   4.491
 3240SOL    HW210620   1.476   2.504   4.550
 3241SOL     OW10621   3.663   6.358   5.115
 3241SOL    HW110622   3.577   6.387   5.074
 3241SOL    HW210623   3.692   6.272   5.073
 3242SOL     OW10624   2.414   0.832   1.074
 3242SOL    HW110625   2.489   0.896   1.093
 3242SOL    HW210626   2.328   0.882   1.075
 3243SOL     OW10627   3.668   5.981   2.119
 3243SOL    HW110628   3.650   6.065   2.172
 3243SOL    HW210629   3.754   5.940   2.149
 3244SOL     OW10630   1.172   0.149   5.081
 3244SOL    HW110631   1.113   0.154   5.001
 3244SOL    HW210632   1.229   0.067   5.075
 3245SOL     OW10633   3.239   1.874   5.847
 3245SOL    HW110634   3.283   1.930   5.917
 3245SOL    HW210635   3.306   1.849   5.777
 3246SOL     OW10636   6.145   6.461   2.678
 3246SOL    HW110637   6.127   6.423   2.769
 3246SOL    HW210638   6.103   6.552   2.671
 3247SOL     OW10639   6.031   2.853   5.111
 3247SOL    HW110640   5.965   2.846   5.186
 3247SOL    HW210641   5.984   2.844   5.023
 3248SOL     OW10642   5.313   4.354   3.108
 3248SOL    HW110643   5.269   4.357   3.019
 3248SOL    HW210644   5.350   4.263   3.124
 3249SOL     OW10645   3.500   5.330   5.939
 3249SOL    HW110646   3.494   5.233   5.917
 3249SOL    HW210647   3.471   5.384   5.860
 3250SOL     OW10648   4.576   4.684   0.697
 3250SOL    HW110649   4.514   4.748   0.653
 3250SOL    HW210650   4.587   4.603   0.639
 3251SOL     OW10651   2.240   1.422   3.587
 3251SOL    HW110652   2.287   1.376   3.662
 3251SOL    HW210653   2.150   1.453   3.617
 3252SOL     OW10654   2.955   2.260   3.009
 3252SOL    HW110655   3.004   2.250   2.922
 3252SOL    HW210656   2.956   2.356   3.037
 3253SOL     OW10657   4.772   4.317   1.886
 3253SOL    HW110658   4.737   4.324   1.980
 3253SOL    HW210659   4.719   4.379   1.827
 3254SOL     OW10660   6.285   3.712   3.124
 3254SOL    HW110661   6.355   3.660   3.074
 3254SOL    HW210662   6.256   3.790   3.069
 3255SOL     OW10663   3.256   4.798   0.910
 3255SOL    HW110664   3.243   4.775   1.006
 3255SOL    HW210665   3.168   4.827   0.871
 3256SOL     OW10666   6.663   0.165   5.308
 3256SOL    HW110667   6.678   0.262   5.294
 3256SOL    HW210668   6.690   0.115   5.226
 3257SOL     OW10669   2.537   1.041   1.892
 3257SOL    HW110670   2.612   0.993   1.937
 3257SOL    HW210671   2.516   0.996   1.806
 3258SOL     OW10672   4.805   7.012   2.363
 3258SOL    HW110673   4.777   0.038   2.279
 3258SOL    HW210674   4.799   6.913   2.349
 3259SOL     OW10675   5.989   5.357   3.135
 3259SOL    HW110676   6.029   5.329   3.222
 3259SOL    HW210677   5.976   5.277   3.077
 3260SOL     OW10678   2.305   1.610   1.219
 3260SOL    HW110679   2.287   1.584   1.124
 3260SOL    HW210680   2.378   1.678   1.222
 3261SOL     OW10681   5.597   6.613   4.186
 3261SOL    HW110682   5.690   6.580   4.169
 3261SOL    HW210683   5.533   6.568   4.123
 3262SOL     OW10684   4.586   2.176   3.936
 3262SOL    HW110685   4.658   2.218   3.881
 3262SOL    HW210686   4.538   2.108   3.881
 3263SOL     OW10687   3.279   4.967   3.091
 3263SOL    HW110688   3.337   4.942   3.014
 3263SOL    HW210689   3.184   4.941   3.071
 3264SOL     OW10690   5.261   4.218   6.524
 3264SOL    HW110691   5.308   4.277   6.458
 3264SOL    HW210692   5.163   4.239   6.524
 3265SOL     OW10693   5.331   6.961   5.694
 3265SOL    HW110694   5.250   6.925   5.647
 3265SOL    HW210695   5.354   6.901   5.771
 3266SOL     OW10696   0.714   2.422   6.359
 3266SOL    HW110697   0.765   2.398   6.442
 3266SOL    HW210698   0.752   2.505   6.319
 3267SOL     OW10699   5.557   4.377   1.737
 3267SOL    HW110700   5.547   4.476   1.728
 3267SOL    HW210701   5.653   4.352   1.727
 3268SOL     OW10702   2.076   5.455   0.343
 3268SOL    HW110703   2.008   5.518   0.305
 3268SOL    HW210704   2.121   5.406   0.268
 3269SOL     OW10705   4.402   2.790   1.308
 3269SOL    HW110706   4.417   2.814   1.212
 3269SOL    HW210707   4.369   2.696   1.314
 3270SOL     OW10708   6.582   5.522   3.190
 3270SOL    HW110709   6.571   5.514   3.289
 3270SOL    HW210710   6.493   5.509   3.146
 3271SOL     OW10711   4.929   0.212   0.549
 3271SOL    HW110712   4.957   0.184   0.641
 3271SOL    HW210713   4.944   0.310   0.538
 3272SOL     OW10714   4.550   5.441   5.773
 3272SOL    HW110715   4.533   5.349   5.740
 3272SOL    HW210716   4.498   5.457   5.856
 3273SOL     OW10717   6.877   0.023   3.003
 3273SOL    HW110718   6.834   0.003   3.092
 3273SOL    HW210719   6.945   6.974   2.984
 3274SOL     OW10720   3.114   0.933   1.177
 3274SOL    HW110721   3.176   0.935   1.256
 3274SOL    HW210722   3.029   0.980   1.201
 3275SOL     OW10723   4.034   0.474   6.749
 3275SOL    HW110724   4.099   0.510   6.681
 3275SOL    HW210725   4.040   0.374   6.751
 3276SOL     OW10726   1.378   5.591   1.451
 3276SOL    HW110727   1.321   5.530   1.505
 3276SOL    HW210728   1.360   5.577   1.354
 3277SOL     OW10729   0.342   6.174   6.844
 3277SOL    HW110730   0.374   6.081   6.862
 3277SOL    HW210731   0.399   6.216   6.773
 3278SOL     OW10732   1.121   0.336   0.014
 3278SOL    HW110733   1.189   0.323   0.086
 3278SOL    HW210734   1.045   0.273   0.028
 3279SOL     OW10735   1.935   6.422   1.464
 3279SOL    HW110736   1.903   6.391   1.374
 3279SOL    HW210737   1.935   6.522   1.465
 3280SOL     OW10738   2.879   5.568   3.117
 3280SOL    HW110739   2.975   5.545   3.131
 3280SOL    HW210740   2.850   5.538   3.026
 3281SOL     OW10741   1.474   6.681   1.033
 3281SOL    HW110742   1.476   6.581   1.029
 3281SOL    HW210743   1.498   6.711   1.125
 3282SOL     OW10744   1.474   4.794   2.282
 3282SOL    HW110745   1.481   4.885   2.321
 3282SOL    HW210746   1.524   4.728   2.339
 3283SOL     OW10747   1.531   0.505   3.145
 3283SOL    HW110748   1.432   0.515   3.128
 3283SOL    HW210749   1.571   0.596   3.156
 3284SOL     OW10750   2.011   5.917   5.413
 3284SOL    HW110751   1.955   5.956   5.485
 3284SOL    HW210752   1.995   5.966   5.327
 3285SOL     OW10753   0.503   3.370   4.481
 3285SOL    HW110754   0.589   3.320   4.472
 3285SOL    HW210755   0.436   3.331   4.417
 3286SOL     OW10756   5.047   4.330   6.344
 3286SOL    HW110757   5.053   4.425   6.315
 3286SOL    HW210758   4.962   4.316   6.395
 3287SOL     OW10759   0.210   2.540   0.976
 3287SOL    HW110760   0.309   2.556   0.969
 3287SOL    HW210761   0.177   2.499   0.892
 3288SOL     OW10762   0.688   0.009   0.397
 3288SOL    HW110763   0.702   0.108   0.397
 3288SOL    HW210764   0.733   6.989   0.317
 3289SOL     OW10765   1.357   0.050   3.664
 3289SOL    HW110766   1.347   0.105   3.581
 3289SOL    HW210767   1.315   0.098   3.741
 3290SOL     OW10768   6.927   4.819   4.088
 3290SOL    HW110769   6.854   4.887   4.099
 3290SOL    HW210770   7.000   4.857   4.032
 3291SOL     OW10771   0.923   1.844   1.625
 3291SOL    HW110772   0.899   1.927   1.575
 3291SOL    HW210773   1.013   1.854   1.666
 3292SOL     OW10774   1.122   6.563   4.116
 3292SOL    HW110775   1.162   6.479   4.081
 3292SOL    HW210776   1.058   6.542   4.190
 3293SOL     OW10777   5.878   0.563   3.109
 3293SOL    HW110778   5.975   0.584   3.119
 3293SOL    HW210779   5.856   0.479   3.158
 3294SOL     OW10780   6.895   6.590   1.387
 3294SOL    HW110781   6.863   6.566   1.296
 3294SOL    HW210782   6.897   6.689   1.397
 3295SOL     OW10783   3.037   2.919   6.242
 3295SOL    HW110784   2.980   2.998   6.218
 3295SOL    HW210785   3.019   2.844   6.178
 3296SOL     OW10786   0.897   6.634   1.712
 3296SOL    HW110787   0.896   6.699   1.636
 3296SOL    HW210788   0.895   6.541   1.675
 3297SOL     OW10789   3.520   0.853   5.601
 3297SOL    HW110790   3.432   0.873   5.643
 3297SOL    HW210791   3.517   0.760   5.563
 3298SOL     OW10792   0.377   5.470   3.146
 3298SOL    HW110793   0.313   5.393   3.145
 3298SOL    HW210794   0.327   5.554   3.167
 3299SOL     OW10795   1.943   1.296   4.497
 3299SOL    HW110796   1.865   1.355   4.517
 3299SOL    HW210797   2.023   1.352   4.474
 3300SOL     OW10798   0.382   6.912   5.092
 3300SOL    HW110799   0.436   6.833   5.060
 3300SOL    HW210800   0.418   6.995   5.051
 3301SOL     OW10801   6.401   4.325   2.287
 3301SOL    HW110802   6.362   4.234   2.283
 3301SOL    HW210803   6.479   4.325   2.351
 3302SOL     OW10804   1.830   6.046   5.590
 3302SOL    HW110805   1.756   6.006   5.644
 3302SOL    HW210806   1.818   6.145   5.585
 3303SOL     OW10807   3.315   3.586   5.075
 3303SOL    HW110808   3.266   3.654   5.128
 3303SOL    HW210809   3.301   3.602   4.978
 3304SOL     OW10810   1.600   0.796   3.650
 3304SOL    HW110811   1.693   0.832   3.652
 3304SOL    HW210812   1.602   0.696   3.653
 3305SOL     OW10813   0.786   2.213   0.326
 3305SOL    HW110814   0.738   2.135   0.367
 3305SOL    HW210815   0.879   2.218   0.361
 3306SOL     OW10816   1.191   1.384   0.928
 3306SOL    HW110817   1.170   1.348   0.836
 3306SOL    HW210818   1.109   1.425   0.967
 3307SOL     OW10819   0.100   6.840   0.195
 3307SOL    HW110820   0.130   6.935   0.208
 3307SOL    HW210821   0.164   6.778   0.240
 3308SOL     OW10822   5.364   6.355   0.182
 3308SOL    HW110823   5.461   6.368   0.203
 3308SOL    HW210824   5.321   6.444   0.166
 3309SOL     OW10825   0.863   4.518   2.040
 3309SOL    HW110826   0.786   4.498   2.100
 3309SOL    HW210827   0.896   4.433   1.999
 3310SOL     OW10828   2.389   6.113   2.427
 3310SOL    HW110829   2.310   6.054   2.417
 3310SOL    HW210830   2.471   6.066   2.393
 3311SOL     OW10831   4.433   5.570   1.007
 3311SOL    HW110832   4.378   5.491   0.982
 3311SOL    HW210833   4.428   5.585   1.106
 3312SOL     OW10834   2.031   2.452   6.217
 3312SOL    HW110835   1.960   2.382   6.218
 3312SOL    HW210836   1.988   2.543   6.209
 3313SOL     OW10837   5.560   6.876   5.097
 3313SOL    HW110838   5.634   6.844   5.038
 3313SOL    HW210839   5.588   6.869   5.193
 3314SOL     OW10840   0.883   4.238   6.230
 3314SOL    HW110841   0.859   4.174   6.157
 3314SOL    HW210842   0.977   4.221   6.259
 3315SOL     OW10843   6.355   3.236   3.236
 3315SOL    HW110844   6.417   3.280   3.301
 3315SOL    HW210845   6.267   3.217   3.280
 3316SOL     OW10846   3.216   0.123   6.649
 3316SOL    HW110847   3.148   0.050   6.657
 3316SOL    HW210848   3.289   0.109   6.716
 3317SOL     OW10849   5.624   2.892   1.256
 3317SOL    HW110850   5.639   2.991   1.251
 3317SOL    HW210851   5.534   2.874   1.295
 3318SOL     OW10852   2.686   5.100   6.751
 3318SOL    HW110853   2.600   5.114   6.702
 3318SOL    HW210854   2.671   5.038   6.828
 3319SOL     OW10855   1.030   5.760   6.037
 3319SOL    HW110856   1.054   5.821   6.112
 3319SOL    HW210857   1.033   5.811   5.951
 3320SOL     OW10858   1.044   0.707   1.241
 3320SOL    HW110859   0.969   0.648   1.272
 3320SOL    HW210860   1.112   0.652   1.193
 3321SOL     OW10861   3.867   3.594   4.304
 3321SOL    HW110862   3.908   3.527   4.365
 3321SOL    HW210863   3.925   3.675   4.299
 3322SOL     OW10864   5.223   3.709   2.811
 3322SOL    HW110865   5.305   3.765   2.820
 3322SOL    HW210866   5.142   3.768   2.808
 3323SOL     OW10867   1.693   4.491   0.768
 3323SOL    HW110868   1.743   4.407   0.788
 3323SOL    HW210869   1.597   4.469   0.750
 3324SOL     OW10870   6.738   3.331   1.528
 3324SOL    HW110871   6.820   3.291   1.569
 3324SOL    HW210872   6.765   3.409   1.471
 3325SOL     OW10873   1.310   4.755   5.111
 3325SOL    HW110874   1.267   4.731   5.198
 3325SOL    HW210875   1.360   4.676   5.076
 3326SOL     OW10876   4.596   6.609   2.291
 3326SOL    HW110877   4.684   6.643   2.324
 3326SOL    HW210878   4.560   6.541   2.356
 3327SOL     OW10879   5.101   6.381   1.535
 3327SOL    HW110880   5.052   6.296   1.557
 3327SOL    HW210881   5.198   6.361   1.524
 3328SOL     OW10882   6.105   6.472   3.660
 3328SOL    HW110883   6.194   6.428   3.656
 3328SOL    HW210884   6.115   6.571   3.650
 3329SOL     OW10885   5.628   0.342   6.523
 3329SOL    HW110886   5.726   0.331   6.534
 3329SOL    HW210887   5.605   0.341   6.426
 3330SOL     OW10888   5.877   0.321   2.873
 3330SOL    HW110889   5.922   0.386   2.934
 3330SOL    HW210890   5.779   0.319   2.894
 3331SOL     OW10891   0.937   3.195   2.341
 3331SOL    HW110892   0.935   3.254   2.422
 3331SOL    HW210893   0.978   3.107   2.365
 3332SOL     OW10894   4.486   5.081   0.858
 3332SOL    HW110895   4.393   5.055   0.881
 3332SOL    HW210896   4.540   5.091   0.941
 3333SOL     OW10897   2.290   4.126   0.868
 3333SOL    HW110898   2.352   4.063   0.822
 3333SOL    HW210899   2.332   4.217   0.874
 3334SOL     OW10900   1.711   2.842   2.242
 3334SOL    HW110901   1.696   2.846   2.341
 3334SOL    HW210902   1.646   2.903   2.196
 3335SOL     OW10903   4.632   4.135   6.492
 3335SOL    HW110904   4.632   4.048   6.542
 3335SOL    HW210905   4.611   4.117   6.396
 3336SOL     OW10906   3.637   5.934   5.859
 3336SOL    HW110907   3.703   5.945   5.933
 3336SOL    HW210908   3.607   5.838   5.856
 3337SOL     OW10909   3.061   3.907   3.848
 3337SOL    HW110910   3.075   3.821   3.898
 3337SOL    HW210911   3.096   3.983   3.903
 3338SOL     OW10912   3.427   2.947   1.623
 3338SOL    HW110913   3.423   3.034   1.574
 3338SOL    HW210914   3.368   2.881   1.577
 3339SOL     OW10915   0.720   6.715   5.895
 3339SOL    HW110916   0.674   6.739   5.981
 3339SOL    HW210917   0.800   6.658   5.915
 3340SOL     OW10918   4.837   1.633   6.669
 3340SOL    HW110919   4.814   1.671   6.580
 3340SOL    HW210920   4.902   1.558   6.658
 3341SOL     OW10921   1.164   4.028   1.868
 3341SOL    HW110922   1.227   4.100   1.840
 3341SOL    HW210923   1.128   3.982   1.786
 3342SOL     OW10924   5.907   0.438   2.631
 3342SOL    HW110925   5.929   0.368   2.698
 3342SOL    HW210926   5.864   0.516   2.677
 3343SOL     OW10927   3.817   4.712   0.634
 3343SOL    HW110928   3.799   4.620   0.670
 3343SOL    HW210929   3.777   4.720   0.543
 3344SOL     OW10930   1.510   3.673   0.906
 3344SOL    HW110931   1.465   3.588   0.934
 3344SOL    HW210932   1.461   3.712   0.829
 3345SOL     OW10933   4.862   4.824   1.110
 3345SOL    HW110934   4.796   4.865   1.173
 3345SOL    HW210935   4.875   4.885   1.032
 3346SOL     OW10936   0.985   0.640   0.030
 3346SOL    HW110937   1.015   0.547   0.052
 3346SOL    HW210938   1.058   0.705   0.049
 3347SOL     OW10939   0.700   3.371   5.755
 3347SOL    HW110940   0.764   3.424   5.810
 3347SOL    HW210941   0.749   3.325   5.681
 3348SOL     OW10942   3.235   4.287   5.799
 3348SOL    HW110943   3.210   4.248   5.710
 3348SOL    HW210944   3.194   4.377   5.809
 3349SOL     OW10945   2.336   5.165   1.855
 3349SOL    HW110946   2.408   5.144   1.789
 3349SOL    HW210947   2.367   5.238   1.916
 3350SOL     OW10948   3.176   5.585   3.986
 3350SOL    HW110949   3.118   5.611   3.909
 3350SOL    HW210950   3.211   5.492   3.971
 3351SOL     OW10951   5.066   0.039   1.924
 3351SOL    HW110952   5.083   7.003   1.843
 3351SOL    HW210953   4.978   0.087   1.913
 3352SOL     OW10954   5.847   0.863   0.473
 3352SOL    HW110955   5.857   0.946   0.418
 3352SOL    HW210956   5.780   0.879   0.545
 3353SOL     OW10957   4.222   0.907   5.982
 3353SOL    HW110958   4.230   0.994   6.031
 3353SOL    HW210959   4.308   0.857   5.989
 3354SOL     OW10960   3.221   2.123   0.184
 3354SOL    HW110961   3.140   2.178   0.206
 3354SOL    HW210962   3.229   2.115   0.085
 3355SOL     OW10963   1.223   2.276   5.566
 3355SOL    HW110964   1.133   2.299   5.605
 3355SOL    HW210965   1.272   2.360   5.544
 3356SOL     OW10966   2.969   0.524   5.252
 3356SOL    HW110967   2.901   0.569   5.310
 3356SOL    HW210968   3.035   0.477   5.311
 3357SOL     OW10969   2.966   3.623   4.489
 3357SOL    HW110970   2.948   3.561   4.413
 3357SOL    HW210971   2.951   3.576   4.575
 3358SOL     OW10972   6.513   1.954   1.664
 3358SOL    HW110973   6.538   1.866   1.705
 3358SOL    HW210974   6.579   2.024   1.692
 3359SOL     OW10975   0.945   6.572   3.363
 3359SOL    HW110976   0.886   6.636   3.412
 3359SOL    HW210977   1.023   6.548   3.420
 3360SOL     OW10978   1.128   5.444   4.615
 3360SOL    HW110979   1.035   5.406   4.619
 3360SOL    HW210980   1.150   5.486   4.703
 3361SOL     OW10981   0.389   0.240   4.524
 3361SOL    HW110982   0.421   0.155   4.483
 3361SOL    HW210983   0.290   0.236   4.539
 3362SOL     OW10984   3.216   0.802   5.615
 3362SOL    HW110985   3.249   0.800   5.520
 3362SOL    HW210986   3.208   0.896   5.646
 3363SOL     OW10987   4.976   3.569   0.733
 3363SOL    HW110988   5.062   3.605   0.767
 3363SOL    HW210989   4.904   3.639   0.742
 3364SOL     OW10990   1.750   3.066   1.085
 3364SOL    HW110991   1.685   2.996   1.054
 3364SOL    HW210992   1.768   3.129   1.009
 3365SOL     OW10993   0.177   2.841   2.622
 3365SOL    HW110994   0.272   2.872   2.616
 3365SOL    HW210995   0.164   2.764   2.559
 3366SOL     OW10996   5.630   3.534   3.417
 3366SOL    HW110997   5.700   3.483   3.468
 3366SOL    HW210998   5.672   3.616   3.378
 3367SOL     OW10999   2.969   3.292   3.604
 3367SOL    HW111000   3.028   3.279   3.684
 3367SOL    HW211001   2.884   3.337   3.632
 3368SOL     OW11002   1.185   0.892   3.423
 3368SOL    HW111003   1.244   0.973   3.424
 3368SOL    HW211004   1.146   0.879   3.514
 3369SOL     OW11005   5.882   2.654   0.708
 3369SOL    HW111006   5.823   2.575   0.690
 3369SOL    HW211007   5.874   2.719   0.632
 3370SOL     OW11008   0.503   5.911   3.537
 3370SOL    HW111009   0.535   5.951   3.452
 3370SOL    HW211010   0.405   5.891   3.530
 3371SOL     OW11011   3.112   3.071   1.535
 3371SOL    HW111012   3.142   3.077   1.631
 3371SOL    HW211013   3.047   2.996   1.526
 3372SOL     OW11014   5.309   3.253   3.596
 3372SOL    HW111015   5.379   3.219   3.534
 3372SOL    HW211016   5.250   3.318   3.548
 3373SOL     OW11017   0.809   4.665   0.911
 3373SOL    HW111018   0.866   4.594   0.869
 3373SOL    HW211019   0.794   4.739   0.845
 3374SOL     OW11020   1.124   5.197   4.069
 3374SOL    HW111021   1.067   5.229   3.993
 3374SOL    HW211022   1.181   5.121   4.039
 3375SOL     OW11023   6.749   6.817   5.526
 3375SOL    HW111024   6.773   6.844   5.619
 3375SOL    HW211025   6.667   6.866   5.497
 3376SOL     OW11026   3.691   3.998   5.005
 3376SOL    HW111027   3.668   4.012   5.101
 3376SOL    HW211028   3.760   4.065   4.977
 3377SOL     OW11029   6.758   5.746   4.402
 3377SOL    HW111030   6.683   5.681   4.388
 3377SOL    HW211031   6.721   5.833   4.433
 3378SOL     OW11032   1.004   6.027   0.227
 3378SOL    HW111033   1.058   5.998   0.307
 3378SOL    HW211034   1.037   5.979   0.146
 3379SOL     OW11035   5.615   4.789   4.017
 3379SOL    HW111036   5.528   4.743   4.004
 3379SOL    HW211037   5.623   4.818   4.113
 3380SOL     OW11038   1.483   4.188   2.068
 3380SOL    HW111039   1.433   4.244   2.003
 3380SOL    HW211040   1.513   4.244   2.145
 3381SOL     OW11041   3.246   4.425   6.689
 3381SOL    HW111042   3.268   4.517   6.655
 3381SOL    HW211043   3.227   4.365   6.611
 3382SOL     OW11044   0.552   3.858   6.479
 3382SOL    HW111045   0.468   3.859   6.534
 3382SOL    HW211046   0.620   3.918   6.521
 3383SOL     OW11047   4.104   5.930   0.204
 3383SOL    HW111048   4.103   5.897   0.110
 3383SOL    HW211049   4.012   5.959   0.231
 3384SOL     OW11050   3.796   2.415   6.565
 3384SOL    HW111051   3.704   2.398   6.601
 3384SOL    HW211052   3.790   2.479   6.488
 3385SOL     OW11053   5.930   1.795   4.419
 3385SOL    HW111054   5.901   1.883   4.381
 3385SOL    HW211055   6.026   1.779   4.397
 3386SOL     OW11056   6.867   4.823   5.338
 3386SOL    HW111057   6.881   4.902   5.398
 3386SOL    HW211058   6.805   4.758   5.383
 3387SOL     OW11059   6.174   0.440   3.064
 3387SOL    HW111060   6.135   0.370   3.123
 3387SOL    HW211061   6.215   0.398   2.983
 3388SOL     OW11062   1.101   3.807   0.820
 3388SOL    HW111063   1.085   3.855   0.906
 3388SOL    HW211064   1.092   3.871   0.744
 3389SOL     OW11065   6.058   4.849   5.799
 3389SOL    HW111066   6.035   4.942   5.772
 3389SOL    HW211067   5.998   4.820   5.873
 3390SOL     OW11068   2.846   4.464   1.063
 3390SOL    HW111069   2.808   4.453   0.971
 3390SOL    HW211070   2.798   4.538   1.110
 3391SOL     OW11071   5.298   3.956   5.787
 3391SOL    HW111072   5.263   3.975   5.879
 3391SOL    HW211073   5.243   4.005   5.719
 3392SOL     OW11074   4.770   5.650   5.444
 3392SOL    HW111075   4.852   5.702   5.420
 3392SOL    HW211076   4.731   5.685   5.529
 3393SOL     OW11077   3.193   1.065   0.422
 3393SOL    HW111078   3.132   1.012   0.363
 3393SOL    HW211079   3.196   1.023   0.513
 3394SOL     OW11080   3.042   5.948   2.031
 3394SOL    HW111081   3.082   6.005   2.103
 3394SOL    HW211082   3.027   6.003   1.949
 3395SOL     OW11083   1.545   5.748   3.100
 3395SOL    HW111084   1.499   5.665   3.130
 3395SOL    HW211085   1.482   5.826   3.108
 3396SOL     OW11086   3.888   7.014   4.309
 3396SOL    HW111087   3.873   0.024   4.403
 3396SOL    HW211088   3.876   6.914   4.305
 3397SOL     OW11089   2.942   6.269   2.171
 3397SOL    HW111090   2.945   6.198   2.241
 3397SOL    HW211091   2.959   6.229   2.081
 3398SOL     OW11092   6.372   0.189   0.647
 3398SOL    HW111093   6.361   0.133   0.729
 3398SOL    HW211094   6.285   0.234   0.625
 3399SOL     OW11095   6.484   6.667   2.165
 3399SOL    HW111096   6.461   6.714   2.080
 3399SOL    HW211097   6.546   6.591   2.146
 3400SOL     OW11098   3.697   3.574   5.687
 3400SOL    HW111099   3.779   3.564   5.744
 3400SOL    HW211100   3.692   3.499   5.621
 3401SOL     OW11101   6.838   3.902   3.719
 3401SOL    HW111102   6.881   3.984   3.756
 3401SOL    HW211103   6.794   3.923   3.632
 3402SOL     OW11104   6.418   3.919   0.337
 3402SOL    HW111105   6.319   3.924   0.355
 3402SOL    HW211106   6.467   3.914   0.424
 3403SOL     OW11107   5.679   0.214   3.666
 3403SOL    HW111108   5.680   0.149   3.742
 3403SOL    HW211109   5.592   0.264   3.666
 3404SOL     OW11110   5.103   4.961   2.736
 3404SOL    HW111111   5.183   4.940   2.793
 3404SOL    HW211112   5.026   4.986   2.795
 3405SOL     OW11113   4.625   7.008   0.975
 3405SOL    HW111114   4.571   6.948   0.916
 3405SOL    HW211115   4.721   6.982   0.970
 3406SOL     OW11116   4.783   5.105   1.044
 3406SOL    HW111117   4.722   5.085   1.120
 3406SOL    HW211118   4.854   5.169   1.074
 3407SOL     OW11119   2.156   1.781   0.930
 3407SOL    HW111120   2.105   1.826   0.857
 3407SOL    HW211121   2.149   1.836   1.014
 3408SOL     OW11122   2.834   6.723   4.452
 3408SOL    HW111123   2.867   6.715   4.358
 3408SOL    HW211124   2.769   6.649   4.471
 3409SOL     OW11125   4.317   2.191   6.785
 3409SOL    HW111126   4.219   2.174   6.781
 3409SOL    HW211127   4.354   2.154   6.870
 3410SOL     OW11128   6.171   1.759   2.428
 3410SOL    HW111129   6.129   1.681   2.382
 3410SOL    HW211130   6.215   1.818   2.360
 3411SOL     OW11131   5.604   3.546   6.380
 3411SOL    HW111132   5.677   3.580   6.320
 3411SOL    HW211133   5.630   3.455   6.414
 3412SOL     OW11134   5.049   3.635   3.226
 3412SOL    HW111135   5.140   3.596   3.235
 3412SOL    HW211136   4.992   3.604   3.302
 3413SOL     OW11137   1.221   2.849   0.779
 3413SOL    HW111138   1.149   2.790   0.813
 3413SOL    HW211139   1.296   2.793   0.742
 3414SOL     OW11140   3.587   3.312   2.156
 3414SOL    HW111141   3.650   3.301   2.233
 3414SOL    HW211142   3.629   3.372   2.087
 3415SOL     OW11143   2.762   0.532   6.719
 3415SOL    HW111144   2.837   0.557   6.780
 3415SOL    HW211145   2.687   0.492   6.773
 3416SOL     OW11146   5.094   6.082   6.420
 3416SOL    HW111147   5.171   6.027   6.389
 3416SOL    HW211148   5.014   6.023   6.432
 3417SOL     OW11149   6.122   0.753   2.206
 3417SOL    HW111150   6.121   0.665   2.160
 3417SOL    HW211151   6.173   0.746   2.292
 3418SOL     OW11152   4.388   5.510   1.296
 3418SOL    HW111153   4.438   5.447   1.236
 3418SOL    HW211154   4.352   5.460   1.375
 3419SOL     OW11155   2.873   4.726   5.393
 3419SOL    HW111156   2.849   4.651   5.331
 3419SOL    HW211157   2.943   4.696   5.457
 3420SOL     OW11158   5.306   0.620   2.118
 3420SOL    HW111159   5.334   0.601   2.023
 3420SOL    HW211160   5.354   0.701   2.151
 3421SOL     OW11161   0.727   1.504   4.174
 3421SOL    HW111162   0.763   1.501   4.081
 3421SOL    HW211163   0.641   1.556   4.175
 3422SOL     OW11164   3.125   5.193   1.117
 3422SOL    HW111165   3.083   5.102   1.123
 3422SOL    HW211166   3.170   5.203   1.028
 3423SOL     OW11167   1.694   5.416   5.510
 3423SOL    HW111168   1.663   5.500   5.553
 3423SOL    HW211169   1.741   5.359   5.577
 3424SOL     OW11170   5.968   5.787   2.544
 3424SOL    HW111171   5.916   5.724   2.601
 3424SOL    HW211172   6.001   5.739   2.463
 3425SOL     OW11173   5.413   3.040   6.446
 3425SOL    HW111174   5.332   3.056   6.503
 3425SOL    HW211175   5.404   3.090   6.360
 3426SOL     OW11176   6.631   5.408   6.082
 3426SOL    HW111177   6.676   5.497   6.075
 3426SOL    HW211178   6.602   5.393   6.177
 3427SOL     OW11179   1.600   0.919   6.798
 3427SOL    HW111180   1.543   0.948   6.875
 3427SOL    HW211181   1.558   0.839   6.755
 3428SOL     OW11182   4.081   0.927   4.211
 3428SOL    HW111183   4.045   1.014   4.244
 3428SOL    HW211184   4.146   0.944   4.137
 3429SOL     OW11185   5.027   5.294   0.134
 3429SOL    HW111186   4.977   5.380   0.131
 3429SOL    HW211187   5.039   5.266   0.230
 3430SOL     OW11188   2.976   4.089   6.728
 3430SOL    HW111189   2.885   4.063   6.761
 3430SOL    HW211190   2.973   4.099   6.628
 3431SOL     OW11191   1.286   3.595   1.807
 3431SOL    HW111192   1.192   3.631   1.808
 3431SOL    HW211193   1.350   3.670   1.791
 3432SOL     OW11194   6.865   5.365   6.263
 3432SOL    HW111195   6.769   5.360   6.291
 3432SOL    HW211196   6.924   5.334   6.338
 3433SOL     OW11197   0.796   1.466   7.014
 3433SOL    HW111198   0.865   1.538   0.000
 3433SOL    HW211199   0.836   1.379   0.020
 3434SOL     OW11200   4.245   2.648   1.734
 3434SOL    HW111201   4.185   2.698   1.671
 3434SOL    HW211202   4.194   2.575   1.778
 3435SOL     OW11203   3.017   2.603   1.342
 3435SOL    HW111204   3.078   2.526   1.328
 3435SOL    HW211205   2.955   2.583   1.418
 3436SOL     OW11206   4.389   5.542   5.251
 3436SOL    HW111207   4.325   5.585   5.316
 3436SOL    HW211208   4.416   5.452   5.286
 3437SOL     OW11209   2.696   5.688   0.798
 3437SOL    HW111210   2.780   5.639   0.820
 3437SOL    HW211211   2.629   5.675   0.872
 3438SOL     OW11212   2.677   4.409   0.419
 3438SOL    HW111213   2.670   4.493   0.474
 3438SOL    HW211214   2.616   4.416   0.340
 3439SOL     OW11215   2.565   5.656   1.170
 3439SOL    HW111216   2.530   5.600   1.245
 3439SOL    HW211217   2.582   5.749   1.203
 3440SOL     OW11218   4.197   5.040   5.896
 3440SOL    HW111219   4.289   5.006   5.914
 3440SOL    HW211220   4.130   4.968   5.914
 3441SOL     OW11221   0.274   5.267   5.755
 3441SOL    HW111222   0.238   5.360   5.755
 3441SOL    HW211223   0.348   5.260   5.688
 3442SOL     OW11224   2.003   1.890   0.711
 3442SOL    HW111225   1.955   1.976   0.729
 3442SOL    HW211226   1.988   1.863   0.616
 3443SOL     OW11227   6.913   5.614   2.173
 3443SOL    HW111228   6.964   5.657   2.248
 3443SOL    HW211229   6.852   5.544   2.210
 3444SOL     OW11230   1.289   3.724   6.097
 3444SOL    HW111231   1.202   3.756   6.061
 3444SOL    HW211232   1.314   3.778   6.178
 3445SOL     OW11233   5.964   4.722   4.404
 3445SOL    HW111234   6.037   4.734   4.471
 3445SOL    HW211235   5.980   4.782   4.325
 3446SOL     OW11236   5.056   1.553   6.966
 3446SOL    HW111237   5.097   1.613   0.014
 3446SOL    HW211238   4.962   1.583   6.947
 3447SOL     OW11239   4.956   1.680   6.113
 3447SOL    HW111240   4.856   1.675   6.119
 3447SOL    HW211241   4.996   1.607   6.168
 3448SOL     OW11242   0.481   5.146   4.564
 3448SOL    HW111243   0.435   5.167   4.651
 3448SOL    HW211244   0.486   5.229   4.509
 3449SOL     OW11245   1.351   4.431   4.728
 3449SOL    HW111246   1.319   4.514   4.681
 3449SOL    HW211247   1.284   4.358   4.717
 3450SOL     OW11248   1.989   6.073   3.397
 3450SOL    HW111249   2.009   6.164   3.434
 3450SOL    HW211250   2.005   6.073   3.298
 3451SOL     OW11251   2.507   1.885   1.224
 3451SOL    HW111252   2.474   1.893   1.319
 3451SOL    HW211253   2.450   1.942   1.165
 3452SOL     OW11254   4.465   1.039   5.423
 3452SOL    HW111255   4.452   1.119   5.365
 3452SOL    HW211256   4.479   0.958   5.365
 3453SOL     OW11257   4.437   6.450   5.516
 3453SOL    HW111258   4.390   6.455   5.604
 3453SOL    HW211259   4.528   6.409   5.528
 3454SOL     OW11260   1.348   3.284   4.001
 3454SOL    HW111261   1.394   3.360   3.956
 3454SOL    HW211262   1.388   3.270   4.092
 3455SOL     OW11263   1.460   4.092   6.071
 3455SOL    HW111264   1.528   4.159   6.102
 3455SOL    HW211265   1.484   4.061   5.979
 3456SOL     OW11266   4.596   5.407   2.860
 3456SOL    HW111267   4.503   5.375   2.878
 3456SOL    HW211268   4.595   5.470   2.783
 3457SOL     OW11269   4.009   3.864   0.500
 3457SOL    HW111270   3.944   3.927   0.459
 3457SOL    HW211271   3.999   3.774   0.457
 3458SOL     OW11272   4.104   1.897   1.330
 3458SOL    HW111273   4.077   1.924   1.422
 3458SOL    HW211274   4.183   1.951   1.301
 3459SOL     OW11275   6.629   0.935   2.893
 3459SOL    HW111276   6.529   0.930   2.901
 3459SOL    HW211277   6.662   1.014   2.946
 3460SOL     OW11278   4.824   1.727   5.184
 3460SOL    HW111279   4.848   1.633   5.160
 3460SOL    HW211280   4.758   1.727   5.259
 3461SOL     OW11281   4.606   4.534   4.127
 3461SOL    HW111282   4.516   4.547   4.087
 3461SOL    HW211283   4.615   4.588   4.210
 3462SOL     OW11284   1.318   4.187   6.747
 3462SOL    HW111285   1.316   4.113   6.814
 3462SOL    HW211286   1.347   4.271   6.791
 3463SOL     OW11287   6.488   3.331   6.756
 3463SOL    HW111288   6.402   3.292   6.726
 3463SOL    HW211289   6.470   3.414   6.809
 3464SOL     OW11290   0.021   5.289   4.476
 3464SOL    HW111291   0.015   5.207   4.420
 3464SOL    HW211292   7.014   5.268   4.569
 3465SOL     OW11293   0.768   2.871   0.993
 3465SOL    HW111294   0.806   2.963   0.994
 3465SOL    HW211295   0.742   2.844   1.087
 3466SOL     OW11296   5.428   4.120   3.183
 3466SOL    HW111297   5.441   4.116   3.282
 3466SOL    HW211298   5.468   4.038   3.141
 3467SOL     OW11299   2.256   1.614   6.283
 3467SOL    HW111300   2.353   1.595   6.266
 3467SOL    HW211301   2.211   1.637   6.197
 3468SOL     OW11302   5.597   4.896   1.782
 3468SOL    HW111303   5.620   4.921   1.876
 3468SOL    HW211304   5.522   4.954   1.749
 3469SOL     OW11305   5.852   3.956   1.037
 3469SOL    HW111306   5.917   4.021   1.077
 3469SOL    HW211307   5.759   3.981   1.062
 3470SOL     OW11308   6.500   6.080   6.485
 3470SOL    HW111309   6.493   6.158   6.424
 3470SOL    HW211310   6.443   6.096   6.566
 3471SOL     OW11311   4.079   6.685   4.457
 3471SOL    HW111312   4.008   6.714   4.393
 3471SOL    HW211313   4.121   6.600   4.424
 3472SOL     OW11314   3.589   0.837   4.327
 3472SOL    HW111315   3.651   0.888   4.268
 3472SOL    HW211316   3.602   0.739   4.313
 3473SOL     OW11317   5.063   6.749   3.748
 3473SOL    HW111318   4.970   6.732   3.780
 3473SOL    HW211319   5.127   6.739   3.824
 3474SOL     OW11320   5.681   5.227   0.344
 3474SOL    HW111321   5.741   5.219   0.265
 3474SOL    HW211322   5.718   5.173   0.420
 3475SOL     OW11323   1.990   5.584   5.088
 3475SOL    HW111324   2.080   5.542   5.095
 3475SOL    HW211325   1.976   5.620   4.996
 3476SOL     OW11326   2.850   1.793   3.422
 3476SOL    HW111327   2.840   1.872   3.482
 3476SOL    HW211328   2.945   1.763   3.420
 3477SOL     OW11329   4.661   5.387   2.331
 3477SOL    HW111330   4.739   5.324   2.336
 3477SOL    HW211331   4.693   5.480   2.349
 3478SOL     OW11332   3.362   4.888   0.205
 3478SOL    HW111333   3.458   4.908   0.225
 3478SOL    HW211334   3.356   4.806   0.148
 3479SOL     OW11335   1.563   0.812   0.440
 3479SOL    HW111336   1.574   0.718   0.409
 3479SOL    HW211337   1.634   0.834   0.507
 3480SOL     OW11338   1.277   6.337   4.162
 3480SOL    HW111339   1.321   6.395   4.231
 3480SOL    HW211340   1.319   6.246   4.165
 3481SOL     OW11341   2.350   4.344   0.455
 3481SOL    HW111342   2.389   4.252   0.458
 3481SOL    HW211343   2.282   4.354   0.527
 3482SOL     OW11344   6.888   2.121   1.660
 3482SOL    HW111345   6.977   2.161   1.680
 3482SOL    HW211346   6.823   2.144   1.732
 3483SOL     OW11347   4.239   1.607   1.410
 3483SOL    HW111348   4.322   1.658   1.432
 3483SOL    HW211349   4.170   1.626   1.480
 3484SOL     OW11350   3.203   4.115   4.043
 3484SOL    HW111351   3.295   4.149   4.022
 3484SOL    HW211352   3.177   4.143   4.135
 3485SOL     OW11353   6.238   2.651   3.917
 3485SOL    HW111354   6.157   2.698   3.883
 3485SOL    HW211355   6.212   2.588   3.990
 3486SOL     OW11356   6.324   1.771   2.678
 3486SOL    HW111357   6.270   1.787   2.595
 3486SOL    HW211358   6.406   1.828   2.676
 3487SOL     OW11359   1.575   6.390   1.039
 3487SOL    HW111360   1.650   6.411   0.975
 3487SOL    HW211361   1.553   6.293   1.034
 3488SOL     OW11362   6.478   3.369   5.383
 3488SOL    HW111363   6.482   3.431   5.461
 3488SOL    HW211364   6.385   3.333   5.374
 3489SOL     OW11365   2.651   5.626   6.904
 3489SOL    HW111366   2.614   5.664   6.988
 3489SOL    HW211367   2.732   5.678   6.876
 3490SOL     OW11368   5.855   3.231   0.507
 3490SOL    HW111369   5.769   3.269   0.540
 3490SOL    HW211370   5.842   3.188   0.418
 3491SOL     OW11371   6.222   2.340   5.144
 3491SOL    HW111372   6.244   2.386   5.058
 3491SOL    HW211373   6.165   2.400   5.200
 3492SOL     OW11374   0.624   4.382   6.349
 3492SOL    HW111375   0.558   4.340   6.411
 3492SOL    HW211376   0.711   4.331   6.354
 3493SOL     OW11377   0.075   5.092   1.025
 3493SOL    HW111378   0.024   5.007   1.035
 3493SOL    HW211379   0.018   5.161   0.980
 3494SOL     OW11380   3.008   0.266   0.887
 3494SOL    HW111381   3.031   0.252   0.983
 3494SOL    HW211382   2.989   0.363   0.871
 3495SOL     OW11383   5.685   4.471   5.638
 3495SOL    HW111384   5.587   4.467   5.659
 3495SOL    HW211385   5.709   4.394   5.579
 3496SOL     OW11386   0.444   6.437   1.640
 3496SOL    HW111387   0.415   6.361   1.699
 3496SOL    HW211388   0.419   6.416   1.545
 3497SOL     OW11389   2.787   0.270   4.894
 3497SOL    HW111390   2.841   0.270   4.810
 3497SOL    HW211391   2.833   0.215   4.963
 3498SOL     OW11392   1.556   2.054   0.323
 3498SOL    HW111393   1.571   2.060   0.225
 3498SOL    HW211394   1.506   1.970   0.344
 3499SOL     OW11395   6.786   4.000   2.827
 3499SOL    HW111396   6.688   3.984   2.817
 3499SOL    HW211397   6.818   3.961   2.913
 3500SOL     OW11398   6.610   2.034   0.672
 3500SOL    HW111399   6.657   2.111   0.628
 3500SOL    HW211400   6.625   1.951   0.619
 3501SOL     OW11401   6.827   5.137   3.385
 3501SOL    HW111402   6.743   5.117   3.335
 3501SOL    HW211403   6.900   5.078   3.351
 3502SOL     OW11404   1.052   6.594   1.073
 3502SOL    HW111405   1.107   6.667   1.031
 3502SOL    HW211406   1.055   6.513   1.014
 3503SOL     OW11407   2.791   0.887   3.718
 3503SOL    HW111408   2.835   0.800   3.739
 3503SOL    HW211409   2.792   0.945   3.799
 3504SOL     OW11410   2.286   2.799   2.528
 3504SOL    HW111411   2.329   2.889   2.522
 3504SOL    HW211412   2.212   2.802   2.595
 3505SOL     OW11413   4.553   6.397   4.566
 3505SOL    HW111414   4.601   6.325   4.615
 3505SOL    HW211415   4.584   6.487   4.598
 3506SOL     OW11416   0.143   3.470   2.786
 3506SOL    HW111417   0.161   3.560   2.746
 3506SOL    HW211418   0.149   3.400   2.715
 3507SOL     OW11419   6.915   0.382   5.094
 3507SOL    HW111420   6.958   0.292   5.091
 3507SOL    HW211421   6.884   0.402   5.187
 3508SOL     OW11422   0.505   4.688   6.784
 3508SOL    HW111423   0.584   4.703   6.726
 3508SOL    HW211424   0.460   4.603   6.758
 3509SOL     OW11425   4.346   6.499   6.901
 3509SOL    HW111426   4.274   6.484   6.833
 3509SOL    HW211427   4.313   6.473   6.992
 3510SOL     OW11428   2.146   1.806   2.676
 3510SOL    HW111429   2.246   1.808   2.672
 3510SOL    HW211430   2.109   1.836   2.588
 3511SOL     OW11431   1.380   0.732   4.050
 3511SOL    HW111432   1.428   0.757   3.966
 3511SOL    HW211433   1.414   0.644   4.083
 3512SOL     OW11434   3.093   3.310   2.095
 3512SOL    HW111435   3.182   3.267   2.080
 3512SOL    HW211436   3.024   3.265   2.037
 3513SOL     OW11437   0.215   5.131   0.598
 3513SOL    HW111438   0.275   5.072   0.543
 3513SOL    HW211439   0.198   5.088   0.686
 3514SOL     OW11440   3.668   5.609   3.407
 3514SOL    HW111441   3.609   5.688   3.391
 3514SOL    HW211442   3.667   5.585   3.504
 3515SOL     OW11443   3.707   5.579   4.435
 3515SOL    HW111444   3.642   5.521   4.386
 3515SOL    HW211445   3.777   5.523   4.478
 3516SOL     OW11446   1.464   1.331   0.919
 3516SOL    HW111447   1.494   1.410   0.864
 3516SOL    HW211448   1.371   1.347   0.952
 3517SOL     OW11449   0.342   0.787   6.750
 3517SOL    HW111450   0.364   0.870   6.802
 3517SOL    HW211451   0.304   0.718   6.812
 3518SOL     OW11452   4.161   3.802   6.281
 3518SOL    HW111453   4.189   3.744   6.204
 3518SOL    HW211454   4.241   3.823   6.337
 3519SOL     OW11455   4.067   6.979   6.838
 3519SOL    HW111456   4.038   6.915   6.909
 3519SOL    HW211457   4.165   6.971   6.823
 3520SOL     OW11458   4.314   4.962   1.036
 3520SOL    HW111459   4.359   4.874   1.054
 3520SOL    HW211460   4.322   5.020   1.117
 3521SOL     OW11461   0.047   1.776   5.641
 3521SOL    HW111462   0.090   1.692   5.674
 3521SOL    HW211463   0.084   1.855   5.691
 3522SOL     OW11464   2.180   0.417   0.923
 3522SOL    HW111465   2.189   0.326   0.962
 3522SOL    HW211466   2.198   0.485   0.995
 3523SOL     OW11467   2.436   4.653   4.759
 3523SOL    HW111468   2.485   4.651   4.846
 3523SOL    HW211469   2.347   4.608   4.769
 3524SOL     OW11470   2.578   1.560   3.974
 3524SOL    HW111471   2.597   1.549   3.877
 3524SOL    HW211472   2.552   1.472   4.013
 3525SOL     OW11473   2.116   3.265   4.033
 3525SOL    HW111474   2.153   3.234   4.121
 3525SOL    HW211475   2.129   3.194   3.964
 3526SOL     OW11476   3.801   5.982   3.893
 3526SOL    HW111477   3.754   6.070   3.888
 3526SOL    HW211478   3.775   5.926   3.815
 3527SOL     OW11479   6.931   3.984   6.171
 3527SOL    HW111480   6.925   3.931   6.256
 3527SOL    HW211481   6.844   3.979   6.123
 3528SOL     OW11482   1.064   6.152   4.019
 3528SOL    HW111483   1.014   6.120   4.099
 3528SOL    HW211484   1.154   6.108   4.015
 3529SOL     OW11485   3.690   6.594   0.200
 3529SOL    HW111486   3.698   6.637   0.290
 3529SOL    HW211487   3.633   6.512   0.207
 3530SOL     OW11488   1.552   5.507   2.473
 3530SOL    HW111489   1.641   5.503   2.427
 3530SOL    HW211490   1.549   5.586   2.534
 3531SOL     OW11491   5.553   4.238   6.751
 3531SOL    HW111492   5.524   4.143   6.736
 3531SOL    HW211493   5.652   4.239   6.767
 3532SOL     OW11494   2.694   6.762   6.534
 3532SOL    HW111495   2.709   6.699   6.458
 3532SOL    HW211496   2.752   6.735   6.611
 3533SOL     OW11497   1.349   1.724   2.910
 3533SOL    HW111498   1.402   1.809   2.900
 3533SOL    HW211499   1.408   1.652   2.945
 3534SOL     OW11500   4.836   6.687   4.193
 3534SOL    HW111501   4.846   6.770   4.138
 3534SOL    HW211502   4.902   6.619   4.162
 3535SOL     OW11503   4.057   4.621   0.035
 3535SOL    HW111504   4.156   4.635   0.046
 3535SOL    HW211505   4.027   4.549   0.097
 3536SOL     OW11506   2.259   3.063   2.424
 3536SOL    HW111507   2.299   3.050   2.333
 3536SOL    HW211508   2.165   3.031   2.424
 3537SOL     OW11509   3.434   5.379   1.821
 3537SOL    HW111510   3.385   5.312   1.766
 3537SOL    HW211511   3.372   5.454   1.846
 3538SOL     OW11512   3.146   0.667   3.542
 3538SOL    HW111513   3.238   0.688   3.509
 3538SOL    HW211514   3.136   0.568   3.550
 3539SOL     OW11515   5.454   5.655   5.929
 3539SOL    HW111516   5.499   5.566   5.938
 3539SOL    HW211517   5.361   5.649   5.964
 3540SOL     OW11518   5.258   3.971   0.295
 3540SOL    HW111519   5.266   4.056   0.243
 3540SOL    HW211520   5.175   3.923   0.266
 3541SOL     OW11521   0.490   2.856   2.212
 3541SOL    HW111522   0.488   2.947   2.252
 3541SOL    HW211523   0.414   2.845   2.148
 3542SOL     OW11524   5.819   1.158   0.066
 3542SOL    HW111525   5.823   1.060   0.044
 3542SOL    HW211526   5.858   1.174   0.156
 3543SOL     OW11527   0.029   3.021   4.869
 3543SOL    HW111528   0.082   3.040   4.952
 3543SOL    HW211529   0.034   2.924   4.848
 3544SOL     OW11530   4.004   4.849   5.959
 3544SOL    HW111531   3.924   4.849   6.018
 3544SOL    HW211532   4.033   4.755   5.942
 3545SOL     OW11533   2.760   6.356   1.501
 3545SOL    HW111534   2.715   6.288   1.443
 3545SOL    HW211535   2.824   6.410   1.446
 3546SOL     OW11536   0.651   4.666   1.140
 3546SOL    HW111537   0.563   4.710   1.123
 3546SOL    HW211538   0.700   4.654   1.054
 3547SOL     OW11539   1.804   3.839   4.306
 3547SOL    HW111540   1.855   3.825   4.392
 3547SOL    HW211541   1.737   3.766   4.296
 3548SOL     OW11542   6.193   0.200   5.406
 3548SOL    HW111543   6.221   0.201   5.502
 3548SOL    HW211544   6.179   0.106   5.376
 3549SOL     OW11545   1.655   6.986   6.385
 3549SOL    HW111546   1.669   6.888   6.367
 3549SOL    HW211547   1.681   7.006   6.480
 3550SOL     OW11548   6.465   2.384   4.740
 3550SOL    HW111549   6.380   2.378   4.792
 3550SOL    HW211550   6.453   2.342   4.650
 3551SOL     OW11551   6.524   1.187   5.318
 3551SOL    HW111552   6.478   1.257   5.263
 3551SOL    HW211553   6.546   1.223   5.408
 3552SOL     OW11554   6.464   0.876   3.608
 3552SOL    HW111555   6.421   0.841   3.524
 3552SOL    HW211556   6.402   0.940   3.653
 3553SOL     OW11557   5.470   6.112   6.711
 3553SOL    HW111558   5.526   6.068   6.782
 3553SOL    HW211559   5.402   6.047   6.677
 3554SOL     OW11560   6.176   3.794   6.755
 3554SOL    HW111561   6.181   3.762   6.850
 3554SOL    HW211562   6.088   3.838   6.740
 3555SOL     OW11563   3.237   1.232   5.429
 3555SOL    HW111564   3.299   1.277   5.493
 3555SOL    HW211565   3.290   1.198   5.351
 3556SOL     OW11566   5.186   1.509   0.772
 3556SOL    HW111567   5.087   1.503   0.760
 3556SOL    HW211568   5.207   1.538   0.865
 3557SOL     OW11569   4.681   0.327   1.148
 3557SOL    HW111570   4.651   0.292   1.059
 3557SOL    HW211571   4.773   0.364   1.141
 3558SOL     OW11572   4.256   5.793   2.983
 3558SOL    HW111573   4.238   5.697   3.005
 3558SOL    HW211574   4.222   5.851   3.056
 3559SOL     OW11575   4.536   6.216   6.488
 3559SOL    HW111576   4.476   6.254   6.558
 3559SOL    HW211577   4.602   6.154   6.532
 3560SOL     OW11578   1.915   5.993   4.433
 3560SOL    HW111579   1.824   6.034   4.435
 3560SOL    HW211580   1.907   5.894   4.421
 3561SOL     OW11581   4.013   2.793   6.438
 3561SOL    HW111582   3.983   2.887   6.454
 3561SOL    HW211583   3.956   2.730   6.491
 3562SOL     OW11584   2.563   1.030   0.539
 3562SOL    HW111585   2.660   1.023   0.517
 3562SOL    HW211586   2.544   0.977   0.622
 3563SOL     OW11587   6.440   1.625   6.408
 3563SOL    HW111588   6.349   1.641   6.370
 3563SOL    HW211589   6.508   1.636   6.335
 3564SOL     OW11590   5.647   2.775   2.968
 3564SOL    HW111591   5.710   2.751   2.894
 3564SOL    HW211592   5.668   2.867   3.002
 3565SOL     OW11593   4.676   6.253   4.829
 3565SOL    HW111594   4.711   6.160   4.833
 3565SOL    HW211595   4.606   6.266   4.899
 3566SOL     OW11596   0.869   1.241   4.925
 3566SOL    HW111597   0.814   1.194   4.994
 3566SOL    HW211598   0.932   1.175   4.883
 3567SOL     OW11599   1.088   4.589   6.696
 3567SOL    HW111600   1.051   4.642   6.772
 3567SOL    HW211601   1.183   4.617   6.679
 3568SOL     OW11602   2.097   4.325   5.352
 3568SOL    HW111603   2.184   4.335   5.400
 3568SOL    HW211604   2.086   4.229   5.324
 3569SOL     OW11605   0.781   0.350   3.415
 3569SOL    HW111606   0.753   0.291   3.491
 3569SOL    HW211607   0.784   0.297   3.331
 3570SOL     OW11608   0.568   1.869   4.938
 3570SOL    HW111609   0.632   1.859   5.015
 3570SOL    HW211610   0.571   1.963   4.904
 3571SOL     OW11611   6.636   5.602   4.955
 3571SOL    HW111612   6.581   5.524   4.925
 3571SOL    HW211613   6.727   5.596   4.914
 3572SOL     OW11614   5.657   6.635   5.879
 3572SOL    HW111615   5.666   6.683   5.792
 3572SOL    HW211616   5.601   6.553   5.867
 3573SOL     OW11617   0.100   2.916   1.682
 3573SOL    HW111618   0.069   2.952   1.770
 3573SOL    HW211619   0.091   2.817   1.682
 3574SOL     OW11620   0.397   3.767   0.289
 3574SOL    HW111621   0.374   3.778   0.193
 3574SOL    HW211622   0.492   3.798   0.304
 3575SOL     OW11623   6.799   0.545   2.480
 3575SOL    HW111624   6.739   0.625   2.475
 3575SOL    HW211625   6.894   0.574   2.482
 3576SOL     OW11626   0.366   1.116   0.744
 3576SOL    HW111627   0.450   1.170   0.750
 3576SOL    HW211628   0.385   1.022   0.774
 3577SOL     OW11629   2.497   4.458   0.652
 3577SOL    HW111630   2.469   4.404   0.573
 3577SOL    HW211631   2.446   4.427   0.733
 3578SOL     OW11632   3.400   4.590   1.689
 3578SOL    HW111633   3.484   4.613   1.738
 3578SOL    HW211634   3.336   4.666   1.696
 3579SOL     OW11635   2.631   2.971   6.497
 3579SOL    HW111636   2.564   2.956   6.424
 3579SOL    HW211637   2.633   2.891   6.557
 3580SOL     OW11638   5.834   1.654   2.450
 3580SOL    HW111639   5.788   1.574   2.412
 3580SOL    HW211640   5.822   1.732   2.388
 3581SOL     OW11641   6.672   1.668   2.531
 3581SOL    HW111642   6.697   1.591   2.473
 3581SOL    HW211643   6.691   1.645   2.627
 3582SOL     OW11644   1.051   0.724   5.739
 3582SOL    HW111645   1.110   0.682   5.669
 3582SOL    HW211646   1.036   0.659   5.813
 3583SOL     OW11647   1.507   6.912   2.331
 3583SOL    HW111648   1.513   6.828   2.278
 3583SOL    HW211649   1.538   6.895   2.425
 3584SOL     OW11650   5.191   0.464   4.719
 3584SOL    HW111651   5.107   0.519   4.714
 3584SOL    HW211652   5.211   0.442   4.814
 3585SOL     OW11653   2.336   4.805   3.404
 3585SOL    HW111654   2.433   4.786   3.393
 3585SOL    HW211655   2.283   4.722   3.387
 3586SOL     OW11656   1.202   1.417   0.225
 3586SOL    HW111657   1.223   1.419   0.127
 3586SOL    HW211658   1.245   1.495   0.270
 3587SOL     OW11659   3.411   6.554   5.391
 3587SOL    HW111660   3.406   6.615   5.312
 3587SOL    HW211661   3.456   6.469   5.366
 3588SOL     OW11662   2.522   2.604   5.458
 3588SOL    HW111663   2.526   2.654   5.544
 3588SOL    HW211664   2.481   2.663   5.388
 3589SOL     OW11665   2.704   6.159   4.589
 3589SOL    HW111666   2.767   6.201   4.653
 3589SOL    HW211667   2.747   6.080   4.545
 3590SOL     OW11668   1.236   5.996   6.932
 3590SOL    HW111669   1.176   5.925   6.969
 3590SOL    HW211670   1.326   5.958   6.913
 3591SOL     OW11671   5.063   1.686   4.656
 3591SOL    HW111672   4.970   1.714   4.680
 3591SOL    HW211673   5.121   1.689   4.738
 3592SOL     OW11674   5.561   1.719   2.244
 3592SOL    HW111675   5.545   1.656   2.320
 3592SOL    HW211676   5.591   1.808   2.279
 3593SOL     OW11677   0.374   4.789   4.459
 3593SOL    HW111678   0.306   4.806   4.531
 3593SOL    HW211679   0.466   4.796   4.497
 3594SOL     OW11680   4.427   1.294   4.793
 3594SOL    HW111681   4.524   1.301   4.817
 3594SOL    HW211682   4.398   1.376   4.744
 3595SOL     OW11683   1.978   6.568   6.735
 3595SOL    HW111684   1.887   6.584   6.696
 3595SOL    HW211685   1.972   6.495   6.804
 3596SOL     OW11686   6.494   3.576   2.990
 3596SOL    HW111687   6.586   3.564   2.953
 3596SOL    HW211688   6.454   3.487   3.010
 3597SOL     OW11689   4.204   0.537   4.125
 3597SOL    HW111690   4.222   0.440   4.141
 3597SOL    HW211691   4.215   0.557   4.028
 3598SOL     OW11692   2.146   6.652   0.085
 3598SOL    HW111693   2.219   6.668   0.152
 3598SOL    HW211694   2.096   6.737   0.069
 3599SOL     OW11695   0.202   2.356   3.854
 3599SOL    HW111696   0.241   2.353   3.946
 3599SOL    HW211697   0.138   2.280   3.842
 3600SOL     OW11698   6.526   6.719   1.162
 3600SOL    HW111699   6.460   6.705   1.088
 3600SOL    HW211700   6.555   6.814   1.164
 3601SOL     OW11701   6.806   3.578   5.878
 3601SOL    HW111702   6.879   3.528   5.926
 3601SOL    HW211703   6.846   3.652   5.825
 3602SOL     OW11704   3.258   2.813   0.865
 3602SOL    HW111705   3.316   2.738   0.898
 3602SOL    HW211706   3.235   2.873   0.941
 3603SOL     OW11707   3.890   5.142   5.159
 3603SOL    HW111708   3.930   5.100   5.077
 3603SOL    HW211709   3.962   5.159   5.226
 3604SOL     OW11710   5.476   4.467   3.295
 3604SOL    HW111711   5.416   4.413   3.236
 3604SOL    HW211712   5.422   4.538   3.341
 3605SOL     OW11713   5.513   1.726   6.634
 3605SOL    HW111714   5.471   1.725   6.543
 3605SOL    HW211715   5.466   1.659   6.693
 3606SOL     OW11716   1.941   3.465   2.562
 3606SOL    HW111717   1.872   3.483   2.492
 3606SOL    HW211718   2.027   3.438   2.518
 3607SOL     OW11719   4.372   6.386   5.242
 3607SOL    HW111720   4.393   6.399   5.339
 3607SOL    HW211721   4.276   6.357   5.232
 3608SOL     OW11722   6.721   3.484   2.701
 3608SOL    HW111723   6.671   3.570   2.699
 3608SOL    HW211724   6.739   3.453   2.608
 3609SOL     OW11725   0.580   1.100   3.936
 3609SOL    HW111726   0.584   1.198   3.954
 3609SOL    HW211727   0.559   1.085   3.839
 3610SOL     OW11728   1.412   4.803   5.472
 3610SOL    HW111729   1.422   4.875   5.403
 3610SOL    HW211730   1.498   4.752   5.479
 3611SOL     OW11731   4.693   4.559   6.577
 3611SOL    HW111732   4.607   4.513   6.556
 3611SOL    HW211733   4.723   4.613   6.498
 3612SOL     OW11734   2.209   5.595   1.233
 3612SOL    HW111735   2.211   5.693   1.250
 3612SOL    HW211736   2.192   5.578   1.136
 3613SOL     OW11737   5.539   4.911   5.955
 3613SOL    HW111738   5.455   4.874   5.916
 3613SOL    HW211739   5.559   4.864   6.041
 3614SOL     OW11740   3.515   3.457   4.903
 3614SOL    HW111741   3.541   3.361   4.913
 3614SOL    HW211742   3.481   3.473   4.811
 3615SOL     OW11743   6.025   6.515   6.804
 3615SOL    HW111744   6.034   6.611   6.776
 3615SOL    HW211745   5.938   6.479   6.771
 3616SOL     OW11746   6.799   1.332   4.041
 3616SOL    HW111747   6.856   1.409   4.071
 3616SOL    HW211748   6.803   1.325   3.941
 3617SOL     OW11749   0.242   0.618   0.858
 3617SOL    HW111750   0.298   0.667   0.924
 3617SOL    HW211751   0.162   0.580   0.905
 3618SOL     OW11752   4.062   5.708   6.045
 3618SOL    HW111753   4.142   5.745   5.999
 3618SOL    HW211754   4.089   5.632   6.104
 3619SOL     OW11755   4.894   3.536   3.817
 3619SOL    HW111756   4.846   3.525   3.904
 3619SOL    HW211757   4.988   3.503   3.826
 3620SOL     OW11758   5.762   1.667   5.208
 3620SOL    HW111759   5.719   1.746   5.251
 3620SOL    HW211760   5.767   1.592   5.273
 3621SOL     OW11761   2.122   2.683   6.570
 3621SOL    HW111762   2.024   2.678   6.589
 3621SOL    HW211763   2.173   2.685   6.656
 3622SOL     OW11764   1.327   4.242   0.899
 3622SOL    HW111765   1.369   4.215   0.985
 3622SOL    HW211766   1.366   4.329   0.869
 3623SOL     OW11767   6.328   4.952   4.707
 3623SOL    HW111768   6.394   4.929   4.778
 3623SOL    HW211769   6.372   4.945   4.617
 3624SOL     OW11770   1.747   0.324   1.906
 3624SOL    HW111771   1.817   0.395   1.918
 3624SOL    HW211772   1.756   0.256   1.978
 3625SOL     OW11773   1.740   2.024   5.078
 3625SOL    HW111774   1.667   2.012   5.145
 3625SOL    HW211775   1.828   2.032   5.126
 3626SOL     OW11776   1.685   3.365   5.693
 3626SOL    HW111777   1.677   3.315   5.607
 3626SOL    HW211778   1.771   3.340   5.738
 3627SOL     OW11779   4.148   3.675   4.594
 3627SOL    HW111780   4.095   3.607   4.543
 3627SOL    HW211781   4.233   3.695   4.546
 3628SOL     OW11782   3.026   5.605   3.741
 3628SOL    HW111783   3.001   5.694   3.704
 3628SOL    HW211784   2.962   5.580   3.815
 3629SOL     OW11785   6.010   3.744   4.772
 3629SOL    HW111786   6.032   3.689   4.853
 3629SOL    HW211787   6.036   3.693   4.690
 3630SOL     OW11788   6.206   1.838   4.437
 3630SOL    HW111789   6.273   1.906   4.408
 3630SOL    HW211790   6.252   1.766   4.489
 3631SOL     OW11791   1.885   0.720   4.177
 3631SOL    HW111792   1.916   0.788   4.243
 3631SOL    HW211793   1.962   0.691   4.120
 3632SOL     OW11794   5.152   6.664   5.834
 3632SOL    HW111795   5.176   6.594   5.901
 3632SOL    HW211796   5.167   6.754   5.874
 3633SOL     OW11797   0.905   2.672   5.656
 3633SOL    HW111798   1.005   2.683   5.662
 3633SOL    HW211799   0.861   2.727   5.727
 3634SOL     OW11800   2.449   4.815   6.604
 3634SOL    HW111801   2.488   4.809   6.512
 3634SOL    HW211802   2.349   4.825   6.597
 3635SOL     OW11803   1.871   1.820   4.304
 3635SOL    HW111804   1.876   1.723   4.283
 3635SOL    HW211805   1.775   1.848   4.310
 3636SOL     OW11806   0.589   6.975   1.779
 3636SOL    HW111807   0.574   6.920   1.696
 3636SOL    HW211808   0.500   7.000   1.819
 3637SOL     OW11809   5.418   1.414   2.278
 3637SOL    HW111810   5.515   1.438   2.276
 3637SOL    HW211811   5.366   1.491   2.312
 3638SOL     OW11812   7.010   4.890   3.072
 3638SOL    HW111813   6.973   4.954   3.005
 3638SOL    HW211814   0.086   4.876   3.055
 3639SOL     OW11815   2.576   6.213   6.913
 3639SOL    HW111816   2.480   6.205   6.884
 3639SOL    HW211817   2.633   6.232   6.833
 3640SOL     OW11818   2.306   6.550   2.631
 3640SOL    HW111819   2.253   6.571   2.714
 3640SOL    HW211820   2.342   6.458   2.638
 3641SOL     OW11821   1.985   1.035   5.219
 3641SOL    HW111822   2.063   1.059   5.161
 3641SOL    HW211823   2.016   1.020   5.313
 3642SOL     OW11824   6.258   0.271   2.821
 3642SOL    HW111825   6.348   0.303   2.848
 3642SOL    HW211826   6.261   0.174   2.798
 3643SOL     OW11827   3.878   6.986   3.987
 3643SOL    HW111828   3.840   0.042   4.039
 3643SOL    HW211829   3.945   6.937   4.044
 3644SOL     OW11830   5.934   0.644   1.901
 3644SOL    HW111831   5.928   0.733   1.946
 3644SOL    HW211832   5.842   0.607   1.888
 3645SOL     OW11833   4.929   5.516   3.846
 3645SOL    HW111834   4.997   5.588   3.857
 3645SOL    HW211835   4.860   5.522   3.918
 3646SOL     OW11836   0.722   5.339   5.193
 3646SOL    HW111837   0.800   5.278   5.178
 3646SOL    HW211838   0.652   5.322   5.124
 3647SOL     OW11839   3.291   2.997   1.072
 3647SOL    HW111840   3.389   3.012   1.084
 3647SOL    HW211841   3.244   3.007   1.160
 3648SOL     OW11842   2.838   6.517   3.662
 3648SOL    HW111843   2.816   6.477   3.573
 3648SOL    HW211844   2.762   6.503   3.725
 3649SOL     OW11845   3.543   2.890   3.309
 3649SOL    HW111846   3.548   2.891   3.409
 3649SOL    HW211847   3.635   2.884   3.271
 3650SOL     OW11848   5.671   6.273   1.770
 3650SOL    HW111849   5.700   6.249   1.677
 3650SOL    HW211850   5.713   6.360   1.796
 3651SOL     OW11851   1.633   5.444   1.989
 3651SOL    HW111852   1.641   5.432   1.890
 3651SOL    HW211853   1.599   5.359   2.030
 3652SOL     OW11854   4.276   6.592   4.052
 3652SOL    HW111855   4.212   6.518   4.031
 3652SOL    HW211856   4.369   6.556   4.057
 3653SOL     OW11857   0.367   3.466   3.335
 3653SOL    HW111858   0.454   3.417   3.325
 3653SOL    HW211859   0.305   3.438   3.262
 3654SOL     OW11860   1.934   6.878   1.809
 3654SOL    HW111861   1.967   6.902   1.718
 3654SOL    HW211862   1.908   6.781   1.811
 3655SOL     OW11863   6.309   1.018   3.755
 3655SOL    HW111864   6.316   1.102   3.702
 3655SOL    HW211865   6.259   1.036   3.840
 3656SOL     OW11866   1.776   1.846   2.967
 3656SOL    HW111867   1.784   1.871   2.870
 3656SOL    HW211868   1.867   1.846   3.009
 3657SOL     OW11869   5.916   5.386   1.261
 3657SOL    HW111870   5.911   5.401   1.360
 3657SOL    HW211871   5.834   5.340   1.229
 3658SOL     OW11872   2.800   4.363   5.703
 3658SOL    HW111873   2.831   4.345   5.610
 3658SOL    HW211874   2.876   4.401   5.756
 3659SOL     OW11875   1.405   3.864   6.310
 3659SOL    HW111876   1.400   3.906   6.400
 3659SOL    HW211877   1.484   3.901   6.260
 3660SOL     OW11878   5.156   4.031   0.904
 3660SOL    HW111879   5.088   4.022   0.976
 3660SOL    HW211880   5.240   4.070   0.941
 3661SOL     OW11881   5.370   1.015   1.585
 3661SOL    HW111882   5.451   1.027   1.528
 3661SOL    HW211883   5.310   0.946   1.544
 3662SOL     OW11884   1.616   6.371   4.213
 3662SOL    HW111885   1.533   6.410   4.253
 3662SOL    HW211886   1.599   6.345   4.118
 3663SOL     OW11887   2.382   2.490   5.996
 3663SOL    HW111888   2.376   2.549   5.915
 3663SOL    HW211889   2.299   2.435   6.004
 3664SOL     OW11890   3.790   0.270   2.445
 3664SOL    HW111891   3.885   0.240   2.450
 3664SOL    HW211892   3.753   0.252   2.354
 3665SOL     OW11893   2.400   1.530   5.449
 3665SOL    HW111894   2.466   1.606   5.449
 3665SOL    HW211895   2.310   1.565   5.421
 3666SOL     OW11896   0.946   4.667   3.163
 3666SOL    HW111897   0.852   4.664   3.197
 3666SOL    HW211898   0.945   4.695   3.067
 3667SOL     OW11899   0.274   0.613   0.309
 3667SOL    HW111900   0.270   0.713   0.309
 3667SOL    HW211901   0.192   0.577   0.353
 3668SOL     OW11902   2.009   6.674   1.438
 3668SOL    HW111903   2.004   6.772   1.460
 3668SOL    HW211904   2.099   6.653   1.401
 3669SOL     OW11905   4.999   1.514   4.038
 3669SOL    HW111906   4.977   1.507   4.135
 3669SOL    HW211907   5.094   1.486   4.023
 3670SOL     OW11908   3.363   4.958   6.030
 3670SOL    HW111909   3.455   4.995   6.019
 3670SOL    HW211910   3.310   4.975   5.947
 3671SOL     OW11911   1.903   1.430   3.086
 3671SOL    HW111912   1.913   1.485   3.169
 3671SOL    HW211913   1.875   1.337   3.110
 3672SOL     OW11914   6.471   6.150   0.252
 3672SOL    HW111915   6.405   6.210   0.297
 3672SOL    HW211916   6.557   6.151   0.304
 3673SOL     OW11917   3.986   6.787   6.483
 3673SOL    HW111918   3.946   6.717   6.424
 3673SOL    HW211919   3.937   6.789   6.570
 3674SOL     OW11920   0.914   6.323   0.847
 3674SOL    HW111921   1.008   6.305   0.875
 3674SOL    HW211922   0.906   6.418   0.817
 3675SOL     OW11923   2.240   2.177   4.182
 3675SOL    HW111924   2.320   2.171   4.242
 3675SOL    HW211925   2.203   2.086   4.166
 3676SOL     OW11926   1.329   5.162   2.455
 3676SOL    HW111927   1.261   5.134   2.388
 3676SOL    HW211928   1.288   5.225   2.521
 3677SOL     OW11929   6.341   0.834   3.373
 3677SOL    HW111930   6.247   0.805   3.356
 3677SOL    HW211931   6.402   0.791   3.306
 3678SOL     OW11932   0.703   2.574   4.050
 3678SOL    HW111933   0.712   2.521   4.134
 3678SOL    HW211934   0.647   2.523   3.984
 3679SOL     OW11935   6.164   1.324   1.925
 3679SOL    HW111936   6.248   1.378   1.914
 3679SOL    HW211937   6.185   1.227   1.914
 3680SOL     OW11938   6.042   4.477   4.927
 3680SOL    HW111939   6.116   4.543   4.912
 3680SOL    HW211940   5.956   4.516   4.896
 3681SOL     OW11941   5.303   0.624   5.118
 3681SOL    HW111942   5.271   0.648   5.210
 3681SOL    HW211943   5.308   0.707   5.062
 3682SOL     OW11944   6.942   1.882   6.688
 3682SOL    HW111945   6.960   1.853   6.594
 3682SOL    HW211946   0.005   1.918   6.729
 3683SOL     OW11947   4.832   6.371   3.545
 3683SOL    HW111948   4.735   6.352   3.559
 3683SOL    HW211949   4.878   6.375   3.634
 3684SOL     OW11950   2.418   3.998   1.786
 3684SOL    HW111951   2.395   4.084   1.831
 3684SOL    HW211952   2.386   3.921   1.841
 3685SOL     OW11953   5.821   5.970   5.498
 3685SOL    HW111954   5.847   6.056   5.453
 3685SOL    HW211955   5.725   5.949   5.477
 3686SOL     OW11956   0.231   4.122   0.440
 3686SOL    HW111957   0.193   4.031   0.427
 3686SOL    HW211958   0.162   4.191   0.418
 3687SOL     OW11959   3.962   0.733   0.504
 3687SOL    HW111960   3.883   0.676   0.483
 3687SOL    HW211961   3.939   0.796   0.578
 3688SOL     OW11962   0.231   3.105   6.973
 3688SOL    HW111963   0.242   3.185   6.914
 3688SOL    HW211964   0.181   3.034   6.923
 3689SOL     OW11965   1.827   6.314   3.752
 3689SOL    HW111966   1.926   6.306   3.768
 3689SOL    HW211967   1.778   6.303   3.838
 3690SOL     OW11968   4.828   4.819   5.781
 3690SOL    HW111969   4.908   4.873   5.806
 3690SOL    HW211970   4.770   4.807   5.862
 3691SOL     OW11971   3.172   3.256   6.267
 3691SOL    HW111972   3.197   3.346   6.232
 3691SOL    HW211973   3.074   3.254   6.288
 3692SOL     OW11974   6.844   0.435   5.367
 3692SOL    HW111975   6.883   0.525   5.346
 3692SOL    HW211976   6.901   0.390   5.436
 3693SOL     OW11977   1.540   1.202   3.657
 3693SOL    HW111978   1.467   1.187   3.590
 3693SOL    HW211979   1.510   1.169   3.746
 3694SOL     OW11980   1.944   4.838   3.934
 3694SOL    HW111981   1.880   4.762   3.938
 3694SOL    HW211982   1.993   4.836   3.847
 3695SOL     OW11983   2.160   2.388   0.811
 3695SOL    HW111984   2.254   2.420   0.816
 3695SOL    HW211985   2.107   2.448   0.751
 3696SOL     OW11986   3.086   6.145   5.560
 3696SOL    HW111987   3.181   6.124   5.539
 3696SOL    HW211988   3.079   6.178   5.654
 3697SOL     OW11989   5.320   0.886   3.071
 3697SOL    HW111990   5.380   0.918   3.144
 3697SOL    HW211991   5.306   0.959   3.004
 3698SOL     OW11992   3.094   6.840   6.126
 3698SOL    HW111993   3.038   6.815   6.046
 3698SOL    HW211994   3.172   6.778   6.133
 3699SOL     OW11995   0.784   5.220   2.274
 3699SOL    HW111996   0.870   5.238   2.228
 3699SOL    HW211997   0.763   5.295   2.337
 3700SOL     OW11998   6.329   0.663   3.765
 3700SOL    HW111999   6.384   0.733   3.719
 3700SOL    HW212000   6.387   0.588   3.794
 3701SOL     OW12001   4.182   1.311   3.519
 3701SOL    HW112002   4.248   1.287   3.590
 3701SOL    HW212003   4.092   1.277   3.545
 3702SOL     OW12004   4.543   1.679   6.521
 3702SOL    HW112005   4.499   1.722   6.600
 3702SOL    HW212006   4.500   1.712   6.437
 3703SOL     OW12007   3.538   4.850   0.948
 3703SOL    HW112008   3.556   4.752   0.941
 3703SOL    HW212009   3.439   4.866   0.944
 3704SOL     OW12010   3.187   6.638   0.830
 3704SOL    HW112011   3.194   6.683   0.919
 3704SOL    HW212012   3.264   6.576   0.818
 3705SOL     OW12013   6.982   0.862   4.378
 3705SOL    HW112014   6.998   0.959   4.394
 3705SOL    HW212015   0.033   0.825   4.320
 3706SOL     OW12016   2.569   1.715   3.481
 3706SOL    HW112017   2.600   1.720   3.576
 3706SOL    HW212018   2.649   1.709   3.420
 3707SOL     OW12019   4.289   2.412   5.549
 3707SOL    HW112020   4.348   2.476   5.501
 3707SOL    HW212021   4.326   2.394   5.640
 3708SOL     OW12022   6.207   0.128   0.157
 3708SOL    HW112023   6.124   0.112   0.103
 3708SOL    HW212024   6.183   0.178   0.241
 3709SOL     OW12025   6.926   6.662   6.594
 3709SOL    HW112026   0.000   6.649   6.623
 3709SOL    HW212027   6.866   6.653   6.673
 3710SOL     OW12028   0.767   5.028   6.503
 3710SOL    HW112029   0.816   5.110   6.476
 3710SOL    HW212030   0.679   5.024   6.456
 3711SOL     OW12031   6.799   5.191   2.044
 3711SOL    HW112032   6.716   5.149   2.007
 3711SOL    HW212033   6.775   5.273   2.095
 3712SOL     OW12034   1.462   6.635   6.115
 3712SOL    HW112035   1.446   6.536   6.112
 3712SOL    HW212036   1.374   6.682   6.128
 3713SOL     OW12037   3.709   5.121   6.275
 3713SOL    HW112038   3.737   5.123   6.371
 3713SOL    HW212039   3.708   5.215   6.239
 3714SOL     OW12040   4.825   2.049   5.177
 3714SOL    HW112041   4.749   2.011   5.230
 3714SOL    HW212042   4.865   1.978   5.120
 3715SOL     OW12043   4.742   4.193   3.496
 3715SOL    HW112044   4.819   4.257   3.487
 3715SOL    HW212045   4.712   4.165   3.405
 3716SOL     OW12046   1.083   1.157   4.782
 3716SOL    HW112047   1.085   1.058   4.767
 3716SOL    HW212048   1.174   1.195   4.762
 3717SOL     OW12049   5.917   0.680   6.866
 3717SOL    HW112050   5.987   0.664   6.936
 3717SOL    HW212051   5.846   0.609   6.873
 3718SOL     OW12052   0.670   6.114   6.190
 3718SOL    HW112053   0.622   6.048   6.132
 3718SOL    HW212054   0.608   6.187   6.216
 3719SOL     OW12055   3.607   4.222   0.195
 3719SOL    HW112056   3.625   4.124   0.205
 3719SOL    HW212057   3.509   4.236   0.177
 3720SOL     OW12058   6.949   1.234   6.108
 3720SOL    HW112059   6.983   1.251   6.201
 3720SOL    HW212060   6.871   1.295   6.090
 3721SOL     OW12061   5.392   3.224   0.237
 3721SOL    HW112062   5.429   3.153   0.178
 3721SOL    HW212063   5.332   3.284   0.183
 3722SOL     OW12064   4.411   6.224   0.896
 3722SOL    HW112065   4.396   6.242   0.799
 3722SOL    HW212066   4.425   6.310   0.944
 3723SOL     OW12067   4.151   1.182   0.892
 3723SOL    HW112068   4.139   1.280   0.905
 3723SOL    HW212069   4.182   1.141   0.978
 3724SOL     OW12070   1.132   4.140   6.331
 3724SOL    HW112071   1.136   4.114   6.235
 3724SOL    HW212072   1.104   4.061   6.386
 3725SOL     OW12073   5.373   6.441   1.551
 3725SOL    HW112074   5.429   6.388   1.487
 3725SOL    HW212075   5.416   6.530   1.567
 3726SOL     OW12076   6.422   3.283   1.759
 3726SOL    HW112077   6.465   3.365   1.798
 3726SOL    HW212078   6.418   3.211   1.828
 3727SOL     OW12079   2.783   2.779   5.641
 3727SOL    HW112080   2.799   2.780   5.542
 3727SOL    HW212081   2.870   2.783   5.689
 3728SOL     OW12082   0.764   4.008   6.581
 3728SOL    HW112083   0.783   4.101   6.613
 3728SOL    HW212084   0.804   3.995   6.490
 3729SOL     OW12085   0.954   3.613   3.504
 3729SOL    HW112086   0.907   3.528   3.525
 3729SOL    HW212087   0.888   3.688   3.505
 3730SOL     OW12088   2.305   0.052   1.331
 3730SOL    HW112089   2.248   0.128   1.362
 3730SOL    HW212090   2.249   6.990   1.325
 3731SOL     OW12091   2.919   6.159   0.230
 3731SOL    HW112092   2.985   6.085   0.224
 3731SOL    HW212093   2.853   6.152   0.155
 3732SOL     OW12094   2.045   3.580   4.343
 3732SOL    HW112095   2.090   3.572   4.254
 3732SOL    HW212096   1.955   3.537   4.339
 3733SOL     OW12097   3.260   2.882   1.873
 3733SOL    HW112098   3.232   2.965   1.824
 3733SOL    HW212099   3.211   2.803   1.836
 3734SOL     OW12100   4.028   1.581   3.277
 3734SOL    HW112101   4.128   1.578   3.275
 3734SOL    HW212102   3.997   1.676   3.268
 3735SOL     OW12103   3.910   2.206   1.796
 3735SOL    HW112104   3.941   2.144   1.868
 3735SOL    HW212105   3.826   2.252   1.824
 3736SOL     OW12106   4.792   0.802   6.082
 3736SOL    HW112107   4.819   0.769   6.173
 3736SOL    HW212108   4.866   0.785   6.017
 3737SOL     OW12109   2.940   0.217   3.559
 3737SOL    HW112110   2.865   0.268   3.516
 3737SOL    HW212111   3.024   0.270   3.553
 3738SOL     OW12112   0.352   0.823   4.590
 3738SOL    HW112113   0.262   0.781   4.576
 3738SOL    HW212114   0.380   0.809   4.685
 3739SOL     OW12115   0.063   3.388   0.897
 3739SOL    HW112116   7.012   3.412   0.961
 3739SOL    HW212117   0.027   3.324   0.829
 3740SOL     OW12118   5.833   6.905   6.906
 3740SOL    HW112119   5.917   6.871   6.947
 3740SOL    HW212120   5.771   6.936   6.978
 3741SOL     OW12121   3.577   0.844   0.235
 3741SOL    HW112122   3.653   0.896   0.274
 3741SOL    HW212123   3.526   0.798   0.309
 3742SOL     OW12124   3.709   3.321   6.306
 3742SOL    HW112125   3.795   3.371   6.317
 3742SOL    HW212126   3.669   3.343   6.216
 3743SOL     OW12127   0.759   5.782   5.970
 3743SOL    HW112128   0.701   5.800   6.050
 3743SOL    HW212129   0.853   5.765   6.001
 3744SOL     OW12130   6.363   4.754   3.060
 3744SOL    HW112131   6.322   4.675   3.105
 3744SOL    HW212132   6.399   4.727   2.971
 3745SOL     OW12133   5.016   4.804   1.446
 3745SOL    HW112134   4.967   4.819   1.361
 3745SOL    HW212135   5.042   4.892   1.486
 3746SOL     OW12136   3.873   1.300   1.366
 3746SOL    HW112137   3.802   1.323   1.433
 3746SOL    HW212138   3.859   1.353   1.283
 3747SOL     OW12139   2.925   6.781   1.306
 3747SOL    HW112140   2.983   6.835   1.366
 3747SOL    HW212141   2.941   6.807   1.211
 3748SOL     OW12142   5.810   0.506   1.677
 3748SOL    HW112143   5.787   0.524   1.581
 3748SOL    HW212144   5.902   0.540   1.697
 3749SOL     OW12145   0.820   0.680   4.040
 3749SOL    HW112146   0.918   0.679   4.019
 3749SOL    HW212147   0.800   0.610   4.109
 3750SOL     OW12148   0.532   4.037   6.784
 3750SOL    HW112149   0.494   4.093   6.858
 3750SOL    HW212150   0.613   4.083   6.746
 3751SOL     OW12151   1.898   5.220   1.794
 3751SOL    HW112152   1.866   5.314   1.787
 3751SOL    HW212153   1.825   5.162   1.831
 3752SOL     OW12154   5.542   5.316   6.445
 3752SOL    HW112155   5.538   5.380   6.368
 3752SOL    HW212156   5.481   5.239   6.429
 3753SOL     OW12157   0.366   1.376   3.684
 3753SOL    HW112158   0.440   1.325   3.726
 3753SOL    HW212159   0.282   1.321   3.685
 3754SOL     OW12160   3.704   1.563   1.503
 3754SOL    HW112161   3.733   1.613   1.584
 3754SOL    HW212162   3.714   1.621   1.422
 3755SOL     OW12163   2.763   5.831   4.062
 3755SOL    HW112164   2.846   5.843   4.117
 3755SOL    HW212165   2.785   5.783   3.977
 3756SOL     OW12166   1.490   6.473   0.701
 3756SOL    HW112167   1.536   6.487   0.613
 3756SOL    HW212168   1.409   6.531   0.706
 3757SOL     OW12169   0.708   5.403   0.306
 3757SOL    HW112170   0.683   5.411   0.402
 3757SOL    HW212171   0.729   5.308   0.284
 3758SOL     OW12172   0.603   5.999   4.204
 3758SOL    HW112173   0.663   6.064   4.156
 3758SOL    HW212174   0.586   5.920   4.144
 3759SOL     OW12175   4.692   0.464   3.879
 3759SOL    HW112176   4.747   0.528   3.826
 3759SOL    HW212177   4.611   0.439   3.827
 3760SOL     OW12178   0.839   1.249   3.118
 3760SOL    HW112179   0.818   1.178   3.185
 3760SOL    HW212180   0.767   1.318   3.119
 3761SOL     OW12181   4.421   1.547   5.075
 3761SOL    HW112182   4.440   1.644   5.084
 3761SOL    HW212183   4.327   1.533   5.045
 3762SOL     OW12184   6.962   2.442   3.329
 3762SOL    HW112185   6.947   2.417   3.233
 3762SOL    HW212186   6.885   2.496   3.362
 3763SOL     OW12187   0.685   6.725   6.445
 3763SOL    HW112188   0.741   6.784   6.387
 3763SOL    HW212189   0.595   6.765   6.456
 3764SOL     OW12190   4.035   1.616   2.626
 3764SOL    HW112191   3.996   1.707   2.640
 3764SOL    HW212192   3.961   1.552   2.605
 3765SOL     OW12193   5.962   4.051   2.402
 3765SOL    HW112194   5.926   4.141   2.426
 3765SOL    HW212195   5.896   4.003   2.345
 3766SOL     OW12196   2.182   2.955   2.163
 3766SOL    HW112197   2.178   3.029   2.096
 3766SOL    HW212198   2.094   2.945   2.207
 3767SOL     OW12199   1.590   6.138   5.811
 3767SOL    HW112200   1.656   6.178   5.874
 3767SOL    HW212201   1.555   6.210   5.750
 3768SOL     OW12202   2.094   6.895   3.689
 3768SOL    HW112203   2.110   6.874   3.785
 3768SOL    HW212204   2.090   6.995   3.677
 3769SOL     OW12205   5.206   4.921   5.679
 3769SOL    HW112206   5.233   4.982   5.605
 3769SOL    HW212207   5.149   4.970   5.744
 3770SOL     OW12208   2.646   6.554   0.974
 3770SOL    HW112209   2.682   6.647   0.975
 3770SOL    HW212210   2.709   6.494   0.925
 3771SOL     OW12211   6.578   6.260   5.917
 3771SOL    HW112212   6.603   6.352   5.889
 3771SOL    HW212213   6.480   6.256   5.938
 3772SOL     OW12214   3.500   5.639   1.645
 3772SOL    HW112215   3.513   5.736   1.622
 3772SOL    HW212216   3.500   5.628   1.744
 3773SOL     OW12217   5.114   3.821   0.120
 3773SOL    HW112218   5.044   3.883   0.085
 3773SOL    HW212219   5.174   3.793   0.045
 3774SOL     OW12220   0.196   4.631   0.752
 3774SOL    HW112221   0.138   4.563   0.795
 3774SOL    HW212222   0.177   4.721   0.791
 3775SOL     OW12223   5.541   0.129   5.118
 3775SOL    HW112224   5.577   0.181   5.041
 3775SOL    HW212225   5.541   0.032   5.095
 3776SOL     OW12226   4.212   2.626   6.921
 3776SOL    HW112227   4.165   2.697   6.869
 3776SOL    HW212228   4.158   2.604   7.003
 3777SOL     OW12229   3.153   5.227   3.407
 3777SOL    HW112230   3.205   5.158   3.458
 3777SOL    HW212231   3.118   5.296   3.471
 3778SOL     OW12232   2.902   5.686   6.602
 3778SOL    HW112233   2.975   5.747   6.574
 3778SOL    HW212234   2.941   5.601   6.639
 3779SOL     OW12235   0.026   4.769   6.124
 3779SOL    HW112236   0.014   4.713   6.206
 3779SOL    HW212237   0.103   4.832   6.138
 3780SOL     OW12238   5.929   2.348   1.847
 3780SOL    HW112239   5.916   2.347   1.747
 3780SOL    HW212240   6.027   2.340   1.867
 3781SOL     OW12241   1.330   6.613   6.408
 3781SOL    HW112242   1.430   6.613   6.410
 3781SOL    HW212243   1.298   6.648   6.320
 3782SOL     OW12244   3.566   5.629   6.943
 3782SOL    HW112245   3.606   5.593   6.859
 3782SOL    HW212246   3.596   5.572   7.021
 3783SOL     OW12247   4.538   5.144   5.146
 3783SOL    HW112248   4.451   5.137   5.097
 3783SOL    HW212249   4.521   5.164   5.242
 3784SOL     OW12250   5.620   3.351   4.829
 3784SOL    HW112251   5.606   3.373   4.733
 3784SOL    HW212252   5.635   3.434   4.881
 3785SOL     OW12253   1.119   3.101   2.604
 3785SOL    HW112254   1.050   3.173   2.598
 3785SOL    HW212255   1.156   3.098   2.697
 3786SOL     OW12256   2.976   2.725   6.009
 3786SOL    HW112257   2.953   2.810   5.962
 3786SOL    HW212258   2.941   2.647   5.956
 3787SOL     OW12259   5.237   6.207   5.330
 3787SOL    HW112260   5.229   6.301   5.297
 3787SOL    HW212261   5.323   6.197   5.381
 3788SOL     OW12262   5.560   3.287   6.507
 3788SOL    HW112263   5.655   3.256   6.499
 3788SOL    HW212264   5.500   3.224   6.457
 3789SOL     OW12265   1.745   4.139   1.315
 3789SOL    HW112266   1.784   4.055   1.276
 3789SOL    HW212267   1.775   4.217   1.261
 3790SOL     OW12268   2.238   0.107   1.701
 3790SOL    HW112269   2.185   0.030   1.738
 3790SOL    HW212270   2.335   0.086   1.706
 3791SOL     OW12271   5.188   0.629   3.860
 3791SOL    HW112272   5.127   0.687   3.806
 3791SOL    HW212273   5.271   0.680   3.883
 3792SOL     OW12274   6.151   0.195   3.242
 3792SOL    HW112275   6.245   0.216   3.217
 3792SOL    HW212276   6.117   0.120   3.186
 3793SOL     OW12277   5.020   3.295   0.085
 3793SOL    HW112278   5.050   3.358   0.156
 3793SOL    HW212279   4.920   3.294   0.080
 3794SOL     OW12280   1.459   5.095   5.608
 3794SOL    HW112281   1.535   5.075   5.671
 3794SOL    HW212282   1.488   5.077   5.515
 3795SOL     OW12283   3.364   6.401   0.524
 3795SOL    HW112284   3.417   6.345   0.587
 3795SOL    HW212285   3.267   6.380   0.534
 3796SOL     OW12286   5.265   1.010   0.317
 3796SOL    HW112287   5.328   1.080   0.352
 3796SOL    HW212288   5.171   1.038   0.336
 3797SOL     OW12289   6.880   2.110   0.983
 3797SOL    HW112290   6.871   2.172   0.905
 3797SOL    HW212291   6.804   2.123   1.045
 3798SOL     OW12292   0.267   4.205   3.993
 3798SOL    HW112293   0.361   4.240   4.000
 3798SOL    HW212294   0.203   4.282   3.988
 3799SOL     OW12295   6.690   2.170   2.609
 3799SOL    HW112296   6.611   2.229   2.594
 3799SOL    HW212297   6.666   2.075   2.589
 3800SOL     OW12298   5.276   3.502   2.305
 3800SOL    HW112299   5.212   3.576   2.284
 3800SOL    HW212300   5.356   3.509   2.245
 3801SOL     OW12301   5.355   1.732   0.628
 3801SOL    HW112302   5.406   1.818   0.626
 3801SOL    HW212303   5.262   1.749   0.660
 3802SOL     OW12304   6.504   3.978   3.539
 3802SOL    HW112305   6.418   3.951   3.496
 3802SOL    HW212306   6.525   4.073   3.514
 3803SOL     OW12307   3.715   3.955   6.217
 3803SOL    HW112308   3.679   3.993   6.131
 3803SOL    HW212309   3.640   3.925   6.275
 3804SOL     OW12310   3.102   6.090   3.010
 3804SOL    HW112311   3.071   6.011   3.063
 3804SOL    HW212312   3.057   6.089   2.920
 3805SOL     OW12313   2.906   2.167   6.794
 3805SOL    HW112314   2.933   2.117   6.712
 3805SOL    HW212315   2.870   2.102   6.862
 3806SOL     OW12316   1.866   3.605   2.057
 3806SOL    HW112317   1.902   3.614   2.150
 3806SOL    HW212318   1.772   3.638   2.055
 3807SOL     OW12319   0.378   4.029   3.798
 3807SOL    HW112320   0.293   3.980   3.779
 3807SOL    HW212321   0.370   4.078   3.884
 3808SOL     OW12322   2.842   6.397   5.508
 3808SOL    HW112323   2.812   6.301   5.509
 3808SOL    HW212324   2.818   6.437   5.419
 3809SOL     OW12325   5.187   1.441   1.361
 3809SOL    HW112326   5.183   1.515   1.429
 3809SOL    HW212327   5.123   1.461   1.287
 3810SOL     OW12328   4.835   1.879   3.843
 3810SOL    HW112329   4.744   1.838   3.852
 3810SOL    HW212330   4.893   1.847   3.918
 3811SOL     OW12331   6.852   5.905   5.217
 3811SOL    HW112332   6.951   5.891   5.231
 3811SOL    HW212333   6.803   5.868   5.296
 3812SOL     OW12334   4.363   5.816   6.900
 3812SOL    HW112335   4.422   5.816   6.981
 3812SOL    HW212336   4.267   5.815   6.929
 3813SOL     OW12337   6.852   3.501   6.653
 3813SOL    HW112338   6.766   3.533   6.694
 3813SOL    HW212339   6.834   3.467   6.561
 3814SOL     OW12340   6.300   0.752   5.135
 3814SOL    HW112341   6.318   0.850   5.129
 3814SOL    HW212342   6.201   0.736   5.128
 3815SOL     OW12343   5.255   2.190   5.509
 3815SOL    HW112344   5.329   2.125   5.488
 3815SOL    HW212345   5.223   2.174   5.602
 3816SOL     OW12346   6.619   6.697   1.514
 3816SOL    HW112347   6.701   6.740   1.552
 3816SOL    HW212348   6.647   6.632   1.443
 3817SOL     OW12349   3.714   3.739   2.893
 3817SOL    HW112350   3.765   3.768   2.975
 3817SOL    HW212351   3.641   3.804   2.875
 3818SOL     OW12352   4.557   5.734   2.269
 3818SOL    HW112353   4.637   5.699   2.318
 3818SOL    HW212354   4.475   5.715   2.322
 3819SOL     OW12355   6.407   3.308   2.926
 3819SOL    HW112356   6.353   3.288   3.007
 3819SOL    HW212357   6.365   3.265   2.846
 3820SOL     OW12358   3.117   6.472   6.054
 3820SOL    HW112359   3.089   6.511   6.142
 3820SOL    HW212360   3.097   6.537   5.981
 3821SOL     OW12361   1.604   6.836   1.288
 3821SOL    HW112362   1.683   6.818   1.230
 3821SOL    HW212363   1.581   6.754   1.340
 3822SOL     OW12364   5.706   7.004   1.500
 3822SOL    HW112365   5.778   0.012   1.563
 3822SOL    HW212366   5.625   6.976   1.552
 3823SOL     OW12367   5.669   5.664   4.451
 3823SOL    HW112368   5.605   5.697   4.521
 3823SOL    HW212369   5.660   5.719   4.368
 3824SOL     OW12370   1.971   2.528   0.613
 3824SOL    HW112371   2.048   2.581   0.579
 3824SOL    HW212372   1.921   2.489   0.536
 3825SOL     OW12373   6.845   4.346   6.066
 3825SOL    HW112374   6.932   4.346   6.114
 3825SOL    HW212375   6.842   4.270   6.001
 3826SOL     OW12376   4.747   4.104   3.893
 3826SOL    HW112377   4.846   4.119   3.886
 3826SOL    HW212378   4.729   4.005   3.896
 3827SOL     OW12379   0.550   1.360   0.032
 3827SOL    HW112380   0.633   1.413   0.015
 3827SOL    HW212381   0.514   1.326   6.966
 3828SOL     OW12382   3.292   3.496   5.353
 3828SOL    HW112383   3.227   3.540   5.290
 3828SOL    HW212384   3.249   3.416   5.393
 3829SOL     OW12385   6.808   2.775   1.101
 3829SOL    HW112386   6.723   2.825   1.091
 3829SOL    HW212387   6.789   2.677   1.101
 3830SOL     OW12388   5.513   6.677   3.567
 3830SOL    HW112389   5.503   6.731   3.650
 3830SOL    HW212390   5.493   6.581   3.587
 3831SOL     OW12391   5.378   2.633   3.929
 3831SOL    HW112392   5.391   2.721   3.883
 3831SOL    HW212393   5.282   2.606   3.921
 3832SOL     OW12394   6.582   1.271   3.783
 3832SOL    HW112395   6.510   1.270   3.714
 3832SOL    HW212396   6.541   1.265   3.874
 3833SOL     OW12397   2.091   2.865   6.090
 3833SOL    HW112398   2.092   2.843   5.993
 3833SOL    HW212399   2.040   2.950   6.105
 3834SOL     OW12400   5.000   4.548   0.858
 3834SOL    HW112401   4.921   4.500   0.896
 3834SOL    HW212402   4.969   4.612   0.788
 3835SOL     OW12403   4.751   5.259   4.216
 3835SOL    HW112404   4.819   5.187   4.224
 3835SOL    HW212405   4.664   5.227   4.255
 3836SOL     OW12406   0.075   0.110   5.081
 3836SOL    HW112407   0.140   0.178   5.047
 3836SOL    HW212408   0.045   0.052   5.006
 3837SOL     OW12409   5.042   4.076   5.490
 3837SOL    HW112410   4.947   4.107   5.489
 3837SOL    HW212411   5.093   4.122   5.418
 3838SOL     OW12412   0.284   1.717   3.873
 3838SOL    HW112413   0.380   1.692   3.889
 3838SOL    HW212414   0.270   1.813   3.897
 3839SOL     OW12415   4.137   1.635   3.686
 3839SOL    HW112416   4.119   1.544   3.649
 3839SOL    HW212417   4.224   1.669   3.650
 3840SOL     OW12418   3.909   1.286   6.402
 3840SOL    HW112419   3.902   1.228   6.483
 3840SOL    HW212420   3.835   1.352   6.401
 3841SOL     OW12421   5.622   4.060   2.951
 3841SOL    HW112422   5.583   3.973   2.921
 3841SOL    HW212423   5.673   4.047   3.036
 3842SOL     OW12424   1.456   3.814   5.192
 3842SOL    HW112425   1.508   3.822   5.277
 3842SOL    HW212426   1.361   3.792   5.213
 3843SOL     OW12427   5.735   2.204   6.693
 3843SOL    HW112428   5.792   2.129   6.660
 3843SOL    HW212429   5.652   2.211   6.638
 3844SOL     OW12430   5.932   6.474   0.506
 3844SOL    HW112431   5.898   6.452   0.597
 3844SOL    HW212432   5.902   6.565   0.479
 3845SOL     OW12433   2.152   5.321   6.824
 3845SOL    HW112434   2.229   5.361   6.874
 3845SOL    HW212435   2.081   5.293   6.889
 3846SOL     OW12436   6.883   3.207   2.620
 3846SOL    HW112437   6.833   3.210   2.706
 3846SOL    HW212438   6.819   3.212   2.543
 3847SOL     OW12439   1.084   0.979   6.914
 3847SOL    HW112440   1.130   0.949   6.997
 3847SOL    HW212441   1.074   0.902   6.851
 3848SOL     OW12442   6.204   4.901   2.416
 3848SOL    HW112443   6.288   4.847   2.430
 3848SOL    HW212444   6.199   4.929   2.320
 3849SOL     OW12445   0.203   2.914   5.538
 3849SOL    HW112446   0.249   2.850   5.476
 3849SOL    HW212447   0.109   2.929   5.508
 3850SOL     OW12448   3.483   3.170   1.513
 3850SOL    HW112449   3.401   3.227   1.512
 3850SOL    HW212450   3.560   3.223   1.548
 3851SOL     OW12451   0.275   5.531   2.437
 3851SOL    HW112452   0.210   5.469   2.479
 3851SOL    HW212453   0.304   5.600   2.504
 3852SOL     OW12454   2.842   1.434   5.425
 3852SOL    HW112455   2.893   1.411   5.343
 3852SOL    HW212456   2.789   1.354   5.454
 3853SOL     OW12457   2.458   1.277   3.079
 3853SOL    HW112458   2.500   1.363   3.108
 3853SOL    HW212459   2.460   1.270   2.979
 3854SOL     OW12460   0.163   1.580   1.525
 3854SOL    HW112461   0.148   1.610   1.431
 3854SOL    HW212462   0.255   1.607   1.554
 3855SOL     OW12463   2.898   5.949   6.804
 3855SOL    HW112464   2.877   6.046   6.818
 3855SOL    HW212465   2.952   5.938   6.721
 3856SOL     OW12466   6.761   2.819   6.168
 3856SOL    HW112467   6.770   2.725   6.200
 3856SOL    HW212468   6.715   2.873   6.239
 3857SOL     OW12469   0.938   0.289   5.973
 3857SOL    HW112470   0.927   0.197   5.937
 3857SOL    HW212471   1.017   0.292   6.035
 3858SOL     OW12472   3.791   1.105   5.028
 3858SOL    HW112473   3.817   1.009   5.015
 3858SOL    HW212474   3.873   1.160   5.041
 3859SOL     OW12475   5.606   0.231   2.321
 3859SOL    HW112476   5.665   0.310   2.305
 3859SOL    HW212477   5.632   0.186   2.406
 3860SOL     OW12478   1.616   6.518   4.503
 3860SOL    HW112479   1.641   6.428   4.539
 3860SOL    HW212480   1.648   6.589   4.567
 3861SOL     OW12481   3.090   5.975   2.583
 3861SOL    HW112482   3.127   6.065   2.560
 3861SOL    HW212483   3.156   5.925   2.639
 3862SOL     OW12484   1.766   0.488   4.115
 3862SOL    HW112485   1.814   0.568   4.149
 3862SOL    HW212486   1.796   0.407   4.165
 3863SOL     OW12487   4.274   0.322   1.154
 3863SOL    HW112488   4.296   0.271   1.237
 3863SOL    HW212489   4.194   0.281   1.110
 3864SOL     OW12490   0.770   0.091   4.650
 3864SOL    HW112491   0.729   0.177   4.680
 3864SOL    HW212492   0.855   0.110   4.600
 3865SOL     OW12493   5.105   1.069   0.838
 3865SOL    HW112494   5.169   0.999   0.806
 3865SOL    HW212495   5.128   1.096   0.931
 3866SOL     OW12496   3.611   0.909   6.656
 3866SOL    HW112497   3.695   0.924   6.708
 3866SOL    HW212498   3.542   0.866   6.716
 3867SOL     OW12499   6.453   3.454   2.376
 3867SOL    HW112500   6.459   3.524   2.305
 3867SOL    HW212501   6.378   3.475   2.438
 3868SOL     OW12502   3.943   0.174   0.130
 3868SOL    HW112503   3.972   0.195   0.223
 3868SOL    HW212504   3.996   0.097   0.095
 3869SOL     OW12505   3.713   1.198   3.944
 3869SOL    HW112506   3.702   1.160   4.036
 3869SOL    HW212507   3.705   1.298   3.948
 3870SOL     OW12508   7.017   1.488   5.756
 3870SOL    HW112509   0.064   1.450   5.819
 3870SOL    HW212510   6.978   1.414   5.702
 3871SOL     OW12511   3.027   5.058   3.730
 3871SOL    HW112512   3.024   4.975   3.675
 3871SOL    HW212513   2.936   5.098   3.735
 3872SOL     OW12514   2.915   4.139   5.294
 3872SOL    HW112515   2.916   4.098   5.203
 3872SOL    HW212516   2.821   4.165   5.317
 3873SOL     OW12517   4.896   2.131   6.699
 3873SOL    HW112518   4.969   2.103   6.762
 3873SOL    HW212519   4.811   2.143   6.750
 3874SOL     OW12520   2.051   1.334   1.307
 3874SOL    HW112521   2.129   1.307   1.363
 3874SOL    HW212522   2.020   1.425   1.332
 3875SOL     OW12523   1.196   1.187   6.801
 3875SOL    HW112524   1.148   1.118   6.855
 3875SOL    HW212525   1.175   1.175   6.704
 3876SOL     OW12526   3.550   5.321   2.435
 3876SOL    HW112527   3.463   5.276   2.415
 3876SOL    HW212528   3.578   5.299   2.529
 3877SOL     OW12529   1.221   1.540   5.390
 3877SOL    HW112530   1.137   1.487   5.381
 3877SOL    HW212531   1.226   1.608   5.317
 3878SOL     OW12532   4.632   1.384   4.983
 3878SOL    HW112533   4.697   1.446   4.938
 3878SOL    HW212534   4.559   1.437   5.024
 3879SOL     OW12535   5.312   5.540   6.351
 3879SOL    HW112536   5.306   5.615   6.417
 3879SOL    HW212537   5.235   5.478   6.364
 3880SOL     OW12538   5.103   4.711   4.080
 3880SOL    HW112539   5.007   4.695   4.059
 3880SOL    HW212540   5.113   4.738   4.175
 3881SOL     OW12541   1.376   2.852   0.328
 3881SOL    HW112542   1.371   2.769   0.272
 3881SOL    HW212543   1.471   2.870   0.353
 3882SOL     OW12544   0.500   1.847   5.720
 3882SOL    HW112545   0.556   1.916   5.765
 3882SOL    HW212546   0.550   1.760   5.716
 3883SOL     OW12547   4.462   5.928   3.999
 3883SOL    HW112548   4.446   5.889   3.908
 3883SOL    HW212549   4.417   6.016   4.006
 3884SOL     OW12550   0.116   3.198   2.001
 3884SOL    HW112551   0.181   3.273   1.986
 3884SOL    HW212552   0.087   3.197   2.097
 3885SOL     OW12553   4.326   5.595   2.047
 3885SOL    HW112554   4.321   5.537   2.128
 3885SOL    HW212555   4.421   5.609   2.021
 3886SOL     OW12556   2.940   5.556   6.282
 3886SOL    HW112557   2.996   5.560   6.364
 3886SOL    HW212558   2.986   5.603   6.207
 3887SOL     OW12559   2.141   5.629   2.206
 3887SOL    HW112560   2.069   5.564   2.180
 3887SOL    HW212561   2.215   5.626   2.139
 3888SOL     OW12562   5.317   4.958   3.192
 3888SOL    HW112563   5.284   4.947   3.098
 3888SOL    HW212564   5.410   4.922   3.199
 3889SOL     OW12565   5.629   4.000   0.545
 3889SOL    HW112566   5.672   4.027   0.459
 3889SOL    HW212567   5.696   3.953   0.602
 3890SOL     OW12568   5.462   3.986   3.963
 3890SOL    HW112569   5.407   4.070   3.957
 3890SOL    HW212570   5.485   3.955   3.871
 3891SOL     OW12571   4.860   5.075   3.848
 3891SOL    HW112572   4.828   4.990   3.806
 3891SOL    HW212573   4.786   5.116   3.902
 3892SOL     OW12574   6.653   2.163   1.781
 3892SOL    HW112575   6.640   2.191   1.877
 3892SOL    HW212576   6.666   2.244   1.724
 3893SOL     OW12577   4.044   3.225   3.677
 3893SOL    HW112578   3.971   3.168   3.714
 3893SOL    HW212579   4.129   3.208   3.725
 3894SOL     OW12580   4.252   1.141   6.114
 3894SOL    HW112581   4.268   1.126   6.211
 3894SOL    HW212582   4.336   1.176   6.072
 3895SOL     OW12583   0.648   0.640   4.491
 3895SOL    HW112584   0.658   0.702   4.413
 3895SOL    HW212585   0.554   0.609   4.496
 3896SOL     OW12586   2.144   1.350   6.391
 3896SOL    HW112587   2.176   1.283   6.325
 3896SOL    HW212588   2.190   1.438   6.375
 3897SOL     OW12589   3.194   6.053   0.881
 3897SOL    HW112590   3.144   5.971   0.909
 3897SOL    HW212591   3.242   6.092   0.959
 3898SOL     OW12592   3.639   3.081   1.257
 3898SOL    HW112593   3.612   3.086   1.353
 3898SOL    HW212594   3.693   2.998   1.243
 3899SOL     OW12595   2.933   6.931   5.494
 3899SOL    HW112596   2.967   6.929   5.588
 3899SOL    HW212597   2.837   6.959   5.493
 3900SOL     OW12598   4.557   4.803   2.509
 3900SOL    HW112599   4.511   4.884   2.544
 3900SOL    HW212600   4.511   4.721   2.544
 3901SOL     OW12601   2.829   1.447   0.175
 3901SOL    HW112602   2.840   1.537   0.133
 3901SOL    HW212603   2.894   1.438   0.251
 3902SOL     OW12604   5.130   3.193   2.728
 3902SOL    HW112605   5.034   3.205   2.703
 3902SOL    HW212606   5.170   3.119   2.674
 3903SOL     OW12607   3.602   4.634   6.744
 3903SOL    HW112608   3.639   4.614   6.835
 3903SOL    HW212609   3.614   4.555   6.685
 3904SOL     OW12610   1.801   6.729   0.709
 3904SOL    HW112611   1.752   6.733   0.622
 3904SOL    HW212612   1.897   6.706   0.692
 3905SOL     OW12613   0.147   6.259   5.228
 3905SOL    HW112614   0.142   6.356   5.204
 3905SOL    HW212615   0.056   6.225   5.251
 3906SOL     OW12616   0.175   6.067   5.610
 3906SOL    HW112617   0.185   5.968   5.606
 3906SOL    HW212618   0.238   6.110   5.545
 3907SOL     OW12619   5.327   2.079   3.810
 3907SOL    HW112620   5.274   2.000   3.780
 3907SOL    HW212621   5.403   2.049   3.868
 3908SOL     OW12622   2.587   4.074   6.060
 3908SOL    HW112623   2.680   4.071   6.024
 3908SOL    HW212624   2.561   4.169   6.076
 3909SOL     OW12625   5.312   5.721   3.708
 3909SOL    HW112626   5.224   5.720   3.755
 3909SOL    HW212627   5.316   5.645   3.643
 3910SOL     OW12628   3.568   3.762   2.367
 3910SOL    HW112629   3.594   3.858   2.378
 3910SOL    HW212630   3.648   3.709   2.340
 3911SOL     OW12631   5.819   1.898   5.961
 3911SOL    HW112632   5.889   1.835   5.994
 3911SOL    HW212633   5.847   1.992   5.983
 3912SOL     OW12634   5.337   2.698   6.216
 3912SOL    HW112635   5.350   2.785   6.169
 3912SOL    HW212636   5.268   2.708   6.287
 3913SOL     OW12637   1.164   6.722   1.387
 3913SOL    HW112638   1.123   6.686   1.471
 3913SOL    HW212639   1.161   6.822   1.390
 3914SOL     OW12640   3.089   5.626   5.242
 3914SOL    HW112641   2.994   5.618   5.214
 3914SOL    HW212642   3.145   5.559   5.192
 3915SOL     OW12643   6.167   5.844   1.857
 3915SOL    HW112644   6.156   5.931   1.810
 3915SOL    HW212645   6.113   5.774   1.809
 3916SOL     OW12646   0.091   0.171   3.361
 3916SOL    HW112647   0.049   0.177   3.452
 3916SOL    HW212648   0.143   0.254   3.342
 3917SOL     OW12649   2.653   0.178   6.515
 3917SOL    HW112650   2.714   0.187   6.437
 3917SOL    HW212651   2.587   0.105   6.497
 3918SOL     OW12652   5.786   3.655   6.884
 3918SOL    HW112653   5.712   3.722   6.888
 3918SOL    HW212654   5.871   3.698   6.912
 3919SOL     OW12655   3.047   6.258   0.842
 3919SOL    HW112656   3.062   6.307   0.756
 3919SOL    HW212657   3.102   6.174   0.843
 3920SOL     OW12658   2.139   0.671   0.045
 3920SOL    HW112659   2.053   0.624   0.024
 3920SOL    HW212660   2.203   0.658   6.990
 3921SOL     OW12661   0.841   3.369   0.839
 3921SOL    HW112662   0.920   3.416   0.799
 3921SOL    HW212663   0.799   3.427   0.909
 3922SOL     OW12664   0.909   5.565   1.335
 3922SOL    HW112665   0.876   5.519   1.417
 3922SOL    HW212666   0.918   5.498   1.261
 3923SOL     OW12667   6.783   5.848   0.782
 3923SOL    HW112668   6.716   5.778   0.759
 3923SOL    HW212669   6.872   5.806   0.796
 3924SOL     OW12670   6.473   4.903   4.477
 3924SOL    HW112671   6.565   4.866   4.473
 3924SOL    HW212672   6.473   4.998   4.448
 3925SOL     OW12673   1.247   5.021   1.337
 3925SOL    HW112674   1.212   5.085   1.405
 3925SOL    HW212675   1.251   4.929   1.376
 3926SOL     OW12676   3.116   5.296   2.907
 3926SOL    HW112677   3.176   5.264   2.834
 3926SOL    HW212678   3.071   5.381   2.879
 3927SOL     OW12679   2.291   3.467   6.452
 3927SOL    HW112680   2.201   3.506   6.434
 3927SOL    HW212681   2.305   3.460   6.551
 3928SOL     OW12682   6.500   6.745   6.497
 3928SOL    HW112683   6.561   6.821   6.519
 3928SOL    HW212684   6.477   6.748   6.399
 3929SOL     OW12685   1.181   1.565   4.722
 3929SOL    HW112686   1.156   1.607   4.635
 3929SOL    HW212687   1.207   1.469   4.707
 3930SOL     OW12688   2.843   1.531   4.095
 3930SOL    HW112689   2.807   1.501   4.007
 3930SOL    HW212690   2.771   1.527   4.164
 3931SOL     OW12691   4.149   0.046   2.037
 3931SOL    HW112692   4.225   0.099   2.000
 3931SOL    HW212693   4.070   0.053   1.975
 3932SOL     OW12694   1.948   2.938   3.532
 3932SOL    HW112695   2.042   2.937   3.499
 3932SOL    HW212696   1.946   2.917   3.629
 3933SOL     OW12697   1.968   1.136   6.103
 3933SOL    HW112698   2.059   1.144   6.143
 3933SOL    HW212699   1.934   1.043   6.117
 3934SOL     OW12700   5.233   6.049   6.924
 3934SOL    HW112701   5.226   6.138   6.879
 3934SOL    HW212702   5.287   6.058   7.008
 3935SOL     OW12703   5.320   6.632   1.885
 3935SOL    HW112704   5.357   6.669   1.970
 3935SOL    HW212705   5.360   6.542   1.867
 3936SOL     OW12706   0.680   4.181   2.417
 3936SOL    HW112707   0.652   4.146   2.506
 3936SOL    HW212708   0.777   4.162   2.404
 3937SOL     OW12709   0.045   1.906   2.246
 3937SOL    HW112710   0.056   1.951   2.335
 3937SOL    HW212711   6.987   1.845   2.250
 3938SOL     OW12712   6.804   3.045   3.398
 3938SOL    HW112713   6.721   3.026   3.346
 3938SOL    HW212714   6.850   3.125   3.361
 3939SOL     OW12715   2.041   1.769   1.634
 3939SOL    HW112716   2.134   1.760   1.670
 3939SOL    HW212717   2.042   1.832   1.556
 3940SOL     OW12718   4.404   4.371   0.922
 3940SOL    HW112719   4.308   4.375   0.894
 3940SOL    HW212720   4.410   4.357   1.020
 3941SOL     OW12721   5.480   3.483   0.020
 3941SOL    HW112722   5.414   3.409   0.005
 3941SOL    HW212723   5.564   3.446   0.060
 3942SOL     OW12724   6.354   6.908   0.743
 3942SOL    HW112725   6.372   6.858   0.658
 3942SOL    HW212726   6.406   6.866   0.818
 3943SOL     OW12727   6.498   3.044   5.269
 3943SOL    HW112728   6.487   2.988   5.352
 3943SOL    HW212729   6.410   3.086   5.246
 3944SOL     OW12730   5.545   1.575   5.001
 3944SOL    HW112731   5.620   1.610   5.058
 3944SOL    HW212732   5.570   1.583   4.905
 3945SOL     OW12733   0.135   0.151   0.997
 3945SOL    HW112734   0.168   0.181   1.087
 3945SOL    HW212735   0.086   0.064   1.008
 3946SOL     OW12736   3.532   5.386   3.395
 3946SOL    HW112737   3.602   5.456   3.400
 3946SOL    HW212738   3.536   5.329   3.477
 3947SOL     OW12739   6.682   3.895   6.043
 3947SOL    HW112740   6.673   3.897   5.943
 3947SOL    HW212741   6.656   3.805   6.077
 3948SOL     OW12742   6.531   3.356   0.793
 3948SOL    HW112743   6.496   3.426   0.855
 3948SOL    HW212744   6.481   3.360   0.707
 3949SOL     OW12745   5.506   6.430   3.117
 3949SOL    HW112746   5.466   6.445   3.207
 3949SOL    HW212747   5.502   6.514   3.064
 3950SOL     OW12748   1.752   6.596   0.275
 3950SOL    HW112749   1.779   6.523   0.337
 3950SOL    HW212750   1.751   6.561   0.181
 3951SOL     OW12751   5.731   5.767   1.919
 3951SOL    HW112752   5.740   5.862   1.890
 3951SOL    HW212753   5.770   5.756   2.011
 3952SOL     OW12754   5.793   1.594   6.473
 3952SOL    HW112755   5.781   1.664   6.543
 3952SOL    HW212756   5.748   1.509   6.502
 3953SOL     OW12757   2.903   3.444   3.045
 3953SOL    HW112758   2.896   3.429   2.946
 3953SOL    HW212759   2.932   3.359   3.089
 3954SOL     OW12760   4.143   4.594   5.533
 3954SOL    HW112761   4.138   4.495   5.523
 3954SOL    HW212762   4.097   4.621   5.618
 3955SOL     OW12763   3.511   1.350   5.124
 3955SOL    HW112764   3.452   1.412   5.176
 3955SOL    HW212765   3.579   1.309   5.184
 3956SOL     OW12766   1.799   1.710   0.841
 3956SOL    HW112767   1.748   1.741   0.922
 3956SOL    HW212768   1.885   1.761   0.834
 3957SOL     OW12769   4.050   1.121   3.901
 3957SOL    HW112770   3.956   1.140   3.930
 3957SOL    HW212771   4.111   1.192   3.938
 3958SOL     OW12772   5.488   6.392   6.202
 3958SOL    HW112773   5.468   6.299   6.173
 3958SOL    HW212774   5.414   6.453   6.173
 3959SOL     OW12775   5.278   5.144   5.940
 3959SOL    HW112776   5.360   5.136   5.883
 3959SOL    HW212777   5.274   5.068   6.004
 3960SOL     OW12778   6.007   2.579   4.814
 3960SOL    HW112779   5.957   2.662   4.838
 3960SOL    HW212780   5.948   2.499   4.826
 3961SOL     OW12781   5.132   6.707   4.261
 3961SOL    HW112782   5.064   6.702   4.334
 3961SOL    HW212783   5.163   6.801   4.251
 3962SOL     OW12784   6.130   5.106   4.837
 3962SOL    HW112785   6.190   5.053   4.777
 3962SOL    HW212786   6.143   5.077   4.931
 3963SOL     OW12787   4.150   0.003   2.311
 3963SOL    HW112788   4.147   0.009   2.211
 3963SOL    HW212789   4.143   6.928   2.339
 3964SOL     OW12790   5.442   2.891   3.808
 3964SOL    HW112791   5.524   2.941   3.781
 3964SOL    HW212792   5.361   2.944   3.783
 3965SOL     OW12793   5.138   4.231   4.256
 3965SOL    HW112794   5.058   4.292   4.253
 3965SOL    HW212795   5.221   4.286   4.246
 3966SOL     OW12796   2.481   6.661   6.680
 3966SOL    HW112797   2.530   6.717   6.613
 3966SOL    HW212798   2.542   6.590   6.715
 3967SOL     OW12799   1.406   3.940   3.859
 3967SOL    HW112800   1.326   3.880   3.865
 3967SOL    HW212801   1.393   4.006   3.785
 3968SOL     OW12802   3.736   0.278   0.717
 3968SOL    HW112803   3.741   0.325   0.805
 3968SOL    HW212804   3.648   0.232   0.709
 3969SOL     OW12805   0.270   4.897   3.496
 3969SOL    HW112806   0.294   4.975   3.554
 3969SOL    HW212807   0.178   4.910   3.460
 3970SOL     OW12808   4.272   6.039   1.921
 3970SOL    HW112809   4.362   6.053   1.962
 3970SOL    HW212810   4.226   5.963   1.967
 3971SOL     OW12811   1.596   5.991   3.860
 3971SOL    HW112812   1.540   5.924   3.811
 3971SOL    HW212813   1.689   5.991   3.822
 3972SOL     OW12814   1.497   3.516   0.088
 3972SOL    HW112815   1.406   3.483   0.113
 3972SOL    HW212816   1.491   3.610   0.054
 3973SOL     OW12817   1.904   4.532   0.571
 3973SOL    HW112818   1.806   4.534   0.587
 3973SOL    HW212819   1.949   4.598   0.632
 3974SOL     OW12820   2.793   0.485   5.726
 3974SOL    HW112821   2.790   0.482   5.826
 3974SOL    HW212822   2.787   0.580   5.696
 3975SOL     OW12823   6.133   3.131   0.123
 3975SOL    HW112824   6.058   3.073   0.154
 3975SOL    HW212825   6.107   3.227   0.132
 3976SOL     OW12826   1.633   3.815   2.814
 3976SOL    HW112827   1.624   3.914   2.811
 3976SOL    HW212828   1.610   3.776   2.725
 3977SOL     OW12829   0.839   2.806   0.030
 3977SOL    HW112830   0.856   2.861   6.970
 3977SOL    HW212831   0.740   2.796   0.044
 3978SOL     OW12832   6.067   4.176   4.117
 3978SOL    HW112833   6.121   4.139   4.192
 3978SOL    HW212834   6.069   4.276   4.121
 3979SOL     OW12835   4.480   5.674   6.278
 3979SOL    HW112836   4.468   5.580   6.308
 3979SOL    HW212837   4.399   5.727   6.303
 3980SOL     OW12838   5.554   5.187   5.841
 3980SOL    HW112839   5.573   5.145   5.752
 3980SOL    HW212840   5.608   5.143   5.912
 3981SOL     OW12841   4.543   5.557   6.880
 3981SOL    HW112842   4.473   5.627   6.865
 3981SOL    HW212843   4.633   5.600   6.882
 3982SOL     OW12844   2.667   6.152   3.060
 3982SOL    HW112845   2.753   6.161   3.110
 3982SOL    HW212846   2.591   6.147   3.124
 3983SOL     OW12847   3.493   5.869   4.384
 3983SOL    HW112848   3.563   5.820   4.332
 3983SOL    HW212849   3.521   5.872   4.481
 3984SOL     OW12850   6.740   3.053   2.990
 3984SOL    HW112851   6.832   3.018   2.975
 3984SOL    HW212852   6.723   3.129   2.928
 3985SOL     OW12853   3.987   5.225   6.256
 3985SOL    HW112854   3.962   5.131   6.281
 3985SOL    HW212855   3.980   5.283   6.337
 3986SOL     OW12856   5.459   0.758   2.541
 3986SOL    HW112857   5.461   0.658   2.550
 3986SOL    HW212858   5.435   0.799   2.629
 3987SOL     OW12859   3.551   5.182   5.684
 3987SOL    HW112860   3.486   5.118   5.644
 3987SOL    HW212861   3.637   5.135   5.703
 3988SOL     OW12862   5.161   5.821   0.827
 3988SOL    HW112863   5.121   5.729   0.821
 3988SOL    HW212864   5.204   5.845   0.740
 3989SOL     OW12865   6.419   2.673   1.132
 3989SOL    HW112866   6.472   2.638   1.055
 3989SOL    HW212867   6.333   2.622   1.140
 3990SOL     OW12868   6.857   1.554   1.930
 3990SOL    HW112869   6.826   1.639   1.973
 3990SOL    HW212870   6.904   1.498   1.998
 3991SOL     OW12871   5.570   1.416   3.286
 3991SOL    HW112872   5.569   1.465   3.373
 3991SOL    HW212873   5.529   1.473   3.215
 3992SOL     OW12874   4.465   1.915   1.717
 3992SOL    HW112875   4.437   1.820   1.731
 3992SOL    HW212876   4.553   1.917   1.670
 3993SOL     OW12877   0.941   3.335   1.432
 3993SOL    HW112878   0.889   3.290   1.504
 3993SOL    HW212879   0.903   3.311   1.343
 3994SOL     OW12880   2.166   5.634   4.551
 3994SOL    HW112881   2.096   5.598   4.490
 3994SOL    HW212882   2.244   5.573   4.552
 3995SOL     OW12883   2.060   2.394   4.504
 3995SOL    HW112884   2.013   2.478   4.530
 3995SOL    HW212885   2.006   2.315   4.532
 3996SOL     OW12886   0.396   5.700   4.658
 3996SOL    HW112887   0.319   5.641   4.632
 3996SOL    HW212888   0.384   5.790   4.615
 3997SOL     OW12889   2.856   1.267   3.353
 3997SOL    HW112890   2.785   1.300   3.414
 3997SOL    HW212891   2.820   1.193   3.295
 3998SOL     OW12892   4.593   2.657   2.704
 3998SOL    HW112893   4.610   2.690   2.611
 3998SOL    HW212894   4.607   2.732   2.769
 3999SOL     OW12895   4.597   1.437   4.366
 3999SOL    HW112896   4.501   1.431   4.393
 3999SOL    HW212897   4.623   1.353   4.319
 4000SOL     OW12898   3.880   5.975   4.630
 4000SOL    HW112899   3.809   5.914   4.666
 4000SOL    HW212900   3.837   6.052   4.583
 4001SOL     OW12901   0.927   1.816   4.491
 4001SOL    HW112902   0.876   1.732   4.472
 4001SOL    HW212903   0.908   1.846   4.584
 4002SOL     OW12904   2.156   4.328   1.278
 4002SOL    HW112905   2.225   4.389   1.239
 4002SOL    HW212906   2.134   4.256   1.212
 4003SOL     OW12907   4.167   2.170   5.134
 4003SOL    HW112908   4.176   2.267   5.111
 4003SOL    HW212909   4.149   2.161   5.232
 4004SOL     OW12910   6.799   1.639   6.193
 4004SOL    HW112911   6.807   1.732   6.159
 4004SOL    HW212912   6.886   1.591   6.180
 4005SOL     OW12913   6.420   4.396   4.603
 4005SOL    HW112914   6.368   4.472   4.563
 4005SOL    HW212915   6.431   4.324   4.534
 4006SOL     OW12916   3.484   6.500   3.228
 4006SOL    HW112917   3.467   6.403   3.210
 4006SOL    HW212918   3.569   6.528   3.183
 4007SOL     OW12919   0.589   1.389   5.594
 4007SOL    HW112920   0.672   1.441   5.573
 4007SOL    HW212921   0.541   1.432   5.670
 4008SOL     OW12922   3.043   1.375   5.657
 4008SOL    HW112923   2.972   1.402   5.592
 4008SOL    HW212924   3.025   1.281   5.687
 4009SOL     OW12925   3.463   3.840   2.847
 4009SOL    HW112926   3.462   3.793   2.936
 4009SOL    HW212927   3.379   3.817   2.797
 4010SOL     OW12928   1.010   3.255   0.321
 4010SOL    HW112929   0.935   3.233   0.383
 4010SOL    HW212930   1.056   3.338   0.353
 4011SOL     OW12931   0.318   2.153   0.828
 4011SOL    HW112932   0.368   2.179   0.745
 4011SOL    HW212933   0.287   2.058   0.819
 4012SOL     OW12934   5.633   3.286   3.146
 4012SOL    HW112935   5.722   3.272   3.189
 4012SOL    HW212936   5.580   3.351   3.199
 4013SOL     OW12937   4.982   2.800   3.188
 4013SOL    HW112938   5.021   2.868   3.126
 4013SOL    HW212939   4.892   2.772   3.154
 4014SOL     OW12940   5.469   5.111   2.153
 4014SOL    HW112941   5.371   5.106   2.132
 4014SOL    HW212942   5.481   5.115   2.252
 4015SOL     OW12943   5.177   3.436   0.253
 4015SOL    HW112944   5.237   3.515   0.249
 4015SOL    HW212945   5.213   3.371   0.321
 4016SOL     OW12946   3.129   6.091   4.457
 4016SOL    HW112947   3.167   6.022   4.395
 4016SOL    HW212948   3.133   6.057   4.551
 4017SOL     OW12949   5.552   6.761   6.122
 4017SOL    HW112950   5.580   6.718   6.036
 4017SOL    HW212951   5.539   6.859   6.107
 4018SOL     OW12952   2.418   0.479   6.576
 4018SOL    HW112953   2.483   0.447   6.645
 4018SOL    HW212954   2.433   0.428   6.491
 4019SOL     OW12955   5.399   6.194   3.705
 4019SOL    HW112956   5.404   6.274   3.645
 4019SOL    HW212957   5.485   6.183   3.753
 4020SOL     OW12958   5.339   1.578   4.345
 4020SOL    HW112959   5.298   1.642   4.280
 4020SOL    HW212960   5.395   1.511   4.295
 4021SOL     OW12961   5.638   3.795   0.130
 4021SOL    HW112962   5.584   3.825   0.052
 4021SOL    HW212963   5.579   3.747   0.196
 4022SOL     OW12964   5.730   1.187   0.855
 4022SOL    HW112965   5.681   1.180   0.942
 4022SOL    HW212966   5.696   1.266   0.804
 4023SOL     OW12967   6.585   6.095   5.708
 4023SOL    HW112968   6.596   6.152   5.789
 4023SOL    HW212969   6.658   6.027   5.705
 4024SOL     OW12970   4.619   4.476   5.182
 4024SOL    HW112971   4.597   4.379   5.183
 4024SOL    HW212972   4.676   4.497   5.103
 4025SOL     OW12973   0.410   4.000   4.188
 4025SOL    HW112974   0.419   3.902   4.210
 4025SOL    HW212975   0.484   4.028   4.127
 4026SOL     OW12976   5.519   0.888   5.273
 4026SOL    HW112977   5.428   0.849   5.281
 4026SOL    HW212978   5.554   0.872   5.180
 4027SOL     OW12979   2.909   5.141   2.674
 4027SOL    HW112980   2.953   5.087   2.603
 4027SOL    HW212981   2.913   5.238   2.650
 4028SOL     OW12982   1.702   5.489   3.025
 4028SOL    HW112983   1.637   5.552   2.982
 4028SOL    HW212984   1.660   5.450   3.108
 4029SOL     OW12985   1.843   3.980   3.208
 4029SOL    HW112986   1.815   3.950   3.300
 4029SOL    HW212987   1.779   3.942   3.141
 4030SOL     OW12988   2.276   1.275   6.615
 4030SOL    HW112989   2.273   1.328   6.700
 4030SOL    HW212990   2.223   1.322   6.544
 4031SOL     OW12991   6.802   5.939   4.027
 4031SOL    HW112992   6.725   5.955   4.089
 4031SOL    HW212993   6.767   5.919   3.935
 4032SOL     OW12994   3.157   6.844   4.845
 4032SOL    HW112995   3.251   6.877   4.833
 4032SOL    HW212996   3.154   6.780   4.922
 4033SOL     OW12997   3.897   3.758   6.241
 4033SOL    HW112998   3.984   3.791   6.276
 4033SOL    HW212999   3.829   3.832   6.245
 4034SOL     OW13000   5.804   3.218   4.970
 4034SOL    HW113001   5.799   3.130   5.017
 4034SOL    HW213002   5.723   3.231   4.914
 4035SOL     OW13003   6.690   6.344   1.789
 4035SOL    HW113004   6.784   6.357   1.759
 4035SOL    HW213005   6.632   6.322   1.711
 4036SOL     OW13006   6.127   6.106   1.393
 4036SOL    HW113007   6.194   6.065   1.455
 4036SOL    HW213008   6.036   6.072   1.417
 4037SOL     OW13009   0.627   3.634   6.357
 4037SOL    HW113010   0.685   3.611   6.436
 4037SOL    HW213011   0.566   3.709   6.382
 4038SOL     OW13012   6.088   5.271   3.614
 4038SOL    HW113013   6.143   5.286   3.696
 4038SOL    HW213014   5.995   5.304   3.630
 4039SOL     OW13015   2.558   4.932   1.238
 4039SOL    HW113016   2.553   5.021   1.283
 4039SOL    HW213017   2.603   4.866   1.298
 4040SOL     OW13018   3.182   6.664   6.931
 4040SOL    HW113019   3.123   6.724   6.984
 4040SOL    HW213020   3.260   6.716   6.896
 4041SOL     OW13021   0.537   6.036   3.302
 4041SOL    HW113022   0.632   6.022   3.275
 4041SOL    HW213023   0.477   6.027   3.223
 4042SOL     OW13024   5.765   6.026   1.909
 4042SOL    HW113025   5.824   6.037   1.989
 4042SOL    HW213026   5.725   6.114   1.884
 4043SOL     OW13027   6.764   3.264   0.874
 4043SOL    HW113028   6.774   3.338   0.940
 4043SOL    HW213029   6.687   3.284   0.813
 4044SOL     OW13030   5.785   4.896   2.302
 4044SOL    HW113031   5.825   4.986   2.283
 4044SOL    HW213032   5.703   4.907   2.357
 4045SOL     OW13033   2.388   4.750   5.883
 4045SOL    HW113034   2.340   4.672   5.842
 4045SOL    HW213035   2.419   4.726   5.975
 4046SOL     OW13036   0.377   3.390   0.436
 4046SOL    HW113037   0.459   3.356   0.389
 4046SOL    HW213038   0.310   3.316   0.443
 4047SOL     OW13039   2.851   3.551   3.292
 4047SOL    HW113040   2.815   3.509   3.209
 4047SOL    HW213041   2.915   3.488   3.336
 4048SOL     OW13042   4.663   2.321   0.491
 4048SOL    HW113043   4.721   2.402   0.492
 4048SOL    HW213044   4.568   2.347   0.507
 4049SOL     OW13045   6.804   6.604   6.839
 4049SOL    HW113046   6.853   6.662   6.904
 4049SOL    HW213047   6.732   6.555   6.886
 4050SOL     OW13048   2.568   0.903   2.827
 4050SOL    HW113049   2.637   0.836   2.855
 4050SOL    HW213050   2.613   0.984   2.790
 4051SOL     OW13051   2.521   3.662   0.779
 4051SOL    HW113052   2.439   3.636   0.829
 4051SOL    HW213053   2.527   3.608   0.695
 4052SOL     OW13054   1.665   0.321   1.047
 4052SOL    HW113055   1.637   0.225   1.048
 4052SOL    HW213056   1.742   0.333   0.985
 4053SOL     OW13057   3.082   5.626   2.270
 4053SOL    HW113058   3.144   5.647   2.194
 4053SOL    HW213059   3.133   5.578   2.342
 4054SOL     OW13060   5.430   1.506   6.927
 4054SOL    HW113061   5.435   1.595   6.971
 4054SOL    HW213062   5.518   1.459   6.938
 4055SOL     OW13063   4.519   3.651   6.856
 4055SOL    HW113064   4.617   3.665   6.867
 4055SOL    HW213065   4.488   3.576   6.915
 4056SOL     OW13066   4.423   3.074   6.961
 4056SOL    HW113067   4.397   3.039   6.871
 4056SOL    HW213068   4.522   3.077   6.969
 4057SOL     OW13069   6.105   2.497   0.710
 4057SOL    HW113070   6.078   2.422   0.770
 4057SOL    HW213071   6.032   2.565   0.707
 4058SOL     OW13072   0.854   3.260   4.061
 4058SOL    HW113073   0.857   3.232   4.157
 4058SOL    HW213074   0.807   3.348   4.053
 4059SOL     OW13075   0.083   1.952   4.879
 4059SOL    HW113076   0.073   2.031   4.940
 4059SOL    HW213077   7.015   1.909   4.867
 4060SOL     OW13078   2.672   6.525   5.301
 4060SOL    HW113079   2.606   6.450   5.294
 4060SOL    HW213080   2.646   6.599   5.239
 4061SOL     OW13081   2.324   2.959   1.404
 4061SOL    HW113082   2.226   2.975   1.390
 4061SOL    HW213083   2.375   3.042   1.381
 4062SOL     OW13084   3.046   0.218   3.143
 4062SOL    HW113085   3.000   0.143   3.190
 4062SOL    HW213086   2.977   0.278   3.101
 4063SOL     OW13087   3.578   6.046   6.482
 4063SOL    HW113088   3.529   6.114   6.538
 4063SOL    HW213089   3.587   6.080   6.389
 4064SOL     OW13090   6.234   6.920   4.587
 4064SOL    HW113091   6.270   6.928   4.680
 4064SOL    HW213092   6.275   6.841   4.542
 4065SOL     OW13093   1.104   4.257   5.633
 4065SOL    HW113094   1.009   4.227   5.645
 4065SOL    HW213095   1.154   4.242   5.718
 4066SOL     OW13096   4.833   5.283   1.956
 4066SOL    HW113097   4.748   5.320   1.994
 4066SOL    HW213098   4.905   5.287   2.025
 4067SOL     OW13099   5.567   0.587   1.187
 4067SOL    HW113100   5.578   0.496   1.146
 4067SOL    HW213101   5.657   0.628   1.201
 4068SOL     OW13102   4.958   0.588   4.690
 4068SOL    HW113103   4.905   0.643   4.624
 4068SOL    HW213104   4.902   0.511   4.721
 4069SOL     OW13105   6.738   6.196   0.650
 4069SOL    HW113106   6.829   6.216   0.687
 4069SOL    HW213107   6.686   6.141   0.716
 4070SOL     OW13108   6.586   3.721   2.510
 4070SOL    HW113109   6.509   3.692   2.453
 4070SOL    HW213110   6.626   3.804   2.471
 4071SOL     OW13111   2.555   0.094   4.868
 4071SOL    HW113112   2.556   0.018   4.803
 4071SOL    HW213113   2.648   0.116   4.896
 4072SOL     OW13114   0.704   0.358   4.473
 4072SOL    HW113115   0.629   0.296   4.497
 4072SOL    HW213116   0.667   0.449   4.454
 4073SOL     OW13117   2.563   4.667   2.197
 4073SOL    HW113118   2.484   4.622   2.153
 4073SOL    HW213119   2.647   4.628   2.160
 4074SOL     OW13120   0.283   3.011   1.067
 4074SOL    HW113121   0.269   2.926   1.116
 4074SOL    HW213122   0.380   3.036   1.070
 4075SOL     OW13123   6.768   0.568   3.529
 4075SOL    HW113124   6.681   0.538   3.490
 4075SOL    HW213125   6.760   0.573   3.629
 4076SOL     OW13126   1.499   3.355   3.432
 4076SOL    HW113127   1.438   3.398   3.498
 4076SOL    HW213128   1.456   3.272   3.396
 4077SOL     OW13129   3.495   0.809   1.039
 4077SOL    HW113130   3.534   0.783   1.128
 4077SOL    HW213131   3.473   0.906   1.039
 4078SOL     OW13132   5.102   4.683   2.609
 4078SOL    HW113133   5.128   4.753   2.676
 4078SOL    HW213134   5.014   4.706   2.569
 4079SOL     OW13135   4.811   0.868   3.557
 4079SOL    HW113136   4.768   0.954   3.529
 4079SOL    HW213137   4.867   0.833   3.482
 4080SOL     OW13138   2.872   3.776   4.805
 4080SOL    HW113139   2.910   3.823   4.725
 4080SOL    HW213140   2.789   3.821   4.835
 4081SOL     OW13141   2.581   0.290   0.146
 4081SOL    HW113142   2.641   0.363   0.113
 4081SOL    HW213143   2.626   0.202   0.132
 4082SOL     OW13144   1.773   1.590   5.821
 4082SOL    HW113145   1.859   1.636   5.799
 4082SOL    HW213146   1.698   1.633   5.770
 4083SOL     OW13147   5.952   4.909   2.544
 4083SOL    HW113148   6.031   4.920   2.483
 4083SOL    HW213149   5.881   4.857   2.496
 4084SOL     OW13150   4.032   6.456   2.548
 4084SOL    HW113151   4.019   6.365   2.587
 4084SOL    HW213152   4.119   6.458   2.497
 4085SOL     OW13153   1.777   4.185   2.610
 4085SOL    HW113154   1.871   4.179   2.576
 4085SOL    HW213155   1.774   4.155   2.705
 4086SOL     OW13156   5.405   5.105   4.908
 4086SOL    HW113157   5.363   5.188   4.870
 4086SOL    HW213158   5.335   5.036   4.923
 4087SOL     OW13159   1.703   1.011   1.620
 4087SOL    HW113160   1.770   1.076   1.656
 4087SOL    HW213161   1.750   0.933   1.579
 4088SOL     OW13162   6.938   2.251   5.534
 4088SOL    HW113163   6.956   2.218   5.441
 4088SOL    HW213164   7.019   2.236   5.591
 4089SOL     OW13165   6.918   6.781   2.710
 4089SOL    HW113166   6.853   6.766   2.784
 4089SOL    HW213167   6.938   6.879   2.702
 4090SOL     OW13168   3.457   2.617   5.447
 4090SOL    HW113169   3.550   2.603   5.413
 4090SOL    HW213170   3.409   2.529   5.450
 4091SOL     OW13171   4.045   6.438   3.031
 4091SOL    HW113172   3.987   6.371   3.077
 4091SOL    HW213173   4.006   6.461   2.942
 4092SOL     OW13174   4.739   1.622   6.317
 4092SOL    HW113175   4.824   1.662   6.349
 4092SOL    HW213176   4.667   1.637   6.385
 4093SOL     OW13177   5.921   4.123   1.916
 4093SOL    HW113178   5.904   4.186   1.840
 4093SOL    HW213179   5.993   4.059   1.890
 4094SOL     OW13180   6.411   6.332   0.514
 4094SOL    HW113181   6.504   6.366   0.500
 4094SOL    HW213182   6.356   6.401   0.561
 4095SOL     OW13183   1.324   4.787   0.372
 4095SOL    HW113184   1.378   4.760   0.451
 4095SOL    HW213185   1.311   4.886   0.373
 4096SOL     OW13186   0.573   6.226   5.803
 4096SOL    HW113187   0.611   6.137   5.777
 4096SOL    HW213188   0.518   6.262   5.727
 4097SOL     OW13189   1.292   4.017   5.708
 4097SOL    HW113190   1.357   3.962   5.760
 4097SOL    HW213191   1.340   4.094   5.666
 4098SOL     OW13192   1.368   6.209   1.827
 4098SOL    HW113193   1.451   6.259   1.802
 4098SOL    HW213194   1.289   6.269   1.820
 4099SOL     OW13195   6.998   2.447   5.864
 4099SOL    HW113196   0.023   2.400   5.939
 4099SOL    HW213197   6.902   2.421   5.862
 4100SOL     OW13198   2.462   0.848   3.662
 4100SOL    HW113199   2.521   0.891   3.594
 4100SOL    HW213200   2.389   0.911   3.688
 4101SOL     OW13201   6.109   6.238   6.091
 4101SOL    HW113202   6.111   6.303   6.167
 4101SOL    HW213203   6.024   6.249   6.039
 4102SOL     OW13204   2.612   4.974   0.492
 4102SOL    HW113205   2.664   4.934   0.417
 4102SOL    HW213206   2.532   4.916   0.511
 4103SOL     OW13207   2.262   5.129   2.967
 4103SOL    HW113208   2.276   5.170   2.877
 4103SOL    HW213209   2.333   5.161   3.029
 4104SOL     OW13210   2.714   5.414   5.721
 4104SOL    HW113211   2.755   5.503   5.702
 4104SOL    HW213212   2.623   5.411   5.680
 4105SOL     OW13213   3.709   0.159   1.679
 4105SOL    HW113214   3.700   0.068   1.639
 4105SOL    HW213215   3.638   0.173   1.748
 4106SOL     OW13216   1.705   6.531   3.056
 4106SOL    HW113217   1.769   6.488   3.120
 4106SOL    HW213218   1.612   6.500   3.077
 4107SOL     OW13219   2.218   2.137   0.744
 4107SOL    HW113220   2.198   2.233   0.765
 4107SOL    HW213221   2.132   2.087   0.731
 4108SOL     OW13222   0.649   5.482   4.946
 4108SOL    HW113223   0.717   5.540   4.902
 4108SOL    HW213224   0.612   5.528   5.026
 4109SOL     OW13225   5.007   0.260   5.159
 4109SOL    HW113226   5.056   0.321   5.096
 4109SOL    HW213227   4.916   0.241   5.122
 4110SOL     OW13228   4.884   2.132   0.406
 4110SOL    HW113229   4.807   2.184   0.443
 4110SOL    HW213230   4.928   2.082   0.481
 4111SOL     OW13231   6.616   4.770   3.470
 4111SOL    HW113232   6.605   4.801   3.376
 4111SOL    HW213233   6.711   4.785   3.499
 4112SOL     OW13234   3.914   5.624   5.756
 4112SOL    HW113235   3.869   5.577   5.832
 4112SOL    HW213236   3.952   5.711   5.787
 4113SOL     OW13237   5.252   6.064   5.700
 4113SOL    HW113238   5.159   6.102   5.698
 4113SOL    HW213239   5.248   5.970   5.732
 4114SOL     OW13240   6.429   1.630   3.525
 4114SOL    HW113241   6.351   1.693   3.534
 4114SOL    HW213242   6.510   1.672   3.567
 4115SOL     OW13243   4.587   6.653   4.660
 4115SOL    HW113244   4.639   6.674   4.577
 4115SOL    HW213245   4.514   6.720   4.672
 4116SOL     OW13246   6.159   4.181   3.363
 4116SOL    HW113247   6.165   4.152   3.458
 4116SOL    HW213248   6.251   4.198   3.327
 4117SOL     OW13249   0.422   2.987   2.670
 4117SOL    HW113250   0.394   2.941   2.754
 4117SOL    HW213251   0.518   2.965   2.650
 4118SOL     OW13252   0.819   0.877   2.206
 4118SOL    HW113253   0.793   0.864   2.302
 4118SOL    HW213254   0.758   0.823   2.148
 4119SOL     OW13255   6.434   0.996   4.403
 4119SOL    HW113256   6.432   0.920   4.337
 4119SOL    HW213257   6.529   1.019   4.423
 4120SOL     OW13258   1.562   0.665   6.678
 4120SOL    HW113259   1.597   0.681   6.586
 4120SOL    HW213260   1.462   0.664   6.676
 4121SOL     OW13261   6.740   0.450   1.085
 4121SOL    HW113262   6.708   0.369   1.134
 4121SOL    HW213263   6.782   0.422   0.999
 4122SOL     OW13264   1.303   4.563   3.686
 4122SOL    HW113265   1.370   4.501   3.728
 4122SOL    HW213266   1.216   4.515   3.674
 4123SOL     OW13267   5.856   4.481   2.040
 4123SOL    HW113268   5.881   4.423   2.117
 4123SOL    HW213269   5.759   4.505   2.046
 4124SOL     OW13270   5.907   6.517   0.097
 4124SOL    HW113271   5.870   6.501   0.006
 4124SOL    HW213272   5.894   6.435   0.153
 4125SOL     OW13273   0.249   2.583   6.893
 4125SOL    HW113274   0.176   2.538   6.945
 4125SOL    HW213275   0.320   2.515   6.870
 4126SOL     OW13276   1.738   4.292   3.364
 4126SOL    HW113277   1.754   4.205   3.411
 4126SOL    HW213278   1.727   4.364   3.432
 4127SOL     OW13279   4.642   2.723   4.349
 4127SOL    HW113280   4.668   2.820   4.350
 4127SOL    HW213281   4.724   2.667   4.343
 4128SOL     OW13282   5.842   2.671   6.271
 4128SOL    HW113283   5.787   2.700   6.192
 4128SOL    HW213284   5.932   2.642   6.239
 4129SOL     OW13285   3.099   6.961   1.839
 4129SOL    HW113286   3.180   7.006   1.799
 4129SOL    HW213287   3.116   6.863   1.848
 4130SOL     OW13288   4.988   1.170   0.311
 4130SOL    HW113289   4.942   1.228   0.243
 4130SOL    HW213290   5.022   1.227   0.385
 4131SOL     OW13291   5.151   6.251   3.932
 4131SOL    HW113292   5.121   6.306   4.010
 4131SOL    HW213293   5.240   6.283   3.900
 4132SOL     OW13294   6.578   3.632   2.180
 4132SOL    HW113295   6.647   3.701   2.159
 4132SOL    HW213296   6.609   3.543   2.146
 4133SOL     OW13297   5.679   6.286   3.391
 4133SOL    HW113298   5.766   6.290   3.441
 4133SOL    HW213299   5.688   6.224   3.313
 4134SOL     OW13300   1.589   2.599   0.942
 4134SOL    HW113301   1.520   2.558   1.001
 4134SOL    HW213302   1.680   2.572   0.973
 4135SOL     OW13303   5.969   1.011   0.830
 4135SOL    HW113304   5.903   1.085   0.844
 4135SOL    HW213305   5.936   0.928   0.874
 4136SOL     OW13306   0.706   4.713   0.155
 4136SOL    HW113307   0.805   4.696   0.157
 4136SOL    HW213308   0.665   4.679   0.240
 4137SOL     OW13309   0.189   2.366   5.390
 4137SOL    HW113310   0.126   2.444   5.398
 4137SOL    HW213311   0.236   2.370   5.302
 4138SOL     OW13312   6.102   6.466   6.256
 4138SOL    HW113313   6.127   6.556   6.222
 4138SOL    HW213314   6.017   6.473   6.309
 4139SOL     OW13315   1.390   3.852   2.073
 4139SOL    HW113316   1.396   3.900   2.161
 4139SOL    HW213317   1.422   3.913   2.000
 4140SOL     OW13318   2.407   6.733   0.575
 4140SOL    HW113319   2.423   6.683   0.661
 4140SOL    HW213320   2.343   6.808   0.593
 4141SOL     OW13321   4.982   0.112   6.143
 4141SOL    HW113322   4.955   0.189   6.202
 4141SOL    HW213323   5.071   0.077   6.172
 4142SOL     OW13324   0.041   6.668   1.760
 4142SOL    HW113325   0.096   6.735   1.710
 4142SOL    HW213326   0.095   6.626   1.832
 4143SOL     OW13327   6.322   3.493   6.371
 4143SOL    HW113328   6.334   3.580   6.418
 4143SOL    HW213329   6.349   3.418   6.432
 4144SOL     OW13330   5.053   0.809   1.812
 4144SOL    HW113331   5.020   0.719   1.781
 4144SOL    HW213332   5.037   0.877   1.740
 4145SOL     OW13333   4.456   1.015   1.421
 4145SOL    HW113334   4.416   1.087   1.365
 4145SOL    HW213335   4.440   0.926   1.379
 4146SOL     OW13336   3.487   1.578   2.240
 4146SOL    HW113337   3.487   1.548   2.145
 4146SOL    HW213338   3.581   1.583   2.273
 4147SOL     OW13339   4.967   4.040   0.048
 4147SOL    HW113340   5.035   4.098   0.002
 4147SOL    HW213341   4.889   4.027   7.009
 4148SOL     OW13342   3.328   1.076   6.191
 4148SOL    HW113343   3.387   1.014   6.139
 4148SOL    HW213344   3.232   1.056   6.170
 4149SOL     OW13345   1.527   2.619   6.810
 4149SOL    HW113346   1.566   2.574   6.730
 4149SOL    HW213347   1.492   2.709   6.783
 4150SOL     OW13348   0.075   1.251   1.184
 4150SOL    HW113349   0.110   1.265   1.091
 4150SOL    HW213350   0.022   1.330   1.212
 4151SOL     OW13351   2.741   5.219   4.584
 4151SOL    HW113352   2.778   5.279   4.514
 4151SOL    HW213353   2.713   5.273   4.663
 4152SOL     OW13354   2.908   3.903   1.439
 4152SOL    HW113355   2.855   3.827   1.475
 4152SOL    HW213356   2.856   3.988   1.447
 4153SOL     OW13357   6.214   6.504   0.607
 4153SOL    HW113358   6.208   6.601   0.629
 4153SOL    HW213359   6.122   6.465   0.603
 4154SOL     OW13360   0.415   6.453   3.940
 4154SOL    HW113361   0.382   6.538   3.898
 4154SOL    HW213362   0.389   6.452   4.037
 4155SOL     OW13363   5.459   1.581   2.015
 4155SOL    HW113364   5.434   1.485   2.030
 4155SOL    HW213365   5.459   1.630   2.102
 4156SOL     OW13366   1.077   5.379   5.909
 4156SOL    HW113367   1.056   5.437   5.831
 4156SOL    HW213368   1.177   5.371   5.919
 4157SOL     OW13369   4.638   6.308   0.540
 4157SOL    HW113370   4.701   6.291   0.616
 4157SOL    HW213371   4.594   6.222   0.514
 4158SOL     OW13372   6.342   1.167   6.910
 4158SOL    HW113373   6.283   1.215   6.846
 4158SOL    HW213374   6.289   1.103   6.964
 4159SOL     OW13375   3.038   0.790   4.820
 4159SOL    HW113376   2.993   0.716   4.870
 4159SOL    HW213377   2.978   0.870   4.819
 4160SOL     OW13378   1.408   7.001   6.120
 4160SOL    HW113379   1.437   0.057   6.177
 4160SOL    HW213380   1.486   6.967   6.068
 4161SOL     OW13381   3.232   3.324   5.066
 4161SOL    HW113382   3.259   3.266   5.143
 4161SOL    HW213383   3.285   3.409   5.068
 4162SOL     OW13384   4.322   6.440   1.321
 4162SOL    HW113385   4.358   6.527   1.355
 4162SOL    HW213386   4.389   6.368   1.337
 4163SOL     OW13387   3.563   5.803   0.967
 4163SOL    HW113388   3.581   5.901   0.961
 4163SOL    HW213389   3.552   5.777   1.063
 4164SOL     OW13390   5.566   1.358   0.199
 4164SOL    HW113391   5.590   1.288   0.132
 4164SOL    HW213392   5.636   1.429   0.200
 4165SOL     OW13393   3.484   2.079   4.415
 4165SOL    HW113394   3.438   2.052   4.500
 4165SOL    HW213395   3.555   2.147   4.435
 4166SOL     OW13396   5.460   2.009   2.590
 4166SOL    HW113397   5.459   2.025   2.491
 4166SOL    HW213398   5.532   2.064   2.632
 4167SOL     OW13399   3.600   6.638   4.553
 4167SOL    HW113400   3.506   6.643   4.521
 4167SOL    HW213401   3.649   6.720   4.525
 4168SOL     OW13402   5.420   3.938   6.983
 4168SOL    HW113403   5.359   3.858   6.975
 4168SOL    HW213404   5.365   4.021   6.988
 4169SOL     OW13405   5.154   4.073   6.842
 4169SOL    HW113406   5.083   4.105   6.780
 4169SOL    HW213407   5.231   4.038   6.789
 4170SOL     OW13408   0.843   2.992   5.226
 4170SOL    HW113409   0.793   2.985   5.139
 4170SOL    HW213410   0.841   2.903   5.272
 4171SOL     OW13411   0.207   0.940   6.027
 4171SOL    HW113412   0.214   0.979   6.119
 4171SOL    HW213413   0.140   0.992   5.974
 4172SOL     OW13414   3.259   2.856   0.316
 4172SOL    HW113415   3.209   2.938   0.287
 4172SOL    HW213416   3.294   2.870   0.409
 4173SOL     OW13417   5.495   1.371   6.283
 4173SOL    HW113418   5.502   1.379   6.183
 4173SOL    HW213419   5.582   1.393   6.325
 4174SOL     OW13420   2.842   6.807   3.640
 4174SOL    HW113421   2.833   6.720   3.688
 4174SOL    HW213422   2.887   6.792   3.552
 4175SOL     OW13423   1.370   4.217   6.481
 4175SOL    HW113424   1.335   4.211   6.574
 4175SOL    HW213425   1.300   4.185   6.417
 4176SOL     OW13426   4.354   6.769   4.949
 4176SOL    HW113427   4.334   6.792   5.044
 4176SOL    HW213428   4.452   6.756   4.938
 4177SOL     OW13429   4.551   6.518   4.119
 4177SOL    HW113430   4.558   6.551   4.213
 4177SOL    HW213431   4.615   6.568   4.061
 4178SOL     OW13432   3.622   6.503   1.278
 4178SOL    HW113433   3.656   6.536   1.189
 4178SOL    HW213434   3.687   6.437   1.315
 4179SOL     OW13435   4.061   1.628   0.287
 4179SOL    HW113436   4.054   1.626   0.387
 4179SOL    HW213437   4.064   1.535   0.251
 4180SOL     OW13438   3.985   4.127   0.145
 4180SOL    HW113439   3.998   4.168   0.055
 4180SOL    HW213440   4.030   4.038   0.149
 4181SOL     OW13441   5.610   6.364   5.813
 4181SOL    HW113442   5.708   6.360   5.831
 4181SOL    HW213443   5.591   6.329   5.722
 4182SOL     OW13444   6.627   5.023   5.405
 4182SOL    HW113445   6.721   5.015   5.436
 4182SOL    HW213446   6.571   5.064   5.478
 4183SOL     OW13447   5.259   2.783   0.127
 4183SOL    HW113448   5.240   2.825   0.038
 4183SOL    HW213449   5.197   2.820   0.196
 4184SOL     OW13450   3.090   5.768   3.352
 4184SOL    HW113451   3.158   5.697   3.371
 4184SOL    HW213452   3.026   5.774   3.428
 4185SOL     OW13453   4.548   4.434   3.153
 4185SOL    HW113454   4.578   4.483   3.234
 4185SOL    HW213455   4.590   4.343   3.151
 4186SOL     OW13456   1.736   5.346   0.669
 4186SOL    HW113457   1.659   5.336   0.731
 4186SOL    HW213458   1.702   5.373   0.578
 4187SOL     OW13459   2.026   4.189   6.608
 4187SOL    HW113460   2.118   4.225   6.618
 4187SOL    HW213461   2.010   4.119   6.678
 4188SOL     OW13462   5.344   0.721   6.427
 4188SOL    HW113463   5.441   0.741   6.412
 4188SOL    HW213464   5.311   0.659   6.355
 4189SOL     OW13465   4.323   5.715   3.523
 4189SOL    HW113466   4.395   5.785   3.517
 4189SOL    HW213467   4.238   5.758   3.554
 4190SOL     OW13468   6.414   5.879   1.255
 4190SOL    HW113469   6.378   5.958   1.206
 4190SOL    HW213470   6.513   5.888   1.266
 4191SOL     OW13471   4.501   2.930   5.887
 4191SOL    HW113472   4.564   2.873   5.938
 4191SOL    HW213473   4.411   2.929   5.931
 4192SOL     OW13474   2.090   3.589   6.341
 4192SOL    HW113475   1.996   3.603   6.308
 4192SOL    HW213476   2.153   3.644   6.286
 4193SOL     OW13477   5.754   6.876   1.279
 4193SOL    HW113478   5.701   6.793   1.298
 4193SOL    HW213479   5.737   6.944   1.350
 4194SOL     OW13480   5.388   0.412   6.639
 4194SOL    HW113481   5.321   0.346   6.605
 4194SOL    HW213482   5.478   0.392   6.598
 4195SOL     OW13483   2.200   6.016   0.635
 4195SOL    HW113484   2.249   5.960   0.568
 4195SOL    HW213485   2.122   5.966   0.672
 4196SOL     OW13486   6.801   3.124   3.685
 4196SOL    HW113487   6.784   3.119   3.587
 4196SOL    HW213488   6.816   3.032   3.721
 4197SOL     OW13489   4.167   0.451   0.213
 4197SOL    HW113490   4.164   0.543   0.252
 4197SOL    HW213491   4.120   0.387   0.274
 4198SOL     OW13492   6.295   2.611   1.651
 4198SOL    HW113493   6.231   2.650   1.585
 4198SOL    HW213494   6.355   2.546   1.605
 4199SOL     OW13495   1.444   3.763   7.005
 4199SOL    HW113496   1.393   3.829   6.950
 4199SOL    HW213497   1.537   3.797   7.019
 4200SOL     OW13498   5.831   1.541   2.912
 4200SOL    HW113499   5.785   1.629   2.914
 4200SOL    HW213500   5.892   1.536   2.833
 4201SOL     OW13501   4.689   6.925   5.187
 4201SOL    HW113502   4.701   6.910   5.089
 4201SOL    HW213503   4.659   7.020   5.203
 4202SOL     OW13504   4.498   4.152   1.563
 4202SOL    HW113505   4.487   4.220   1.636
 4202SOL    HW213506   4.521   4.199   1.477
 4203SOL     OW13507   6.718   3.775   4.488
 4203SOL    HW113508   6.810   3.772   4.448
 4203SOL    HW213509   6.655   3.817   4.422
 4204SOL     OW13510   2.465   4.098   5.702
 4204SOL    HW113511   2.484   4.157   5.780
 4204SOL    HW213512   2.441   4.153   5.622
 4205SOL     OW13513   5.697   5.747   5.739
 4205SOL    HW113514   5.688   5.846   5.748
 4205SOL    HW213515   5.794   5.723   5.735
 4206SOL     OW13516   2.575   2.521   4.856
 4206SOL    HW113517   2.621   2.546   4.941
 4206SOL    HW213518   2.478   2.543   4.862
 4207SOL     OW13519   1.753   2.518   1.266
 4207SOL    HW113520   1.728   2.591   1.330
 4207SOL    HW213521   1.840   2.478   1.294
 4208SOL     OW13522   1.858   2.188   2.975
 4208SOL    HW113523   1.944   2.210   2.929
 4208SOL    HW213524   1.783   2.191   2.909
 4209SOL     OW13525   6.558   5.490   2.443
 4209SOL    HW113526   6.573   5.566   2.506
 4209SOL    HW213527   6.501   5.521   2.366
 4210SOL     OW13528   3.111   5.332   5.436
 4210SOL    HW113529   3.174   5.289   5.371
 4210SOL    HW213530   3.163   5.384   5.503
 4211SOL     OW13531   4.667   2.769   6.035
 4211SOL    HW113532   4.596   2.699   6.039
 4211SOL    HW213533   4.744   2.735   5.981
 4212SOL     OW13534   0.810   2.531   3.083
 4212SOL    HW113535   0.804   2.604   3.015
 4212SOL    HW213536   0.840   2.447   3.038
 4213SOL     OW13537   3.212   0.886   3.775
 4213SOL    HW113538   3.305   0.901   3.809
 4213SOL    HW213539   3.211   0.806   3.714
 4214SOL     OW13540   6.155   6.484   4.148
 4214SOL    HW113541   6.097   6.405   4.166
 4214SOL    HW213542   6.233   6.484   4.211
 4215SOL     OW13543   5.407   0.195   5.337
 4215SOL    HW113544   5.427   0.282   5.380
 4215SOL    HW213545   5.461   0.185   5.254
 4216SOL     OW13546   1.857   5.764   2.503
 4216SOL    HW113547   1.944   5.794   2.464
 4216SOL    HW213548   1.848   5.665   2.491
 4217SOL     OW13549   0.402   0.189   2.967
 4217SOL    HW113550   0.312   0.165   2.930
 4217SOL    HW213551   0.396   0.197   3.067
 4218SOL     OW13552   2.634   0.651   1.617
 4218SOL    HW113553   2.574   0.576   1.589
 4218SOL    HW213554   2.578   0.729   1.647
 4219SOL     OW13555   3.305   5.912   2.771
 4219SOL    HW113556   3.344   5.961   2.849
 4219SOL    HW213557   3.241   5.842   2.804
 4220SOL     OW13558   5.770   1.809   1.500
 4220SOL    HW113559   5.679   1.809   1.457
 4220SOL    HW213560   5.815   1.722   1.482
 4221SOL     OW13561   0.623   0.019   1.336
 4221SOL    HW113562   0.590   6.982   1.410
 4221SOL    HW213563   0.692   6.992   1.283
 4222SOL     OW13564   4.870   3.475   4.339
 4222SOL    HW113565   4.821   3.451   4.423
 4222SOL    HW213566   4.964   3.445   4.345
 4223SOL     OW13567   3.557   3.958   3.174
 4223SOL    HW113568   3.600   3.882   3.222
 4223SOL    HW213569   3.608   3.977   3.090
 4224SOL     OW13570   4.811   4.090   4.736
 4224SOL    HW113571   4.766   4.145   4.666
 4224SOL    HW213572   4.757   4.092   4.820
 4225SOL     OW13573   0.880   1.733   6.105
 4225SOL    HW113574   0.919   1.732   6.013
 4225SOL    HW213575   0.950   1.706   6.171
 4226SOL     OW13576   5.302   5.061   4.190
 4226SOL    HW113577   5.399   5.039   4.183
 4226SOL    HW213578   5.272   5.106   4.106
 4227SOL     OW13579   5.477   5.605   0.938
 4227SOL    HW113580   5.414   5.678   0.909
 4227SOL    HW213581   5.567   5.645   0.957
 4228SOL     OW13582   1.956   4.161   3.487
 4228SOL    HW113583   2.039   4.123   3.444
 4228SOL    HW213584   1.972   4.171   3.585
 4229SOL     OW13585   6.340   6.195   5.616
 4229SOL    HW113586   6.334   6.289   5.582
 4229SOL    HW213587   6.434   6.177   5.646
 4230SOL     OW13588   0.469   1.224   2.331
 4230SOL    HW113589   0.405   1.259   2.262
 4230SOL    HW213590   0.547   1.183   2.285
 4231SOL     OW13591   0.514   0.724   5.829
 4231SOL    HW113592   0.565   0.695   5.748
 4231SOL    HW213593   0.560   0.692   5.912
 4232SOL     OW13594   1.571   4.569   2.465
 4232SOL    HW113595   1.640   4.511   2.508
 4232SOL    HW213596   1.512   4.609   2.535
 4233SOL     OW13597   4.322   5.686   2.507
 4233SOL    HW113598   4.245   5.747   2.524
 4233SOL    HW213599   4.289   5.593   2.490
 4234SOL     OW13600   3.499   5.202   6.536
 4234SOL    HW113601   3.502   5.122   6.476
 4234SOL    HW213602   3.452   5.178   6.620
 4235SOL     OW13603   6.884   6.355   6.758
 4235SOL    HW113604   6.852   6.447   6.782
 4235SOL    HW213605   6.823   6.315   6.689
 4236SOL     OW13606   0.022   4.943   3.337
 4236SOL    HW113607   0.082   5.022   3.328
 4236SOL    HW213608   7.014   4.912   3.246
 4237SOL     OW13609   6.533   4.858   3.879
 4237SOL    HW113610   6.606   4.883   3.816
 4237SOL    HW213611   6.504   4.939   3.931
 4238SOL     OW13612   2.174   5.462   2.934
 4238SOL    HW113613   2.201   5.532   2.867
 4238SOL    HW213614   2.144   5.380   2.886
 4239SOL     OW13615   4.067   0.813   3.335
 4239SOL    HW113616   4.108   0.803   3.245
 4239SOL    HW213617   3.994   0.746   3.347
 4240SOL     OW13618   5.076   6.907   1.686
 4240SOL    HW113619   4.979   6.920   1.667
 4240SOL    HW213620   5.094   6.812   1.708
 4241SOL     OW13621   0.676   4.400   6.854
 4241SOL    HW113622   0.756   4.446   6.891
 4241SOL    HW213623   0.596   4.460   6.862
 4242SOL     OW13624   3.744   2.128   2.617
 4242SOL    HW113625   3.771   2.205   2.559
 4242SOL    HW213626   3.670   2.078   2.573
 4243SOL     OW13627   3.103   2.190   2.778
 4243SOL    HW113628   3.098   2.091   2.790
 4243SOL    HW213629   3.199   2.216   2.761
 4244SOL     OW13630   2.954   3.714   5.048
 4244SOL    HW113631   2.945   3.766   4.963
 4244SOL    HW213632   2.887   3.747   5.115
 4245SOL     OW13633   6.626   1.256   5.640
 4245SOL    HW113634   6.603   1.299   5.727
 4245SOL    HW213635   6.626   1.326   5.568
 4246SOL     OW13636   0.972   5.120   6.167
 4246SOL    HW113637   1.004   5.026   6.162
 4246SOL    HW213638   1.003   5.170   6.087
 4247SOL     OW13639   0.091   4.666   5.264
 4247SOL    HW113640   0.017   4.733   5.272
 4247SOL    HW213641   0.178   4.709   5.286
 4248SOL     OW13642   2.253   3.707   6.938
 4248SOL    HW113643   2.192   3.628   6.932
 4248SOL    HW213644   2.211   3.777   6.995
 4249SOL     OW13645   5.337   3.197   6.210
 4249SOL    HW113646   5.246   3.183   6.171
 4249SOL    HW213647   5.388   3.263   6.154
 4250SOL     OW13648   6.619   4.298   3.767
 4250SOL    HW113649   6.667   4.290   3.679
 4250SOL    HW213650   6.675   4.257   3.839
 4251SOL     OW13651   6.013   4.980   6.179
 4251SOL    HW113652   6.077   5.041   6.132
 4251SOL    HW213653   6.047   4.960   6.271
 4252SOL     OW13654   6.451   4.870   5.271
 4252SOL    HW113655   6.520   4.917   5.326
 4252SOL    HW213656   6.456   4.772   5.288
 4253SOL     OW13657   3.306   0.173   2.966
 4253SOL    HW113658   3.225   0.148   3.019
 4253SOL    HW213659   3.387   0.165   3.023
 4254SOL     OW13660   3.395   3.065   2.849
 4254SOL    HW113661   3.396   3.111   2.760
 4254SOL    HW213662   3.436   3.124   2.918
 4255SOL     OW13663   0.407   2.184   4.289
 4255SOL    HW113664   0.496   2.141   4.307
 4255SOL    HW213665   0.385   2.247   4.364
 4256SOL     OW13666   1.311   0.748   2.172
 4256SOL    HW113667   1.394   0.804   2.178
 4256SOL    HW213668   1.250   0.786   2.103
 4257SOL     OW13669   4.560   2.189   5.082
 4257SOL    HW113670   4.616   2.145   5.152
 4257SOL    HW213671   4.485   2.128   5.056
 4258SOL     OW13672   5.375   5.669   2.208
 4258SOL    HW113673   5.423   5.614   2.276
 4258SOL    HW213674   5.417   5.760   2.203
 4259SOL     OW13675   2.458   3.072   1.692
 4259SOL    HW113676   2.539   3.129   1.702
 4259SOL    HW213677   2.485   2.976   1.698
 4260SOL     OW13678   3.763   6.365   4.788
 4260SOL    HW113679   3.754   6.287   4.850
 4260SOL    HW213680   3.856   6.401   4.794
 4261SOL     OW13681   1.201   1.276   2.988
 4261SOL    HW113682   1.131   1.346   3.001
 4261SOL    HW213683   1.272   1.311   2.928
 4262SOL     OW13684   0.675   6.621   5.151
 4262SOL    HW113685   0.770   6.590   5.141
 4262SOL    HW213686   0.641   6.653   5.062
 4263SOL     OW13687   4.513   4.978   6.790
 4263SOL    HW113688   4.522   4.977   6.889
 4263SOL    HW213689   4.434   5.033   6.763
 4264SOL     OW13690   1.360   0.377   1.336
 4264SOL    HW113691   1.355   0.308   1.264
 4264SOL    HW213692   1.455   0.384   1.369
 4265SOL     OW13693   1.846   1.444   0.730
 4265SOL    HW113694   1.841   1.521   0.793
 4265SOL    HW213695   1.763   1.440   0.675
 4266SOL     OW13696   3.419   4.630   0.384
 4266SOL    HW113697   3.383   4.686   0.458
 4266SOL    HW213698   3.519   4.635   0.383
 4267SOL     OW13699   1.879   3.871   5.399
 4267SOL    HW113700   1.901   3.874   5.496
 4267SOL    HW213701   1.876   3.776   5.368
 4268SOL     OW13702   0.718   1.229   1.335
 4268SOL    HW113703   0.720   1.132   1.312
 4268SOL    HW213704   0.630   1.268   1.308
 4269SOL     OW13705   2.922   3.642   0.604
 4269SOL    HW113706   2.895   3.707   0.533
 4269SOL    HW213707   2.886   3.551   0.581
 4270SOL     OW13708   3.709   2.976   6.871
 4270SOL    HW113709   3.633   3.039   6.855
 4270SOL    HW213710   3.782   3.024   6.920
 4271SOL     OW13711   1.638   0.663   1.674
 4271SOL    HW113712   1.635   0.656   1.774
 4271SOL    HW213713   1.558   0.715   1.642
 4272SOL     OW13714   1.064   4.443   3.696
 4272SOL    HW113715   0.983   4.501   3.704
 4272SOL    HW213716   1.091   4.410   3.786
 4273SOL     OW13717   6.150   6.834   3.322
 4273SOL    HW113718   6.102   6.747   3.327
 4273SOL    HW213719   6.090   6.907   3.354
 4274SOL     OW13720   2.271   0.430   3.501
 4274SOL    HW113721   2.312   0.392   3.583
 4274SOL    HW213722   2.308   0.522   3.484
 4275SOL     OW13723   1.163   0.417   5.583
 4275SOL    HW113724   1.149   0.416   5.682
 4275SOL    HW213725   1.256   0.387   5.562
 4276SOL     OW13726   1.865   3.660   3.399
 4276SOL    HW113727   1.798   3.592   3.428
 4276SOL    HW213728   1.882   3.650   3.301
 4277SOL     OW13729   0.674   5.302   5.581
 4277SOL    HW113730   0.659   5.365   5.658
 4277SOL    HW213731   0.687   5.355   5.498
 4278SOL     OW13732   1.068   6.174   6.424
 4278SOL    HW113733   1.131   6.136   6.492
 4278SOL    HW213734   1.110   6.252   6.379
 4279SOL     OW13735   3.683   6.024   2.791
 4279SOL    HW113736   3.631   5.945   2.824
 4279SOL    HW213737   3.674   6.099   2.857
 4280SOL     OW13738   5.104   2.590   3.904
 4280SOL    HW113739   5.058   2.514   3.950
 4280SOL    HW213740   5.070   2.598   3.811
 4281SOL     OW13741   1.947   4.073   5.184
 4281SOL    HW113742   1.940   4.017   5.102
 4281SOL    HW213743   1.951   4.013   5.265
 4282SOL     OW13744   0.995   1.639   0.003
 4282SOL    HW113745   1.060   1.577   0.047
 4282SOL    HW213746   1.037   1.729   7.015
 4283SOL     OW13747   2.845   1.136   4.198
 4283SOL    HW113748   2.912   1.069   4.166
 4283SOL    HW213749   2.868   1.167   4.289
 4284SOL     OW13750   0.186   2.634   2.830
 4284SOL    HW113751   0.138   2.692   2.764
 4284SOL    HW213752   0.151   2.652   2.922
 4285SOL     OW13753   0.941   6.043   4.262
 4285SOL    HW113754   0.882   6.021   4.184
 4285SOL    HW213755   0.885   6.058   4.343
 4286SOL     OW13756   4.521   5.509   6.519
 4286SOL    HW113757   4.604   5.455   6.504
 4286SOL    HW213758   4.541   5.606   6.509
 4287SOL     OW13759   3.785   5.325   5.860
 4287SOL    HW113760   3.690   5.301   5.878
 4287SOL    HW213761   3.838   5.323   5.945
 4288SOL     OW13762   1.384   6.163   3.903
 4288SOL    HW113763   1.460   6.102   3.878
 4288SOL    HW213764   1.335   6.191   3.821
 4289SOL     OW13765   0.466   4.218   7.013
 4289SOL    HW113766   0.471   4.214   0.092
 4289SOL    HW213767   0.520   4.294   6.979
 4290SOL     OW13768   1.522   1.934   2.912
 4290SOL    HW113769   1.598   1.905   2.970
 4290SOL    HW213770   1.496   2.028   2.936
 4291SOL     OW13771   0.017   4.050   1.289
 4291SOL    HW113772   0.078   3.979   1.252
 4291SOL    HW213773   0.066   4.102   1.359
 4292SOL     OW13774   5.704   5.512   4.867
 4292SOL    HW113775   5.688   5.577   4.941
 4292SOL    HW213776   5.802   5.496   4.857
 4293SOL     OW13777   0.665   2.000   0.438
 4293SOL    HW113778   0.664   1.933   0.513
 4293SOL    HW213779   0.591   1.978   0.374
 4294SOL     OW13780   4.789   2.360   6.156
 4294SOL    HW113781   4.770   2.283   6.217
 4294SOL    HW213782   4.763   2.334   6.062
 4295SOL     OW13783   3.582   5.651   5.846
 4295SOL    HW113784   3.576   5.601   5.760
 4295SOL    HW213785   3.668   5.629   5.892
 4296SOL     OW13786   2.374   1.532   2.450
 4296SOL    HW113787   2.453   1.514   2.509
 4296SOL    HW213788   2.291   1.538   2.506
 4297SOL     OW13789   5.729   0.182   0.552
 4297SOL    HW113790   5.804   0.156   0.614
 4297SOL    HW213791   5.761   0.253   0.490
 4298SOL     OW13792   1.549   4.365   1.666
 4298SOL    HW113793   1.609   4.360   1.746
 4298SOL    HW213794   1.515   4.458   1.656
 4299SOL     OW13795   1.321   5.769   4.972
 4299SOL    HW113796   1.291   5.833   4.901
 4299SOL    HW213797   1.265   5.781   5.053
 4300SOL     OW13798   5.891   0.230   5.614
 4300SOL    HW113799   5.827   0.283   5.558
 4300SOL    HW213800   5.878   0.133   5.596
 4301SOL     OW13801   3.200   1.416   1.180
 4301SOL    HW113802   3.220   1.330   1.228
 4301SOL    HW213803   3.111   1.451   1.211
 4302SOL     OW13804   0.724   0.262   6.644
 4302SOL    HW113805   0.651   0.208   6.686
 4302SOL    HW213806   0.696   0.358   6.640
 4303SOL     OW13807   0.537   4.085   1.748
 4303SOL    HW113808   0.498   4.174   1.771
 4303SOL    HW213809   0.610   4.063   1.812
 4304SOL     OW13810   2.833   3.772   5.551
 4304SOL    HW113811   2.790   3.861   5.566
 4304SOL    HW213812   2.931   3.784   5.535
 4305SOL     OW13813   0.235   1.488   5.046
 4305SOL    HW113814   0.316   1.533   5.007
 4305SOL    HW213815   0.155   1.509   4.990
 4306SOL     OW13816   6.310   5.360   5.473
 4306SOL    HW113817   6.354   5.289   5.419
 4306SOL    HW213818   6.265   5.320   5.552
 4307SOL     OW13819   6.139   3.677   0.902
 4307SOL    HW113820   6.143   3.587   0.859
 4307SOL    HW213821   6.135   3.748   0.832
 4308SOL     OW13822   3.213   0.478   5.390
 4308SOL    HW113823   3.215   0.574   5.417
 4308SOL    HW213824   3.294   0.432   5.425
 4309SOL     OW13825   1.132   6.981   1.490
 4309SOL    HW113826   1.116   0.055   1.463
 4309SOL    HW213827   1.204   6.978   1.559
 4310SOL     OW13828   1.619   6.761   2.849
 4310SOL    HW113829   1.646   6.857   2.859
 4310SOL    HW213830   1.631   6.714   2.937
 4311SOL     OW13831   1.097   4.860   4.659
 4311SOL    HW113832   1.032   4.845   4.734
 4311SOL    HW213833   1.057   4.925   4.594
 4312SOL     OW13834   1.366   5.412   2.309
 4312SOL    HW113835   1.281   5.375   2.346
 4312SOL    HW213836   1.416   5.459   2.381
 4313SOL     OW13837   4.988   1.338   1.132
 4313SOL    HW113838   5.029   1.291   1.054
 4313SOL    HW213839   4.954   1.270   1.197
 4314SOL     OW13840   6.151   3.425   1.183
 4314SOL    HW113841   6.116   3.337   1.151
 4314SOL    HW213842   6.074   3.489   1.196
 4315SOL     OW13843   2.021   1.047   2.724
 4315SOL    HW113844   1.929   1.011   2.740
 4315SOL    HW213845   2.070   1.054   2.810
 4316SOL     OW13846   0.108   1.435   2.598
 4316SOL    HW113847   0.029   1.414   2.655
 4316SOL    HW213848   0.090   1.406   2.504
 4317SOL     OW13849   4.482   0.638   3.115
 4317SOL    HW113850   4.546   0.576   3.070
 4317SOL    HW213851   4.533   0.702   3.172
 4318SOL     OW13852   6.889   2.082   5.255
 4318SOL    HW113853   6.818   2.125   5.199
 4318SOL    HW213854   6.866   1.986   5.269
 4319SOL     OW13855   3.872   2.578   6.783
 4319SOL    HW113856   3.825   2.664   6.763
 4319SOL    HW213857   3.850   2.510   6.713
 4320SOL     OW13858   6.808   6.455   3.535
 4320SOL    HW113859   6.867   6.375   3.543
 4320SOL    HW213860   6.739   6.454   3.607
 4321SOL     OW13861   0.439   0.768   4.830
 4321SOL    HW113862   0.426   0.671   4.849
 4321SOL    HW213863   0.472   0.814   4.912
 4322SOL     OW13864   6.345   1.080   0.971
 4322SOL    HW113865   6.407   1.003   0.954
 4322SOL    HW213866   6.385   1.140   1.040
 4323SOL     OW13867   6.999   2.194   3.814
 4323SOL    HW113868   6.908   2.232   3.798
 4323SOL    HW213869   0.003   2.134   3.739
 4324SOL     OW13870   5.771   2.475   5.581
 4324SOL    HW113871   5.762   2.571   5.553
 4324SOL    HW213872   5.784   2.471   5.680
 4325SOL     OW13873   1.886   2.778   6.655
 4325SOL    HW113874   1.921   2.836   6.581
 4325SOL    HW213875   1.898   2.824   6.743
 4326SOL     OW13876   6.665   2.194   4.814
 4326SOL    HW113877   6.618   2.283   4.815
 4326SOL    HW213878   6.717   2.184   4.730
 4327SOL     OW13879   5.034   0.769   3.031
 4327SOL    HW113880   5.114   0.828   3.020
 4327SOL    HW213881   4.950   0.824   3.028
 4328SOL     OW13882   6.219   4.902   0.346
 4328SOL    HW113883   6.283   4.851   0.403
 4328SOL    HW213884   6.134   4.917   0.397
 4329SOL     OW13885   4.977   1.731   6.431
 4329SOL    HW113886   5.065   1.685   6.441
 4329SOL    HW213887   4.990   1.830   6.438
 4330SOL     OW13888   0.952   0.993   6.074
 4330SOL    HW113889   0.992   1.081   6.050
 4330SOL    HW213890   1.022   0.935   6.116
 4331SOL     OW13891   4.959   2.955   6.348
 4331SOL    HW113892   5.035   2.890   6.344
 4331SOL    HW213893   4.927   2.975   6.256
 4332SOL     OW13894   6.393   4.529   1.905
 4332SOL    HW113895   6.427   4.460   1.840
 4332SOL    HW213896   6.297   4.512   1.925
 4333SOL     OW13897   6.326   1.281   4.805
 4333SOL    HW113898   6.276   1.336   4.738
 4333SOL    HW213899   6.376   1.208   4.758
 4334SOL     OW13900   4.063   0.405   1.990
 4334SOL    HW113901   4.063   0.333   1.922
 4334SOL    HW213902   4.027   0.489   1.950
 4335SOL     OW13903   3.919   4.409   5.941
 4335SOL    HW113904   3.849   4.390   5.872
 4335SOL    HW213905   3.875   4.418   6.031
 4336SOL     OW13906   1.169   6.962   6.297
 4336SOL    HW113907   1.255   6.936   6.254
 4336SOL    HW213908   1.188   0.001   6.374
 4337SOL     OW13909   0.873   5.509   6.386
 4337SOL    HW113910   0.882   5.463   6.297
 4337SOL    HW213911   0.785   5.485   6.427
 4338SOL     OW13912   5.586   6.666   2.956
 4338SOL    HW113913   5.520   6.688   2.885
 4338SOL    HW213914   5.652   6.742   2.964
 4339SOL     OW13915   6.542   0.784   0.124
 4339SOL    HW113916   6.447   0.791   0.153
 4339SOL    HW213917   6.561   0.853   0.055
 4340SOL     OW13918   4.630   3.550   1.634
 4340SOL    HW113919   4.705   3.484   1.631
 4340SOL    HW213920   4.656   3.629   1.689
 4341SOL     OW13921   1.014   3.508   0.458
 4341SOL    HW113922   0.917   3.525   0.437
 4341SOL    HW213923   1.030   3.527   0.555
 4342SOL     OW13924   0.476   2.470   2.647
 4342SOL    HW113925   0.573   2.497   2.643
 4342SOL    HW213926   0.426   2.517   2.574
 4343SOL     OW13927   3.419   2.710   1.306
 4343SOL    HW113928   3.420   2.613   1.282
 4343SOL    HW213929   3.513   2.744   1.316
 4344SOL     OW13930   2.184   3.070   1.749
 4344SOL    HW113931   2.282   3.065   1.730
 4344SOL    HW213932   2.143   2.980   1.734
 4345SOL     OW13933   3.146   0.965   5.975
 4345SOL    HW113934   3.129   0.867   5.979
 4345SOL    HW213935   3.217   0.984   5.907
 4346SOL     OW13936   0.386   4.072   1.066
 4346SOL    HW113937   0.340   4.154   1.100
 4346SOL    HW213938   0.370   4.063   0.968
 4347SOL     OW13939   5.023   5.919   2.434
 4347SOL    HW113940   5.033   5.928   2.533
 4347SOL    HW213941   4.961   5.989   2.400
 4348SOL     OW13942   1.330   3.742   0.255
 4348SOL    HW113943   1.425   3.719   0.280
 4348SOL    HW213944   1.288   3.793   0.330
 4349SOL     OW13945   6.514   0.935   1.491
 4349SOL    HW113946   6.446   0.992   1.536
 4349SOL    HW213947   6.470   0.876   1.424
 4350SOL     OW13948   3.810   0.436   2.912
 4350SOL    HW113949   3.807   0.403   3.006
 4350SOL    HW213950   3.720   0.426   2.870
 4351SOL     OW13951   3.505   0.053   0.106
 4351SOL    HW113952   3.467   0.133   0.153
 4351SOL    HW213953   3.501   6.994   0.166
 4352SOL     OW13954   6.246   1.959   1.750
 4352SOL    HW113955   6.199   2.030   1.699
 4352SOL    HW213956   6.339   1.947   1.714
 4353SOL     OW13957   3.386   5.680   0.798
 4353SOL    HW113958   3.453   5.723   0.859
 4353SOL    HW213959   3.331   5.752   0.753
 4354SOL     OW13960   2.900   0.736   1.516
 4354SOL    HW113961   2.924   0.685   1.433
 4354SOL    HW213962   2.803   0.720   1.538
 4355SOL     OW13963   4.774   0.024   6.698
 4355SOL    HW113964   4.857   0.064   6.735
 4355SOL    HW213965   4.705   0.017   6.771
 4356SOL     OW13966   3.413   3.842   1.191
 4356SOL    HW113967   3.343   3.907   1.162
 4356SOL    HW213968   3.407   3.759   1.135
 4357SOL     OW13969   5.805   0.467   0.509
 4357SOL    HW113970   5.709   0.480   0.535
 4357SOL    HW213971   5.861   0.536   0.556
 4358SOL     OW13972   6.131   0.700   1.297
 4358SOL    HW113973   6.154   0.632   1.226
 4358SOL    HW213974   6.214   0.743   1.331
 4359SOL     OW13975   0.462   4.135   4.447
 4359SOL    HW113976   0.407   4.099   4.372
 4359SOL    HW213977   0.489   4.060   4.508
 4360SOL     OW13978   2.303   3.619   0.922
 4360SOL    HW113979   2.218   3.659   0.889
 4360SOL    HW213980   2.286   3.526   0.954
 4361SOL     OW13981   5.259   2.414   2.639
 4361SOL    HW113982   5.196   2.342   2.669
 4361SOL    HW213983   5.333   2.372   2.586
 4362SOL     OW13984   4.667   4.229   2.403
 4362SOL    HW113985   4.610   4.183   2.471
 4362SOL    HW213986   4.750   4.264   2.448
 4363SOL     OW13987   5.094   0.581   6.570
 4363SOL    HW113988   5.177   0.582   6.626
 4363SOL    HW213989   5.116   0.550   6.478
 4364SOL     OW13990   4.056   3.619   5.097
 4364SOL    HW113991   4.117   3.621   5.177
 4364SOL    HW213992   4.108   3.590   5.017
 4365SOL     OW13993   4.520   2.176   0.086
 4365SOL    HW113994   4.449   2.171   0.156
 4365SOL    HW213995   4.528   2.270   0.053
 4366SOL     OW13996   4.596   5.160   0.580
 4366SOL    HW113997   4.538   5.091   0.535
 4366SOL    HW213998   4.601   5.140   0.678
 4367SOL     OW13999   6.424   6.445   0.912
 4367SOL    HW114000   6.344   6.459   0.971
 4367SOL    HW214001   6.475   6.365   0.945
 4368SOL     OW14002   4.048   5.473   2.222
 4368SOL    HW114003   3.979   5.534   2.183
 4368SOL    HW214004   4.003   5.390   2.256
 4369SOL     OW14005   3.217   5.571   1.891
 4369SOL    HW114006   3.155   5.600   1.818
 4369SOL    HW214007   3.262   5.651   1.930
 4370SOL     OW14008   5.270   4.314   1.828
 4370SOL    HW114009   5.359   4.360   1.825
 4370SOL    HW214010   5.274   4.240   1.895
 4371SOL     OW14011   1.108   1.486   2.127
 4371SOL    HW114012   1.182   1.486   2.194
 4371SOL    HW214013   1.040   1.555   2.153
 4372SOL     OW14014   5.444   6.846   3.765
 4372SOL    HW114015   5.404   6.937   3.754
 4372SOL    HW214016   5.390   6.793   3.830
 4373SOL     OW14017   0.396   1.716   5.349
 4373SOL    HW114018   0.310   1.666   5.339
 4373SOL    HW214019   0.431   1.703   5.442
 4374SOL     OW14020   3.508   1.396   0.270
 4374SOL    HW114021   3.458   1.376   0.354
 4374SOL    HW214022   3.606   1.384   0.286
 4375SOL     OW14023   3.568   5.397   4.307
 4375SOL    HW114024   3.627   5.326   4.268
 4375SOL    HW214025   3.495   5.353   4.360
 4376SOL     OW14026   0.193   2.767   3.554
 4376SOL    HW114027   0.129   2.793   3.481
 4376SOL    HW214028   0.244   2.848   3.584
 4377SOL     OW14029   6.965   4.521   6.304
 4377SOL    HW114030   6.950   4.436   6.354
 4377SOL    HW214031   6.917   4.517   6.216
 4378SOL     OW14032   3.063   2.170   3.985
 4378SOL    HW114033   2.979   2.178   4.038
 4378SOL    HW214034   3.141   2.161   4.047
 4379SOL     OW14035   3.433   1.645   6.221
 4379SOL    HW114036   3.405   1.738   6.196
 4379SOL    HW214037   3.482   1.603   6.144
 4380SOL     OW14038   0.065   2.366   3.087
 4380SOL    HW114039   0.067   2.291   3.153
 4380SOL    HW214040   0.065   2.329   2.994
 4381SOL     OW14041   1.275   4.791   0.071
 4381SOL    HW114042   1.343   4.825   0.136
 4381SOL    HW214043   1.196   4.852   0.071
 4382SOL     OW14044   1.247   4.649   4.565
 4382SOL    HW114045   1.289   4.716   4.504
 4382SOL    HW214046   1.210   4.696   4.645
 4383SOL     OW14047   0.600   4.660   0.407
 4383SOL    HW114048   0.599   4.580   0.466
 4383SOL    HW214049   0.506   4.691   0.391
 4384SOL     OW14050   4.788   6.632   3.803
 4384SOL    HW114051   4.803   6.535   3.821
 4384SOL    HW214052   4.714   6.642   3.735
 4385SOL     OW14053   4.651   0.302   5.460
 4385SOL    HW114054   4.599   0.383   5.487
 4385SOL    HW214055   4.655   0.238   5.537
 4386SOL     OW14056   2.164   3.162   4.331
 4386SOL    HW114057   2.070   3.159   4.363
 4386SOL    HW214058   2.213   3.235   4.378
 4387SOL     OW14059   5.097   2.317   1.204
 4387SOL    HW114060   5.178   2.363   1.168
 4387SOL    HW214061   5.027   2.385   1.226
 4388SOL     OW14062   5.986   3.213   0.842
 4388SOL    HW114063   5.892   3.248   0.843
 4388SOL    HW214064   5.985   3.114   0.826
 4389SOL     OW14065   2.602   1.330   6.862
 4389SOL    HW114066   2.543   1.249   6.857
 4389SOL    HW214067   2.583   1.390   6.784
 4390SOL     OW14068   6.756   1.409   0.979
 4390SOL    HW114069   6.855   1.419   0.977
 4390SOL    HW214070   6.716   1.476   1.042
 4391SOL     OW14071   0.163   6.190   1.282
 4391SOL    HW114072   0.173   6.130   1.203
 4391SOL    HW214073   0.149   6.284   1.250
 4392SOL     OW14074   1.651   2.852   6.202
 4392SOL    HW114075   1.643   2.952   6.202
 4392SOL    HW214076   1.635   2.818   6.295
 4393SOL     OW14077   6.376   0.562   1.998
 4393SOL    HW114078   6.278   0.546   1.991
 4393SOL    HW214079   6.418   0.488   2.050
 4394SOL     OW14080   6.935   1.037   2.973
 4394SOL    HW114081   6.927   1.053   2.874
 4394SOL    HW214082   6.888   1.110   3.022
 4395SOL     OW14083   1.202   3.462   1.489
 4395SOL    HW114084   1.103   3.455   1.479
 4395SOL    HW214085   1.231   3.556   1.470
 4396SOL     OW14086   2.674   1.787   2.742
 4396SOL    HW114087   2.601   1.779   2.810
 4396SOL    HW214088   2.727   1.701   2.739
 4397SOL     OW14089   3.390   0.397   4.789
 4397SOL    HW114090   3.478   0.380   4.833
 4397SOL    HW214091   3.365   0.493   4.800
 4398SOL     OW14092   1.945   3.112   6.056
 4398SOL    HW114093   1.856   3.155   6.073
 4398SOL    HW214094   1.976   3.137   5.964
 4399SOL     OW14095   2.699   5.814   1.614
 4399SOL    HW114096   2.760   5.879   1.568
 4399SOL    HW214097   2.741   5.723   1.615
 4400SOL     OW14098   1.392   6.046   5.231
 4400SOL    HW114099   1.467   6.107   5.256
 4400SOL    HW214100   1.365   6.064   5.136
 4401SOL     OW14101   2.915   6.940   6.300
 4401SOL    HW114102   2.867   6.865   6.346
 4401SOL    HW214103   2.975   6.902   6.229
 4402SOL     OW14104   1.361   0.616   2.737
 4402SOL    HW114105   1.350   0.517   2.740
 4402SOL    HW214106   1.309   0.653   2.660
 4403SOL     OW14107   6.515   6.008   3.181
 4403SOL    HW114108   6.437   5.968   3.227
 4403SOL    HW214109   6.491   6.032   3.087
 4404SOL     OW14110   0.530   6.423   5.235
 4404SOL    HW114111   0.462   6.396   5.168
 4404SOL    HW214112   0.571   6.511   5.208
 4405SOL     OW14113   0.984   5.002   3.006
 4405SOL    HW114114   1.028   4.985   3.095
 4405SOL    HW214115   1.037   5.070   2.956
 4406SOL     OW14116   6.292   4.550   2.456
 4406SOL    HW114117   6.274   4.469   2.400
 4406SOL    HW214118   6.279   4.528   2.552
 4407SOL     OW14119   5.378   0.070   1.280
 4407SOL    HW114120   5.344   7.003   1.247
 4407SOL    HW214121   5.383   0.135   1.205
 4408SOL     OW14122   4.654   0.882   1.128
 4408SOL    HW114123   4.639   0.798   1.179
 4408SOL    HW214124   4.566   0.923   1.104
 4409SOL     OW14125   3.762   0.835   3.720
 4409SOL    HW114126   3.739   0.758   3.660
 4409SOL    HW214127   3.720   0.918   3.684
 4410SOL     OW14128   1.082   0.258   1.078
 4410SOL    HW114129   1.069   0.179   1.137
 4410SOL    HW214130   0.997   0.309   1.070
 4411SOL     OW14131   4.423   4.788   4.513
 4411SOL    HW114132   4.455   4.720   4.580
 4411SOL    HW214133   4.392   4.741   4.431
 4412SOL     OW14134   4.272   6.407   1.686
 4412SOL    HW114135   4.201   6.336   1.678
 4412SOL    HW214136   4.350   6.371   1.736
 4413SOL     OW14137   5.654   6.215   4.235
 4413SOL    HW114138   5.554   6.215   4.234
 4413SOL    HW214139   5.686   6.277   4.307
 4414SOL     OW14140   5.856   4.469   1.092
 4414SOL    HW114141   5.856   4.443   1.189
 4414SOL    HW214142   5.822   4.393   1.037
 4415SOL     OW14143   1.613   4.150   1.549
 4415SOL    HW114144   1.675   4.152   1.470
 4415SOL    HW214145   1.605   4.241   1.587
 4416SOL     OW14146   4.780   2.952   4.349
 4416SOL    HW114147   4.807   3.046   4.327
 4416SOL    HW214148   4.790   2.895   4.267
 4417SOL     OW14149   0.565   4.213   2.131
 4417SOL    HW114150   0.597   4.173   2.046
 4417SOL    HW214151   0.604   4.163   2.209
 4418SOL     OW14152   6.661   1.464   5.464
 4418SOL    HW114153   6.752   1.500   5.487
 4418SOL    HW214154   6.620   1.520   5.393
 4419SOL     OW14155   6.411   6.353   6.503
 4419SOL    HW114156   6.466   6.411   6.562
 4419SOL    HW214157   6.314   6.371   6.518
 4420SOL     OW14158   3.638   1.209   0.817
 4420SOL    HW114159   3.591   1.294   0.799
 4420SOL    HW214160   3.734   1.228   0.840
 4421SOL     OW14161   2.927   2.870   0.286
 4421SOL    HW114162   2.903   2.936   0.358
 4421SOL    HW214163   3.015   2.894   0.247
 4422SOL     OW14164   1.075   3.117   6.421
 4422SOL    HW114165   1.079   3.192   6.487
 4422SOL    HW214166   1.043   3.034   6.467
 4423SOL     OW14167   5.610   4.302   4.411
 4423SOL    HW114168   5.673   4.284   4.336
 4423SOL    HW214169   5.570   4.215   4.442
 4424SOL     OW14170   3.902   5.831   2.896
 4424SOL    HW114171   3.955   5.859   2.817
 4424SOL    HW214172   3.884   5.732   2.891
 4425SOL     OW14173   0.510   6.232   1.128
 4425SOL    HW114174   0.534   6.138   1.152
 4425SOL    HW214175   0.424   6.233   1.076
 4426SOL     OW14176   0.755   0.900   4.364
 4426SOL    HW114177   0.753   0.915   4.265
 4426SOL    HW214178   0.717   0.980   4.411
 4427SOL     OW14179   3.456   5.866   1.487
 4427SOL    HW114180   3.537   5.925   1.485
 4427SOL    HW214181   3.399   5.891   1.566
 4428SOL     OW14182   6.378   6.760   3.486
 4428SOL    HW114183   6.332   6.743   3.573
 4428SOL    HW214184   6.311   6.785   3.417
 4429SOL     OW14185   2.736   5.844   2.838
 4429SOL    HW114186   2.807   5.911   2.817
 4429SOL    HW214187   2.740   5.822   2.936
 4430SOL     OW14188   6.037   4.262   4.547
 4430SOL    HW114189   6.065   4.252   4.642
 4430SOL    HW214190   5.955   4.320   4.542
 4431SOL     OW14191   4.186   6.948   4.840
 4431SOL    HW114192   4.188   6.953   4.740
 4431SOL    HW214193   4.251   6.878   4.871
 4432SOL     OW14194   1.684   3.538   6.488
 4432SOL    HW114195   1.676   3.618   6.548
 4432SOL    HW214196   1.644   3.459   6.533
 4433SOL     OW14197   0.641   0.473   4.830
 4433SOL    HW114198   0.726   0.491   4.781
 4433SOL    HW214199   0.638   0.531   4.912
 4434SOL     OW14200   6.371   0.964   2.528
 4434SOL    HW114201   6.422   1.034   2.578
 4434SOL    HW214202   6.383   0.978   2.430
 4435SOL     OW14203   2.381   4.444   1.575
 4435SOL    HW114204   2.465   4.467   1.623
 4435SOL    HW214205   2.402   4.383   1.499
 4436SOL     OW14206   4.876   2.302   1.449
 4436SOL    HW114207   4.948   2.366   1.472
 4436SOL    HW214208   4.801   2.311   1.515
 4437SOL     OW14209   6.598   5.365   6.340
 4437SOL    HW114210   6.604   5.272   6.376
 4437SOL    HW214211   6.579   5.428   6.416
 4438SOL     OW14212   4.170   1.488   4.930
 4438SOL    HW114213   4.190   1.583   4.907
 4438SOL    HW214214   4.114   1.447   4.858
 4439SOL     OW14215   2.660   4.767   1.877
 4439SOL    HW114216   2.675   4.811   1.966
 4439SOL    HW214217   2.710   4.680   1.875
 4440SOL     OW14218   1.860   5.415   5.293
 4440SOL    HW114219   1.787   5.433   5.359
 4440SOL    HW214220   1.845   5.472   5.212
 4441SOL     OW14221   6.405   1.254   0.748
 4441SOL    HW114222   6.339   1.216   0.683
 4441SOL    HW214223   6.381   1.228   0.841
 4442SOL     OW14224   1.710   4.707   0.935
 4442SOL    HW114225   1.715   4.627   0.874
 4442SOL    HW214226   1.637   4.694   1.001
 4443SOL     OW14227   1.299   6.129   4.980
 4443SOL    HW114228   1.360   6.073   4.923
 4443SOL    HW214229   1.220   6.075   5.008
 4444SOL     OW14230   4.847   6.145   6.969
 4444SOL    HW114231   4.813   6.056   6.939
 4444SOL    HW214232   4.903   6.185   6.897
 4445SOL     OW14233   2.232   3.528   0.586
 4445SOL    HW114234   2.270   3.444   0.548
 4445SOL    HW214235   2.144   3.507   0.630
 4446SOL     OW14236   5.375   2.210   1.817
 4446SOL    HW114237   5.453   2.189   1.877
 4446SOL    HW214238   5.363   2.136   1.751
 4447SOL     OW14239   4.955   6.148   5.334
 4447SOL    HW114240   4.911   6.195   5.257
 4447SOL    HW214241   5.055   6.155   5.324
 4448SOL     OW14242   3.249   6.305   2.839
 4448SOL    HW114243   3.206   6.257   2.916
 4448SOL    HW214244   3.267   6.241   2.765
 4449SOL     OW14245   3.880   1.995   5.432
 4449SOL    HW114246   3.788   2.001   5.393
 4449SOL    HW214247   3.922   1.908   5.405
 4450SOL     OW14248   1.947   5.979   0.725
 4450SOL    HW114249   1.915   6.069   0.754
 4450SOL    HW214250   1.952   5.918   0.805
 4451SOL     OW14251   4.822   5.864   3.828
 4451SOL    HW114252   4.789   5.921   3.903
 4451SOL    HW214253   4.811   5.913   3.741
 4452SOL     OW14254   5.149   4.544   3.269
 4452SOL    HW114255   5.209   4.468   3.243
 4452SOL    HW214256   5.185   4.588   3.351
 4453SOL     OW14257   0.221   5.859   1.345
 4453SOL    HW114258   0.317   5.883   1.359
 4453SOL    HW214259   0.188   5.898   1.259
 4454SOL     OW14260   0.258   0.900   0.303
 4454SOL    HW114261   0.233   0.993   0.276
 4454SOL    HW214262   0.333   0.903   0.368
 4455SOL     OW14263   0.831   0.467   4.234
 4455SOL    HW114264   0.802   0.420   4.318
 4455SOL    HW214265   0.855   0.400   4.165
 4456SOL     OW14266   1.547   5.751   4.144
 4456SOL    HW114267   1.545   5.704   4.055
 4456SOL    HW214268   1.638   5.791   4.158
 4457SOL     OW14269   1.324   1.946   4.466
 4457SOL    HW114270   1.397   2.003   4.506
 4457SOL    HW214271   1.252   2.005   4.429
 4458SOL     OW14272   2.157   1.958   5.901
 4458SOL    HW114273   2.255   1.937   5.893
 4458SOL    HW214274   2.132   2.027   5.834
 4459SOL     OW14275   0.721   4.017   3.153
 4459SOL    HW114276   0.670   3.972   3.226
 4459SOL    HW214277   0.814   4.038   3.184
 4460SOL     OW14278   0.128   3.102   5.100
 4460SOL    HW114279   0.217   3.136   5.070
 4460SOL    HW214280   0.092   3.163   5.171
 4461SOL     OW14281   1.940   0.339   0.795
 4461SOL    HW114282   2.030   0.306   0.823
 4461SOL    HW214283   1.904   0.281   0.721
 4462SOL     OW14284   0.596   4.445   2.448
 4462SOL    HW114285   0.516   4.451   2.509
 4462SOL    HW214286   0.630   4.351   2.447
 4463SOL     OW14287   5.705   2.106   6.974
 4463SOL    HW114288   5.688   2.115   6.875
 4463SOL    HW214289   5.748   2.189   7.008
 4464SOL     OW14290   0.531   3.825   1.056
 4464SOL    HW114291   0.518   3.734   1.095
 4464SOL    HW214292   0.488   3.828   0.965
 4465SOL     OW14293   4.528   4.565   1.234
 4465SOL    HW114294   4.505   4.543   1.329
 4465SOL    HW214295   4.624   4.543   1.217
 4466SOL     OW14296   0.790   2.993   2.819
 4466SOL    HW114297   0.758   3.078   2.859
 4466SOL    HW214298   0.756   2.916   2.872
 4467SOL     OW14299   5.078   5.041   1.555
 4467SOL    HW114300   4.992   5.070   1.598
 4467SOL    HW214301   5.145   5.115   1.560
 4468SOL     OW14302   1.838   3.594   6.939
 4468SOL    HW114303   1.803   3.503   6.915
 4468SOL    HW214304   1.932   3.585   6.972
 4469SOL     OW14305   1.716   5.928   2.123
 4469SOL    HW114306   1.689   5.927   2.026
 4469SOL    HW214307   1.812   5.956   2.131
 4470SOL     OW14308   0.964   7.018   3.214
 4470SOL    HW114309   0.974   6.969   3.300
 4470SOL    HW214310   1.018   0.081   3.217
 4471SOL     OW14311   1.295   0.623   6.668
 4471SOL    HW114312   1.259   0.558   6.735
 4471SOL    HW214313   1.244   0.709   6.673
 4472SOL     OW14314   1.640   2.968   0.684
 4472SOL    HW114315   1.654   3.022   0.766
 4472SOL    HW214316   1.552   2.921   0.689
 4473SOL     OW14317   0.334   2.883   4.826
 4473SOL    HW114318   0.377   2.905   4.914
 4473SOL    HW214319   0.356   2.954   4.759
 4474SOL     OW14320   2.014   6.543   1.155
 4474SOL    HW114321   2.044   6.625   1.106
 4474SOL    HW214322   2.077   6.524   1.230
 4475SOL     OW14323   0.659   3.384   0.644
 4475SOL    HW114324   0.737   3.378   0.706
 4475SOL    HW214325   0.600   3.305   0.657
 4476SOL     OW14326   4.978   0.428   3.644
 4476SOL    HW114327   5.043   0.404   3.573
 4476SOL    HW214328   4.983   0.360   3.718
 4477SOL     OW14329   6.749   1.421   4.748
 4477SOL    HW114330   6.844   1.452   4.757
 4477SOL    HW214331   6.733   1.346   4.812
 4478SOL     OW14332   1.059   0.278   2.357
 4478SOL    HW114333   1.046   0.302   2.261
 4478SOL    HW214334   1.128   0.206   2.364
 4479SOL     OW14335   2.584   3.100   0.169
 4479SOL    HW114336   2.590   3.193   0.205
 4479SOL    HW214337   2.549   3.039   0.240
 4480SOL     OW14338   6.547   0.648   3.231
 4480SOL    HW114339   6.598   0.620   3.149
 4480SOL    HW214340   6.489   0.572   3.261
 4481SOL     OW14341   2.396   3.622   5.855
 4481SOL    HW114342   2.404   3.713   5.897
 4481SOL    HW214343   2.467   3.612   5.784
 4482SOL     OW14344   2.553   0.041   1.209
 4482SOL    HW114345   2.623   0.057   1.278
 4482SOL    HW214346   2.463   0.055   1.249
 4483SOL     OW14347   0.814   3.181   0.480
 4483SOL    HW114348   0.731   3.220   0.521
 4483SOL    HW214349   0.887   3.179   0.547
 4484SOL     OW14350   4.206   6.948   1.176
 4484SOL    HW114351   4.148   6.897   1.239
 4484SOL    HW214352   4.288   6.981   1.224
 4485SOL     OW14353   0.468   2.926   5.052
 4485SOL    HW114354   0.464   2.899   5.149
 4485SOL    HW214355   0.554   2.974   5.034
 4486SOL     OW14356   5.303   4.656   3.474
 4486SOL    HW114357   5.391   4.695   3.499
 4486SOL    HW214358   5.229   4.713   3.510
 4487SOL     OW14359   0.376   2.821   6.399
 4487SOL    HW114360   0.322   2.779   6.472
 4487SOL    HW214361   0.349   2.917   6.388
 4488SOL     OW14362   5.579   4.736   3.466
 4488SOL    HW114363   5.590   4.793   3.385
 4488SOL    HW214364   5.633   4.652   3.456
 4489SOL     OW14365   3.688   6.342   6.380
 4489SOL    HW114366   3.679   6.327   6.478
 4489SOL    HW214367   3.706   6.255   6.334
 4490SOL     OW14368   5.295   1.903   2.311
 4490SOL    HW114369   5.224   1.951   2.363
 4490SOL    HW214370   5.370   1.967   2.291
 4491SOL     OW14371   0.253   3.746   2.990
 4491SOL    HW114372   0.259   3.808   3.069
 4491SOL    HW214373   0.230   3.654   3.022
 4492SOL     OW14374   6.578   1.293   1.978
 4492SOL    HW114375   6.668   1.270   1.941
 4492SOL    HW214376   6.588   1.324   2.073
 4493SOL     OW14377   5.448   1.415   6.550
 4493SOL    HW114378   5.547   1.406   6.545
 4493SOL    HW214379   5.409   1.401   6.458
 4494SOL     OW14380   1.315   1.458   2.329
 4494SOL    HW114381   1.279   1.392   2.395
 4494SOL    HW214382   1.346   1.540   2.377
 4495SOL     OW14383   3.771   6.343   1.451
 4495SOL    HW114384   3.811   6.433   1.470
 4495SOL    HW214385   3.837   6.271   1.473
 4496SOL     OW14386   2.018   5.217   5.263
 4496SOL    HW114387   2.077   5.209   5.343
 4496SOL    HW214388   1.954   5.292   5.276
 4497SOL     OW14389   4.687   6.513   5.194
 4497SOL    HW114390   4.747   6.438   5.220
 4497SOL    HW214391   4.607   6.516   5.254
 4498SOL     OW14392   1.664   5.020   4.175
 4498SOL    HW114393   1.692   4.953   4.244
 4498SOL    HW214394   1.602   4.976   4.110
 4499SOL     OW14395   5.655   1.798   1.953
 4499SOL    HW114396   5.619   1.864   1.887
 4499SOL    HW214397   5.581   1.763   2.010
 4500SOL     OW14398   3.073   6.833   0.095
 4500SOL    HW114399   2.976   6.855   0.101
 4500SOL    HW214400   3.112   6.832   0.187
 4501SOL     OW14401   5.422   0.460   2.883
 4501SOL    HW114402   5.504   0.402   2.887
 4501SOL    HW214403   5.448   0.551   2.850
 4502SOL     OW14404   0.908   4.120   6.973
 4502SOL    HW114405   0.913   4.169   6.886
 4502SOL    HW214406   0.887   4.024   6.956
 4503SOL     OW14407   3.627   1.155   2.742
 4503SOL    HW114408   3.599   1.201   2.658
 4503SOL    HW214409   3.725   1.133   2.737
 4504SOL     OW14410   1.079   2.727   4.126
 4504SOL    HW114411   1.174   2.758   4.119
 4504SOL    HW214412   1.019   2.797   4.087
 4505SOL     OW14413   6.432   3.610   3.524
 4505SOL    HW114414   6.363   3.681   3.533
 4505SOL    HW214415   6.523   3.652   3.518
 4506SOL     OW14416   4.210   3.914   6.731
 4506SOL    HW114417   4.231   3.889   6.825
 4506SOL    HW214418   4.200   3.832   6.675
 4507SOL     OW14419   6.000   2.373   3.216
 4507SOL    HW114420   5.908   2.385   3.177
 4507SOL    HW214421   5.998   2.389   3.314
 4508SOL     OW14422   5.956   4.676   0.050
 4508SOL    HW114423   5.906   4.619   7.006
 4508SOL    HW214424   5.916   4.667   0.141
 4509SOL     OW14425   4.606   1.721   2.919
 4509SOL    HW114426   4.700   1.714   2.951
 4509SOL    HW214427   4.604   1.724   2.819
 4510SOL     OW14428   4.760   1.710   3.513
 4510SOL    HW114429   4.857   1.722   3.535
 4510SOL    HW214430   4.736   1.613   3.518
 4511SOL     OW14431   1.047   4.312   6.770
 4511SOL    HW114432   1.136   4.268   6.757
 4511SOL    HW214433   1.049   4.405   6.731
 4512SOL     OW14434   2.850   4.013   5.980
 4512SOL    HW114435   2.945   4.044   5.973
 4512SOL    HW214436   2.847   3.923   6.023
 4513SOL     OW14437   0.451   1.590   1.254
 4513SOL    HW114438   0.442   1.580   1.353
 4513SOL    HW214439   0.392   1.524   1.208
 4514SOL     OW14440   4.262   4.930   6.588
 4514SOL    HW114441   4.237   4.970   6.676
 4514SOL    HW214442   4.309   4.843   6.603
 4515SOL     OW14443   4.291   6.885   5.597
 4515SOL    HW114444   4.236   6.842   5.668
 4515SOL    HW214445   4.231   6.923   5.526
 4516SOL     OW14446   3.289   1.476   5.238
 4516SOL    HW114447   3.240   1.516   5.160
 4516SOL    HW214448   3.228   1.414   5.287
 4517SOL     OW14449   3.805   0.208   4.118
 4517SOL    HW114450   3.864   0.287   4.133
 4517SOL    HW214451   3.806   0.149   4.198
 4518SOL     OW14452   6.558   6.591   0.703
 4518SOL    HW114453   6.614   6.531   0.647
 4518SOL    HW214454   6.499   6.537   0.763
 4519SOL     OW14455   5.284   7.007   6.200
 4519SOL    HW114456   5.331   0.027   6.277
 4519SOL    HW214457   5.334   0.006   6.116
 4520SOL     OW14458   4.159   5.333   4.691
 4520SOL    HW114459   4.079   5.277   4.674
 4520SOL    HW214460   4.154   5.372   4.783
 4521SOL     OW14461   4.482   2.517   4.377
 4521SOL    HW114462   4.442   2.481   4.292
 4521SOL    HW214463   4.518   2.609   4.361
 4522SOL     OW14464   5.417   4.139   3.483
 4522SOL    HW114465   5.512   4.116   3.463
 4522SOL    HW214466   5.412   4.234   3.512
 4523SOL     OW14467   0.651   3.040   6.720
 4523SOL    HW114468   0.632   2.947   6.752
 4523SOL    HW214469   0.750   3.054   6.717
 4524SOL     OW14470   2.056   3.599   1.874
 4524SOL    HW114471   1.972   3.609   1.926
 4524SOL    HW214472   2.111   3.524   1.913
 4525SOL     OW14473   3.380   1.616   5.904
 4525SOL    HW114474   3.475   1.607   5.873
 4525SOL    HW214475   3.330   1.676   5.842
 4526SOL     OW14476   0.690   6.724   5.407
 4526SOL    HW114477   0.781   6.767   5.403
 4526SOL    HW214478   0.676   6.670   5.324
 4527SOL     OW14479   0.837   2.546   2.342
 4527SOL    HW114480   0.751   2.531   2.391
 4527SOL    HW214481   0.905   2.583   2.405
 4528SOL     OW14482   5.265   2.089   4.487
 4528SOL    HW114483   5.203   2.013   4.466
 4528SOL    HW214484   5.259   2.110   4.584
 4529SOL     OW14485   1.532   2.628   3.733
 4529SOL    HW114486   1.544   2.618   3.832
 4529SOL    HW214487   1.614   2.669   3.694
 4530SOL     OW14488   4.015   4.610   5.767
 4530SOL    HW114489   3.967   4.537   5.815
 4530SOL    HW214490   3.949   4.678   5.736
 4531SOL     OW14491   1.531   6.567   5.205
 4531SOL    HW114492   1.498   6.567   5.111
 4531SOL    HW214493   1.468   6.618   5.263
 4532SOL     OW14494   5.752   1.150   2.363
 4532SOL    HW114495   5.837   1.138   2.414
 4532SOL    HW214496   5.699   1.066   2.365
 4533SOL     OW14497   2.788   5.503   1.309
 4533SOL    HW114498   2.763   5.523   1.214
 4533SOL    HW214499   2.710   5.517   1.368
 4534SOL     OW14500   5.654   1.562   4.734
 4534SOL    HW114501   5.669   1.472   4.776
 4534SOL    HW214502   5.743   1.603   4.712
 4535SOL     OW14503   1.976   0.137   0.147
 4535SOL    HW114504   1.991   0.143   0.048
 4535SOL    HW214505   1.977   0.040   0.175
 4536SOL     OW14506   3.812   0.410   5.745
 4536SOL    HW114507   3.866   0.469   5.806
 4536SOL    HW214508   3.774   0.334   5.798
 4537SOL     OW14509   3.214   3.593   3.639
 4537SOL    HW114510   3.139   3.651   3.609
 4537SOL    HW214511   3.297   3.648   3.648
 4538SOL     OW14512   1.330   2.624   0.183
 4538SOL    HW114513   1.259   2.645   0.116
 4538SOL    HW214514   1.288   2.579   0.262
 4539SOL     OW14515   0.928   4.698   5.146
 4539SOL    HW114516   0.938   4.796   5.166
 4539SOL    HW214517   1.018   4.657   5.133
 4540SOL     OW14518   1.994   1.812   0.438
 4540SOL    HW114519   2.007   1.721   0.400
 4540SOL    HW214520   1.946   1.870   0.373
 4541SOL     OW14521   4.539   2.915   0.319
 4541SOL    HW114522   4.581   2.896   0.408
 4541SOL    HW214523   4.465   2.849   0.303
 4542SOL     OW14524   0.043   1.816   0.130
 4542SOL    HW114525   6.996   1.862   0.071
 4542SOL    HW214526   7.019   1.786   0.214
 4543SOL     OW14527   3.977   1.127   1.177
 4543SOL    HW114528   3.920   1.045   1.167
 4543SOL    HW214529   3.946   1.180   1.256
 4544SOL     OW14530   5.014   5.924   0.432
 4544SOL    HW114531   4.938   5.862   0.451
 4544SOL    HW214532   4.992   5.980   0.352
 4545SOL     OW14533   2.997   3.398   5.517
 4545SOL    HW114534   2.968   3.401   5.421
 4545SOL    HW214535   3.044   3.312   5.535
 4546SOL     OW14536   5.096   6.295   5.772
 4546SOL    HW114537   5.090   6.358   5.850
 4546SOL    HW214538   5.189   6.259   5.767
 4547SOL     OW14539   0.053   0.763   0.532
 4547SOL    HW114540   0.019   0.746   0.440
 4547SOL    HW214541   7.004   0.811   0.585
 4548SOL     OW14542   3.141   1.459   2.040
 4548SOL    HW114543   3.136   1.558   2.027
 4548SOL    HW214544   3.157   1.414   1.952
 4549SOL     OW14545   6.867   4.833   3.561
 4549SOL    HW114546   6.923   4.854   3.480
 4549SOL    HW214547   6.917   4.770   3.620
 4550SOL     OW14548   2.411   5.388   6.885
 4550SOL    HW114549   2.469   5.430   6.954
 4550SOL    HW214550   2.426   5.432   6.797
 4551SOL     OW14551   3.462   3.039   5.875
 4551SOL    HW114552   3.483   2.945   5.904
 4551SOL    HW214553   3.547   3.087   5.856
 4552SOL     OW14554   5.469   6.925   6.800
 4552SOL    HW114555   5.409   6.857   6.758
 4552SOL    HW214556   5.455   6.925   6.899
 4553SOL     OW14557   0.151   6.962   0.693
 4553SOL    HW114558   0.138   0.025   0.745
 4553SOL    HW214559   0.139   6.883   0.752
 4554SOL     OW14560   5.827   6.498   2.960
 4554SOL    HW114561   5.804   6.499   3.057
 4554SOL    HW214562   5.749   6.532   2.907
 4555SOL     OW14563   0.221   6.914   3.338
 4555SOL    HW114564   0.183   7.006   3.345
 4555SOL    HW214565   0.321   6.919   3.336
 4556SOL     OW14566   4.749   4.535   4.954
 4556SOL    HW114567   4.827   4.596   4.941
 4556SOL    HW214568   4.706   4.518   4.865
 4557SOL     OW14569   0.120   5.451   5.074
 4557SOL    HW114570   0.162   5.368   5.112
 4557SOL    HW214571   0.067   5.497   5.145
 4558SOL     OW14572   0.783   4.254   3.497
 4558SOL    HW114573   0.876   4.284   3.477
 4558SOL    HW214574   0.721   4.291   3.428
 4559SOL     OW14575   6.845   3.442   4.336
 4559SOL    HW114576   6.793   3.389   4.268
 4559SOL    HW214577   6.894   3.515   4.289
 4560SOL     OW14578   6.483   3.840   3.765
 4560SOL    HW114579   6.386   3.821   3.777
 4560SOL    HW214580   6.495   3.898   3.685
 4561SOL     OW14581   5.176   3.380   4.307
 4561SOL    HW114582   5.193   3.470   4.266
 4561SOL    HW214583   5.182   3.387   4.406
 4562SOL     OW14584   4.598   1.392   1.327
 4562SOL    HW114585   4.593   1.487   1.296
 4562SOL    HW214586   4.637   1.389   1.419
 4563SOL     OW14587   1.053   3.866   2.204
 4563SOL    HW114588   1.007   3.843   2.118
 4563SOL    HW214589   1.123   3.797   2.224
 4564SOL     OW14590   2.100   3.577   2.216
 4564SOL    HW114591   2.114   3.529   2.303
 4564SOL    HW214592   2.162   3.541   2.147
 4565SOL     OW14593   2.066   6.378   5.184
 4565SOL    HW114594   2.099   6.405   5.093
 4565SOL    HW214595   1.984   6.430   5.206
 4566SOL     OW14596   6.856   4.997   2.606
 4566SOL    HW114597   6.932   5.028   2.548
 4566SOL    HW214598   6.771   5.041   2.576
 4567SOL     OW14599   1.309   0.325   0.191
 4567SOL    HW114600   1.308   0.289   0.284
 4567SOL    HW214601   1.376   0.274   0.137
 4568SOL     OW14602   6.975   4.351   3.741
 4568SOL    HW114603   0.031   4.390   3.792
 4568SOL    HW214604   6.890   4.393   3.774
 4569SOL     OW14605   0.186   2.518   3.413
 4569SOL    HW114606   0.171   2.592   3.479
 4569SOL    HW214607   0.101   2.467   3.401
 4570SOL     OW14608   5.078   6.146   1.762
 4570SOL    HW114609   5.109   6.233   1.800
 4570SOL    HW214610   4.986   6.126   1.796
 4571SOL     OW14611   2.163   2.421   5.132
 4571SOL    HW114612   2.072   2.419   5.173
 4571SOL    HW214613   2.191   2.328   5.108
 4572SOL     OW14614   4.892   3.384   1.661
 4572SOL    HW114615   4.991   3.371   1.652
 4572SOL    HW214616   4.848   3.295   1.671
 4573SOL     OW14617   2.100   5.085   1.274
 4573SOL    HW114618   2.004   5.104   1.295
 4573SOL    HW214619   2.158   5.136   1.338
 4574SOL     OW14620   4.903   0.507   1.859
 4574SOL    HW114621   4.952   0.519   1.945
 4574SOL    HW214622   4.818   0.560   1.863
 4575SOL     OW14623   0.203   1.788   5.099
 4575SOL    HW114624   0.270   1.721   5.067
 4575SOL    HW214625   0.159   1.831   5.020
 4576SOL     OW14626   2.871   3.689   6.885
 4576SOL    HW114627   2.776   3.657   6.891
 4576SOL    HW214628   2.899   3.693   6.789
 4577SOL     OW14629   0.419   1.860   1.724
 4577SOL    HW114630   0.325   1.826   1.725
 4577SOL    HW214631   0.452   1.864   1.629
 4578SOL     OW14632   1.964   0.630   2.745
 4578SOL    HW114633   1.915   0.565   2.687
 4578SOL    HW214634   1.931   0.622   2.839
 4579SOL     OW14635   4.319   0.939   2.900
 4579SOL    HW114636   4.294   0.985   2.985
 4579SOL    HW214637   4.256   0.863   2.883
 4580SOL     OW14638   0.983   0.387   1.565
 4580SOL    HW114639   1.016   0.427   1.650
 4580SOL    HW214640   1.047   0.316   1.535
 4581SOL     OW14641   3.226   0.525   1.544
 4581SOL    HW114642   3.133   0.560   1.538
 4581SOL    HW214643   3.266   0.520   1.453
 4582SOL     OW14644   5.770   1.061   4.528
 4582SOL    HW114645   5.733   0.969   4.516
 4582SOL    HW214646   5.869   1.056   4.541
 4583SOL     OW14647   2.169   5.803   6.675
 4583SOL    HW114648   2.143   5.896   6.648
 4583SOL    HW214649   2.226   5.806   6.756
 4584SOL     OW14650   6.848   0.950   4.675
 4584SOL    HW114651   6.817   0.941   4.770
 4584SOL    HW214652   6.937   0.905   4.666
 4585SOL     OW14653   0.821   2.813   2.611
 4585SOL    HW114654   0.820   2.891   2.674
 4585SOL    HW214655   0.740   2.816   2.553
 4586SOL     OW14656   6.839   4.748   5.930
 4586SOL    HW114657   6.765   4.682   5.943
 4586SOL    HW214658   6.916   4.723   5.989
 4587SOL     OW14659   4.291   2.971   6.724
 4587SOL    HW114660   4.212   2.924   6.764
 4587SOL    HW214661   4.324   2.919   6.646
 4588SOL     OW14662   2.074   4.924   6.473
 4588SOL    HW114663   2.000   4.876   6.426
 4588SOL    HW214664   2.045   5.018   6.493
 4589SOL     OW14665   4.857   5.986   2.091
 4589SOL    HW114666   4.843   5.914   2.023
 4589SOL    HW214667   4.771   6.004   2.138
 4590SOL     OW14668   2.260   4.944   2.044
 4590SOL    HW114669   2.251   5.001   1.962
 4590SOL    HW214670   2.176   4.951   2.098
 4591SOL     OW14671   2.320   1.742   5.015
 4591SOL    HW114672   2.394   1.809   5.008
 4591SOL    HW214673   2.274   1.751   5.103
 4592SOL     OW14674   2.547   2.533   3.049
 4592SOL    HW114675   2.467   2.509   2.994
 4592SOL    HW214676   2.617   2.462   3.038
 4593SOL     OW14677   1.470   5.719   4.595
 4593SOL    HW114678   1.516   5.693   4.510
 4593SOL    HW214679   1.372   5.732   4.577
 4594SOL     OW14680   0.849   6.217   3.418
 4594SOL    HW114681   0.931   6.229   3.473
 4594SOL    HW214682   0.768   6.229   3.476
 4595SOL     OW14683   5.732   1.677   0.017
 4595SOL    HW114684   5.634   1.697   0.015
 4595SOL    HW214685   5.782   1.762   0.034
 4596SOL     OW14686   0.333   1.591   2.632
 4596SOL    HW114687   0.367   1.565   2.542
 4596SOL    HW214688   0.256   1.532   2.657
 4597SOL     OW14689   1.436   5.181   0.452
 4597SOL    HW114690   1.433   5.280   0.470
 4597SOL    HW214691   1.527   5.157   0.417
 4598SOL     OW14692   0.437   2.312   0.064
 4598SOL    HW114693   0.424   2.214   0.055
 4598SOL    HW214694   0.499   2.332   0.140
 4599SOL     OW14695   2.983   6.745   3.388
 4599SOL    HW114696   3.019   6.673   3.448
 4599SOL    HW214697   3.055   6.809   3.366
 4600SOL     OW14698   0.520   6.895   5.583
 4600SOL    HW114699   0.498   6.841   5.664
 4600SOL    HW214700   0.610   6.869   5.549
 4601SOL     OW14701   1.796   0.918   5.093
 4601SOL    HW114702   1.854   0.968   5.155
 4601SOL    HW214703   1.711   0.968   5.078
 4602SOL     OW14704   4.423   0.455   6.209
 4602SOL    HW114705   4.495   0.488   6.149
 4602SOL    HW214706   4.448   0.365   6.244
 4603SOL     OW14707   4.766   6.791   0.730
 4603SOL    HW114708   4.686   6.832   0.773
 4603SOL    HW214709   4.789   6.842   0.646
 4604SOL     OW14710   0.717   6.399   3.654
 4604SOL    HW114711   0.647   6.363   3.591
 4604SOL    HW214712   0.748   6.488   3.620
 4605SOL     OW14713   4.415   1.372   1.956
 4605SOL    HW114714   4.449   1.400   1.866
 4605SOL    HW214715   4.412   1.272   1.960
 4606SOL     OW14716   0.140   0.147   4.554
 4606SOL    HW114717   0.065   0.211   4.539
 4606SOL    HW214718   0.110   0.054   4.536
 4607SOL     OW14719   2.718   1.654   0.927
 4607SOL    HW114720   2.711   1.649   1.027
 4607SOL    HW214721   2.719   1.750   0.899
 4608SOL     OW14722   0.582   1.998   5.921
 4608SOL    HW114723   0.648   2.066   5.889
 4608SOL    HW214724   0.535   2.033   6.002
 4609SOL     OW14725   5.808   5.084   6.032
 4609SOL    HW114726   5.781   5.020   5.960
 4609SOL    HW214727   5.881   5.043   6.087
 4610SOL     OW14728   5.071   4.033   6.359
 4610SOL    HW114729   5.157   3.996   6.323
 4610SOL    HW214730   5.077   4.132   6.364
 4611SOL     OW14731   0.158   0.418   6.524
 4611SOL    HW114732   0.256   0.397   6.520
 4611SOL    HW214733   0.108   0.353   6.468
 4612SOL     OW14734   1.688   0.595   2.465
 4612SOL    HW114735   1.622   0.590   2.390
 4612SOL    HW214736   1.658   0.662   2.532
 4613SOL     OW14737   1.762   5.189   3.378
 4613SOL    HW114738   1.860   5.182   3.358
 4613SOL    HW214739   1.740   5.130   3.456
 4614SOL     OW14740   6.516   4.836   2.597
 4614SOL    HW114741   6.578   4.825   2.520
 4614SOL    HW214742   6.568   4.863   2.678
 4615SOL     OW14743   0.868   4.558   6.960
 4615SOL    HW114744   0.922   4.503   0.003
 4615SOL    HW214745   0.915   4.644   6.942
 4616SOL     OW14746   1.893   4.100   6.399
 4616SOL    HW114747   1.968   4.138   6.455
 4616SOL    HW214748   1.807   4.107   6.450
 4617SOL     OW14749   1.080   4.271   4.378
 4617SOL    HW114750   1.112   4.229   4.293
 4617SOL    HW214751   1.034   4.202   4.434
 4618SOL     OW14752   2.268   4.260   5.133
 4618SOL    HW114753   2.183   4.312   5.128
 4618SOL    HW214754   2.261   4.181   5.071
 4619SOL     OW14755   4.776   5.726   6.927
 4619SOL    HW114756   4.862   5.768   6.901
 4619SOL    HW214757   4.710   5.797   6.952
 4620SOL     OW14758   1.182   4.552   2.148
 4620SOL    HW114759   1.266   4.525   2.101
 4620SOL    HW214760   1.103   4.513   2.100
 4621SOL     OW14761   2.971   0.405   2.742
 4621SOL    HW114762   2.918   0.459   2.678
 4621SOL    HW214763   2.989   0.458   2.825
 4622SOL     OW14764   6.144   6.878   0.302
 4622SOL    HW114765   6.186   6.793   0.335
 4622SOL    HW214766   6.213   6.951   0.302
 4623SOL     OW14767   2.841   4.743   2.677
 4623SOL    HW114768   2.756   4.696   2.699
 4623SOL    HW214769   2.822   4.820   2.616
 4624SOL     OW14770   5.758   1.936   0.832
 4624SOL    HW114771   5.836   1.933   0.768
 4624SOL    HW214772   5.721   1.843   0.843
 4625SOL     OW14773   0.686   6.326   1.925
 4625SOL    HW114774   0.664   6.398   1.859
 4625SOL    HW214775   0.712   6.242   1.876
 4626SOL     OW14776   3.990   3.862   1.894
 4626SOL    HW114777   4.041   3.948   1.895
 4626SOL    HW214778   3.913   3.868   1.957
 4627SOL     OW14779   5.300   6.546   4.714
 4627SOL    HW114780   5.256   6.515   4.798
 4627SOL    HW214781   5.349   6.632   4.731
 4628SOL     OW14782   0.018   3.901   2.589
 4628SOL    HW114783   0.071   3.921   2.506
 4628SOL    HW214784   6.942   3.897   2.566
 4629SOL     OW14785   1.184   5.300   1.205
 4629SOL    HW114786   1.172   5.255   1.293
 4629SOL    HW214787   1.179   5.232   1.132
 4630SOL     OW14788   1.873   3.554   1.326
 4630SOL    HW114789   1.868   3.541   1.425
 4630SOL    HW214790   1.781   3.557   1.288
 4631SOL     OW14791   5.997   1.550   1.852
 4631SOL    HW114792   5.905   1.561   1.815
 4631SOL    HW214793   6.019   1.453   1.859
 4632SOL     OW14794   2.931   4.788   3.750
 4632SOL    HW114795   3.008   4.774   3.689
 4632SOL    HW214796   2.964   4.817   3.840
 4633SOL     OW14797   5.164   3.488   3.797
 4633SOL    HW114798   5.232   3.417   3.777
 4633SOL    HW214799   5.207   3.578   3.797
 4634SOL     OW14800   3.819   2.920   5.062
 4634SOL    HW114801   3.809   3.005   5.113
 4634SOL    HW214802   3.728   2.880   5.048
 4635SOL     OW14803   4.244   0.431   2.376
 4635SOL    HW114804   4.182   0.358   2.405
 4635SOL    HW214805   4.335   0.415   2.415
 4636SOL     OW14806   1.485   5.876   6.737
 4636SOL    HW114807   1.531   5.792   6.767
 4636SOL    HW214808   1.388   5.857   6.723
 4637SOL     OW14809   1.680   2.699   3.282
 4637SOL    HW114810   1.649   2.628   3.345
 4637SOL    HW214811   1.779   2.690   3.268
 4638SOL     OW14812   4.236   4.174   6.656
 4638SOL    HW114813   4.229   4.080   6.690
 4638SOL    HW214814   4.221   4.175   6.558
 4639SOL     OW14815   3.842   2.758   1.748
 4639SOL    HW114816   3.794   2.677   1.782
 4639SOL    HW214817   3.779   2.814   1.693
 4640SOL     OW14818   0.118   2.162   0.580
 4640SOL    HW114819   0.032   2.111   0.577
 4640SOL    HW214820   0.107   2.242   0.640
 4641SOL     OW14821   1.176   5.912   4.779
 4641SOL    HW114822   1.097   5.922   4.840
 4641SOL    HW214823   1.154   5.845   4.707
 4642SOL     OW14824   5.714   1.331   6.568
 4642SOL    HW114825   5.698   1.330   6.666
 4642SOL    HW214826   5.680   1.245   6.528
 4643SOL     OW14827   0.692   2.014   0.086
 4643SOL    HW114828   0.719   1.918   0.087
 4643SOL    HW214829   0.774   2.072   0.092
 4644SOL     OW14830   1.238   1.727   1.193
 4644SOL    HW114831   1.139   1.735   1.202
 4644SOL    HW214832   1.265   1.631   1.202
 4645SOL     OW14833   5.359   2.607   5.930
 4645SOL    HW114834   5.334   2.697   5.896
 4645SOL    HW214835   5.380   2.613   6.028
 4646SOL     OW14836   1.227   3.661   2.151
 4646SOL    HW114837   1.292   3.732   2.123
 4646SOL    HW214838   1.268   3.607   2.224
 4647SOL     OW14839   2.098   6.331   2.300
 4647SOL    HW114840   2.076   6.393   2.375
 4647SOL    HW214841   2.196   6.310   2.301
 4648SOL     OW14842   2.789   1.131   4.620
 4648SOL    HW114843   2.839   1.195   4.561
 4648SOL    HW214844   2.708   1.098   4.571
 4649SOL     OW14845   4.670   3.017   1.131
 4649SOL    HW114846   4.627   3.093   1.181
 4649SOL    HW214847   4.612   2.936   1.136
 4650SOL     OW14848   3.901   5.101   0.871
 4650SOL    HW114849   3.906   5.001   0.867
 4650SOL    HW214850   3.993   5.139   0.881
 4651SOL     OW14851   1.248   3.341   0.001
 4651SOL    HW114852   1.218   3.261   0.053
 4651SOL    HW214853   1.221   3.425   0.049
 4652SOL     OW14854   0.104   0.369   5.435
 4652SOL    HW114855   0.090   0.274   5.409
 4652SOL    HW214856   0.092   0.379   5.533
 4653SOL     OW14857   0.843   6.603   0.815
 4653SOL    HW114858   0.858   6.633   0.721
 4653SOL    HW214859   0.912   6.644   0.875
 4654SOL     OW14860   1.196   1.356   4.974
 4654SOL    HW114861   1.135   1.333   4.898
 4654SOL    HW214862   1.143   1.401   5.046
 4655SOL     OW14863   5.899   5.124   2.940
 4655SOL    HW114864   5.883   5.134   2.841
 4655SOL    HW214865   5.961   5.047   2.956
 4656SOL     OW14866   5.993   0.698   1.567
 4656SOL    HW114867   6.059   0.680   1.640
 4656SOL    HW214868   6.040   0.697   1.479
 4657SOL     OW14869   3.503   1.988   2.498
 4657SOL    HW114870   3.560   1.974   2.417
 4657SOL    HW214871   3.407   1.972   2.474
 4658SOL     OW14872   1.634   1.439   0.577
 4658SOL    HW114873   1.539   1.455   0.603
 4658SOL    HW214874   1.658   1.500   0.501
 4659SOL     OW14875   2.207   4.809   0.994
 4659SOL    HW114876   2.233   4.901   0.962
 4659SOL    HW214877   2.255   4.789   1.079
 4660SOL     OW14878   0.036   5.070   4.303
 4660SOL    HW114879   0.011   4.976   4.329
 4660SOL    HW214880   0.029   5.081   4.204
 4661SOL     OW14881   0.798   0.899   5.847
 4661SOL    HW114882   0.865   0.922   5.917
 4661SOL    HW214883   0.833   0.824   5.791
 4662SOL     OW14884   2.783   0.024   5.790
 4662SOL    HW114885   2.711   0.044   5.856
 4662SOL    HW214886   2.793   0.101   5.727
 4663SOL     OW14887   0.398   0.646   1.065
 4663SOL    HW114888   0.376   0.594   1.148
 4663SOL    HW214889   0.483   0.696   1.079
 4664SOL     OW14890   6.060   6.489   5.036
 4664SOL    HW114891   6.017   6.468   4.948
 4664SOL    HW214892   6.089   6.404   5.080
 4665SOL     OW14893   0.254   1.329   2.783
 4665SOL    HW114894   0.219   1.279   2.862
 4665SOL    HW214895   0.179   1.353   2.722
 4666SOL     OW14896   1.691   2.394   6.042
 4666SOL    HW114897   1.623   2.466   6.055
 4666SOL    HW214898   1.765   2.429   5.984
 4667SOL     OW14899   6.767   2.515   1.019
 4667SOL    HW114900   6.794   2.459   1.098
 4667SOL    HW214901   6.837   2.509   0.948
 4668SOL     OW14902   4.600   1.706   5.400
 4668SOL    HW114903   4.614   1.610   5.375
 4668SOL    HW214904   4.644   1.724   5.489
 4669SOL     OW14905   5.251   6.333   6.584
 4669SOL    HW114906   5.256   6.268   6.508
 4669SOL    HW214907   5.246   6.426   6.547
 4670SOL     OW14908   0.520   3.122   0.390
 4670SOL    HW114909   0.458   3.049   0.360
 4670SOL    HW214910   0.602   3.122   0.333
 4671SOL     OW14911   6.964   1.861   1.629
 4671SOL    HW114912   6.919   1.950   1.636
 4671SOL    HW214913   0.041   1.871   1.648
 4672SOL     OW14914   3.969   3.244   0.997
 4672SOL    HW114915   4.053   3.189   0.997
 4672SOL    HW214916   3.900   3.197   0.943
 4673SOL     OW14917   4.676   1.429   0.942
 4673SOL    HW114918   4.597   1.484   0.969
 4673SOL    HW214919   4.654   1.332   0.951
 4674SOL     OW14920   0.660   3.471   0.240
 4674SOL    HW114921   0.719   3.418   0.180
 4674SOL    HW214922   0.572   3.487   0.195
 4675SOL     OW14923   1.948   6.128   0.491
 4675SOL    HW114924   1.951   6.066   0.570
 4675SOL    HW214925   2.033   6.120   0.439
 4676SOL     OW14926   0.881   5.649   4.849
 4676SOL    HW114927   0.864   5.630   4.752
 4676SOL    HW214928   0.923   5.569   4.892
 4677SOL     OW14929   4.513   0.197   6.567
 4677SOL    HW114930   4.583   0.149   6.620
 4677SOL    HW214931   4.457   0.253   6.628
 4678SOL     OW14932   2.580   4.745   0.302
 4678SOL    HW114933   2.550   4.670   0.244
 4678SOL    HW214934   2.521   4.751   0.382
 4679SOL     OW14935   2.243   0.024   5.266
 4679SOL    HW114936   2.147   0.022   5.237
 4679SOL    HW214937   2.297   0.078   5.201
 4680SOL     OW14938   1.223   5.452   6.191
 4680SOL    HW114939   1.138   5.437   6.139
 4680SOL    HW214940   1.276   5.367   6.193
 4681SOL     OW14941   6.695   6.146   5.013
 4681SOL    HW114942   6.619   6.160   5.076
 4681SOL    HW214943   6.695   6.051   4.981
 4682SOL     OW14944   3.238   0.249   0.696
 4682SOL    HW114945   3.188   0.211   0.773
 4682SOL    HW214946   3.187   0.326   0.657
 4683SOL     OW14947   0.705   4.932   3.745
 4683SOL    HW114948   0.677   5.026   3.728
 4683SOL    HW214949   0.724   4.887   3.658
 4684SOL     OW14950   2.277   1.354   5.234
 4684SOL    HW114951   2.210   1.426   5.218
 4684SOL    HW214952   2.313   1.361   5.327
 4685SOL     OW14953   5.360   4.688   3.954
 4685SOL    HW114954   5.362   4.597   3.913
 4685SOL    HW214955   5.266   4.711   3.979
 4686SOL     OW14956   5.188   5.548   6.114
 4686SOL    HW114957   5.096   5.563   6.150
 4686SOL    HW214958   5.255   5.554   6.188
 4687SOL     OW14959   4.805   0.389   4.806
 4687SOL    HW114960   4.716   0.382   4.851
 4687SOL    HW214961   4.827   0.301   4.762
 4688SOL     OW14962   6.719   0.898   0.996
 4688SOL    HW114963   6.719   0.988   0.952
 4688SOL    HW214964   6.799   0.890   1.055
 4689SOL     OW14965   1.980   5.485   3.943
 4689SOL    HW114966   1.943   5.423   4.012
 4689SOL    HW214967   2.018   5.566   3.987
 4690SOL     OW14968   2.596   1.883   0.583
 4690SOL    HW114969   2.514   1.866   0.638
 4690SOL    HW214970   2.642   1.796   0.564
 4691SOL     OW14971   3.369   4.709   0.018
 4691SOL    HW114972   3.299   4.638   0.024
 4691SOL    HW214973   3.459   4.666   0.007
 4692SOL     OW14974   1.289   5.091   3.159
 4692SOL    HW114975   1.230   5.168   3.185
 4692SOL    HW214976   1.277   5.016   3.225
 4693SOL     OW14977   0.617   1.702   1.818
 4693SOL    HW114978   0.669   1.752   1.887
 4693SOL    HW214979   0.543   1.760   1.784
 4694SOL     OW14980   1.532   0.959   5.290
 4694SOL    HW114981   1.474   0.878   5.295
 4694SOL    HW214982   1.489   1.035   5.339
 4695SOL     OW14983   3.079   3.794   3.205
 4695SOL    HW114984   3.146   3.868   3.202
 4695SOL    HW214985   3.015   3.810   3.281
 4696SOL     OW14986   7.003   2.897   0.276
 4696SOL    HW114987   7.021   2.990   0.244
 4696SOL    HW214988   0.067   2.844   0.272
 4697SOL     OW14989   0.816   5.775   6.365
 4697SOL    HW114990   0.855   5.683   6.357
 4697SOL    HW214991   0.811   5.801   6.461
 4698SOL     OW14992   5.514   3.312   2.575
 4698SOL    HW114993   5.519   3.268   2.485
 4698SOL    HW214994   5.532   3.410   2.565
 4699SOL     OW14995   6.931   0.334   3.555
 4699SOL    HW114996   0.001   0.338   3.597
 4699SOL    HW214997   6.900   0.427   3.535
 4700SOL     OW14998   4.873   6.931   5.721
 4700SOL    HW114999   4.815   6.942   5.640
 4700SOL    HW215000   4.933   7.010   5.729
 4701SOL     OW15001   2.149   0.877   6.514
 4701SOL    HW115002   2.227   0.937   6.528
 4701SOL    HW215003   2.065   0.927   6.535
 4702SOL     OW15004   3.295   2.718   1.532
 4702SOL    HW115005   3.313   2.716   1.433
 4702SOL    HW215006   3.197   2.702   1.547
 4703SOL     OW15007   0.697   6.373   2.356
 4703SOL    HW115008   0.612   6.324   2.335
 4703SOL    HW215009   0.736   6.408   2.271
 4704SOL     OW15010   4.439   6.612   6.285
 4704SOL    HW115011   4.530   6.635   6.320
 4704SOL    HW215012   4.370   6.645   6.349
 4705SOL     OW15013   3.544   2.830   5.026
 4705SOL    HW115014   3.513   2.853   4.934
 4705SOL    HW215015   3.470   2.785   5.076
 4706SOL     OW15016   5.797   3.512   0.120
 4706SOL    HW115017   5.753   3.555   0.199
 4706SOL    HW215018   5.809   3.579   0.047
 4707SOL     OW15019   2.869   4.816   0.308
 4707SOL    HW115020   2.781   4.782   0.341
 4707SOL    HW215021   2.877   4.913   0.330
 4708SOL     OW15022   1.993   3.025   2.440
 4708SOL    HW115023   1.926   3.056   2.372
 4708SOL    HW215024   1.945   2.984   2.517
 4709SOL     OW15025   2.944   4.041   0.529
 4709SOL    HW115026   2.938   4.109   0.457
 4709SOL    HW215027   3.032   4.048   0.575
 4710SOL     OW15028   5.215   3.196   0.999
 4710SOL    HW115029   5.259   3.286   1.005
 4710SOL    HW215030   5.210   3.156   1.091
 4711SOL     OW15031   2.962   0.013   3.351
 4711SOL    HW115032   2.862   0.006   3.348
 4711SOL    HW215033   2.989   0.058   3.437
 4712SOL     OW15034   1.564   4.059   6.865
 4712SOL    HW115035   1.620   4.091   6.789
 4712SOL    HW215036   1.572   3.960   6.874
 4713SOL     OW15037   0.628   5.777   1.142
 4713SOL    HW115038   0.608   5.794   1.045
 4713SOL    HW215039   0.726   5.786   1.157
 4714SOL     OW15040   3.890   2.353   1.139
 4714SOL    HW115041   3.964   2.415   1.168
 4714SOL    HW215042   3.874   2.285   1.211
 4715SOL     OW15043   5.000   3.663   4.863
 4715SOL    HW115044   4.964   3.716   4.786
 4715SOL    HW215045   4.925   3.629   4.918
 4716SOL     OW15046   2.050   5.432   6.381
 4716SOL    HW115047   2.127   5.493   6.403
 4716SOL    HW215048   2.063   5.394   6.290
 4717SOL     OW15049   2.447   5.230   4.740
 4717SOL    HW115050   2.464   5.182   4.654
 4717SOL    HW215051   2.359   5.200   4.778
 4718SOL     OW15052   4.754   0.076   0.396
 4718SOL    HW115053   4.812   0.131   0.457
 4718SOL    HW215054   4.717   0.134   0.324
 4719SOL     OW15055   4.389   3.359   1.639
 4719SOL    HW115056   4.390   3.264   1.667
 4719SOL    HW215057   4.484   3.391   1.629
 4720SOL     OW15058   2.031   1.634   2.877
 4720SOL    HW115059   2.123   1.594   2.881
 4720SOL    HW215060   2.032   1.713   2.816
 4721SOL     OW15061   1.823   1.266   1.754
 4721SOL    HW115062   1.809   1.320   1.671
 4721SOL    HW215063   1.735   1.251   1.799
 4722SOL     OW15064   3.017   1.132   3.078
 4722SOL    HW115065   2.921   1.122   3.103
 4722SOL    HW215066   3.074   1.122   3.159
 4723SOL     OW15067   3.001   0.242   5.385
 4723SOL    HW115068   3.091   0.276   5.412
 4723SOL    HW215069   2.945   0.229   5.466
 4724SOL     OW15070   4.850   5.551   1.127
 4724SOL    HW115071   4.766   5.602   1.148
 4724SOL    HW215072   4.929   5.610   1.142
 4725SOL     OW15073   6.009   5.368   2.698
 4725SOL    HW115074   5.975   5.276   2.678
 4725SOL    HW215075   5.933   5.432   2.703
 4726SOL     OW15076   0.094   6.571   4.517
 4726SOL    HW115077   0.088   6.670   4.499
 4726SOL    HW215078   0.188   6.541   4.508
 4727SOL     OW15079   5.709   6.590   1.951
 4727SOL    HW115080   5.666   6.678   1.972
 4727SOL    HW215081   5.726   6.540   2.036
 4728SOL     OW15082   6.601   6.956   6.820
 4728SOL    HW115083   6.597   6.964   6.720
 4728SOL    HW215084   6.562   0.017   6.862
 4729SOL     OW15085   3.014   0.791   0.956
 4729SOL    HW115086   3.108   0.762   0.938
 4729SOL    HW215087   3.006   0.820   1.051
 4730SOL     OW15088   1.919   0.319   6.058
 4730SOL    HW115089   1.857   0.240   6.050
 4730SOL    HW215090   1.890   0.376   6.135
 4731SOL     OW15091   4.423   1.280   5.755
 4731SOL    HW115092   4.388   1.369   5.783
 4731SOL    HW215093   4.359   1.208   5.783
 4732SOL     OW15094   0.760   6.623   6.704
 4732SOL    HW115095   0.831   6.554   6.690
 4732SOL    HW215096   0.713   6.642   6.618
 4733SOL     OW15097   5.709   3.865   3.375
 4733SOL    HW115098   5.704   3.965   3.380
 4733SOL    HW215099   5.776   3.832   3.442
 4734SOL     OW15100   6.315   3.665   5.807
 4734SOL    HW115101   6.253   3.676   5.730
 4734SOL    HW215102   6.394   3.610   5.778
 4735SOL     OW15103   0.429   4.145   3.344
 4735SOL    HW115104   0.512   4.106   3.384
 4735SOL    HW215105   0.384   4.077   3.287
 4736SOL     OW15106   1.825   6.959   2.261
 4736SOL    HW115107   1.808   6.886   2.195
 4736SOL    HW215108   1.749   6.964   2.325
 4737SOL     OW15109   3.261   5.201   2.172
 4737SOL    HW115110   3.314   5.128   2.129
 4737SOL    HW215111   3.203   5.244   2.103
 4738SOL     OW15112   1.200   6.959   2.958
 4738SOL    HW115113   1.282   6.975   3.013
 4738SOL    HW215114   1.226   6.926   2.867
 4739SOL     OW15115   4.032   0.180   1.429
 4739SOL    HW115116   4.008   0.236   1.508
 4739SOL    HW215117   3.960   0.188   1.360
 4740SOL     OW15118   0.644   2.067   4.358
 4740SOL    HW115119   0.734   2.037   4.326
 4740SOL    HW215120   0.640   2.057   4.458
 4741SOL     OW15121   3.986   3.867   3.445
 4741SOL    HW115122   3.926   3.946   3.447
 4741SOL    HW215123   3.962   3.803   3.518
 4742SOL     OW15124   5.231   1.322   2.458
 4742SOL    HW115125   5.237   1.411   2.413
 4742SOL    HW215126   5.279   1.325   2.546
 4743SOL     OW15127   0.883   5.329   0.809
 4743SOL    HW115128   0.847   5.357   0.898
 4743SOL    HW215129   0.940   5.247   0.820
 4744SOL     OW15130   1.766   5.467   1.732
 4744SOL    HW115131   1.783   5.559   1.767
 4744SOL    HW215132   1.768   5.469   1.632
 4745SOL     OW15133   1.430   3.257   0.293
 4745SOL    HW115134   1.347   3.209   0.266
 4745SOL    HW215135   1.411   3.355   0.298
 4746SOL     OW15136   5.916   5.576   4.454
 4746SOL    HW115137   5.825   5.617   4.461
 4746SOL    HW215138   5.911   5.481   4.485
 4747SOL     OW15139   4.003   0.617   1.039
 4747SOL    HW115140   4.064   0.657   0.970
 4747SOL    HW215141   3.935   0.560   0.993
 4748SOL     OW15142   2.019   6.651   3.232
 4748SOL    HW115143   1.964   6.568   3.236
 4748SOL    HW215144   2.011   6.692   3.141
 4749SOL     OW15145   2.317   1.100   1.010
 4749SOL    HW115146   2.270   1.188   1.019
 4749SOL    HW215147   2.394   1.110   0.948
 4750SOL     OW15148   5.082   3.527   6.946
 4750SOL    HW115149   5.100   3.447   7.003
 4750SOL    HW215150   5.017   3.502   6.874
 4751SOL     OW15151   4.283   1.527   2.666
 4751SOL    HW115152   4.188   1.557   2.661
 4751SOL    HW215153   4.292   1.438   2.620
 4752SOL     OW15154   5.762   0.428   6.857
 4752SOL    HW115155   5.794   0.342   6.817
 4752SOL    HW215156   5.662   0.430   6.856
 4753SOL     OW15157   2.832   5.606   5.169
 4753SOL    HW115158   2.803   5.682   5.226
 4753SOL    HW215159   2.763   5.534   5.170
 4754SOL     OW15160   5.590   4.667   0.411
 4754SOL    HW115161   5.652   4.696   0.484
 4754SOL    HW215162   5.523   4.602   0.448
 4755SOL     OW15163   0.331   0.972   1.482
 4755SOL    HW115164   0.342   1.036   1.406
 4755SOL    HW215165   0.245   0.991   1.529
 4756SOL     OW15166   0.013   3.999   4.979
 4756SOL    HW115167   6.973   3.928   4.944
 4756SOL    HW215168   0.031   4.066   4.907
 4757SOL     OW15169   2.207   3.133   0.939
 4757SOL    HW115170   2.233   3.107   0.845
 4757SOL    HW215171   2.282   3.111   1.001
 4758SOL     OW15172   2.035   4.890   2.259
 4758SOL    HW115173   2.089   4.959   2.307
 4758SOL    HW215174   2.069   4.799   2.284
 4759SOL     OW15175   0.658   6.848   2.973
 4759SOL    HW115176   0.629   6.913   2.903
 4759SOL    HW215177   0.758   6.853   2.983
 4760SOL     OW15178   1.243   6.762   2.272
 4760SOL    HW115179   1.269   6.812   2.355
 4760SOL    HW215180   1.230   6.666   2.293
 4761SOL     OW15181   4.254   6.493   2.387
 4761SOL    HW115182   4.315   6.507   2.465
 4761SOL    HW215183   4.265   6.400   2.353
 4762SOL     OW15184   1.081   0.917   2.556
 4762SOL    HW115185   1.001   0.955   2.602
 4762SOL    HW215186   1.060   0.903   2.459
 4763SOL     OW15187   5.283   5.211   1.535
 4763SOL    HW115188   5.350   5.269   1.581
 4763SOL    HW215189   5.307   5.203   1.438
 4764SOL     OW15190   4.935   2.839   6.793
 4764SOL    HW115191   4.843   2.812   6.822
 4764SOL    HW215192   4.930   2.924   6.740
 4765SOL     OW15193   3.668   1.297   5.673
 4765SOL    HW115194   3.619   1.231   5.616
 4765SOL    HW215195   3.674   1.263   5.767
 4766SOL     OW15196   1.198   0.488   3.790
 4766SOL    HW115197   1.108   0.447   3.774
 4766SOL    HW215198   1.242   0.507   3.703
 4767SOL     OW15199   2.550   4.512   3.468
 4767SOL    HW115200   2.554   4.606   3.435
 4767SOL    HW215201   2.539   4.449   3.391
 4768SOL     OW15202   4.472   2.138   6.249
 4768SOL    HW115203   4.443   2.068   6.314
 4768SOL    HW215204   4.536   2.200   6.294
 4769SOL     OW15205   2.991   3.346   0.807
 4769SOL    HW115206   2.917   3.370   0.744
 4769SOL    HW215207   2.953   3.331   0.898
 4770SOL     OW15208   6.748   1.891   3.722
 4770SOL    HW115209   6.806   1.884   3.641
 4770SOL    HW215210   6.736   1.801   3.763
 4771SOL     OW15211   3.231   1.034   4.571
 4771SOL    HW115212   3.252   1.030   4.474
 4771SOL    HW215213   3.228   1.130   4.601
 4772SOL     OW15214   2.596   4.901   2.991
 4772SOL    HW115215   2.569   4.997   2.998
 4772SOL    HW215216   2.635   4.884   2.900
 4773SOL     OW15217   3.013   5.634   4.242
 4773SOL    HW115218   2.990   5.731   4.232
 4773SOL    HW215219   3.094   5.613   4.188
 4774SOL     OW15220   1.089   4.657   0.335
 4774SOL    HW115221   1.173   4.712   0.335
 4774SOL    HW215222   1.023   4.698   0.398
 4775SOL     OW15223   5.702   4.825   4.335
 4775SOL    HW115224   5.641   4.839   4.414
 4775SOL    HW215225   5.785   4.779   4.366
 4776SOL     OW15226   6.650   1.653   4.639
 4776SOL    HW115227   6.672   1.560   4.667
 4776SOL    HW215228   6.719   1.686   4.575
 4777SOL     OW15229   1.351   6.253   3.631
 4777SOL    HW115230   1.439   6.208   3.619
 4777SOL    HW215231   1.360   6.350   3.609
 4778SOL     OW15232   1.586   0.121   0.483
 4778SOL    HW115233   1.660   0.093   0.544
 4778SOL    HW215234   1.619   0.124   0.388
 4779SOL     OW15235   4.829   1.750   4.402
 4779SOL    HW115236   4.745   1.733   4.350
 4779SOL    HW215237   4.815   1.722   4.497
 4780SOL     OW15238   5.004   2.799   5.000
 4780SOL    HW115239   4.920   2.791   4.946
 4780SOL    HW215240   5.059   2.875   4.965
 4781SOL     OW15241   2.622   5.221   2.151
 4781SOL    HW115242   2.630   5.255   2.057
 4781SOL    HW215243   2.593   5.126   2.150
 4782SOL     OW15244   1.190   6.499   3.472
 4782SOL    HW115245   1.250   6.550   3.533
 4782SOL    HW215246   1.221   6.510   3.378
 4783SOL     OW15247   0.800   4.256   6.666
 4783SOL    HW115248   0.745   4.309   6.730
 4783SOL    HW215249   0.897   4.274   6.683
 4784SOL     OW15250   6.069   2.691   0.079
 4784SOL    HW115251   6.114   2.619   0.132
 4784SOL    HW215252   5.969   2.681   0.089
 4785SOL     OW15253   0.162   1.082   4.292
 4785SOL    HW115254   0.187   1.179   4.289
 4785SOL    HW215255   0.165   1.044   4.200
 4786SOL     OW15256   1.783   6.043   0.231
 4786SOL    HW115257   1.685   6.063   0.223
 4786SOL    HW215258   1.817   6.078   0.318
 4787SOL     OW15259   4.804   0.894   5.006
 4787SOL    HW115260   4.903   0.880   4.997
 4787SOL    HW215261   4.786   0.989   5.031
 4788SOL     OW15262   6.667   6.213   0.974
 4788SOL    HW115263   6.764   6.190   0.984
 4788SOL    HW215264   6.625   6.149   0.909
 4789SOL     OW15265   6.287   1.113   2.261
 4789SOL    HW115266   6.330   1.192   2.304
 4789SOL    HW215267   6.356   1.061   2.210
 4790SOL     OW15268   0.418   2.643   5.819
 4790SOL    HW115269   0.489   2.574   5.834
 4790SOL    HW215270   0.329   2.598   5.810
 4791SOL     OW15271   0.982   0.563   6.586
 4791SOL    HW115272   0.884   0.548   6.579
 4791SOL    HW215273   1.022   0.499   6.652
 4792SOL     OW15274   0.484   3.631   1.402
 4792SOL    HW115275   0.505   3.727   1.420
 4792SOL    HW215276   0.489   3.579   1.487
 4793SOL     OW15277   0.801   3.256   5.324
 4793SOL    HW115278   0.888   3.300   5.302
 4793SOL    HW215279   0.798   3.166   5.282
 4794SOL     OW15280   5.229   1.280   6.630
 4794SOL    HW115281   5.238   1.258   6.727
 4794SOL    HW215282   5.314   1.321   6.597
 4795SOL     OW15283   6.748   0.012   0.116
 4795SOL    HW115284   6.658   0.045   0.142
 4795SOL    HW215285   6.764   6.944   0.158
 4796SOL     OW15286   5.953   0.868   5.966
 4796SOL    HW115287   5.916   0.795   5.909
 4796SOL    HW215288   5.886   0.894   6.036
 4797SOL     OW15289   3.063   4.727   5.601
 4797SOL    HW115290   3.140   4.666   5.617
 4797SOL    HW215291   3.089   4.821   5.622
 4798SOL     OW15292   3.465   5.565   0.226
 4798SOL    HW115293   3.398   5.500   0.190
 4798SOL    HW215294   3.507   5.528   0.309
 4799SOL     OW15295   4.396   3.972   1.241
 4799SOL    HW115296   4.448   3.886   1.237
 4799SOL    HW215297   4.458   4.047   1.266
 4800SOL     OW15298   0.943   5.010   0.378
 4800SOL    HW115299   0.906   4.917   0.378
 4800SOL    HW215300   1.029   5.012   0.326
 4801SOL     OW15301   4.878   3.670   3.580
 4801SOL    HW115302   4.900   3.626   3.667
 4801SOL    HW215303   4.837   3.759   3.598
 4802SOL     OW15304   6.872   0.767   5.166
 4802SOL    HW115305   6.828   0.846   5.207
 4802SOL    HW215306   6.931   0.723   5.234
 4803SOL     OW15307   5.530   3.236   5.584
 4803SOL    HW115308   5.510   3.238   5.486
 4803SOL    HW215309   5.472   3.168   5.628
 4804SOL     OW15310   5.512   3.184   1.230
 4804SOL    HW115311   5.475   3.273   1.205
 4804SOL    HW215312   5.605   3.176   1.194
 4805SOL     OW15313   5.892   0.638   6.350
 4805SOL    HW115314   5.897   0.629   6.449
 4805SOL    HW215315   5.970   0.691   6.317
 4806SOL     OW15316   1.690   2.940   3.856
 4806SOL    HW115317   1.632   2.935   3.775
 4806SOL    HW215318   1.786   2.940   3.827
 4807SOL     OW15319   1.342   3.746   0.705
 4807SOL    HW115320   1.366   3.829   0.654
 4807SOL    HW215321   1.254   3.759   0.750
 4808SOL     OW15322   3.260   6.585   3.075
 4808SOL    HW115323   3.276   6.682   3.055
 4808SOL    HW215324   3.329   6.553   3.140
 4809SOL     OW15325   2.686   4.025   0.379
 4809SOL    HW115326   2.772   4.038   0.428
 4809SOL    HW215327   2.700   4.036   0.281
 4810SOL     OW15328   1.962   5.044   4.839
 4810SOL    HW115329   1.938   5.113   4.908
 4810SOL    HW215330   1.881   4.991   4.816
 4811SOL     OW15331   3.065   3.034   4.736
 4811SOL    HW115332   3.068   3.044   4.636
 4811SOL    HW215333   3.017   3.113   4.775
 4812SOL     OW15334   2.371   6.438   1.640
 4812SOL    HW115335   2.425   6.492   1.576
 4812SOL    HW215336   2.407   6.451   1.733
 4813SOL     OW15337   1.173   2.583   4.754
 4813SOL    HW115338   1.239   2.620   4.819
 4813SOL    HW215339   1.211   2.588   4.662
 4814SOL     OW15340   4.567   1.076   0.634
 4814SOL    HW115341   4.489   1.024   0.667
 4814SOL    HW215342   4.652   1.042   0.675
 4815SOL     OW15343   6.790   4.339   2.844
 4815SOL    HW115344   6.751   4.317   2.934
 4815SOL    HW215345   6.772   4.264   2.780
 4816SOL     OW15346   2.518   0.576   2.759
 4816SOL    HW115347   2.618   0.577   2.768
 4816SOL    HW215348   2.488   0.659   2.713
 4817SOL     OW15349   4.055   3.000   0.430
 4817SOL    HW115350   3.976   2.941   0.445
 4817SOL    HW215351   4.029   3.095   0.441
 4818SOL     OW15352   4.717   6.396   5.456
 4818SOL    HW115353   4.682   6.313   5.413
 4818SOL    HW215354   4.815   6.403   5.441
 4819SOL     OW15355   3.176   0.707   0.584
 4819SOL    HW115356   3.252   0.643   0.570
 4819SOL    HW215357   3.209   0.786   0.636
 4820SOL     OW15358   0.525   4.825   1.503
 4820SOL    HW115359   0.601   4.868   1.552
 4820SOL    HW215360   0.438   4.863   1.536
 4821SOL     OW15361   6.671   5.975   1.247
 4821SOL    HW115362   6.689   5.927   1.162
 4821SOL    HW215363   6.751   6.030   1.272
 4822SOL     OW15364   0.313   3.603   1.732
 4822SOL    HW115365   0.390   3.541   1.716
 4822SOL    HW215366   0.237   3.579   1.672
 4823SOL     OW15367   0.034   1.999   2.768
 4823SOL    HW115368   0.134   2.006   2.757
 4823SOL    HW215369   7.021   2.082   2.811
 4824SOL     OW15370   4.658   1.930   2.495
 4824SOL    HW115371   4.724   1.903   2.425
 4824SOL    HW215372   4.700   1.924   2.586
 4825SOL     OW15373   1.896   3.659   4.785
 4825SOL    HW115374   1.851   3.585   4.836
 4825SOL    HW215375   1.835   3.737   4.778
 4826SOL     OW15376   0.413   6.346   0.234
 4826SOL    HW115377   0.476   6.328   0.158
 4826SOL    HW215378   0.461   6.330   0.320
 4827SOL     OW15379   4.957   0.957   0.121
 4827SOL    HW115380   4.973   1.034   0.182
 4827SOL    HW215381   4.991   0.979   0.029
 4828SOL     OW15382   6.269   2.602   6.510
 4828SOL    HW115383   6.240   2.674   6.572
 4828SOL    HW215384   6.234   2.514   6.542
 4829SOL     OW15385   2.568   0.552   6.015
 4829SOL    HW115386   2.504   0.498   5.962
 4829SOL    HW215387   2.572   0.517   6.109
 4830SOL     OW15388   4.678   4.673   4.370
 4830SOL    HW115389   4.690   4.654   4.467
 4830SOL    HW215390   4.714   4.764   4.349
 4831SOL     OW15391   6.509   2.000   6.286
 4831SOL    HW115392   6.588   1.960   6.331
 4831SOL    HW215393   6.478   1.939   6.213
 4832SOL     OW15394   1.323   2.722   6.543
 4832SOL    HW115395   1.405   2.776   6.562
 4832SOL    HW215396   1.252   2.744   6.609
 4833SOL     OW15397   6.526   2.808   2.638
 4833SOL    HW115398   6.453   2.816   2.570
 4833SOL    HW215399   6.611   2.782   2.593
 4834SOL     OW15400   5.831   0.644   2.877
 4834SOL    HW115401   5.858   0.606   2.966
 4834SOL    HW215402   5.744   0.692   2.886
 4835SOL     OW15403   2.027   1.664   6.070
 4835SOL    HW115404   2.064   1.643   5.980
 4835SOL    HW215405   1.955   1.734   6.061
 4836SOL     OW15406   5.939   4.604   3.520
 4836SOL    HW115407   5.972   4.538   3.588
 4836SOL    HW215408   5.861   4.564   3.471
 4837SOL     OW15409   0.253   4.879   1.599
 4837SOL    HW115410   0.207   4.963   1.629
 4837SOL    HW215411   0.232   4.863   1.502
 4838SOL     OW15412   2.730   6.186   2.543
 4838SOL    HW115413   2.746   6.219   2.637
 4838SOL    HW215414   2.654   6.120   2.544
 4839SOL     OW15415   0.627   6.763   6.140
 4839SOL    HW115416   0.598   6.688   6.198
 4839SOL    HW215417   0.615   6.850   6.188
 4840SOL     OW15418   6.622   5.312   5.653
 4840SOL    HW115419   6.589   5.218   5.663
 4840SOL    HW215420   6.706   5.312   5.598
 4841SOL     OW15421   1.806   5.468   1.444
 4841SOL    HW115422   1.800   5.553   1.391
 4841SOL    HW215423   1.901   5.438   1.448
 4842SOL     OW15424   3.390   6.658   0.565
 4842SOL    HW115425   3.392   6.562   0.537
 4842SOL    HW215426   3.359   6.664   0.660
 4843SOL     OW15427   1.825   3.925   0.568
 4843SOL    HW115428   1.867   3.872   0.495
 4843SOL    HW215429   1.890   3.992   0.603
 4844SOL     OW15430   0.479   1.294   5.115
 4844SOL    HW115431   0.433   1.210   5.084
 4844SOL    HW215432   0.412   1.368   5.121
 4845SOL     OW15433   5.782   0.051   3.157
 4845SOL    HW115434   5.836   7.003   3.109
 4845SOL    HW215435   5.693   0.013   3.181
 4846SOL     OW15436   6.493   4.298   5.755
 4846SOL    HW115437   6.481   4.392   5.724
 4846SOL    HW215438   6.588   4.269   5.739
 4847SOL     OW15439   4.973   3.179   4.666
 4847SOL    HW115440   4.906   3.109   4.688
 4847SOL    HW215441   5.064   3.138   4.660
 4848SOL     OW15442   3.096   3.544   1.226
 4848SOL    HW115443   3.147   3.580   1.303
 4848SOL    HW215444   3.091   3.614   1.154
 4849SOL     OW15445   2.072   6.148   6.427
 4849SOL    HW115446   2.051   6.069   6.369
 4849SOL    HW215447   2.171   6.161   6.432
 4850SOL     OW15448   3.515   6.851   2.660
 4850SOL    HW115449   3.521   6.928   2.597
 4850SOL    HW215450   3.423   6.811   2.656
 4851SOL     OW15451   5.027   1.334   5.439
 4851SOL    HW115452   4.969   1.327   5.520
 4851SOL    HW215453   5.103   1.396   5.457
 4852SOL     OW15454   1.392   1.942   1.758
 4852SOL    HW115455   1.428   1.870   1.698
 4852SOL    HW215456   1.462   2.013   1.769
 4853SOL     OW15457   3.604   0.754   1.310
 4853SOL    HW115458   3.687   0.802   1.338
 4853SOL    HW215459   3.543   0.744   1.389
 4854SOL     OW15460   4.072   6.786   5.757
 4854SOL    HW115461   4.064   6.699   5.707
 4854SOL    HW215462   4.058   6.770   5.854
 4855SOL     OW15463   0.582   2.819   2.484
 4855SOL    HW115464   0.549   2.877   2.409
 4855SOL    HW215465   0.551   2.725   2.470
 4856SOL     OW15466   0.231   4.789   2.721
 4856SOL    HW115467   0.134   4.807   2.702
 4856SOL    HW215468   0.241   4.694   2.751
 4857SOL     OW15469   0.152   0.986   5.301
 4857SOL    HW115470   0.177   0.931   5.381
 4857SOL    HW215471   0.155   0.930   5.219
 4858SOL     OW15472   1.571   0.504   3.716
 4858SOL    HW115473   1.498   0.488   3.649
 4858SOL    HW215474   1.534   0.494   3.809
 4859SOL     OW15475   3.446   6.477   6.270
 4859SOL    HW115476   3.382   6.401   6.264
 4859SOL    HW215477   3.531   6.454   6.222
 4860SOL     OW15478   3.261   5.289   0.507
 4860SOL    HW115479   3.174   5.327   0.477
 4860SOL    HW215480   3.256   5.189   0.505
 4861SOL     OW15481   3.977   4.264   6.213
 4861SOL    HW115482   3.887   4.263   6.258
 4861SOL    HW215483   3.987   4.182   6.157
 4862SOL     OW15484   2.131   0.035   0.364
 4862SOL    HW115485   2.179   0.090   0.432
 4862SOL    HW215486   2.067   0.093   0.313
 4863SOL     OW15487   5.617   3.741   5.913
 4863SOL    HW115488   5.592   3.820   5.970
 4863SOL    HW215489   5.538   3.680   5.905
 4864SOL     OW15490   3.405   1.141   4.025
 4864SOL    HW115491   3.375   1.227   3.984
 4864SOL    HW215492   3.491   1.155   4.073
 4865SOL     OW15493   1.268   6.377   5.115
 4865SOL    HW115494   1.338   6.380   5.186
 4865SOL    HW215495   1.268   6.287   5.072
 4866SOL     OW15496   6.850   4.122   5.854
 4866SOL    HW115497   6.828   4.033   5.893
 4866SOL    HW215498   6.948   4.139   5.861
 4867SOL     OW15499   3.780   0.739   3.061
 4867SOL    HW115500   3.836   0.818   3.039
 4867SOL    HW215501   3.725   0.714   2.981
 4868SOL     OW15502   0.579   5.587   1.333
 4868SOL    HW115503   0.572   5.650   1.256
 4868SOL    HW215504   0.643   5.623   1.400
 4869SOL     OW15505   0.005   1.428   0.951
 4869SOL    HW115506   0.073   1.359   0.928
 4869SOL    HW215507   0.025   1.512   0.899
 4870SOL     OW15508   0.652   0.377   1.279
 4870SOL    HW115509   0.645   0.305   1.347
 4870SOL    HW215510   0.576   0.370   1.214
 4871SOL     OW15511   0.441   2.219   4.023
 4871SOL    HW115512   0.428   2.199   4.120
 4871SOL    HW215513   0.388   2.154   3.969
 4872SOL     OW15514   5.782   0.330   3.194
 4872SOL    HW115515   5.690   0.368   3.181
 4872SOL    HW215516   5.775   0.231   3.205
 4873SOL     OW15517   0.153   5.865   3.793
 4873SOL    HW115518   0.166   5.786   3.854
 4873SOL    HW215519   0.109   5.939   3.844
 4874SOL     OW15520   6.183   4.500   2.081
 4874SOL    HW115521   6.087   4.507   2.107
 4874SOL    HW215522   6.222   4.418   2.122
 4875SOL     OW15523   6.635   6.659   4.174
 4875SOL    HW115524   6.699   6.733   4.195
 4875SOL    HW215525   6.638   6.590   4.246
 4876SOL     OW15526   6.422   1.602   2.417
 4876SOL    HW115527   6.482   1.615   2.497
 4876SOL    HW215528   6.461   1.651   2.339
 4877SOL     OW15529   0.496   1.641   0.120
 4877SOL    HW115530   0.396   1.636   0.125
 4877SOL    HW215531   0.527   1.599   0.035
 4878SOL     OW15532   5.799   4.638   3.867
 4878SOL    HW115533   5.859   4.673   3.795
 4878SOL    HW215534   5.745   4.714   3.904
 4879SOL     OW15535   6.108   0.714   3.149
 4879SOL    HW115536   6.173   0.658   3.097
 4879SOL    HW215537   6.120   0.810   3.125
 4880SOL     OW15538   6.947   3.008   6.099
 4880SOL    HW115539   0.025   3.008   6.115
 4880SOL    HW215540   6.913   2.914   6.098
 4881SOL     OW15541   0.020   3.782   1.994
 4881SOL    HW115542   0.116   3.810   2.007
 4881SOL    HW215543   0.012   3.730   1.910
 4882SOL     OW15544   5.085   2.315   4.578
 4882SOL    HW115545   5.172   2.300   4.625
 4882SOL    HW215546   5.022   2.240   4.597
 4883SOL     OW15547   0.078   4.213   6.122
 4883SOL    HW115548   0.130   4.208   6.207
 4883SOL    HW215549   0.018   4.134   6.116
 4884SOL     OW15550   1.599   2.121   2.108
 4884SOL    HW115551   1.618   2.065   2.028
 4884SOL    HW215552   1.533   2.074   2.167
 4885SOL     OW15553   1.135   5.582   6.887
 4885SOL    HW115554   1.043   5.619   6.901
 4885SOL    HW215555   1.162   5.596   6.792
 4886SOL     OW15556   3.250   1.043   2.292
 4886SOL    HW115557   3.267   1.123   2.234
 4886SOL    HW215558   3.324   0.977   2.281
 4887SOL     OW15559   4.934   5.340   0.621
 4887SOL    HW115560   4.901   5.267   0.681
 4887SOL    HW215561   4.900   5.325   0.528
 4888SOL     OW15562   4.517   0.028   2.730
 4888SOL    HW115563   4.477   0.033   2.639
 4888SOL    HW215564   4.610   0.065   2.728
 4889SOL     OW15565   5.306   3.736   3.785
 4889SOL    HW115566   5.277   3.829   3.810
 4889SOL    HW215567   5.332   3.733   3.689
 4890SOL     OW15568   6.484   2.145   4.488
 4890SOL    HW115569   6.390   2.121   4.513
 4890SOL    HW215570   6.486   2.240   4.456
 4891SOL     OW15571   2.414   5.258   0.396
 4891SOL    HW115572   2.428   5.161   0.418
 4891SOL    HW215573   2.332   5.291   0.443
 4892SOL     OW15574   4.885   4.999   2.089
 4892SOL    HW115575   4.860   4.903   2.102
 4892SOL    HW215576   4.921   5.011   1.996
 4893SOL     OW15577   2.003   2.391   1.284
 4893SOL    HW115578   2.059   2.379   1.365
 4893SOL    HW215579   2.055   2.363   1.203
 4894SOL     OW15580   4.996   6.458   0.438
 4894SOL    HW115581   5.020   6.368   0.402
 4894SOL    HW215582   4.904   6.482   0.407
 4895SOL     OW15583   6.208   3.169   5.007
 4895SOL    HW115584   6.287   3.115   4.976
 4895SOL    HW215585   6.125   3.132   4.965
 4896SOL     OW15586   2.543   4.948   4.859
 4896SOL    HW115587   2.627   4.968   4.909
 4896SOL    HW215588   2.515   5.030   4.808
 4897SOL     OW15589   2.506   2.022   5.944
 4897SOL    HW115590   2.521   2.120   5.960
 4897SOL    HW215591   2.515   2.003   5.846
 4898SOL     OW15592   4.122   2.164   3.526
 4898SOL    HW115593   4.135   2.069   3.496
 4898SOL    HW215594   4.144   2.172   3.623
 4899SOL     OW15595   6.337   6.323   1.382
 4899SOL    HW115596   6.315   6.413   1.344
 4899SOL    HW215597   6.394   6.272   1.317
 4900SOL     OW15598   3.650   5.403   6.179
 4900SOL    HW115599   3.615   5.461   6.253
 4900SOL    HW215600   3.576   5.384   6.115
 4901SOL     OW15601   1.960   0.630   6.777
 4901SOL    HW115602   2.059   0.634   6.763
 4901SOL    HW215603   1.937   0.547   6.829
 4902SOL     OW15604   1.963   0.130   5.684
 4902SOL    HW115605   1.980   0.223   5.652
 4902SOL    HW215606   1.901   0.132   5.762
 4903SOL     OW15607   4.906   3.778   2.307
 4903SOL    HW115608   4.858   3.831   2.237
 4903SOL    HW215609   4.940   3.692   2.267
 4904SOL     OW15610   2.208   0.651   2.281
 4904SOL    HW115611   2.252   0.736   2.310
 4904SOL    HW215612   2.252   0.617   2.198
 4905SOL     OW15613   2.661   1.828   1.895
 4905SOL    HW115614   2.614   1.896   1.952
 4905SOL    HW215615   2.652   1.853   1.799
 4906SOL     OW15616   5.170   2.948   4.848
 4906SOL    HW115617   5.152   2.909   4.757
 4906SOL    HW215618   5.268   2.944   4.868
 4907SOL     OW15619   4.107   2.820   0.820
 4907SOL    HW115620   4.171   2.824   0.743
 4907SOL    HW215621   4.080   2.725   0.836
 4908SOL     OW15622   2.557   6.314   6.181
 4908SOL    HW115623   2.610   6.277   6.257
 4908SOL    HW215624   2.539   6.241   6.115
 4909SOL     OW15625   4.808   6.210   4.573
 4909SOL    HW115626   4.790   6.122   4.528
 4909SOL    HW215627   4.756   6.216   4.658
 4910SOL     OW15628   4.331   1.965   6.647
 4910SOL    HW115629   4.372   2.054   6.667
 4910SOL    HW215630   4.341   1.906   6.727
 4911SOL     OW15631   6.736   4.292   3.108
 4911SOL    HW115632   6.775   4.201   3.123
 4911SOL    HW215633   6.789   4.359   3.160
 4912SOL     OW15634   5.751   3.189   4.093
 4912SOL    HW115635   5.828   3.152   4.146
 4912SOL    HW215636   5.729   3.280   4.127
 4913SOL     OW15637   1.042   3.966   5.819
 4913SOL    HW115638   0.970   4.029   5.791
 4913SOL    HW215639   1.123   3.980   5.762
 4914SOL     OW15640   3.468   0.048   4.043
 4914SOL    HW115641   3.497   0.016   4.133
 4914SOL    HW215642   3.406   7.002   4.002
 4915SOL     OW15643   4.553   5.763   5.282
 4915SOL    HW115644   4.498   5.682   5.263
 4915SOL    HW215645   4.640   5.735   5.324
 4916SOL     OW15646   5.601   2.676   3.690
 4916SOL    HW115647   5.580   2.773   3.683
 4916SOL    HW215648   5.516   2.623   3.688
 4917SOL     OW15649   4.828   6.702   6.683
 4917SOL    HW115650   4.926   6.720   6.691
 4917SOL    HW215651   4.789   6.762   6.613
 4918SOL     OW15652   5.103   6.012   3.730
 4918SOL    HW115653   5.102   6.082   3.802
 4918SOL    HW215654   5.084   5.922   3.770
 4919SOL     OW15655   4.176   4.053   1.741
 4919SOL    HW115656   4.242   3.988   1.702
 4919SOL    HW215657   4.225   4.133   1.775
 4920SOL     OW15658   6.278   1.072   5.615
 4920SOL    HW115659   6.234   1.050   5.702
 4920SOL    HW215660   6.244   1.011   5.544
 4921SOL     OW15661   6.574   0.352   2.135
 4921SOL    HW115662   6.652   0.405   2.103
 4921SOL    HW215663   6.607   0.275   2.191
 4922SOL     OW15664   3.827   0.334   6.058
 4922SOL    HW115665   3.925   0.344   6.039
 4922SOL    HW215666   3.790   0.260   6.003
 4923SOL     OW15667   4.182   1.331   2.098
 4923SOL    HW115668   4.261   1.333   2.037
 4923SOL    HW215669   4.193   1.399   2.170
 4924SOL     OW15670   2.748   1.735   5.405
 4924SOL    HW115671   2.756   1.636   5.398
 4924SOL    HW215672   2.736   1.774   5.313
 4925SOL     OW15673   5.326   0.064   3.743
 4925SOL    HW115674   5.271   0.043   3.663
 4925SOL    HW215675   5.373   0.151   3.729
 4926SOL     OW15676   4.807   2.561   2.143
 4926SOL    HW115677   4.855   2.537   2.059
 4926SOL    HW215678   4.824   2.657   2.166
 4927SOL     OW15679   2.285   1.654   0.500
 4927SOL    HW115680   2.370   1.608   0.476
 4927SOL    HW215681   2.224   1.655   0.421
 4928SOL     OW15682   0.688   1.679   0.962
 4928SOL    HW115683   0.639   1.594   0.981
 4928SOL    HW215684   0.772   1.659   0.912
 4929SOL     OW15685   6.426   0.312   4.993
 4929SOL    HW115686   6.463   0.403   4.972
 4929SOL    HW215687   6.376   0.315   5.079
 4930SOL     OW15688   4.777   5.731   2.635
 4930SOL    HW115689   4.774   5.830   2.628
 4930SOL    HW215690   4.854   5.703   2.693
 4931SOL     OW15691   5.040   7.021   1.427
 4931SOL    HW115692   4.944   6.994   1.416
 4931SOL    HW215693   5.095   6.939   1.445
 4932SOL     OW15694   3.224   4.152   3.399
 4932SOL    HW115695   3.167   4.215   3.347
 4932SOL    HW215696   3.250   4.075   3.341
 4933SOL     OW15697   1.698   0.521   5.377
 4933SOL    HW115698   1.760   0.599   5.372
 4933SOL    HW215699   1.747   0.438   5.352
 4934SOL     OW15700   2.261   0.216   3.314
 4934SOL    HW115701   2.340   0.165   3.346
 4934SOL    HW215702   2.240   0.289   3.379
 4935SOL     OW15703   6.052   0.339   4.524
 4935SOL    HW115704   6.048   0.241   4.504
 4935SOL    HW215705   6.145   0.372   4.512
 4936SOL     OW15706   5.171   3.358   0.517
 4936SOL    HW115707   5.166   3.267   0.556
 4936SOL    HW215708   5.083   3.380   0.474
 4937SOL     OW15709   3.718   2.596   5.406
 4937SOL    HW115710   3.773   2.665   5.360
 4937SOL    HW215711   3.738   2.597   5.504
 4938SOL     OW15712   2.986   4.798   6.885
 4938SOL    HW115713   3.009   4.721   6.944
 4938SOL    HW215714   2.968   4.765   6.793
 4939SOL     OW15715   5.000   3.617   6.392
 4939SOL    HW115716   4.967   3.529   6.358
 4939SOL    HW215717   5.086   3.605   6.442
 4940SOL     OW15718   1.467   5.817   3.699
 4940SOL    HW115719   1.372   5.799   3.672
 4940SOL    HW215720   1.529   5.768   3.638
 4941SOL     OW15721   6.167   0.597   0.510
 4941SOL    HW115722   6.246   0.535   0.515
 4941SOL    HW215723   6.106   0.578   0.587
 4942SOL     OW15724   5.431   2.766   5.676
 4942SOL    HW115725   5.375   2.685   5.657
 4942SOL    HW215726   5.467   2.802   5.590
 4943SOL     OW15727   6.197   3.554   1.502
 4943SOL    HW115728   6.123   3.615   1.472
 4943SOL    HW215729   6.160   3.485   1.564
 4944SOL     OW15730   1.599   3.118   1.828
 4944SOL    HW115731   1.501   3.135   1.828
 4944SOL    HW215732   1.646   3.187   1.883
 4945SOL     OW15733   0.132   5.681   3.999
 4945SOL    HW115734   0.219   5.634   4.014
 4945SOL    HW215735   0.100   5.721   4.085
 4946SOL     OW15736   0.544   4.689   2.014
 4946SOL    HW115737   0.576   4.619   2.078
 4946SOL    HW215738   0.460   4.657   1.969
 4947SOL     OW15739   5.575   0.679   0.559
 4947SOL    HW115740   5.531   0.628   0.485
 4947SOL    HW215741   5.552   0.776   0.550
 4948SOL     OW15742   2.857   1.548   1.921
 4948SOL    HW115743   2.878   1.641   1.953
 4948SOL    HW215744   2.885   1.482   1.991
 4949SOL     OW15745   5.340   2.332   5.839
 4949SOL    HW115746   5.431   2.293   5.830
 4949SOL    HW215747   5.345   2.431   5.831
 4950SOL     OW15748   3.243   5.306   3.991
 4950SOL    HW115749   3.230   5.261   3.903
 4950SOL    HW215750   3.321   5.265   4.038
 4951SOL     OW15751   4.577   2.586   3.985
 4951SOL    HW115752   4.608   2.663   4.040
 4951SOL    HW215753   4.656   2.534   3.952
 4952SOL     OW15754   6.597   5.004   4.205
 4952SOL    HW115755   6.530   5.044   4.143
 4952SOL    HW215756   6.593   4.904   4.199
 4953SOL     OW15757   0.951   4.789   2.286
 4953SOL    HW115758   0.864   4.798   2.334
 4953SOL    HW215759   0.968   4.692   2.265
 4954SOL     OW15760   6.849   6.675   6.057
 4954SOL    HW115761   6.804   6.589   6.083
 4954SOL    HW215762   6.948   6.661   6.055
 4955SOL     OW15763   1.590   0.506   2.017
 4955SOL    HW115764   1.630   0.592   1.986
 4955SOL    HW215765   1.633   0.430   1.967
 4956SOL     OW15766   6.027   6.605   3.262
 4956SOL    HW115767   6.077   6.537   3.314
 4956SOL    HW215768   5.936   6.570   3.238
 4957SOL     OW15769   0.993   5.047   4.481
 4957SOL    HW115770   0.995   5.131   4.427
 4957SOL    HW215771   0.908   4.997   4.462
 4958SOL     OW15772   6.919   6.750   0.056
 4958SOL    HW115773   7.007   6.780   0.094
 4958SOL    HW215774   6.846   6.771   0.122
 4959SOL     OW15775   1.412   1.873   0.471
 4959SOL    HW115776   1.328   1.882   0.525
 4959SOL    HW215777   1.487   1.846   0.531
 4960SOL     OW15778   3.325   6.811   5.542
 4960SOL    HW115779   3.265   6.852   5.474
 4960SOL    HW215780   3.298   6.715   5.557
 4961SOL     OW15781   5.137   0.110   5.334
 4961SOL    HW115782   5.237   0.117   5.336
 4961SOL    HW215783   5.100   0.177   5.270
 4962SOL     OW15784   6.458   2.386   2.480
 4962SOL    HW115785   6.440   2.377   2.578
 4962SOL    HW215786   6.380   2.353   2.429
 4963SOL     OW15787   1.257   4.484   1.779
 4963SOL    HW115788   1.173   4.515   1.733
 4963SOL    HW215789   1.335   4.533   1.742
 4964SOL     OW15790   3.324   0.460   3.028
 4964SOL    HW115791   3.280   0.434   3.114
 4964SOL    HW215792   3.401   0.398   3.010
 4965SOL     OW15793   0.185   5.539   5.738
 4965SOL    HW115794   0.252   5.576   5.674
 4965SOL    HW215795   0.216   5.555   5.832
 4966SOL     OW15796   5.123   5.723   5.133
 4966SOL    HW115797   5.029   5.741   5.163
 4966SOL    HW215798   5.128   5.731   5.034
 4967SOL     OW15799   5.455   0.789   0.211
 4967SOL    HW115800   5.507   0.723   0.157
 4967SOL    HW215801   5.374   0.818   0.159
 4968SOL     OW15802   5.630   4.008   6.439
 4968SOL    HW115803   5.663   3.978   6.349
 4968SOL    HW215804   5.695   4.073   6.478
 4969SOL     OW15805   1.138   1.056   1.251
 4969SOL    HW115806   1.136   1.120   1.328
 4969SOL    HW215807   1.049   1.054   1.207
 4970SOL     OW15808   1.862   1.916   6.577
 4970SOL    HW115809   1.928   1.952   6.642
 4970SOL    HW215810   1.850   1.818   6.593
 4971SOL     OW15811   6.520   5.363   3.443
 4971SOL    HW115812   6.511   5.414   3.529
 4971SOL    HW215813   6.548   5.269   3.462
 4972SOL     OW15814   1.708   2.480   4.678
 4972SOL    HW115815   1.789   2.532   4.650
 4972SOL    HW215816   1.649   2.538   4.734
 4973SOL     OW15817   4.849   5.511   3.141
 4973SOL    HW115818   4.884   5.597   3.105
 4973SOL    HW215819   4.843   5.516   3.241
 4974SOL     OW15820   3.881   6.550   6.348
 4974SOL    HW115821   3.802   6.493   6.327
 4974SOL    HW215822   3.950   6.538   6.277
 4975SOL     OW15823   4.056   6.118   6.870
 4975SOL    HW115824   4.104   6.033   6.890
 4975SOL    HW215825   3.958   6.105   6.885
 4976SOL     OW15826   2.489   1.289   5.069
 4976SOL    HW115827   2.467   1.223   4.997
 4976SOL    HW215828   2.406   1.312   5.119
 4977SOL     OW15829   3.973   3.515   1.891
 4977SOL    HW115830   4.065   3.482   1.868
 4977SOL    HW215831   3.928   3.548   1.808
 4978SOL     OW15832   6.033   3.722   6.455
 4978SOL    HW115833   6.063   3.739   6.361
 4978SOL    HW215834   6.069   3.635   6.487
 4979SOL     OW15835   1.386   2.052   3.604
 4979SOL    HW115836   1.366   1.964   3.647
 4979SOL    HW215837   1.301   2.104   3.594
 4980SOL     OW15838   2.344   4.704   2.785
 4980SOL    HW115839   2.427   4.662   2.748
 4980SOL    HW215840   2.318   4.657   2.869
 4981SOL     OW15841   5.429   5.851   4.947
 4981SOL    HW115842   5.518   5.871   4.904
 4981SOL    HW215843   5.393   5.934   4.989
 4982SOL     OW15844   2.735   0.919   0.080
 4982SOL    HW115845   2.779   1.009   0.087
 4982SOL    HW215846   2.636   0.931   0.075
 4983SOL     OW15847   6.792   2.287   4.149
 4983SOL    HW115848   6.856   2.213   4.131
 4983SOL    HW215849   6.715   2.282   4.086
 4984SOL     OW15850   5.039   5.035   3.539
 4984SOL    HW115851   5.023   5.106   3.608
 4984SOL    HW215852   5.046   5.079   3.449
 4985SOL     OW15853   5.904   3.835   1.324
 4985SOL    HW115854   5.943   3.923   1.296
 4985SOL    HW215855   5.891   3.835   1.423
 4986SOL     OW15856   4.097   4.859   3.588
 4986SOL    HW115857   4.163   4.929   3.562
 4986SOL    HW215858   4.061   4.815   3.506
 4987SOL     OW15859   1.126   2.661   0.006
 4987SOL    HW115860   1.114   2.565   7.005
 4987SOL    HW215861   1.042   2.711   7.008
 4988SOL     OW15862   2.587   2.021   4.838
 4988SOL    HW115863   2.672   2.049   4.793
 4988SOL    HW215864   2.600   1.932   4.881
 4989SOL     OW15865   0.546   0.793   1.270
 4989SOL    HW115866   0.484   0.838   1.206
 4989SOL    HW215867   0.498   0.773   1.355
 4990SOL     OW15868   2.212   2.310   7.016
 4990SOL    HW115869   2.261   2.307   0.082
 4990SOL    HW215870   2.132   2.250   7.020
 4991SOL     OW15871   2.457   1.612   5.917
 4991SOL    HW115872   2.426   1.664   5.997
 4991SOL    HW215873   2.556   1.621   5.908
 4992SOL     OW15874   3.865   0.168   4.571
 4992SOL    HW115875   3.807   0.248   4.578
 4992SOL    HW215876   3.961   0.196   4.577
 4993SOL     OW15877   1.543   6.597   4.918
 4993SOL    HW115878   1.598   6.556   4.846
 4993SOL    HW215879   1.488   6.672   4.879
 4994SOL     OW15880   0.073   5.594   3.462
 4994SOL    HW115881   0.085   5.506   3.507
 4994SOL    HW215882   7.003   5.631   3.484
 4995SOL     OW15883   5.424   2.640   5.286
 4995SOL    HW115884   5.400   2.547   5.314
 4995SOL    HW215885   5.340   2.694   5.275
 4996SOL     OW15886   0.728   2.295   4.054
 4996SOL    HW115887   0.798   2.249   3.999
 4996SOL    HW215888   0.638   2.264   4.024
 4997SOL     OW15889   0.234   2.229   3.614
 4997SOL    HW115890   0.213   2.312   3.667
 4997SOL    HW215891   0.272   2.256   3.525
 4998SOL     OW15892   1.415   5.702   5.826
 4998SOL    HW115893   1.339   5.707   5.761
 4998SOL    HW215894   1.484   5.770   5.801
 4999SOL     OW15895   5.979   5.211   0.909
 4999SOL    HW115896   5.926   5.295   0.896
 4999SOL    HW215897   6.014   5.208   1.002
 5000SOL     OW15898   6.148   5.549   3.864
 5000SOL    HW115899   6.114   5.618   3.927
 5000SOL    HW215900   6.083   5.473   3.859
 5001SOL     OW15901   4.950   3.437   5.344
 5001SOL    HW115902   5.038   3.415   5.387
 5001SOL    HW215903   4.893   3.355   5.341
 5002SOL     OW15904   1.441   2.411   1.824
 5002SOL    HW115905   1.506   2.408   1.749
 5002SOL    HW215906   1.392   2.324   1.830
 5003SOL     OW15907   6.472   5.621   4.555
 5003SOL    HW115908   6.377   5.647   4.567
 5003SOL    HW215909   6.532   5.693   4.589
 5004SOL     OW15910   2.131   4.587   5.885
 5004SOL    HW115911   2.134   4.487   5.897
 5004SOL    HW215912   2.057   4.610   5.822
 5005SOL     OW15913   5.227   2.272   6.844
 5005SOL    HW115914   5.257   2.332   6.918
 5005SOL    HW215915   5.177   2.195   6.882
 5006SOL     OW15916   4.109   5.604   1.898
 5006SOL    HW115917   4.038   5.622   1.966
 5006SOL    HW215918   4.196   5.588   1.945
 5007SOL     OW15919   4.034   1.183   4.564
 5007SOL    HW115920   4.124   1.139   4.562
 5007SOL    HW215921   4.034   1.256   4.633
 5008SOL     OW15922   6.077   1.857   4.091
 5008SOL    HW115923   6.019   1.915   4.149
 5008SOL    HW215924   6.062   1.881   3.995
 5009SOL     OW15925   2.664   6.551   2.148
 5009SOL    HW115926   2.606   6.566   2.229
 5009SOL    HW215927   2.648   6.458   2.113
 5010SOL     OW15928   3.424   3.809   6.006
 5010SOL    HW115929   3.428   3.736   6.075
 5010SOL    HW215930   3.344   3.794   5.948
 5011SOL     OW15931   1.587   1.855   4.333
 5011SOL    HW115932   1.505   1.860   4.389
 5011SOL    HW215933   1.618   1.948   4.312
 5012SOL     OW15934   6.280   2.541   6.913
 5012SOL    HW115935   6.197   2.521   6.860
 5012SOL    HW215936   6.266   2.623   6.968
 5013SOL     OW15937   4.901   1.452   5.216
 5013SOL    HW115938   4.959   1.392   5.271
 5013SOL    HW215939   4.946   1.474   5.130
 5014SOL     OW15940   0.428   4.582   6.380
 5014SOL    HW115941   0.399   4.670   6.343
 5014SOL    HW215942   0.508   4.550   6.329
 5015SOL     OW15943   4.731   2.053   4.182
 5015SOL    HW115944   4.708   2.041   4.278
 5015SOL    HW215945   4.684   2.133   4.146
 5016SOL     OW15946   2.490   5.705   1.816
 5016SOL    HW115947   2.540   5.711   1.902
 5016SOL    HW215948   2.555   5.690   1.741
 5017SOL     OW15949   0.081   2.159   1.319
 5017SOL    HW115950   0.109   2.251   1.292
 5017SOL    HW215951   7.005   2.160   1.345
 5018SOL     OW15952   6.599   5.343   4.254
 5018SOL    HW115953   6.590   5.424   4.195
 5018SOL    HW215954   6.655   5.366   4.334
 5019SOL     OW15955   2.648   5.508   4.609
 5019SOL    HW115956   2.746   5.524   4.592
 5019SOL    HW215957   2.636   5.471   4.701
 5020SOL     OW15958   4.434   5.316   6.912
 5020SOL    HW115959   4.490   5.398   6.895
 5020SOL    HW215960   4.382   5.329   6.996
 5021SOL     OW15961   2.442   4.553   5.679
 5021SOL    HW115962   2.495   4.638   5.675
 5021SOL    HW215963   2.479   4.495   5.751
 5022SOL     OW15964   1.679   3.069   6.550
 5022SOL    HW115965   1.666   3.051   6.453
 5022SOL    HW215966   1.776   3.064   6.573
 5023SOL     OW15967   6.229   3.477   3.866
 5023SOL    HW115968   6.253   3.396   3.812
 5023SOL    HW215969   6.297   3.488   3.939
 5024SOL     OW15970   4.849   3.903   5.251
 5024SOL    HW115971   4.774   3.947   5.201
 5024SOL    HW215972   4.898   3.971   5.304
 5025SOL     OW15973   5.504   0.499   5.259
 5025SOL    HW115974   5.566   0.482   5.183
 5025SOL    HW215975   5.424   0.549   5.227
 5026SOL     OW15976   1.025   5.603   2.486
 5026SOL    HW115977   0.974   5.635   2.566
 5026SOL    HW215978   1.106   5.660   2.473
 5027SOL     OW15979   1.197   5.405   3.697
 5027SOL    HW115980   1.292   5.403   3.666
 5027SOL    HW215981   1.190   5.352   3.782
 5028SOL     OW15982   1.198   6.425   2.728
 5028SOL    HW115983   1.118   6.411   2.669
 5028SOL    HW215984   1.196   6.518   2.765
 5029SOL     OW15985   5.635   0.383   4.542
 5029SOL    HW115986   5.539   0.371   4.565
 5029SOL    HW215987   5.671   0.299   4.503
 5030SOL     OW15988   1.185   5.908   0.447
 5030SOL    HW115989   1.153   5.997   0.479
 5030SOL    HW215990   1.284   5.904   0.453
 5031SOL     OW15991   5.262   0.759   0.043
 5031SOL    HW115992   5.234   0.664   0.029
 5031SOL    HW215993   5.216   0.818   6.997
 5032SOL     OW15994   1.878   5.507   2.413
 5032SOL    HW115995   1.860   5.561   2.331
 5032SOL    HW215996   1.881   5.410   2.389
 5033SOL     OW15997   1.172   4.232   4.702
 5033SOL    HW115998   1.226   4.159   4.746
 5033SOL    HW215999   1.100   4.191   4.646
 5034SOL     OW16000   0.921   2.781   6.011
 5034SOL    HW116001   0.960   2.832   6.088
 5034SOL    HW216002   0.993   2.758   5.947
 5035SOL     OW16003   6.479   4.980   0.642
 5035SOL    HW116004   6.394   4.951   0.685
 5035SOL    HW216005   6.458   5.039   0.563
 5036SOL     OW16006   1.173   1.500   2.751
 5036SOL    HW116007   1.219   1.588   2.746
 5036SOL    HW216008   1.085   1.511   2.797
 5037SOL     OW16009   5.396   4.001   1.091
 5037SOL    HW116010   5.382   4.098   1.072
 5037SOL    HW216011   5.468   3.991   1.160
 5038SOL     OW16012   3.015   5.723   5.858
 5038SOL    HW116013   3.107   5.712   5.820
 5038SOL    HW216014   2.949   5.726   5.783
 5039SOL     OW16015   0.761   3.021   3.641
 5039SOL    HW116016   0.708   2.937   3.638
 5039SOL    HW216017   0.790   3.038   3.735
 5040SOL     OW16018   2.348   3.456   6.735
 5040SOL    HW116019   2.361   3.363   6.769
 5040SOL    HW216020   2.255   3.487   6.757
 5041SOL     OW16021   0.589   5.828   0.049
 5041SOL    HW116022   0.529   5.873   0.115
 5041SOL    HW216023   0.606   5.734   0.078
 5042SOL     OW16024   5.944   1.194   6.579
 5042SOL    HW116025   5.888   1.267   6.541
 5042SOL    HW216026   5.993   1.148   6.506
 5043SOL     OW16027   5.632   6.275   3.890
 5043SOL    HW116028   5.651   6.189   3.936
 5043SOL    HW216029   5.697   6.288   3.815
 5044SOL     OW16030   6.586   4.458   2.131
 5044SOL    HW116031   6.569   4.530   2.064
 5044SOL    HW216032   6.498   4.423   2.164
 5045SOL     OW16033   4.632   2.937   5.642
 5045SOL    HW116034   4.642   3.030   5.606
 5045SOL    HW216035   4.574   2.940   5.724
 5046SOL     OW16036   3.648   2.796   5.884
 5046SOL    HW116037   3.669   2.729   5.813
 5046SOL    HW216038   3.568   2.766   5.936
 5047SOL     OW16039   0.321   2.043   1.916
 5047SOL    HW116040   0.352   2.121   1.862
 5047SOL    HW216041   0.344   1.958   1.867
 5048SOL     OW16042   5.914   4.180   0.786
 5048SOL    HW116043   5.853   4.207   0.860
 5048SOL    HW216044   5.930   4.081   0.790
 5049SOL     OW16045   0.823   0.809   1.045
 5049SOL    HW116046   0.773   0.844   1.124
 5049SOL    HW216047   0.921   0.806   1.066
 5050SOL     OW16048   1.709   3.625   0.720
 5050SOL    HW116049   1.683   3.638   0.816
 5050SOL    HW216050   1.679   3.703   0.666
 5051SOL     OW16051   2.432   3.872   5.904
 5051SOL    HW116052   2.347   3.922   5.891
 5051SOL    HW216053   2.495   3.926   5.960
 5052SOL     OW16054   6.219   3.254   1.370
 5052SOL    HW116055   6.211   3.339   1.318
 5052SOL    HW216056   6.285   3.266   1.445
 5053SOL     OW16057   0.791   3.765   1.320
 5053SOL    HW116058   0.803   3.708   1.239
 5053SOL    HW216059   0.703   3.812   1.316
 5054SOL     OW16060   3.848   5.905   5.077
 5054SOL    HW116061   3.942   5.935   5.061
 5054SOL    HW216062   3.848   5.815   5.120
 5055SOL     OW16063   0.405   0.794   3.977
 5055SOL    HW116064   0.330   0.853   3.945
 5055SOL    HW216065   0.463   0.845   4.040
 5056SOL     OW16066   3.031   1.170   6.383
 5056SOL    HW116067   3.130   1.162   6.396
 5056SOL    HW216068   3.010   1.173   6.285
 5057SOL     OW16069   0.708   3.637   1.930
 5057SOL    HW116070   0.702   3.545   1.970
 5057SOL    HW216071   0.803   3.657   1.908
 5058SOL     OW16072   3.893   2.070   0.132
 5058SOL    HW116073   3.862   1.999   0.196
 5058SOL    HW216074   3.988   2.052   0.107
 5059SOL     OW16075   5.897   2.635   2.603
 5059SOL    HW116076   5.877   2.701   2.531
 5059SOL    HW216077   5.906   2.684   2.690
 5060SOL     OW16078   6.837   2.747   5.427
 5060SOL    HW116079   6.747   2.705   5.433
 5060SOL    HW216080   6.895   2.712   5.501
 5061SOL     OW16081   4.016   2.711   6.177
 5061SOL    HW116082   4.008   2.747   6.270
 5061SOL    HW216083   4.053   2.783   6.117
 5062SOL     OW16084   5.827   1.287   3.349
 5062SOL    HW116085   5.858   1.302   3.443
 5062SOL    HW216086   5.778   1.368   3.316
 5063SOL     OW16087   0.892   0.978   0.202
 5063SOL    HW116088   0.864   0.887   0.173
 5063SOL    HW216089   0.980   0.973   0.248
 5064SOL     OW16090   6.411   5.121   0.194
 5064SOL    HW116091   6.390   5.136   0.097
 5064SOL    HW216092   6.377   5.031   0.221
 5065SOL     OW16093   1.224   1.904   2.490
 5065SOL    HW116094   1.252   1.957   2.571
 5065SOL    HW216095   1.130   1.930   2.465
 5066SOL     OW16096   1.002   4.881   4.214
 5066SOL    HW116097   0.964   4.925   4.133
 5066SOL    HW216098   1.054   4.949   4.267
 5067SOL     OW16099   4.456   2.826   1.060
 5067SOL    HW116100   4.455   2.907   1.001
 5067SOL    HW216101   4.463   2.744   1.004
 5068SOL     OW16102   1.835   6.776   1.158
 5068SOL    HW116103   1.845   6.791   1.060
 5068SOL    HW216104   1.872   6.687   1.183
 5069SOL     OW16105   4.041   4.655   6.163
 5069SOL    HW116106   4.115   4.721   6.163
 5069SOL    HW216107   4.079   4.562   6.163
 5070SOL     OW16108   0.459   3.781   6.813
 5070SOL    HW116109   0.484   3.870   6.777
 5070SOL    HW216110   0.542   3.732   6.840
 5071SOL     OW16111   1.787   6.491   2.806
 5071SOL    HW116112   1.780   6.504   2.905
 5071SOL    HW216113   1.700   6.458   2.771
 5072SOL     OW16114   0.323   2.235   2.577
 5072SOL    HW116115   0.356   2.303   2.642
 5072SOL    HW216116   0.399   2.178   2.545
 5073SOL     OW16117   1.898   1.558   4.253
 5073SOL    HW116118   1.986   1.512   4.267
 5073SOL    HW216119   1.825   1.490   4.253
 5074SOL     OW16120   3.876   2.166   1.332
 5074SOL    HW116121   3.974   2.184   1.326
 5074SOL    HW216122   3.857   2.116   1.417
 5075SOL     OW16123   6.319   2.090   6.471
 5075SOL    HW116124   6.411   2.102   6.433
 5075SOL    HW216125   6.324   2.078   6.570
 5076SOL     OW16126   0.216   1.396   5.883
 5076SOL    HW116127   0.246   1.342   5.804
 5076SOL    HW216128   0.198   1.335   5.960
 5077SOL     OW16129   0.830   4.413   4.254
 5077SOL    HW116130   0.894   4.339   4.232
 5077SOL    HW216131   0.881   4.494   4.282
 5078SOL     OW16132   6.004   1.903   3.066
 5078SOL    HW116133   6.069   1.832   3.094
 5078SOL    HW216134   6.045   1.993   3.078
 5079SOL     OW16135   1.710   3.729   5.780
 5079SOL    HW116136   1.638   3.668   5.747
 5079SOL    HW216137   1.755   3.688   5.859
 5080SOL     OW16138   6.375   6.085   6.724
 5080SOL    HW116139   6.383   6.166   6.782
 5080SOL    HW216140   6.415   6.007   6.771
 5081SOL     OW16141   3.303   4.619   5.689
 5081SOL    HW116142   3.354   4.704   5.682
 5081SOL    HW216143   3.287   4.597   5.785
 5082SOL     OW16144   5.767   0.097   2.530
 5082SOL    HW116145   5.796   0.001   2.520
 5082SOL    HW216146   5.822   0.141   2.600
 5083SOL     OW16147   0.205   0.419   3.301
 5083SOL    HW116148   0.240   0.459   3.217
 5083SOL    HW216149   0.235   0.474   3.379
 5084SOL     OW16150   3.791   5.618   6.041
 5084SOL    HW116151   3.853   5.677   6.094
 5084SOL    HW216152   3.774   5.534   6.093
 5085SOL     OW16153   0.940   3.920   6.748
 5085SOL    HW116154   0.862   3.961   6.701
 5085SOL    HW216155   0.906   3.854   6.815
 5086SOL     OW16156   1.222   4.261   2.276
 5086SOL    HW116157   1.170   4.209   2.209
 5086SOL    HW216158   1.252   4.348   2.236
 5087SOL     OW16159   6.698   5.144   1.736
 5087SOL    HW116160   6.777   5.197   1.705
 5087SOL    HW216161   6.703   5.052   1.698
 5088SOL     OW16162   4.072   4.852   2.479
 5088SOL    HW116163   4.119   4.842   2.391
 5088SOL    HW216164   3.980   4.888   2.464
 5089SOL     OW16165   5.170   5.943   6.146
 5089SOL    HW116166   5.153   5.871   6.213
 5089SOL    HW216167   5.089   5.954   6.088
 5090SOL     OW16168   2.385   6.700   4.271
 5090SOL    HW116169   2.397   6.799   4.263
 5090SOL    HW216170   2.379   6.675   4.368
 5091SOL     OW16171   6.368   5.614   5.358
 5091SOL    HW116172   6.358   5.524   5.401
 5091SOL    HW216173   6.441   5.665   5.404
 5092SOL     OW16174   3.912   3.038   4.843
 5092SOL    HW116175   3.864   2.970   4.787
 5092SOL    HW216176   3.944   2.995   4.928
 5093SOL     OW16177   3.488   2.101   3.383
 5093SOL    HW116178   3.586   2.088   3.373
 5093SOL    HW216179   3.450   2.137   3.297
 5094SOL     OW16180   2.207   5.135   4.857
 5094SOL    HW116181   2.114   5.099   4.844
 5094SOL    HW216182   2.224   5.149   4.954
 5095SOL     OW16183   6.095   2.165   3.063
 5095SOL    HW116184   6.123   2.221   2.985
 5095SOL    HW216185   6.066   2.224   3.138
 5096SOL     OW16186   5.774   2.775   5.573
 5096SOL    HW116187   5.815   2.830   5.645
 5096SOL    HW216188   5.682   2.807   5.554
 5097SOL     OW16189   0.993   0.059   5.844
 5097SOL    HW116190   0.927   0.003   5.794
 5097SOL    HW216191   1.077   0.008   5.857
 5098SOL     OW16192   2.812   2.057   1.157
 5098SOL    HW116193   2.852   1.990   1.219
 5098SOL    HW216194   2.878   2.130   1.140
 5099SOL     OW16195   1.844   5.635   2.159
 5099SOL    HW116196   1.837   5.730   2.129
 5099SOL    HW216197   1.810   5.575   2.087
 5100SOL     OW16198   6.626   3.642   1.273
 5100SOL    HW116199   6.702   3.595   1.318
 5100SOL    HW216200   6.539   3.611   1.313
 5101SOL     OW16201   4.219   2.115   5.640
 5101SOL    HW116202   4.126   2.091   5.666
 5101SOL    HW216203   4.264   2.035   5.599
 5102SOL     OW16204   5.212   4.516   5.218
 5102SOL    HW116205   5.171   4.475   5.136
 5102SOL    HW216206   5.297   4.562   5.192
 5103SOL     OW16207   0.515   0.529   5.428
 5103SOL    HW116208   0.578   0.495   5.357
 5103SOL    HW216209   0.568   0.555   5.509
 5104SOL     OW16210   3.608   3.474   3.924
 5104SOL    HW116211   3.592   3.392   3.978
 5104SOL    HW216212   3.687   3.523   3.960
 5105SOL     OW16213   4.238   2.900   0.079
 5105SOL    HW116214   4.253   2.982   0.024
 5105SOL    HW216215   4.141   2.892   0.101
 5106SOL     OW16216   4.070   0.528   1.511
 5106SOL    HW116217   4.059   0.624   1.539
 5106SOL    HW216218   4.092   0.525   1.413
 5107SOL     OW16219   6.189   4.913   6.391
 5107SOL    HW116220   6.166   4.839   6.454
 5107SOL    HW216221   6.289   4.915   6.378
 5108SOL     OW16222   4.235   4.132   1.075
 5108SOL    HW116223   4.261   4.105   1.168
 5108SOL    HW216224   4.136   4.132   1.066
 5109SOL     OW16225   1.793   2.336   2.142
 5109SOL    HW116226   1.739   2.252   2.138
 5109SOL    HW216227   1.736   2.411   2.176
 5110SOL     OW16228   3.524   5.943   4.962
 5110SOL    HW116229   3.464   5.984   5.030
 5110SOL    HW216230   3.470   5.894   4.894
 5111SOL     OW16231   2.493   5.891   6.344
 5111SOL    HW116232   2.559   5.881   6.269
 5111SOL    HW216233   2.403   5.861   6.312
 5112SOL     OW16234   1.333   4.205   2.536
 5112SOL    HW116235   1.430   4.181   2.543
 5112SOL    HW216236   1.307   4.211   2.439
 5113SOL     OW16237   2.547   4.400   1.315
 5113SOL    HW116238   2.564   4.351   1.230
 5113SOL    HW216239   2.608   4.478   1.322
 5114SOL     OW16240   4.624   4.838   1.720
 5114SOL    HW116241   4.708   4.819   1.771
 5114SOL    HW216242   4.545   4.826   1.780
 5115SOL     OW16243   1.580   4.111   0.308
 5115SOL    HW116244   1.615   4.018   0.319
 5115SOL    HW216245   1.527   4.117   0.224
 5116SOL     OW16246   0.016   6.635   5.586
 5116SOL    HW116247   0.097   6.647   5.528
 5116SOL    HW216248   0.005   6.715   5.645
 5117SOL     OW16249   0.001   3.775   4.096
 5117SOL    HW116250   0.083   3.814   4.055
 5117SOL    HW216251   6.973   3.721   4.027
 5118SOL     OW16252   4.524   5.057   0.026
 5118SOL    HW116253   4.510   5.143   6.998
 5118SOL    HW216254   4.603   5.065   0.087
 5119SOL     OW16255   5.097   1.713   0.435
 5119SOL    HW116256   5.039   1.712   0.353
 5119SOL    HW216257   5.161   1.789   0.431
 5120SOL     OW16258   6.134   6.378   6.565
 5120SOL    HW116259   6.117   6.366   6.663
 5120SOL    HW216260   6.134   6.476   6.543
 5121SOL     OW16261   2.083   3.486   0.037
 5121SOL    HW116262   2.059   3.485   0.134
 5121SOL    HW216263   2.170   3.439   0.023
 5122SOL     OW16264   5.027   5.411   3.455
 5122SOL    HW116265   4.950   5.349   3.440
 5122SOL    HW216266   4.993   5.499   3.487
 5123SOL     OW16267   4.260   2.081   1.648
 5123SOL    HW116268   4.340   2.022   1.660
 5123SOL    HW216269   4.286   2.176   1.659
 5124SOL     OW16270   0.709   5.622   4.220
 5124SOL    HW116271   0.667   5.630   4.311
 5124SOL    HW216272   0.678   5.698   4.163
 5125SOL     OW16273   5.194   2.333   3.783
 5125SOL    HW116274   5.268   2.272   3.812
 5125SOL    HW216275   5.125   2.337   3.856
 5126SOL     OW16276   2.574   0.834   2.194
 5126SOL    HW116277   2.487   0.871   2.229
 5126SOL    HW216278   2.649   0.870   2.250
 5127SOL     OW16279   2.154   6.428   0.920
 5127SOL    HW116280   2.148   6.343   0.973
 5127SOL    HW216281   2.071   6.481   0.933
 5128SOL     OW16282   4.297   0.465   2.098
 5128SOL    HW116283   4.298   0.455   2.197
 5128SOL    HW216284   4.212   0.427   2.062
 5129SOL     OW16285   6.122   5.575   0.048
 5129SOL    HW116286   6.056   5.517   7.020
 5129SOL    HW216287   6.149   5.652   7.010
 5130SOL     OW16288   6.225   4.994   2.120
 5130SOL    HW116289   6.174   5.079   2.122
 5130SOL    HW216290   6.196   4.939   2.041
 5131SOL     OW16291   2.550   2.084   1.969
 5131SOL    HW116292   2.650   2.083   1.972
 5131SOL    HW216293   2.517   2.174   1.999
 5132SOL     OW16294   2.306   6.089   5.607
 5132SOL    HW116295   2.247   6.141   5.545
 5132SOL    HW216296   2.339   6.007   5.561
 5133SOL     OW16297   3.732   6.142   4.965
 5133SOL    HW116298   3.796   6.074   5.001
 5133SOL    HW216299   3.643   6.099   4.950
 5134SOL     OW16300   0.913   2.948   6.847
 5134SOL    HW116301   0.955   2.927   6.759
 5134SOL    HW216302   0.912   3.047   6.861
 5135SOL     OW16303   6.350   1.825   3.808
 5135SOL    HW116304   6.261   1.796   3.771
 5135SOL    HW216305   6.390   1.894   3.747
 5136SOL     OW16306   3.541   2.230   6.404
 5136SOL    HW116307   3.534   2.233   6.504
 5136SOL    HW216308   3.636   2.247   6.376
 5137SOL     OW16309   4.119   3.318   0.210
 5137SOL    HW116310   4.135   3.405   0.257
 5137SOL    HW216311   4.020   3.300   0.207
 5138SOL     OW16312   2.568   2.922   5.902
 5138SOL    HW116313   2.554   2.824   5.897
 5138SOL    HW216314   2.560   2.952   5.997
 5139SOL     OW16315   0.641   6.508   4.236
 5139SOL    HW116316   0.663   6.603   4.260
 5139SOL    HW216317   0.708   6.474   4.170
 5140SOL     OW16318   3.767   3.350   2.404
 5140SOL    HW116319   3.838   3.291   2.364
 5140SOL    HW216320   3.747   3.320   2.497
 5141SOL     OW16321   1.304   3.218   5.515
 5141SOL    HW116322   1.354   3.169   5.586
 5141SOL    HW216323   1.270   3.305   5.552
 5142SOL     OW16324   5.213   3.647   1.910
 5142SOL    HW116325   5.138   3.603   1.861
 5142SOL    HW216326   5.239   3.732   1.862
 5143SOL     OW16327   0.200   4.953   6.040
 5143SOL    HW116328   0.191   4.920   5.946
 5143SOL    HW216329   0.206   5.053   6.040
 5144SOL     OW16330   2.082   1.520   5.163
 5144SOL    HW116331   2.040   1.523   5.254
 5144SOL    HW216332   2.020   1.475   5.099
 5145SOL     OW16333   3.555   5.492   6.430
 5145SOL    HW116334   3.552   5.395   6.453
 5145SOL    HW216335   3.470   5.536   6.461
 5146SOL     OW16336   3.514   5.288   1.283
 5146SOL    HW116337   3.518   5.385   1.307
 5146SOL    HW216338   3.578   5.270   1.208
 5147SOL     OW16339   0.587   5.024   6.278
 5147SOL    HW116340   0.623   5.053   6.190
 5147SOL    HW216341   0.602   4.926   6.291
 5148SOL     OW16342   0.175   0.318   1.597
 5148SOL    HW116343   0.241   0.368   1.540
 5148SOL    HW216344   0.160   0.368   1.682
 5149SOL     OW16345   6.887   0.828   5.778
 5149SOL    HW116346   6.901   0.794   5.685
 5149SOL    HW216347   6.907   0.926   5.782
 5150SOL     OW16348   2.703   5.126   5.406
 5150SOL    HW116349   2.752   5.153   5.490
 5150SOL    HW216350   2.721   5.030   5.387
 5151SOL     OW16351   4.452   0.731   5.984
 5151SOL    HW116352   4.518   0.794   5.943
 5151SOL    HW216353   4.468   0.639   5.947
 5152SOL     OW16354   6.847   4.619   6.646
 5152SOL    HW116355   6.753   4.587   6.655
 5152SOL    HW216356   6.851   4.690   6.575
 5153SOL     OW16357   2.901   3.270   1.493
 5153SOL    HW116358   2.979   3.218   1.459
 5153SOL    HW216359   2.934   3.348   1.546
 5154SOL     OW16360   0.824   4.509   5.437
 5154SOL    HW116361   0.818   4.483   5.534
 5154SOL    HW216362   0.899   4.575   5.425
 5155SOL     OW16363   4.108   0.842   1.921
 5155SOL    HW116364   4.157   0.756   1.909
 5155SOL    HW216365   4.132   0.882   2.009
 5156SOL     OW16366   5.496   3.251   5.290
 5156SOL    HW116367   5.488   3.234   5.192
 5156SOL    HW216368   5.535   3.341   5.305
 5157SOL     OW16369   6.282   2.191   3.604
 5157SOL    HW116370   6.334   2.196   3.519
 5157SOL    HW216371   6.262   2.284   3.637
 5158SOL     OW16372   3.284   0.160   1.827
 5158SOL    HW116373   3.359   0.154   1.893
 5158SOL    HW216374   3.319   0.193   1.740
 5159SOL     OW16375   1.857   3.424   4.938
 5159SOL    HW116376   1.779   3.398   4.994
 5159SOL    HW216377   1.942   3.407   4.989
 5160SOL     OW16378   2.746   2.369   3.555
 5160SOL    HW116379   2.680   2.435   3.592
 5160SOL    HW216380   2.807   2.339   3.628
 5161SOL     OW16381   1.660   3.128   6.912
 5161SOL    HW116382   1.731   3.067   6.877
 5161SOL    HW216383   1.664   3.130   7.012
 5162SOL     OW16384   6.600   5.857   4.632
 5162SOL    HW116385   6.542   5.939   4.640
 5162SOL    HW216386   6.650   5.843   4.717
 5163SOL     OW16387   5.938   4.097   0.409
 5163SOL    HW116388   5.861   4.133   0.461
 5163SOL    HW216389   5.957   4.157   0.331
 5164SOL     OW16390   0.015   6.421   4.799
 5164SOL    HW116391   0.052   6.433   4.706
 5164SOL    HW216392   0.025   6.507   4.849
 5165SOL     OW16393   5.406   4.440   5.672
 5165SOL    HW116394   5.358   4.513   5.623
 5165SOL    HW216395   5.340   4.384   5.722
 5166SOL     OW16396   0.125   6.896   3.039
 5166SOL    HW116397   0.137   6.897   3.138
 5166SOL    HW216398   0.174   6.818   3.000
 5167SOL     OW16399   2.094   0.372   5.589
 5167SOL    HW116400   2.127   0.411   5.503
 5167SOL    HW216401   2.095   0.442   5.660
 5168SOL     OW16402   3.207   2.034   2.131
 5168SOL    HW116403   3.209   2.043   2.031
 5168SOL    HW216404   3.117   2.065   2.164
 5169SOL     OW16405   3.966   5.363   6.509
 5169SOL    HW116406   4.037   5.380   6.577
 5169SOL    HW216407   3.879   5.343   6.554
 5170SOL     OW16408   4.395   5.414   4.241
 5170SOL    HW116409   4.422   5.319   4.256
 5170SOL    HW216410   4.321   5.417   4.173
 5171SOL     OW16411   2.616   4.617   5.249
 5171SOL    HW116412   2.708   4.578   5.240
 5171SOL    HW216413   2.584   4.648   5.160
 5172SOL     OW16414   1.655   3.941   6.248
 5172SOL    HW116415   1.651   3.962   6.150
 5172SOL    HW216416   1.671   4.025   6.300
 5173SOL     OW16417   0.209   2.061   4.445
 5173SOL    HW116418   0.191   2.157   4.468
 5173SOL    HW216419   0.268   2.057   4.365
 5174SOL     OW16420   3.084   5.429   6.876
 5174SOL    HW116421   3.055   5.341   6.914
 5174SOL    HW216422   3.078   5.426   6.776
 5175SOL     OW16423   1.024   5.331   6.918
 5175SOL    HW116424   0.953   5.317   6.849
 5175SOL    HW216425   1.057   5.426   6.912
 5176SOL     OW16426   5.803   3.172   6.710
 5176SOL    HW116427   5.737   3.097   6.721
 5176SOL    HW216428   5.758   3.258   6.734
 5177SOL     OW16429   4.355   4.678   6.616
 5177SOL    HW116430   4.277   4.630   6.577
 5177SOL    HW216431   4.389   4.628   6.696
 5178SOL     OW16432   3.363   4.411   0.195
 5178SOL    HW116433   3.371   4.454   0.105
 5178SOL    HW216434   3.368   4.481   0.266
 5179SOL     OW16435   2.807   6.124   5.503
 5179SOL    HW116436   2.905   6.123   5.526
 5179SOL    HW216437   2.797   6.126   5.404
 5180SOL     OW16438   4.615   1.540   6.845
 5180SOL    HW116439   4.522   1.577   6.846
 5180SOL    HW216440   4.659   1.564   6.758
 5181SOL     OW16441   3.489   6.465   2.533
 5181SOL    HW116442   3.493   6.388   2.469
 5181SOL    HW216443   3.447   6.543   2.487
 5182SOL     OW16444   4.922   3.928   1.043
 5182SOL    HW116445   4.859   3.850   1.039
 5182SOL    HW216446   4.907   3.978   1.129
 5183SOL     OW16447   3.458   0.908   3.867
 5183SOL    HW116448   3.521   0.954   3.805
 5183SOL    HW216449   3.419   0.974   3.931
 5184SOL     OW16450   1.001   1.810   3.028
 5184SOL    HW116451   1.030   1.758   3.108
 5184SOL    HW216452   0.949   1.750   2.967
 5185SOL     OW16453   3.561   0.214   1.900
 5185SOL    HW116454   3.568   0.134   1.959
 5185SOL    HW216455   3.596   0.294   1.948
 5186SOL     OW16456   5.814   4.115   6.810
 5186SOL    HW116457   5.767   4.028   6.827
 5186SOL    HW216458   5.857   4.146   6.895
 5187SOL     OW16459   5.191   3.745   4.377
 5187SOL    HW116460   5.099   3.754   4.413
 5187SOL    HW216461   5.198   3.794   4.290
 5188SOL     OW16462   0.284   1.097   3.323
 5188SOL    HW116463   0.342   1.177   3.336
 5188SOL    HW216464   0.200   1.107   3.376
 5189SOL     OW16465   4.965   5.252   5.909
 5189SOL    HW116466   5.058   5.279   5.885
 5189SOL    HW216467   4.906   5.333   5.907
 5190SOL     OW16468   2.098   2.091   2.747
 5190SOL    HW116469   2.117   1.995   2.728
 5190SOL    HW216470   2.070   2.136   2.662
 5191SOL     OW16471   5.350   1.030   2.092
 5191SOL    HW116472   5.319   1.121   2.063
 5191SOL    HW216473   5.338   0.966   2.016
 5192SOL     OW16474   6.852   4.233   1.457
 5192SOL    HW116475   6.903   4.259   1.539
 5192SOL    HW216476   6.904   4.166   1.404
 5193SOL     OW16477   3.586   5.294   2.976
 5193SOL    HW116478   3.500   5.277   3.024
 5193SOL    HW216479   3.596   5.227   2.901
 5194SOL     OW16480   4.994   0.718   0.224
 5194SOL    HW116481   4.965   0.810   0.200
 5194SOL    HW216482   5.079   0.695   0.175
 5195SOL     OW16483   0.367   5.510   5.336
 5195SOL    HW116484   0.425   5.525   5.256
 5195SOL    HW216485   0.271   5.509   5.308
 5196SOL     OW16486   1.119   3.237   3.637
 5196SOL    HW116487   1.103   3.215   3.733
 5196SOL    HW216488   1.045   3.295   3.603
 5197SOL     OW16489   3.751   5.969   5.343
 5197SOL    HW116490   3.743   5.873   5.319
 5197SOL    HW216491   3.759   5.979   5.442
 5198SOL     OW16492   4.434   0.728   5.653
 5198SOL    HW116493   4.507   0.789   5.685
 5198SOL    HW216494   4.346   0.777   5.657
 5199SOL     OW16495   0.441   6.204   2.676
 5199SOL    HW116496   0.346   6.173   2.672
 5199SOL    HW216497   0.443   6.304   2.671
 5200SOL     OW16498   5.823   6.506   5.542
 5200SOL    HW116499   5.800   6.409   5.540
 5200SOL    HW216500   5.830   6.541   5.448
 5201SOL     OW16501   0.030   3.814   5.263
 5201SOL    HW116502   6.978   3.838   5.200
 5201SOL    HW216503   0.075   3.897   5.295
 5202SOL     OW16504   3.678   2.221   5.981
 5202SOL    HW116505   3.587   2.230   6.021
 5202SOL    HW216506   3.684   2.134   5.931
 5203SOL     OW16507   0.756   0.378   5.809
 5203SOL    HW116508   0.684   0.309   5.799
 5203SOL    HW216509   0.832   0.338   5.861
 5204SOL     OW16510   2.323   0.452   2.440
 5204SOL    HW116511   2.276   0.529   2.397
 5204SOL    HW216512   2.285   0.367   2.405
 5205SOL     OW16513   6.402   6.854   1.478
 5205SOL    HW116514   6.378   6.908   1.559
 5205SOL    HW216515   6.486   6.803   1.496
 5206SOL     OW16516   1.119   5.292   5.207
 5206SOL    HW116517   1.121   5.199   5.243
 5206SOL    HW216518   1.171   5.295   5.121
 5207SOL     OW16519   4.926   1.335   4.620
 5207SOL    HW116520   4.928   1.274   4.700
 5207SOL    HW216521   5.015   1.333   4.574
 5208SOL     OW16522   6.905   1.494   0.113
 5208SOL    HW116523   6.945   1.520   0.026
 5208SOL    HW216524   6.945   1.549   0.187
 5209SOL     OW16525   5.287   6.031   2.438
 5209SOL    HW116526   5.200   5.991   2.410
 5209SOL    HW216527   5.272   6.097   2.512
 5210SOL     OW16528   6.401   4.354   1.502
 5210SOL    HW116529   6.355   4.271   1.532
 5210SOL    HW216530   6.471   4.331   1.435
 5211SOL     OW16531   4.847   2.914   4.618
 5211SOL    HW116532   4.931   2.860   4.621
 5211SOL    HW216533   4.813   2.917   4.524
 5212SOL     OW16534   6.395   3.562   6.920
 5212SOL    HW116535   6.297   3.555   6.937
 5212SOL    HW216536   6.434   3.635   6.976
 5213SOL     OW16537   3.583   3.206   4.399
 5213SOL    HW116538   3.614   3.273   4.466
 5213SOL    HW216539   3.486   3.185   4.415
 5214SOL     OW16540   6.175   2.487   5.391
 5214SOL    HW116541   6.194   2.574   5.437
 5214SOL    HW216542   6.255   2.427   5.397
 5215SOL     OW16543   0.418   4.813   4.952
 5215SOL    HW116544   0.487   4.883   4.970
 5215SOL    HW216545   0.460   4.722   4.957
 5216SOL     OW16546   6.730   4.375   0.339
 5216SOL    HW116547   6.733   4.301   0.272
 5216SOL    HW216548   6.821   4.389   0.377
 5217SOL     OW16549   3.138   0.584   2.478
 5217SOL    HW116550   3.165   0.644   2.553
 5217SOL    HW216551   3.174   0.492   2.494
 5218SOL     OW16552   5.921   0.078   0.750
 5218SOL    HW116553   5.989   0.007   0.733
 5218SOL    HW216554   5.845   0.039   0.801
 5219SOL     OW16555   4.344   2.029   4.984
 5219SOL    HW116556   4.269   2.076   5.029
 5219SOL    HW216557   4.362   2.071   4.895
 5220SOL     OW16558   1.801   4.259   4.710
 5220SOL    HW116559   1.899   4.264   4.689
 5220SOL    HW216560   1.750   4.240   4.626
 5221SOL     OW16561   3.993   6.542   0.554
 5221SOL    HW116562   3.911   6.528   0.498
 5221SOL    HW216563   4.064   6.477   0.526
 5222SOL     OW16564   5.488   3.212   2.305
 5222SOL    HW116565   5.476   3.293   2.248
 5222SOL    HW216566   5.418   3.144   2.283
 5223SOL     OW16567   6.739   1.787   0.604
 5223SOL    HW116568   6.734   1.719   0.678
 5223SOL    HW216569   6.697   1.749   0.522
 5224SOL     OW16570   2.028   1.695   4.534
 5224SOL    HW116571   1.961   1.718   4.605
 5224SOL    HW216572   1.980   1.660   4.454
 5225SOL     OW16573   6.785   2.282   5.976
 5225SOL    HW116574   6.860   2.247   6.032
 5225SOL    HW216575   6.728   2.206   5.946
 5226SOL     OW16576   0.199   0.079   4.133
 5226SOL    HW116577   0.239   7.017   4.172
 5226SOL    HW216578   0.099   0.070   4.131
 5227SOL     OW16579   2.389   2.441   6.656
 5227SOL    HW116580   2.368   2.529   6.698
 5227SOL    HW216581   2.325   2.424   6.581
 5228SOL     OW16582   0.736   2.102   5.690
 5228SOL    HW116583   0.737   2.171   5.617
 5228SOL    HW216584   0.737   2.011   5.650
 5229SOL     OW16585   3.766   1.491   0.555
 5229SOL    HW116586   3.709   1.416   0.518
 5229SOL    HW216587   3.725   1.524   0.640
 5230SOL     OW16588   6.369   0.823   1.850
 5230SOL    HW116589   6.395   0.767   1.928
 5230SOL    HW216590   6.452   0.859   1.806
 5231SOL     OW16591   6.731   4.060   1.769
 5231SOL    HW116592   6.799   4.113   1.718
 5231SOL    HW216593   6.679   4.121   1.829
 5232SOL     OW16594   1.695   1.668   6.310
 5232SOL    HW116595   1.666   1.672   6.214
 5232SOL    HW216596   1.791   1.640   6.315
 5233SOL     OW16597   2.328   6.767   3.578
 5233SOL    HW116598   2.419   6.807   3.582
 5233SOL    HW216599   2.267   6.815   3.641
 5234SOL     OW16600   3.770   2.275   6.242
 5234SOL    HW116601   3.843   2.342   6.249
 5234SOL    HW216602   3.723   2.285   6.154
 5235SOL     OW16603   2.528   3.139   1.350
 5235SOL    HW116604   2.620   3.121   1.387
 5235SOL    HW216605   2.492   3.222   1.391
 5236SOL     OW16606   2.918   5.158   1.956
 5236SOL    HW116607   2.983   5.224   1.994
 5236SOL    HW216608   2.952   5.065   1.969
 5237SOL     OW16609   1.415   1.074   1.555
 5237SOL    HW116610   1.505   1.084   1.596
 5237SOL    HW216611   1.424   1.065   1.456
 5238SOL     OW16612   6.672   0.885   3.211
 5238SOL    HW116613   6.619   0.800   3.216
 5238SOL    HW216614   6.628   0.948   3.148
 5239SOL     OW16615   2.703   4.003   6.786
 5239SOL    HW116616   2.634   4.001   6.859
 5239SOL    HW216617   2.659   3.985   6.698
 5240SOL     OW16618   1.664   4.043   5.429
 5240SOL    HW116619   1.681   4.085   5.518
 5240SOL    HW216620   1.733   3.973   5.411
 5241SOL     OW16621   2.363   5.324   3.405
 5241SOL    HW116622   2.375   5.225   3.410
 5241SOL    HW216623   2.317   5.348   3.319
 5242SOL     OW16624   3.976   5.913   5.839
 5242SOL    HW116625   3.977   6.011   5.854
 5242SOL    HW216626   4.068   5.882   5.815
 5243SOL     OW16627   1.922   5.311   4.134
 5243SOL    HW116628   1.900   5.227   4.085
 5243SOL    HW216629   1.865   5.318   4.216
 5244SOL     OW16630   5.160   0.536   6.990
 5244SOL    HW116631   5.061   0.546   6.997
 5244SOL    HW216632   5.182   0.447   6.951
 5245SOL     OW16633   3.258   3.679   1.440
 5245SOL    HW116634   3.288   3.750   1.504
 5245SOL    HW216635   3.336   3.620   1.417
 5246SOL     OW16636   6.270   2.312   5.733
 5246SOL    HW116637   6.306   2.274   5.818
 5246SOL    HW216638   6.312   2.401   5.716
 5247SOL     OW16639   4.854   0.871   5.481
 5247SOL    HW116640   4.810   0.810   5.415
 5247SOL    HW216641   4.937   0.829   5.516
 5248SOL     OW16642   4.027   0.932   2.372
 5248SOL    HW116643   3.940   0.923   2.324
 5248SOL    HW216644   4.063   0.841   2.392
 5249SOL     OW16645   0.236   5.888   2.013
 5249SOL    HW116646   0.245   5.822   2.087
 5249SOL    HW216647   0.218   5.839   1.927
 5250SOL     OW16648   1.123   5.304   0.200
 5250SOL    HW116649   1.078   5.313   0.112
 5250SOL    HW216650   1.182   5.384   0.216
 5251SOL     OW16651   1.626   4.161   6.410
 5251SOL    HW116652   1.532   4.171   6.442
 5251SOL    HW216653   1.643   4.226   6.336
 5252SOL     OW16654   4.106   6.346   3.527
 5252SOL    HW116655   4.037   6.286   3.487
 5252SOL    HW216656   4.195   6.326   3.487
 5253SOL     OW16657   0.535   6.276   4.772
 5253SOL    HW116658   0.556   6.355   4.715
 5253SOL    HW216659   0.621   6.235   4.804
 5254SOL     OW16660   4.269   6.243   2.232
 5254SOL    HW116661   4.173   6.267   2.223
 5254SOL    HW216662   4.277   6.151   2.270
 5255SOL     OW16663   0.358   1.513   6.256
 5255SOL    HW116664   0.423   1.570   6.204
 5255SOL    HW216665   0.356   1.421   6.216
 5256SOL     OW16666   4.528   1.659   2.633
 5256SOL    HW116667   4.518   1.759   2.633
 5256SOL    HW216668   4.445   1.617   2.669
 5257SOL     OW16669   5.629   0.984   0.271
 5257SOL    HW116670   5.684   0.996   0.189
 5257SOL    HW216671   5.570   0.905   0.260
 5258SOL     OW16672   6.037   1.832   5.486
 5258SOL    HW116673   6.092   1.783   5.553
 5258SOL    HW216674   5.940   1.814   5.502
 5259SOL     OW16675   4.389   6.061   4.484
 5259SOL    HW116676   4.438   6.046   4.570
 5259SOL    HW216677   4.294   6.029   4.494
 5260SOL     OW16678   1.443   6.455   2.083
 5260SOL    HW116679   1.511   6.385   2.062
 5260SOL    HW216680   1.358   6.411   2.113
 5261SOL     OW16681   6.435   4.219   6.944
 5261SOL    HW116682   6.422   4.143   6.880
 5261SOL    HW216683   6.429   4.185   0.016
 5262SOL     OW16684   2.017   2.187   2.181
 5262SOL    HW116685   1.936   2.236   2.148
 5262SOL    HW216686   2.008   2.090   2.159
 5263SOL     OW16687   0.323   6.363   2.197
 5263SOL    HW116688   0.385   6.293   2.234
 5263SOL    HW216689   0.371   6.450   2.190
 5264SOL     OW16690   6.127   2.563   2.328
 5264SOL    HW116691   6.098   2.491   2.391
 5264SOL    HW216692   6.161   2.642   2.380
 5265SOL     OW16693   0.924   6.044   5.581
 5265SOL    HW116694   0.856   5.989   5.532
 5265SOL    HW216695   1.008   6.048   5.527
 5266SOL     OW16696   0.561   0.045   6.151
 5266SOL    HW116697   0.622   0.117   6.118
 5266SOL    HW216698   0.522   7.016   6.074
 5267SOL     OW16699   6.095   1.245   4.623
 5267SOL    HW116700   6.094   1.249   4.523
 5267SOL    HW216701   6.144   1.163   4.652
 5268SOL     OW16702   5.275   0.508   6.179
 5268SOL    HW116703   5.223   0.567   6.118
 5268SOL    HW216704   5.362   0.484   6.137
 5269SOL     OW16705   1.282   0.402   4.013
 5269SOL    HW116706   1.274   0.456   3.929
 5269SOL    HW216707   1.364   0.430   4.063
 5270SOL     OW16708   1.605   1.796   0.163
 5270SOL    HW116709   1.547   1.742   0.102
 5270SOL    HW216710   1.692   1.816   0.117
 5271SOL     OW16711   1.591   5.884   6.474
 5271SOL    HW116712   1.571   5.862   6.570
 5271SOL    HW216713   1.506   5.888   6.422
 5272SOL     OW16714   4.119   0.146   5.888
 5272SOL    HW116715   4.061   0.108   5.816
 5272SOL    HW216716   4.207   0.098   5.890
 5273SOL     OW16717   1.855   1.733   3.696
 5273SOL    HW116718   1.777   1.766   3.642
 5273SOL    HW216719   1.858   1.780   3.783
 5274SOL     OW16720   6.236   4.901   0.739
 5274SOL    HW116721   6.149   4.944   0.718
 5274SOL    HW216722   6.234   4.865   0.833
 5275SOL     OW16723   5.493   0.661   6.756
 5275SOL    HW116724   5.441   0.575   6.760
 5275SOL    HW216725   5.539   0.677   6.843
 5276SOL     OW16726   2.910   6.102   1.217
 5276SOL    HW116727   2.823   6.147   1.235
 5276SOL    HW216728   2.966   6.161   1.159
 5277SOL     OW16729   1.467   3.187   1.416
 5277SOL    HW116730   1.426   3.214   1.328
 5277SOL    HW216731   1.441   3.253   1.486
 5278SOL     OW16732   3.855   3.993   4.029
 5278SOL    HW116733   3.804   4.022   3.948
 5278SOL    HW216734   3.920   3.921   4.003
 5279SOL     OW16735   1.494   6.768   3.220
 5279SOL    HW116736   1.588   6.756   3.189
 5279SOL    HW216737   1.492   6.822   3.304
 5280SOL     OW16738   3.877   0.406   3.840
 5280SOL    HW116739   3.781   0.422   3.864
 5280SOL    HW216740   3.910   0.325   3.889
 5281SOL     OW16741   6.982   2.855   3.426
 5281SOL    HW116742   6.932   2.796   3.363
 5281SOL    HW216743   6.935   2.944   3.432
 5282SOL     OW16744   5.170   2.787   0.820
 5282SOL    HW116745   5.269   2.782   0.832
 5282SOL    HW216746   5.136   2.701   0.782
 5283SOL     OW16747   4.946   5.133   4.917
 5283SOL    HW116748   4.972   5.084   4.834
 5283SOL    HW216749   4.995   5.220   4.921
 5284SOL     OW16750   5.507   2.788   4.306
 5284SOL    HW116751   5.488   2.698   4.267
 5284SOL    HW216752   5.481   2.789   4.402
 5285SOL     OW16753   4.065   5.542   2.781
 5285SOL    HW116754   4.119   5.475   2.732
 5285SOL    HW216755   4.101   5.552   2.874
 5286SOL     OW16756   1.816   4.707   2.203
 5286SOL    HW116757   1.887   4.769   2.168
 5286SOL    HW216758   1.827   4.697   2.302
 5287SOL     OW16759   0.414   0.440   2.846
 5287SOL    HW116760   0.511   0.464   2.856
 5287SOL    HW216761   0.401   0.345   2.875
 5288SOL     OW16762   3.752   0.421   0.952
 5288SOL    HW116763   3.824   0.363   0.988
 5288SOL    HW216764   3.683   0.438   1.023
 5289SOL     OW16765   1.568   6.976   1.533
 5289SOL    HW116766   1.572   6.924   1.448
 5289SOL    HW216767   1.657   7.018   1.552
 5290SOL     OW16768   5.882   6.799   6.631
 5290SOL    HW116769   5.801   6.845   6.595
 5290SOL    HW216770   5.897   6.826   6.726
 5291SOL     OW16771   1.358   5.658   7.018
 5291SOL    HW116772   1.432   5.671   6.951
 5291SOL    HW216773   1.273   5.636   6.969
 5292SOL     OW16774   5.506   1.562   1.495
 5292SOL    HW116775   5.487   1.506   1.575
 5292SOL    HW216776   5.520   1.503   1.416
 5293SOL     OW16777   2.140   1.457   4.339
 5293SOL    HW116778   2.165   1.446   4.243
 5293SOL    HW216779   2.195   1.530   4.380
 5294SOL     OW16780   3.452   1.964   6.878
 5294SOL    HW116781   3.378   1.901   6.899
 5294SOL    HW216782   3.540   1.923   6.904
 5295SOL     OW16783   0.208   1.734   3.361
 5295SOL    HW116784   0.115   1.737   3.398
 5295SOL    HW216785   0.271   1.698   3.431
 5296SOL     OW16786   0.147   3.307   6.260
 5296SOL    HW116787   0.135   3.259   6.347
 5296SOL    HW216788   0.195   3.248   6.195
 5297SOL     OW16789   0.847   1.865   1.880
 5297SOL    HW116790   0.869   1.854   1.783
 5297SOL    HW216791   0.851   1.962   1.905
 5298SOL     OW16792   1.027   3.477   2.118
 5298SOL    HW116793   1.025   3.415   2.039
 5298SOL    HW216794   1.083   3.557   2.097
 5299SOL     OW16795   3.930   0.457   0.039
 5299SOL    HW116796   3.960   0.470   0.134
 5299SOL    HW216797   3.944   0.362   0.013
 5300SOL     OW16798   6.687   4.901   4.752
 5300SOL    HW116799   6.734   4.844   4.819
 5300SOL    HW216800   6.684   4.854   4.664
 5301SOL     OW16801   5.646   6.984   6.588
 5301SOL    HW116802   5.650   6.911   6.519
 5301SOL    HW216803   5.569   6.967   6.650
 5302SOL     OW16804   0.340   3.612   2.534
 5302SOL    HW116805   0.436   3.597   2.558
 5302SOL    HW216806   0.290   3.645   2.615
 5303SOL     OW16807   2.354   4.538   2.449
 5303SOL    HW116808   2.426   4.607   2.439
 5303SOL    HW216809   2.381   4.455   2.401
 5304SOL     OW16810   4.682   1.803   5.660
 5304SOL    HW116811   4.765   1.755   5.686
 5304SOL    HW216812   4.685   1.897   5.695
 5305SOL     OW16813   4.160   1.737   4.717
 5305SOL    HW116814   4.180   1.750   4.620
 5305SOL    HW216815   4.111   1.817   4.752
 5306SOL     OW16816   2.702   6.997   3.347
 5306SOL    HW116817   2.640   7.001   3.425
 5306SOL    HW216818   2.650   7.009   3.263
 5307SOL     OW16819   4.808   6.434   6.571
 5307SOL    HW116820   4.714   6.416   6.601
 5307SOL    HW216821   4.827   6.532   6.578
 5308SOL     OW16822   6.600   1.501   1.256
 5308SOL    HW116823   6.556   1.412   1.269
 5308SOL    HW216824   6.615   1.544   1.345
 5309SOL     OW16825   3.722   4.033   5.888
 5309SOL    HW116826   3.664   4.114   5.885
 5309SOL    HW216827   3.679   3.959   5.836
 5310SOL     OW16828   5.058   2.449   0.427
 5310SOL    HW116829   4.966   2.467   0.391
 5310SOL    HW216830   5.106   2.386   0.366
 5311SOL     OW16831   6.795   5.755   0.043
 5311SOL    HW116832   6.797   5.692   6.987
 5311SOL    HW216833   6.829   5.709   0.125
 5312SOL     OW16834   0.584   3.820   1.676
 5312SOL    HW116835   0.592   3.917   1.699
 5312SOL    HW216836   0.560   3.769   1.759
 5313SOL     OW16837   0.350   6.230   6.563
 5313SOL    HW116838   0.334   6.149   6.507
 5313SOL    HW216839   0.264   6.259   6.606
 5314SOL     OW16840   4.169   4.448   0.820
 5314SOL    HW116841   4.156   4.545   0.798
 5314SOL    HW216842   4.148   4.392   0.739
 5315SOL     OW16843   5.569   1.128   2.670
 5315SOL    HW116844   5.590   1.225   2.676
 5315SOL    HW216845   5.524   1.108   2.583
 5316SOL     OW16846   5.144   5.410   4.537
 5316SOL    HW116847   5.143   5.310   4.537
 5316SOL    HW216848   5.057   5.445   4.502
 5317SOL     OW16849   0.374   4.832   1.179
 5317SOL    HW116850   0.448   4.893   1.152
 5317SOL    HW216851   0.300   4.886   1.220
 5318SOL     OW16852   6.453   2.835   3.925
 5318SOL    HW116853   6.358   2.805   3.932
 5318SOL    HW216854   6.493   2.800   3.839
 5319SOL     OW16855   2.765   6.282   2.806
 5319SOL    HW116856   2.726   6.264   2.897
 5319SOL    HW216857   2.837   6.351   2.814
 5320SOL     OW16858   6.269   2.298   0.029
 5320SOL    HW116859   6.287   2.392   7.021
 5320SOL    HW216860   6.334   2.236   7.006
 5321SOL     OW16861   3.346   5.173   0.092
 5321SOL    HW116862   3.274   5.131   0.148
 5321SOL    HW216863   3.393   5.101   0.040
 5322SOL     OW16864   3.485   6.407   0.256
 5322SOL    HW116865   3.395   6.422   0.215
 5322SOL    HW216866   3.475   6.384   0.353
 5323SOL     OW16867   6.566   2.983   0.674
 5323SOL    HW116868   6.562   3.019   0.581
 5323SOL    HW216869   6.634   3.035   0.727
 5324SOL     OW16870   3.906   3.740   2.690
 5324SOL    HW116871   3.840   3.751   2.765
 5324SOL    HW216872   3.925   3.643   2.677
 5325SOL     OW16873   3.026   6.922   5.802
 5325SOL    HW116874   3.019   6.827   5.833
 5325SOL    HW216875   2.935   6.958   5.785
 5326SOL     OW16876   5.989   0.958   4.137
 5326SOL    HW116877   5.907   0.903   4.156
 5326SOL    HW216878   6.057   0.901   4.091
 5327SOL     OW16879   6.547   6.989   4.057
 5327SOL    HW116880   6.546   6.893   4.085
 5327SOL    HW216881   6.609   0.019   4.116
 5328SOL     OW16882   2.677   5.232   6.094
 5328SOL    HW116883   2.743   5.264   6.162
 5328SOL    HW216884   2.656   5.136   6.110
 5329SOL     OW16885   0.207   6.835   6.216
 5329SOL    HW116886   0.186   6.889   6.297
 5329SOL    HW216887   0.234   6.742   6.243
 5330SOL     OW16888   4.810   4.114   0.333
 5330SOL    HW116889   4.730   4.145   0.283
 5330SOL    HW216890   4.893   4.137   0.282
 5331SOL     OW16891   6.163   1.050   0.123
 5331SOL    HW116892   6.110   1.123   0.165
 5331SOL    HW216893   6.125   1.029   0.033
 5332SOL     OW16894   6.687   3.560   7.006
 5332SOL    HW116895   6.666   3.652   0.019
 5332SOL    HW216896   6.655   3.551   6.912
 5333SOL     OW16897   0.068   6.845   4.249
 5333SOL    HW116898   0.157   6.818   4.212
 5333SOL    HW216899   0.073   6.851   4.348
 5334SOL     OW16900   3.012   5.715   0.886
 5334SOL    HW116901   3.054   5.757   0.806
 5334SOL    HW216902   3.016   5.778   0.964
 5335SOL     OW16903   6.977   5.586   1.893
 5335SOL    HW116904   6.945   5.622   1.981
 5335SOL    HW216905   6.976   5.486   1.896
 5336SOL     OW16906   1.209   2.958   5.535
 5336SOL    HW116907   1.259   3.001   5.610
 5336SOL    HW216908   1.153   3.028   5.489
 5337SOL     OW16909   6.351   2.317   0.961
 5337SOL    HW116910   6.306   2.340   1.048
 5337SOL    HW216911   6.412   2.392   0.935
 5338SOL     OW16912   6.787   2.978   1.710
 5338SOL    HW116913   6.740   2.973   1.622
 5338SOL    HW216914   6.882   3.006   1.696
 5339SOL     OW16915   4.952   3.793   2.747
 5339SOL    HW116916   4.935   3.734   2.826
 5339SOL    HW216917   4.951   3.737   2.664
 5340SOL     OW16918   5.716   4.189   1.237
 5340SOL    HW116919   5.680   4.101   1.267
 5340SOL    HW216920   5.759   4.236   1.314
 5341SOL     OW16921   4.760   5.174   3.396
 5341SOL    HW116922   4.755   5.215   3.487
 5341SOL    HW216923   4.686   5.211   3.339
 5342SOL     OW16924   5.885   5.156   4.722
 5342SOL    HW116925   5.975   5.150   4.766
 5342SOL    HW216926   5.816   5.183   4.790
 5343SOL     OW16927   3.523   3.862   0.174
 5343SOL    HW116928   3.493   3.772   0.141
 5343SOL    HW216929   3.584   3.850   0.253
 5344SOL     OW16930   6.299   1.760   7.012
 5344SOL    HW116931   6.227   1.784   6.948
 5344SOL    HW216932   6.385   1.746   6.963
 5345SOL     OW16933   3.608   0.703   6.475
 5345SOL    HW116934   3.591   0.784   6.531
 5345SOL    HW216935   3.700   0.710   6.435
 5346SOL     OW16936   2.418   5.723   3.193
 5346SOL    HW116937   2.401   5.810   3.238
 5346SOL    HW216938   2.345   5.658   3.218
 5347SOL     OW16939   6.045   2.140   5.134
 5347SOL    HW116940   6.122   2.203   5.145
 5347SOL    HW216941   6.062   2.057   5.188
 5348SOL     OW16942   5.043   2.745   5.473
 5348SOL    HW116943   4.950   2.781   5.472
 5348SOL    HW216944   5.050   2.672   5.541
 5349SOL     OW16945   1.004   4.007   0.638
 5349SOL    HW116946   1.071   3.987   0.567
 5349SOL    HW216947   0.912   3.983   0.606
 5350SOL     OW16948   1.201   0.156   6.480
 5350SOL    HW116949   1.218   0.141   6.578
 5350SOL    HW216950   1.113   0.202   6.468
 5351SOL     OW16951   0.674   5.670   3.497
 5351SOL    HW116952   0.620   5.749   3.526
 5351SOL    HW216953   0.741   5.699   3.429
 5352SOL     OW16954   0.473   2.607   6.242
 5352SOL    HW116955   0.455   2.695   6.286
 5352SOL    HW216956   0.554   2.615   6.184
 5353SOL     OW16957   2.290   6.335   2.970
 5353SOL    HW116958   2.211   6.274   2.958
 5353SOL    HW216959   2.280   6.415   2.911
 5354SOL     OW16960   2.959   5.948   1.435
 5354SOL    HW116961   2.936   6.001   1.353
 5354SOL    HW216962   3.023   5.999   1.492
 5355SOL     OW16963   5.009   4.061   5.775
 5355SOL    HW116964   5.022   4.031   5.681
 5355SOL    HW216965   4.926   4.117   5.781
 5356SOL     OW16966   6.851   6.824   1.634
 5356SOL    HW116967   6.899   6.760   1.694
 5356SOL    HW216968   6.811   6.897   1.689
 5357SOL     OW16969   6.235   3.484   2.555
 5357SOL    HW116970   6.221   3.545   2.633
 5357SOL    HW216971   6.165   3.412   2.555
 5358SOL     OW16972   5.645   6.791   6.393
 5358SOL    HW116973   5.609   6.758   6.306
 5358SOL    HW216974   5.619   6.727   6.466
 5359SOL     OW16975   3.289   1.735   0.052
 5359SOL    HW116976   3.326   1.721   0.143
 5359SOL    HW216977   3.212   1.673   0.037
 5360SOL     OW16978   5.324   5.720   3.298
 5360SOL    HW116979   5.403   5.780   3.293
 5360SOL    HW216980   5.246   5.770   3.336
 5361SOL     OW16981   1.345   4.045   2.799
 5361SOL    HW116982   1.360   3.950   2.829
 5361SOL    HW216983   1.369   4.054   2.703
 5362SOL     OW16984   5.729   1.739   3.999
 5362SOL    HW116985   5.725   1.838   4.011
 5362SOL    HW216986   5.821   1.706   4.022
 5363SOL     OW16987   6.496   4.724   6.414
 5363SOL    HW116988   6.452   4.651   6.361
 5363SOL    HW216989   6.493   4.809   6.362
 5364SOL     OW16990   4.906   2.539   1.223
 5364SOL    HW116991   4.846   2.531   1.303
 5364SOL    HW216992   4.941   2.632   1.217
 5365SOL     OW16993   3.253   3.454   6.073
 5365SOL    HW116994   3.220   3.396   5.997
 5365SOL    HW216995   3.190   3.531   6.085
 5366SOL     OW16996   6.788   4.517   3.856
 5366SOL    HW116997   6.768   4.479   3.946
 5366SOL    HW216998   6.704   4.516   3.800
 5367SOL     OW16999   6.000   5.694   0.808
 5367SOL    HW117000   6.050   5.615   0.845
 5367SOL    HW217001   6.034   5.714   0.716
 5368SOL     OW17002   0.307   5.673   5.554
 5368SOL    HW117003   0.342   5.604   5.491
 5368SOL    HW217004   0.327   5.764   5.517
 5369SOL     OW17005   3.420   0.258   2.593
 5369SOL    HW117006   3.328   0.255   2.632
 5369SOL    HW217007   3.417   0.301   2.503
 5370SOL     OW17008   2.421   2.319   0.422
 5370SOL    HW117009   2.436   2.249   0.491
 5370SOL    HW217010   2.436   2.281   0.330
 5371SOL     OW17011   6.244   4.996   3.325
 5371SOL    HW117012   6.257   5.004   3.226
 5371SOL    HW217013   6.180   5.067   3.355
 5372SOL     OW17014   0.489   1.243   4.357
 5372SOL    HW117015   0.503   1.304   4.435
 5372SOL    HW217016   0.504   1.148   4.386
 5373SOL     OW17017   3.671   0.183   0.355
 5373SOL    HW117018   3.604   0.168   0.427
 5373SOL    HW217019   3.718   0.097   0.335
 5374SOL     OW17020   1.663   3.517   1.163
 5374SOL    HW117021   1.575   3.505   1.117
 5374SOL    HW217022   1.736   3.518   1.096
 5375SOL     OW17023   2.909   5.165   4.806
 5375SOL    HW117024   2.981   5.097   4.791
 5375SOL    HW217025   2.845   5.163   4.729
 5376SOL     OW17026   6.749   6.768   2.462
 5376SOL    HW117027   6.824   6.749   2.526
 5376SOL    HW217028   6.734   6.867   2.457
 5377SOL     OW17029   0.458   2.556   1.213
 5377SOL    HW117030   0.552   2.523   1.202
 5377SOL    HW217031   0.396   2.478   1.222
 5378SOL     OW17032   4.412   0.283   4.234
 5378SOL    HW117033   4.486   0.217   4.250
 5378SOL    HW217034   4.354   0.250   4.159
 5379SOL     OW17035   3.244   2.133   4.278
 5379SOL    HW117036   3.164   2.146   4.337
 5379SOL    HW217037   3.326   2.127   4.335
 5380SOL     OW17038   4.746   6.988   1.410
 5380SOL    HW117039   4.703   0.045   1.364
 5380SOL    HW217040   4.739   6.907   1.352
 5381SOL     OW17041   2.487   2.159   2.934
 5381SOL    HW117042   2.552   2.217   2.983
 5381SOL    HW217043   2.526   2.132   2.846
 5382SOL     OW17044   4.697   0.489   2.982
 5382SOL    HW117045   4.716   0.528   2.892
 5382SOL    HW217046   4.783   0.480   3.033
 5383SOL     OW17047   2.510   4.350   5.248
 5383SOL    HW117048   2.422   4.329   5.207
 5383SOL    HW217049   2.532   4.446   5.234
 5384SOL     OW17050   5.747   6.316   6.173
 5384SOL    HW117051   5.766   6.243   6.237
 5384SOL    HW217052   5.658   6.356   6.193
 5385SOL     OW17053   3.598   3.902   0.950
 5385SOL    HW117054   3.521   3.961   0.975
 5385SOL    HW217055   3.572   3.806   0.961
 5386SOL     OW17056   4.400   5.125   2.989
 5386SOL    HW117057   4.468   5.066   2.946
 5386SOL    HW217058   4.357   5.077   3.066
 5387SOL     OW17059   0.698   2.619   5.276
 5387SOL    HW117060   0.631   2.692   5.264
 5387SOL    HW217061   0.783   2.657   5.310
 5388SOL     OW17062   6.677   6.707   3.296
 5388SOL    HW117063   6.745   6.636   3.319
 5388SOL    HW217064   6.588   6.680   3.330
 5389SOL     OW17065   6.294   1.439   4.515
 5389SOL    HW117066   6.345   1.396   4.440
 5389SOL    HW217067   6.326   1.533   4.528
 5390SOL     OW17068   5.372   2.767   3.031
 5390SOL    HW117069   5.318   2.759   2.948
 5390SOL    HW217070   5.469   2.753   3.010
 5391SOL     OW17071   4.628   3.431   1.112
 5391SOL    HW117072   4.709   3.406   1.059
 5391SOL    HW217073   4.656   3.464   1.202
 5392SOL     OW17074   5.386   0.865   3.894
 5392SOL    HW117075   5.462   0.859   3.829
 5392SOL    HW217076   5.418   0.911   3.977
 5393SOL     OW17077   4.929   3.380   2.744
 5393SOL    HW117078   4.913   3.458   2.684
 5393SOL    HW217079   4.904   3.405   2.838
 5394SOL     OW17080   0.720   2.712   3.261
 5394SOL    HW117081   0.767   2.701   3.348
 5394SOL    HW217082   0.752   2.643   3.197
 5395SOL     OW17083   0.786   0.687   1.607
 5395SOL    HW117084   0.698   0.663   1.648
 5395SOL    HW217085   0.818   0.611   1.550
 5396SOL     OW17086   3.893   2.372   0.567
 5396SOL    HW117087   3.876   2.470   0.561
 5396SOL    HW217088   3.827   2.323   0.509
 5397SOL     OW17089   0.584   6.374   2.915
 5397SOL    HW117090   0.629   6.389   3.003
 5397SOL    HW217091   0.533   6.456   2.889
 5398SOL     OW17092   5.369   2.162   3.335
 5398SOL    HW117093   5.338   2.123   3.248
 5398SOL    HW217094   5.444   2.226   3.318
 5399SOL     OW17095   2.862   2.426   0.378
 5399SOL    HW117096   2.923   2.500   0.406
 5399SOL    HW217097   2.793   2.461   0.315
 5400SOL     OW17098   4.774   2.974   0.888
 5400SOL    HW117099   4.874   2.977   0.884
 5400SOL    HW217100   4.744   3.000   0.980
 5401SOL     OW17101   5.069   4.264   1.393
 5401SOL    HW117102   5.162   4.290   1.420
 5401SOL    HW217103   5.010   4.259   1.474
 5402SOL     OW17104   2.117   5.463   1.896
 5402SOL    HW117105   2.046   5.409   1.941
 5402SOL    HW217106   2.206   5.441   1.935
 5403SOL     OW17107   6.260   2.772   4.996
 5403SOL    HW117108   6.282   2.846   4.932
 5403SOL    HW217109   6.163   2.777   5.020
 5404SOL     OW17110   4.742   6.528   0.320
 5404SOL    HW117111   4.749   6.433   0.348
 5404SOL    HW217112   4.663   6.571   0.366
 5405SOL     OW17113   6.161   5.166   6.016
 5405SOL    HW117114   6.243   5.222   6.015
 5405SOL    HW217115   6.099   5.194   5.942
 5406SOL     OW17116   1.967   1.541   5.422
 5406SOL    HW117117   2.042   1.606   5.435
 5406SOL    HW217118   1.886   1.589   5.390
 5407SOL     OW17119   1.851   1.890   2.640
 5407SOL    HW117120   1.833   1.819   2.572
 5407SOL    HW217121   1.807   1.975   2.613
 5408SOL     OW17122   2.358   2.775   4.206
 5408SOL    HW117123   2.441   2.765   4.151
 5408SOL    HW217124   2.336   2.687   4.250
 5409SOL     OW17125   0.041   4.541   3.487
 5409SOL    HW117126   0.113   4.608   3.468
 5409SOL    HW217127   0.004   4.556   3.579
 5410SOL     OW17128   6.033   1.247   0.289
 5410SOL    HW117129   6.009   1.217   0.382
 5410SOL    HW217130   6.093   1.326   0.295
 5411SOL     OW17131   2.919   6.161   1.894
 5411SOL    HW117132   2.891   6.250   1.858
 5411SOL    HW217133   2.839   6.104   1.909
 5412SOL     OW17134   2.251   2.214   5.753
 5412SOL    HW117135   2.276   2.209   5.850
 5412SOL    HW217136   2.156   2.245   5.745
 5413SOL     OW17137   6.880   5.280   5.582
 5413SOL    HW117138   6.907   5.263   5.676
 5413SOL    HW217139   6.906   5.373   5.557
 5414SOL     OW17140   6.000   5.753   5.527
 5414SOL    HW117141   6.039   5.774   5.617
 5414SOL    HW217142   5.932   5.823   5.504
 5415SOL     OW17143   1.931   0.501   0.522
 5415SOL    HW117144   1.990   0.424   0.496
 5415SOL    HW217145   1.851   0.466   0.571
 5416SOL     OW17146   4.298   4.815   6.220
 5416SOL    HW117147   4.334   4.828   6.128
 5416SOL    HW217148   4.373   4.823   6.286
 5417SOL     OW17149   5.347   0.591   1.841
 5417SOL    HW117150   5.310   0.537   1.765
 5417SOL    HW217151   5.323   0.688   1.827
 5418SOL     OW17152   0.178   2.501   5.701
 5418SOL    HW117153   0.095   2.482   5.752
 5418SOL    HW217154   0.163   2.481   5.604
 5419SOL     OW17155   4.060   2.515   5.807
 5419SOL    HW117156   4.134   2.580   5.826
 5419SOL    HW217157   4.069   2.435   5.866
 5420SOL     OW17158   1.563   1.907   1.466
 5420SOL    HW117159   1.576   2.006   1.469
 5420SOL    HW217160   1.465   1.887   1.459
 5421SOL     OW17161   4.031   5.733   1.142
 5421SOL    HW117162   3.983   5.645   1.136
 5421SOL    HW217163   4.051   5.766   1.050
 5422SOL     OW17164   2.454   6.482   3.365
 5422SOL    HW117165   2.550   6.507   3.375
 5422SOL    HW217166   2.407   6.550   3.310
 5423SOL     OW17167   4.273   6.750   2.622
 5423SOL    HW117168   4.308   6.835   2.583
 5423SOL    HW217169   4.325   6.728   2.705
 5424SOL     OW17170   4.032   3.282   6.094
 5424SOL    HW117171   3.990   3.357   6.144
 5424SOL    HW217172   3.983   3.267   6.008
 5425SOL     OW17173   1.762   5.535   4.612
 5425SOL    HW117174   1.746   5.537   4.514
 5425SOL    HW217175   1.766   5.628   4.648
 5426SOL     OW17176   1.841   4.019   0.064
 5426SOL    HW117177   1.752   4.058   0.088
 5426SOL    HW217178   1.908   4.092   0.056
 5427SOL     OW17179   4.600   1.265   0.343
 5427SOL    HW117180   4.529   1.334   0.328
 5427SOL    HW217181   4.684   1.311   0.371
 5428SOL     OW17182   4.786   5.637   2.359
 5428SOL    HW117183   4.811   5.646   2.455
 5428SOL    HW217184   4.864   5.659   2.301
 5429SOL     OW17185   2.765   6.320   3.455
 5429SOL    HW117186   2.719   6.237   3.422
 5429SOL    HW217187   2.793   6.376   3.377
 5430SOL     OW17188   0.865   3.643   5.190
 5430SOL    HW117189   0.806   3.666   5.113
 5430SOL    HW217190   0.939   3.710   5.197
 5431SOL     OW17191   5.387   4.485   0.770
 5431SOL    HW117192   5.373   4.571   0.720
 5431SOL    HW217193   5.310   4.424   0.753
 5432SOL     OW17194   2.187   5.135   5.721
 5432SOL    HW117195   2.227   5.226   5.729
 5432SOL    HW217196   2.260   5.066   5.725
 5433SOL     OW17197   2.636   6.779   1.353
 5433SOL    HW117198   2.718   6.759   1.299
 5433SOL    HW217199   2.637   6.876   1.379
 5434SOL     OW17200   5.399   5.570   4.221
 5434SOL    HW117201   5.309   5.549   4.182
 5434SOL    HW217202   5.386   5.613   4.311
 5435SOL     OW17203   0.399   2.853   7.007
 5435SOL    HW117204   0.344   2.807   6.938
 5435SOL    HW217205   0.367   2.947   7.019
 5436SOL     OW17206   1.190   4.611   0.823
 5436SOL    HW117207   1.163   4.703   0.794
 5436SOL    HW217208   1.112   4.564   0.864
 5437SOL     OW17209   2.860   6.519   5.752
 5437SOL    HW117210   2.876   6.473   5.665
 5437SOL    HW217211   2.762   6.528   5.768
 5438SOL     OW17212   4.862   6.578   3.392
 5438SOL    HW117213   4.863   6.493   3.446
 5438SOL    HW217214   4.944   6.631   3.414
 5439SOL     OW17215   1.397   3.436   2.031
 5439SOL    HW117216   1.387   3.352   1.978
 5439SOL    HW217217   1.357   3.512   1.981
 5440SOL     OW17218   5.219   6.137   3.154
 5440SOL    HW117219   5.297   6.198   3.169
 5440SOL    HW217220   5.147   6.159   3.221
 5441SOL     OW17221   5.706   0.425   5.103
 5441SOL    HW117222   5.791   0.462   5.065
 5441SOL    HW217223   5.654   0.381   5.030
 5442SOL     OW17224   2.525   6.413   0.074
 5442SOL    HW117225   2.567   6.502   0.089
 5442SOL    HW217226   2.566   6.371   7.014
 5443SOL     OW17227   6.269   1.287   3.153
 5443SOL    HW117228   6.182   1.335   3.141
 5443SOL    HW217229   6.300   1.298   3.247
 5444SOL     OW17230   1.841   1.649   6.610
 5444SOL    HW117231   1.941   1.655   6.616
 5444SOL    HW217232   1.813   1.659   6.514
 5445SOL     OW17233   6.289   6.641   5.091
 5445SOL    HW117234   6.321   6.549   5.112
 5445SOL    HW217235   6.194   6.637   5.059
 5446SOL     OW17236   2.501   4.055   6.962
 5446SOL    HW117237   2.542   4.027   0.028
 5446SOL    HW217238   2.404   4.030   6.962
 5447SOL     OW17239   5.367   2.789   1.766
 5447SOL    HW117240   5.371   2.845   1.683
 5447SOL    HW217241   5.366   2.692   1.741
 5448SOL     OW17242   6.066   5.613   1.121
 5448SOL    HW117243   6.010   5.536   1.152
 5448SOL    HW217244   6.109   5.657   1.199
 5449SOL     OW17245   2.093   0.051   2.691
 5449SOL    HW117246   2.130   0.068   2.600
 5449SOL    HW217247   2.037   0.129   2.720
 5450SOL     OW17248   4.203   4.641   1.805
 5450SOL    HW117249   4.150   4.710   1.757
 5450SOL    HW217250   4.227   4.567   1.742
 5451SOL     OW17251   0.790   5.439   3.388
 5451SOL    HW117252   0.871   5.469   3.336
 5451SOL    HW217253   0.756   5.516   3.441
 5452SOL     OW17254   2.111   3.787   3.382
 5452SOL    HW117255   2.029   3.736   3.406
 5452SOL    HW217256   2.102   3.825   3.290
 5453SOL     OW17257   6.036   5.819   4.469
 5453SOL    HW117258   5.974   5.743   4.445
 5453SOL    HW217259   6.069   5.862   4.385
 5454SOL     OW17260   6.598   4.249   1.924
 5454SOL    HW117261   6.638   4.302   2.000
 5454SOL    HW217262   6.500   4.239   1.938
 5455SOL     OW17263   2.043   2.388   2.815
 5455SOL    HW117264   2.131   2.402   2.860
 5455SOL    HW217265   2.050   2.310   2.753
 5456SOL     OW17266   5.645   2.911   0.197
 5456SOL    HW117267   5.710   2.846   0.158
 5456SOL    HW217268   5.587   2.865   0.264
 5457SOL     OW17269   5.508   1.217   0.658
 5457SOL    HW117270   5.464   1.251   0.741
 5457SOL    HW217271   5.462   1.256   0.578
 5458SOL     OW17272   6.395   4.540   6.240
 5458SOL    HW117273   6.469   4.482   6.206
 5458SOL    HW217274   6.335   4.566   6.164
 5459SOL     OW17275   2.129   3.598   5.764
 5459SOL    HW117276   2.086   3.536   5.829
 5459SOL    HW217277   2.224   3.614   5.791
 5460SOL     OW17278   6.668   1.081   1.327
 5460SOL    HW117279   6.636   1.041   1.413
 5460SOL    HW217280   6.766   1.063   1.316
 5461SOL     OW17281   5.686   0.644   6.142
 5461SOL    HW117282   5.750   0.622   6.215
 5461SOL    HW217283   5.729   0.622   6.054
 5462SOL     OW17284   5.666   4.716   0.124
 5462SOL    HW117285   5.657   4.698   0.222
 5462SOL    HW217286   5.655   4.814   0.107
 5463SOL     OW17287   2.997   4.587   0.220
 5463SOL    HW117288   2.912   4.537   0.200
 5463SOL    HW217289   2.976   4.684   0.231
 5464SOL     OW17290   2.321   5.771   4.177
 5464SOL    HW117291   2.348   5.675   4.184
 5464SOL    HW217292   2.402   5.828   4.172
 5465SOL     OW17293   0.677   1.514   4.793
 5465SOL    HW117294   0.759   1.572   4.792
 5465SOL    HW217295   0.704   1.419   4.782
 5466SOL     OW17296   5.132   2.211   4.929
 5466SOL    HW117297   5.044   2.252   4.953
 5466SOL    HW217298   5.116   2.125   4.880
 5467SOL     OW17299   4.962   4.363   3.468
 5467SOL    HW117300   4.988   4.371   3.564
 5467SOL    HW217301   4.969   4.452   3.424
 5468SOL     OW17302   0.372   2.246   1.078
 5468SOL    HW117303   0.357   2.221   0.982
 5468SOL    HW217304   0.407   2.167   1.128
 5469SOL     OW17305   4.797   0.883   3.047
 5469SOL    HW117306   4.745   0.891   2.962
 5469SOL    HW217307   4.734   0.866   3.123
 5470SOL     OW17308   2.656   4.723   3.698
 5470SOL    HW117309   2.636   4.625   3.705
 5470SOL    HW217310   2.751   4.739   3.724
 5471SOL     OW17311   5.407   0.324   3.708
 5471SOL    HW117312   5.398   0.410   3.658
 5471SOL    HW217313   5.353   0.328   3.792
 5472SOL     OW17314   2.938   4.285   0.100
 5472SOL    HW117315   2.889   4.365   0.065
 5472SOL    HW217316   3.035   4.291   0.076
 5473SOL     OW17317   2.994   4.889   1.962
 5473SOL    HW117318   2.949   4.806   1.992
 5473SOL    HW217319   3.092   4.882   1.979
 5474SOL     OW17320   0.789   5.507   1.871
 5474SOL    HW117321   0.736   5.422   1.869
 5474SOL    HW217322   0.801   5.536   1.966
 5475SOL     OW17323   0.539   1.039   5.822
 5475SOL    HW117324   0.470   0.974   5.853
 5475SOL    HW217325   0.630   0.999   5.831
 5476SOL     OW17326   2.882   1.310   4.435
 5476SOL    HW117327   2.810   1.380   4.440
 5476SOL    HW217328   2.972   1.353   4.444
 5477SOL     OW17329   2.112   3.956   3.158
 5477SOL    HW117330   2.118   3.942   3.059
 5477SOL    HW217331   2.017   3.972   3.184
 5478SOL     OW17332   6.357   2.976   5.823
 5478SOL    HW117333   6.360   3.068   5.785
 5478SOL    HW217334   6.441   2.960   5.876
 5479SOL     OW17335   5.299   3.937   4.577
 5479SOL    HW117336   5.264   3.854   4.532
 5479SOL    HW217337   5.249   3.951   4.663
 5480SOL     OW17338   1.885   2.693   6.136
 5480SOL    HW117339   1.974   2.739   6.136
 5480SOL    HW217340   1.816   2.753   6.177
 5481SOL     OW17341   3.460   1.105   0.640
 5481SOL    HW117342   3.514   1.139   0.717
 5481SOL    HW217343   3.438   1.180   0.578
 5482SOL     OW17344   5.268   4.658   2.124
 5482SOL    HW117345   5.343   4.717   2.152
 5482SOL    HW217346   5.211   4.707   2.058
 5483SOL     OW17347   5.773   1.483   0.535
 5483SOL    HW117348   5.788   1.401   0.480
 5483SOL    HW217349   5.680   1.483   0.570
 5484SOL     OW17350   5.923   0.244   5.882
 5484SOL    HW117351   5.895   0.234   5.786
 5484SOL    HW217352   6.001   0.183   5.900
 5485SOL     OW17353   2.748   1.111   3.925
 5485SOL    HW117354   2.737   1.130   4.023
 5485SOL    HW217355   2.846   1.106   3.904
 5486SOL     OW17356   0.092   0.702   3.900
 5486SOL    HW117357   0.026   0.770   3.868
 5486SOL    HW217358   0.138   0.734   3.982
 5487SOL     OW17359   4.288   5.774   1.248
 5487SOL    HW117360   4.345   5.694   1.267
 5487SOL    HW217361   4.195   5.743   1.227
 5488SOL     OW17362   4.853   0.465   6.200
 5488SOL    HW117363   4.824   0.415   6.119
 5488SOL    HW217364   4.773   0.507   6.244
 5489SOL     OW17365   6.611   4.008   2.453
 5489SOL    HW117366   6.673   4.064   2.507
 5489SOL    HW217367   6.517   4.028   2.479
 5490SOL     OW17368   2.976   0.884   6.912
 5490SOL    HW117369   2.990   0.926   6.822
 5490SOL    HW217370   2.880   0.891   6.938
 5491SOL     OW17371   6.185   6.889   1.331
 5491SOL    HW117372   6.122   6.814   1.354
 5491SOL    HW217373   6.271   6.876   1.381
 5492SOL     OW17374   1.649   1.466   5.150
 5492SOL    HW117375   1.655   1.518   5.065
 5492SOL    HW217376   1.737   1.423   5.170
 5493SOL     OW17377   3.975   0.950   0.178
 5493SOL    HW117378   4.046   1.019   0.162
 5493SOL    HW217379   3.915   0.981   0.251
 5494SOL     OW17380   5.231   3.318   2.498
 5494SOL    HW117381   5.254   3.382   2.425
 5494SOL    HW217382   5.246   3.361   2.587
 5495SOL     OW17383   3.409   3.162   4.917
 5495SOL    HW117384   3.356   3.224   4.974
 5495SOL    HW217385   3.371   3.070   4.924
 5496SOL     OW17386   4.312   5.021   2.231
 5496SOL    HW117387   4.276   5.068   2.150
 5496SOL    HW217388   4.373   5.083   2.280
 5497SOL     OW17389   5.421   0.162   0.031
 5497SOL    HW117390   5.398   0.143   0.126
 5497SOL    HW217391   5.339   0.191   7.003
 5498SOL     OW17392   3.961   1.146   4.294
 5498SOL    HW117393   3.987   1.162   4.389
 5498SOL    HW217394   3.915   1.228   4.258
 5499SOL     OW17395   0.265   0.566   4.944
 5499SOL    HW117396   0.214   0.600   4.865
 5499SOL    HW217397   0.281   0.642   5.008
 5500SOL     OW17398   2.069   6.662   0.638
 5500SOL    HW117399   2.149   6.703   0.682
 5500SOL    HW217400   2.097   6.576   0.593
 5501SOL     OW17401   2.346   1.346   2.257
 5501SOL    HW117402   2.349   1.405   2.337
 5501SOL    HW217403   2.254   1.348   2.218
 5502SOL     OW17404   5.481   4.400   0.488
 5502SOL    HW117405   5.559   4.346   0.519
 5502SOL    HW217406   5.407   4.393   0.555
 5503SOL     OW17407   6.770   0.779   3.971
 5503SOL    HW117408   6.782   0.740   4.063
 5503SOL    HW217409   6.753   0.878   3.979
 5504SOL     OW17410   2.736   2.304   4.985
 5504SOL    HW117411   2.660   2.271   5.041
 5504SOL    HW217412   2.701   2.341   4.899
 5505SOL     OW17413   3.516   4.999   0.718
 5505SOL    HW117414   3.570   4.977   0.800
 5505SOL    HW217415   3.445   4.930   0.706
 5506SOL     OW17416   1.301   6.735   4.825
 5506SOL    HW117417   1.278   6.666   4.756
 5506SOL    HW217418   1.262   6.823   4.798
 5507SOL     OW17419   2.653   5.360   4.836
 5507SOL    HW117420   2.684   5.321   4.923
 5507SOL    HW217421   2.573   5.309   4.804
 5508SOL     OW17422   2.429   1.041   5.533
 5508SOL    HW117423   2.418   1.005   5.441
 5508SOL    HW217424   2.359   1.110   5.550
 5509SOL     OW17425   6.893   0.369   5.758
 5509SOL    HW117426   6.946   0.392   5.840
 5509SOL    HW217427   6.916   0.276   5.728
 5510SOL     OW17428   0.794   0.314   5.393
 5510SOL    HW117429   0.840   0.381   5.450
 5510SOL    HW217430   0.833   0.223   5.411
 5511SOL     OW17431   0.134   2.368   0.784
 5511SOL    HW117432   0.184   2.289   0.819
 5511SOL    HW217433   0.036   2.350   0.787
 5512SOL     OW17434   6.412   6.704   0.255
 5512SOL    HW117435   6.331   6.679   0.203
 5512SOL    HW217436   6.478   6.748   0.194
 5513SOL     OW17437   2.499   5.997   4.436
 5513SOL    HW117438   2.506   5.897   4.438
 5513SOL    HW217439   2.529   6.034   4.524
 5514SOL     OW17440   5.549   5.813   3.577
 5514SOL    HW117441   5.540   5.872   3.497
 5514SOL    HW217442   5.458   5.793   3.614
 5515SOL     OW17443   0.633   3.968   3.454
 5515SOL    HW117444   0.714   4.014   3.490
 5515SOL    HW217445   0.602   3.900   3.521
 5516SOL     OW17446   2.021   2.866   0.325
 5516SOL    HW117447   1.975   2.907   0.247
 5516SOL    HW217448   1.993   2.914   0.409
 5517SOL     OW17449   2.988   0.746   2.275
 5517SOL    HW117450   2.937   0.661   2.269
 5517SOL    HW217451   3.055   0.740   2.349
 5518SOL     OW17452   5.612   3.403   5.777
 5518SOL    HW117453   5.619   3.483   5.719
 5518SOL    HW217454   5.596   3.322   5.720
 5519SOL     OW17455   5.567   4.400   2.467
 5519SOL    HW117456   5.485   4.368   2.513
 5519SOL    HW217457   5.577   4.352   2.379
 5520SOL     OW17458   1.568   2.870   1.007
 5520SOL    HW117459   1.547   2.823   1.093
 5520SOL    HW217460   1.564   2.805   0.931
 5521SOL     OW17461   5.491   4.350   6.331
 5521SOL    HW117462   5.517   4.411   6.406
 5521SOL    HW217463   5.543   4.374   6.250
 5522SOL     OW17464   1.534   2.954   1.561
 5522SOL    HW117465   1.481   3.015   1.502
 5522SOL    HW217466   1.617   3.001   1.591
 5523SOL     OW17467   2.481   6.503   1.894
 5523SOL    HW117468   2.572   6.542   1.881
 5523SOL    HW217469   2.486   6.429   1.961
 5524SOL     OW17470   6.229   6.636   5.842
 5524SOL    HW117471   6.158   6.582   5.797
 5524SOL    HW217472   6.197   6.729   5.856
 5525SOL     OW17473   6.468   6.465   3.167
 5525SOL    HW117474   6.378   6.421   3.162
 5525SOL    HW217475   6.529   6.410   3.224
 5526SOL     OW17476   5.762   3.319   4.538
 5526SOL    HW117477   5.827   3.379   4.493
 5526SOL    HW217478   5.805   3.232   4.559
 5527SOL     OW17479   2.850   3.157   0.123
 5527SOL    HW117480   2.772   3.101   0.152
 5527SOL    HW217481   2.926   3.097   0.096
 5528SOL     OW17482   6.261   2.927   2.708
 5528SOL    HW117483   6.257   3.013   2.759
 5528SOL    HW217484   6.323   2.864   2.754
 5529SOL     OW17485   1.494   0.572   4.421
 5529SOL    HW117486   1.450   0.586   4.509
 5529SOL    HW217487   1.526   0.659   4.385
 5530SOL     OW17488   6.747   3.288   6.909
 5530SOL    HW117489   6.718   3.371   6.957
 5530SOL    HW217490   6.667   3.243   6.870
 5531SOL     OW17491   2.786   3.398   0.564
 5531SOL    HW117492   2.704   3.341   0.570
 5531SOL    HW217493   2.865   3.341   0.544
 5532SOL     OW17494   2.611   2.353   2.007
 5532SOL    HW117495   2.568   2.404   2.081
 5532SOL    HW217496   2.710   2.367   2.011
 5533SOL     OW17497   2.832   0.563   1.001
 5533SOL    HW117498   2.735   0.586   0.988
 5533SOL    HW217499   2.889   0.641   0.973
 5534SOL     OW17500   0.611   3.323   5.123
 5534SOL    HW117501   0.664   3.290   5.201
 5534SOL    HW217502   0.529   3.370   5.155
 5535SOL     OW17503   5.102   4.495   3.675
 5535SOL    HW117504   5.095   4.476   3.773
 5535SOL    HW217505   5.090   4.593   3.659
 5536SOL     OW17506   2.337   1.205   4.631
 5536SOL    HW117507   2.382   1.194   4.542
 5536SOL    HW217508   2.240   1.221   4.618
 5537SOL     OW17509   3.642   1.323   3.572
 5537SOL    HW117510   3.586   1.293   3.495
 5537SOL    HW217511   3.583   1.355   3.647
 5538SOL     OW17512   4.814   2.483   2.496
 5538SOL    HW117513   4.731   2.428   2.492
 5538SOL    HW217514   4.793   2.577   2.470
 5539SOL     OW17515   1.423   0.643   6.247
 5539SOL    HW117516   1.380   0.607   6.330
 5539SOL    HW217517   1.391   0.590   6.168
 5540SOL     OW17518   5.091   6.910   5.137
 5540SOL    HW117519   5.085   6.982   5.206
 5540SOL    HW217520   5.112   6.951   5.048
 5541SOL     OW17521   4.244   3.152   5.650
 5541SOL    HW117522   4.273   3.057   5.654
 5541SOL    HW217523   4.280   3.194   5.567
 5542SOL     OW17524   4.824   4.323   6.530
 5542SOL    HW117525   4.757   4.248   6.531
 5542SOL    HW217526   4.779   4.408   6.556
 5543SOL     OW17527   0.704   0.400   6.297
 5543SOL    HW117528   0.721   0.302   6.299
 5543SOL    HW217529   0.633   0.419   6.229
 5544SOL     OW17530   3.549   5.132   0.464
 5544SOL    HW117531   3.599   5.209   0.504
 5544SOL    HW217532   3.534   5.062   0.534
 5545SOL     OW17533   5.578   1.988   3.069
 5545SOL    HW117534   5.656   2.041   3.101
 5545SOL    HW217535   5.495   2.022   3.112
 5546SOL     OW17536   0.727   6.354   4.451
 5546SOL    HW117537   0.713   6.373   4.354
 5546SOL    HW217538   0.700   6.260   4.470
 5547SOL     OW17539   4.995   1.533   4.298
 5547SOL    HW117540   5.052   1.506   4.376
 5547SOL    HW217541   4.930   1.603   4.327
 5548SOL     OW17542   1.169   3.719   5.192
 5548SOL    HW117543   1.163   3.720   5.092
 5548SOL    HW217544   1.125   3.801   5.229
 5549SOL     OW17545   4.249   2.896   0.624
 5549SOL    HW117546   4.190   2.862   0.551
 5549SOL    HW217547   4.286   2.986   0.599
 5550SOL     OW17548   3.363   3.773   1.847
 5550SOL    HW117549   3.274   3.816   1.862
 5550SOL    HW217550   3.356   3.675   1.865
 5551SOL     OW17551   1.583   4.157   2.413
 5551SOL    HW117552   1.662   4.146   2.474
 5551SOL    HW217553   1.590   4.244   2.365
 5552SOL     OW17554   0.734   0.719   0.157
 5552SOL    HW117555   0.792   0.672   0.090
 5552SOL    HW217556   0.745   0.677   0.246
 5553SOL     OW17557   5.867   5.940   0.836
 5553SOL    HW117558   5.823   5.890   0.911
 5553SOL    HW217559   5.903   5.875   0.769
 5554SOL     OW17560   6.705   2.611   1.434
 5554SOL    HW117561   6.608   2.612   1.409
 5554SOL    HW217562   6.735   2.704   1.458
 5555SOL     OW17563   1.297   4.814   2.067
 5555SOL    HW117564   1.386   4.800   2.110
 5555SOL    HW217565   1.230   4.753   2.110
 5556SOL     OW17566   6.712   1.676   4.990
 5556SOL    HW117567   6.679   1.595   4.942
 5556SOL    HW217568   6.682   1.758   4.941
 5557SOL     OW17569   3.525   6.936   3.041
 5557SOL    HW117570   3.567   6.968   3.126
 5557SOL    HW217571   3.589   6.949   2.966
 5558SOL     OW17572   3.939   3.485   6.281
 5558SOL    HW117573   4.031   3.471   6.317
 5558SOL    HW217574   3.924   3.582   6.264
 5559SOL     OW17575   3.663   0.501   2.550
 5559SOL    HW117576   3.689   0.509   2.646
 5559SOL    HW217577   3.692   0.412   2.515
 5560SOL     OW17578   6.822   5.577   3.556
 5560SOL    HW117579   6.810   5.535   3.466
 5560SOL    HW217580   6.846   5.506   3.622
 5561SOL     OW17581   3.450   0.888   3.541
 5561SOL    HW117582   3.534   0.928   3.505
 5561SOL    HW217583   3.378   0.957   3.545
 5562SOL     OW17584   4.894   3.300   0.780
 5562SOL    HW117585   4.917   3.397   0.770
 5562SOL    HW217586   4.949   3.247   0.715
 5563SOL     OW17587   2.237   4.098   2.258
 5563SOL    HW117588   2.255   4.003   2.231
 5563SOL    HW217589   2.142   4.106   2.289
 5564SOL     OW17590   4.456   6.920   6.517
 5564SOL    HW117591   4.444   7.013   6.550
 5564SOL    HW217592   4.420   6.914   6.423
 5565SOL     OW17593   3.190   1.803   6.175
 5565SOL    HW117594   3.259   1.865   6.138
 5565SOL    HW217595   3.201   1.713   6.133
 5566SOL     OW17596   1.421   5.356   5.345
 5566SOL    HW117597   1.507   5.358   5.396
 5566SOL    HW217598   1.407   5.265   5.306
 5567SOL     OW17599   1.036   4.965   6.636
 5567SOL    HW117600   0.940   4.988   6.618
 5567SOL    HW217601   1.089   5.049   6.645
 5568SOL     OW17602   5.277   5.272   1.905
 5568SOL    HW117603   5.239   5.219   1.981
 5568SOL    HW217604   5.316   5.357   1.940
 5569SOL     OW17605   1.728   2.131   2.622
 5569SOL    HW117606   1.692   2.179   2.702
 5569SOL    HW217607   1.746   2.197   2.549
 5570SOL     OW17608   6.737   3.890   1.275
 5570SOL    HW117609   6.688   3.947   1.341
 5570SOL    HW217610   6.689   3.804   1.263
 5571SOL     OW17611   0.013   4.395   6.631
 5571SOL    HW117612   6.976   4.468   6.666
 5571SOL    HW217613   0.078   4.433   6.565
 5572SOL     OW17614   1.232   4.446   5.468
 5572SOL    HW117615   1.226   4.541   5.500
 5572SOL    HW217616   1.173   4.388   5.525
 5573SOL     OW17617   3.292   4.997   3.434
 5573SOL    HW117618   3.389   4.983   3.455
 5573SOL    HW217619   3.281   5.005   3.335
 5574SOL     OW17620   1.054   1.260   6.072
 5574SOL    HW117621   1.037   1.266   5.973
 5574SOL    HW217622   1.150   1.279   6.091
 5575SOL     OW17623   0.053   0.517   1.922
 5575SOL    HW117624   0.101   0.452   1.982
 5575SOL    HW217625   0.118   0.586   1.890
 5576SOL     OW17626   1.657   4.742   3.744
 5576SOL    HW117627   1.717   4.759   3.822
 5576SOL    HW217628   1.649   4.643   3.729
 5577SOL     OW17629   2.830   2.398   6.188
 5577SOL    HW117630   2.817   2.306   6.225
 5577SOL    HW217631   2.927   2.424   6.197
 5578SOL     OW17632   3.600   3.807   4.025
 5578SOL    HW117633   3.697   3.796   4.049
 5578SOL    HW217634   3.577   3.744   3.951
 5579SOL     OW17635   5.967   3.151   1.651
 5579SOL    HW117636   5.917   3.093   1.715
 5579SOL    HW217637   5.904   3.185   1.581
 5580SOL     OW17638   5.224   2.317   6.333
 5580SOL    HW117639   5.318   2.339   6.308
 5580SOL    HW217640   5.222   2.279   6.426
 5581SOL     OW17641   1.321   1.290   6.113
 5581SOL    HW117642   1.413   1.276   6.149
 5581SOL    HW217643   1.326   1.310   6.015
 5582SOL     OW17644   2.827   2.490   5.941
 5582SOL    HW117645   2.855   2.413   5.883
 5582SOL    HW217646   2.807   2.456   6.033
 5583SOL     OW17647   5.989   6.635   0.957
 5583SOL    HW117648   6.019   6.664   0.867
 5583SOL    HW217649   5.987   6.713   1.019
 5584SOL     OW17650   0.966   3.280   4.905
 5584SOL    HW117651   1.006   3.247   4.820
 5584SOL    HW217652   1.019   3.247   4.982
 5585SOL     OW17653   6.218   4.977   1.191
 5585SOL    HW117654   6.171   5.065   1.200
 5585SOL    HW217655   6.163   4.906   1.234
 5586SOL     OW17656   1.125   6.078   2.006
 5586SOL    HW117657   1.212   6.067   1.956
 5586SOL    HW217658   1.110   5.998   2.065
 5587SOL     OW17659   5.746   0.737   5.348
 5587SOL    HW117660   5.730   0.643   5.378
 5587SOL    HW217661   5.658   0.782   5.329
 5588SOL     OW17662   2.958   0.026   0.781
 5588SOL    HW117663   2.859   0.019   0.764
 5588SOL    HW217664   2.976   0.108   0.834
 5589SOL     OW17665   0.385   4.251   5.554
 5589SOL    HW117666   0.417   4.279   5.644
 5589SOL    HW217667   0.432   4.304   5.483
 5590SOL     OW17668   6.067   5.211   3.359
 5590SOL    HW117669   6.080   5.259   3.446
 5590SOL    HW217670   5.971   5.186   3.349
 5591SOL     OW17671   5.421   1.793   2.902
 5591SOL    HW117672   5.382   1.857   2.835
 5591SOL    HW217673   5.490   1.840   2.957
 5592SOL     OW17674   0.312   5.345   4.230
 5592SOL    HW117675   0.315   5.265   4.171
 5592SOL    HW217676   0.223   5.389   4.222
 5593SOL     OW17677   2.065   3.766   0.881
 5593SOL    HW117678   2.016   3.802   0.960
 5593SOL    HW217679   2.016   3.793   0.797
 5594SOL     OW17680   6.187   0.987   5.853
 5594SOL    HW117681   6.125   0.912   5.878
 5594SOL    HW217682   6.267   0.985   5.912
 5595SOL     OW17683   0.236   1.914   0.670
 5595SOL    HW117684   0.181   1.978   0.615
 5595SOL    HW217685   0.182   1.833   0.690
 5596SOL     OW17686   4.439   6.091   3.046
 5596SOL    HW117687   4.501   6.086   3.124
 5596SOL    HW217688   4.469   6.026   2.976
 5597SOL     OW17689   5.093   3.274   1.920
 5597SOL    HW117690   5.183   3.317   1.923
 5597SOL    HW217691   5.024   3.342   1.946
 5598SOL     OW17692   3.604   0.467   4.083
 5598SOL    HW117693   3.687   0.413   4.098
 5598SOL    HW217694   3.625   0.544   4.023
 5599SOL     OW17695   1.106   1.212   3.667
 5599SOL    HW117696   1.120   1.194   3.764
 5599SOL    HW217697   1.122   1.308   3.647
 5600SOL     OW17698   2.639   2.911   5.414
 5600SOL    HW117699   2.587   2.944   5.335
 5600SOL    HW217700   2.588   2.928   5.498
 5601SOL     OW17701   2.230   0.834   6.257
 5601SOL    HW117702   2.256   0.738   6.245
 5601SOL    HW217703   2.222   0.854   6.354
 5602SOL     OW17704   1.891   1.139   6.977
 5602SOL    HW117705   1.916   1.167   0.049
 5602SOL    HW217706   1.927   1.047   6.961
 5603SOL     OW17707   6.408   3.576   5.018
 5603SOL    HW117708   6.380   3.657   4.966
 5603SOL    HW217709   6.469   3.520   4.962
 5604SOL     OW17710   5.253   0.852   6.707
 5604SOL    HW117711   5.319   0.802   6.763
 5604SOL    HW217712   5.289   0.860   6.613
 5605SOL     OW17713   1.069   1.575   6.602
 5605SOL    HW117714   1.137   1.501   6.597
 5605SOL    HW217715   0.990   1.543   6.654
 5606SOL     OW17716   5.746   6.949   2.863
 5606SOL    HW117717   5.828   6.998   2.833
 5606SOL    HW217718   5.768   6.898   2.946
 5607SOL     OW17719   4.933   0.928   1.156
 5607SOL    HW117720   4.961   1.004   1.215
 5607SOL    HW217721   4.833   0.924   1.152
 5608SOL     OW17722   3.466   6.527   5.026
 5608SOL    HW117723   3.437   6.604   5.083
 5608SOL    HW217724   3.468   6.556   4.930
 5609SOL     OW17725   1.395   6.343   4.795
 5609SOL    HW117726   1.345   6.325   4.880
 5609SOL    HW217727   1.358   6.426   4.752
 5610SOL     OW17728   4.790   0.297   6.816
 5610SOL    HW117729   4.693   0.321   6.828
 5610SOL    HW217730   4.806   0.277   6.719
 5611SOL     OW17731   1.800   4.121   4.165
 5611SOL    HW117732   1.779   4.026   4.186
 5611SOL    HW217733   1.894   4.141   4.193
 5612SOL     OW17734   3.275   6.331   4.427
 5612SOL    HW117735   3.253   6.372   4.516
 5612SOL    HW217736   3.237   6.239   4.423
 5613SOL     OW17737   2.896   5.219   2.388
 5613SOL    HW117738   2.878   5.124   2.412
 5613SOL    HW217739   2.879   5.233   2.290
 5614SOL     OW17740   4.939   2.123   4.685
 5614SOL    HW117741   4.973   2.031   4.665
 5614SOL    HW217742   4.861   2.116   4.747
 5615SOL     OW17743   0.767   1.556   1.636
 5615SOL    HW117744   0.707   1.589   1.709
 5615SOL    HW217745   0.833   1.628   1.614
 5616SOL     OW17746   2.349   6.754   4.766
 5616SOL    HW117747   2.332   6.740   4.864
 5616SOL    HW217748   2.264   6.738   4.715
 5617SOL     OW17749   0.707   1.141   6.132
 5617SOL    HW117750   0.786   1.082   6.115
 5617SOL    HW217751   0.696   1.205   6.056
 5618SOL     OW17752   6.342   4.820   3.521
 5618SOL    HW117753   6.431   4.783   3.495
 5618SOL    HW217754   6.306   4.876   3.446
 5619SOL     OW17755   2.198   3.626   5.226
 5619SOL    HW117756   2.211   3.687   5.304
 5619SOL    HW217757   2.198   3.680   5.141
 5620SOL     OW17758   4.952   1.853   6.862
 5620SOL    HW117759   4.878   1.787   6.872
 5620SOL    HW217760   4.999   1.839   6.775
 5621SOL     OW17761   2.586   1.401   6.586
 5621SOL    HW117762   2.653   1.447   6.527
 5621SOL    HW217763   2.497   1.398   6.540
 5622SOL     OW17764   5.691   0.513   5.652
 5622SOL    HW117765   5.746   0.492   5.571
 5622SOL    HW217766   5.735   0.587   5.703
 5623SOL     OW17767   6.904   5.963   6.904
 5623SOL    HW117768   6.844   6.042   6.917
 5623SOL    HW217769   6.877   5.890   6.967
 5624SOL     OW17770   1.030   4.263   2.861
 5624SOL    HW117771   1.116   4.301   2.828
 5624SOL    HW217772   1.048   4.204   2.940
 5625SOL     OW17773   6.578   1.620   5.247
 5625SOL    HW117774   6.631   1.676   5.184
 5625SOL    HW217775   6.526   1.552   5.196
 5626SOL     OW17776   5.831   6.955   5.276
 5626SOL    HW117777   5.817   0.001   5.203
 5626SOL    HW217778   5.742   6.919   5.306
 5627SOL     OW17779   1.290   0.663   1.438
 5627SOL    HW117780   1.355   0.619   1.375
 5627SOL    HW217781   1.213   0.601   1.455
 5628SOL     OW17782   1.696   1.475   4.525
 5628SOL    HW117783   1.693   1.476   4.425
 5628SOL    HW217784   1.658   1.561   4.560
 5629SOL     OW17785   3.573   3.292   3.689
 5629SOL    HW117786   3.601   3.200   3.716
 5629SOL    HW217787   3.559   3.348   3.770
 5630SOL     OW17788   6.558   3.862   0.571
 5630SOL    HW117789   6.557   3.909   0.659
 5630SOL    HW217790   6.617   3.782   0.576
 5631SOL     OW17791   5.778   1.250   6.246
 5631SOL    HW117792   5.736   1.180   6.305
 5631SOL    HW217793   5.827   1.205   6.172
 5632SOL     OW17794   3.163   2.219   0.596
 5632SOL    HW117795   3.169   2.307   0.550
 5632SOL    HW217796   3.138   2.232   0.692
 5633SOL     OW17797   0.400   2.607   5.464
 5633SOL    HW117798   0.418   2.615   5.562
 5633SOL    HW217799   0.375   2.512   5.442
 5634SOL     OW17800   4.837   6.219   5.088
 5634SOL    HW117801   4.775   6.141   5.089
 5634SOL    HW217802   4.809   6.283   5.016
 5635SOL     OW17803   3.160   1.526   6.036
 5635SOL    HW117804   3.169   1.427   6.041
 5635SOL    HW217805   3.240   1.564   5.988
 5636SOL     OW17806   4.589   0.108   4.338
 5636SOL    HW117807   4.638   0.031   4.297
 5636SOL    HW217808   4.642   0.145   4.414
 5637SOL     OW17809   5.812   6.802   3.086
 5637SOL    HW117810   5.795   6.779   3.181
 5637SOL    HW217811   5.882   6.742   3.049
 5638SOL     OW17812   0.319   3.802   0.027
 5638SOL    HW117813   0.304   3.898   0.002
 5638SOL    HW217814   0.355   3.753   6.969
 5639SOL     OW17815   4.287   6.774   6.879
 5639SOL    HW117816   4.317   6.679   6.883
 5639SOL    HW217817   4.363   6.834   6.901
 5640SOL     OW17818   1.527   6.884   3.734
 5640SOL    HW117819   1.458   6.951   3.705
 5640SOL    HW217820   1.618   6.917   3.708
 5641SOL     OW17821   6.914   5.592   4.879
 5641SOL    HW117822   6.934   5.632   4.790
 5641SOL    HW217823   7.000   5.573   4.927
 5642SOL     OW17824   1.709   1.154   0.501
 5642SOL    HW117825   1.648   1.095   0.448
 5642SOL    HW217826   1.674   1.248   0.498
 5643SOL     OW17827   5.493   2.044   6.337
 5643SOL    HW117828   5.543   1.962   6.311
 5643SOL    HW217829   5.408   2.049   6.284
 5644SOL     OW17830   2.848   0.262   5.589
 5644SOL    HW117831   2.853   0.352   5.633
 5644SOL    HW217832   2.760   0.252   5.544
 5645SOL     OW17833   5.414   3.609   4.330
 5645SOL    HW117834   5.327   3.652   4.357
 5645SOL    HW217835   5.460   3.573   4.412
 5646SOL     OW17836   0.266   4.242   2.512
 5646SOL    HW117837   0.306   4.280   2.429
 5646SOL    HW217838   0.230   4.150   2.493
 5647SOL     OW17839   4.786   6.009   2.676
 5647SOL    HW117840   4.781   6.030   2.579
 5647SOL    HW217841   4.735   6.078   2.728
 5648SOL     OW17842   5.770   6.514   3.222
 5648SOL    HW117843   5.727   6.427   3.246
 5648SOL    HW217844   5.727   6.588   3.274
 5649SOL     OW17845   0.268   0.280   4.977
 5649SOL    HW117846   0.251   0.378   4.973
 5649SOL    HW217847   0.345   0.257   4.918
 5650SOL     OW17848   0.092   3.716   6.367
 5650SOL    HW117849   0.074   3.718   6.466
 5650SOL    HW217850   0.037   3.786   6.322
 5651SOL     OW17851   2.634   1.431   1.332
 5651SOL    HW117852   2.599   1.387   1.415
 5651SOL    HW217853   2.591   1.388   1.252
 5652SOL     OW17854   0.540   6.106   2.924
 5652SOL    HW117855   0.556   6.202   2.947
 5652SOL    HW217856   0.555   6.093   2.826
 5653SOL     OW17857   6.767   0.718   2.791
 5653SOL    HW117858   6.735   0.805   2.829
 5653SOL    HW217859   6.745   0.715   2.693
 5654SOL     OW17860   3.394   6.057   5.640
 5654SOL    HW117861   3.350   6.091   5.723
 5654SOL    HW217862   3.487   6.092   5.635
 5655SOL     OW17863   6.105   3.557   4.576
 5655SOL    HW117864   6.188   3.571   4.523
 5655SOL    HW217865   6.102   3.462   4.609
 5656SOL     OW17866   0.159   4.241   1.422
 5656SOL    HW117867   0.233   4.187   1.460
 5656SOL    HW217868   0.181   4.338   1.430
 5657SOL     OW17869   6.131   6.229   5.081
 5657SOL    HW117870   6.150   6.175   4.999
 5657SOL    HW217871   6.153   6.175   5.162
 5658SOL     OW17872   2.626   2.669   5.839
 5658SOL    HW117873   2.686   2.601   5.881
 5658SOL    HW217874   2.675   2.715   5.765
 5659SOL     OW17875   2.346   4.208   6.283
 5659SOL    HW117876   2.345   4.123   6.231
 5659SOL    HW217877   2.268   4.265   6.256
 5660SOL     OW17878   3.828   0.457   4.254
 5660SOL    HW117879   3.878   0.540   4.227
 5660SOL    HW217880   3.786   0.471   4.343
 5661SOL     OW17881   0.692   5.466   5.804
 5661SOL    HW117882   0.709   5.476   5.902
 5661SOL    HW217883   0.709   5.553   5.758
 5662SOL     OW17884   2.519   6.230   0.996
 5662SOL    HW117885   2.463   6.233   0.914
 5662SOL    HW217886   2.609   6.269   0.976
 5663SOL     OW17887   3.056   2.170   6.447
 5663SOL    HW117888   3.101   2.255   6.474
 5663SOL    HW217889   2.972   2.192   6.398
 5664SOL     OW17890   5.336   5.355   4.747
 5664SOL    HW117891   5.388   5.435   4.776
 5664SOL    HW217892   5.275   5.381   4.672
 5665SOL     OW17893   1.866   0.622   0.846
 5665SOL    HW117894   1.936   0.684   0.811
 5665SOL    HW217895   1.893   0.528   0.830
 5666SOL     OW17896   5.909   3.099   4.581
 5666SOL    HW117897   5.861   3.030   4.528
 5666SOL    HW217898   6.007   3.094   4.561
 5667SOL     OW17899   2.587   4.535   4.054
 5667SOL    HW117900   2.521   4.474   4.010
 5667SOL    HW217901   2.540   4.617   4.086
 5668SOL     OW17902   4.354   4.564   4.037
 5668SOL    HW117903   4.309   4.475   4.029
 5668SOL    HW217904   4.293   4.635   4.001
 5669SOL     OW17905   5.939   3.823   5.439
 5669SOL    HW117906   5.887   3.892   5.488
 5669SOL    HW217907   5.893   3.801   5.353
 5670SOL     OW17908   1.152   3.204   4.343
 5670SOL    HW117909   1.146   3.227   4.440
 5670SOL    HW217910   1.235   3.244   4.305
 5671SOL     OW17911   6.345   5.954   2.557
 5671SOL    HW117912   6.386   6.035   2.598
 5671SOL    HW217913   6.392   5.932   2.471
 5672SOL     OW17914   5.318   3.105   4.619
 5672SOL    HW117915   5.311   3.100   4.519
 5672SOL    HW217916   5.399   3.055   4.649
 5673SOL     OW17917   0.456   1.903   0.293
 5673SOL    HW117918   0.519   1.841   0.247
 5673SOL    HW217919   0.378   1.921   0.232
 5674SOL     OW17920   2.773   5.838   5.277
 5674SOL    HW117921   2.708   5.837   5.353
 5674SOL    HW217922   2.786   5.932   5.245
 5675SOL     OW17923   3.203   2.479   0.976
 5675SOL    HW117924   3.106   2.504   0.987
 5675SOL    HW217925   3.209   2.390   0.931
 5676SOL     OW17926   3.713   1.078   1.902
 5676SOL    HW117927   3.749   1.092   1.810
 5676SOL    HW217928   3.633   1.018   1.898
 5677SOL     OW17929   1.263   1.379   6.428
 5677SOL    HW117930   1.328   1.305   6.407
 5677SOL    HW217931   1.179   1.365   6.376
 5678SOL     OW17932   3.937   1.933   1.986
 5678SOL    HW117933   4.028   1.908   1.954
 5678SOL    HW217934   3.873   1.860   1.965
 5679SOL     OW17935   0.531   3.729   5.913
 5679SOL    HW117936   0.514   3.721   5.815
 5679SOL    HW217937   0.496   3.647   5.959
 5680SOL     OW17938   0.486   5.260   4.865
 5680SOL    HW117939   0.562   5.325   4.868
 5680SOL    HW217940   0.403   5.307   4.835
 5681SOL     OW17941   1.396   3.483   3.033
 5681SOL    HW117942   1.386   3.529   3.121
 5681SOL    HW217943   1.347   3.395   3.035
 5682SOL     OW17944   1.988   4.745   0.728
 5682SOL    HW117945   1.970   4.839   0.758
 5682SOL    HW217946   1.994   4.685   0.808
 5683SOL     OW17947   0.008   6.882   5.760
 5683SOL    HW117948   0.070   6.959   5.747
 5683SOL    HW217949   6.945   6.913   5.805
 5684SOL     OW17950   1.579   3.141   5.029
 5684SOL    HW117951   1.619   3.226   5.062
 5684SOL    HW217952   1.622   3.115   4.942
 5685SOL     OW17953   1.628   1.878   1.978
 5685SOL    HW117954   1.621   1.842   1.885
 5685SOL    HW217955   1.623   1.802   2.043
 5686SOL     OW17956   6.047   5.486   5.447
 5686SOL    HW117957   6.035   5.574   5.491
 5686SOL    HW217958   6.145   5.464   5.442
 5687SOL     OW17959   1.372   0.098   6.747
 5687SOL    HW117960   1.448   0.161   6.760
 5687SOL    HW217961   1.403   0.004   6.762
 5688SOL     OW17962   1.476   2.729   2.696
 5688SOL    HW117963   1.491   2.677   2.780
 5688SOL    HW217964   1.431   2.816   2.718
 5689SOL     OW17965   6.828   1.872   0.877
 5689SOL    HW117966   6.854   1.962   0.914
 5689SOL    HW217967   6.740   1.880   0.830
 5690SOL     OW17968   2.773   5.240   6.977
 5690SOL    HW117969   2.742   5.221   6.883
 5690SOL    HW217970   2.850   5.180   6.999
 5691SOL     OW17971   4.934   2.956   3.735
 5691SOL    HW117972   4.883   3.035   3.770
 5691SOL    HW217973   4.888   2.921   3.653
 5692SOL     OW17974   6.728   4.896   1.613
 5692SOL    HW117975   6.813   4.897   1.666
 5692SOL    HW217976   6.744   4.851   1.526
 5693SOL     OW17977   3.098   1.349   2.362
 5693SOL    HW117978   3.156   1.336   2.282
 5693SOL    HW217979   3.091   1.263   2.412
 5694SOL     OW17980   0.456   6.828   1.142
 5694SOL    HW117981   0.533   6.812   1.079
 5694SOL    HW217982   0.412   6.914   1.119
 5695SOL     OW17983   2.075   1.302   2.185
 5695SOL    HW117984   2.009   1.276   2.255
 5695SOL    HW217985   2.069   1.240   2.107
 5696SOL     OW17986   0.306   0.564   3.507
 5696SOL    HW117987   0.406   0.566   3.501
 5696SOL    HW217988   0.273   0.646   3.552
 5697SOL     OW17989   5.989   1.913   0.670
 5697SOL    HW117990   6.051   1.935   0.595
 5697SOL    HW217991   6.028   1.838   0.724
 5698SOL     OW17992   3.071   2.118   3.241
 5698SOL    HW117993   3.038   2.168   3.161
 5698SOL    HW217994   3.120   2.036   3.211
 5699SOL     OW17995   2.362   2.531   2.537
 5699SOL    HW117996   2.324   2.478   2.461
 5699SOL    HW217997   2.340   2.628   2.524
 5700SOL     OW17998   5.690   6.984   2.192
 5700SOL    HW117999   5.639   6.970   2.107
 5700SOL    HW218000   5.691   0.061   2.214
 5701SOL     OW18001   1.593   0.394   0.541
 5701SOL    HW118002   1.610   0.298   0.519
 5701SOL    HW218003   1.525   0.400   0.614
 5702SOL     OW18004   1.181   6.616   5.038
 5702SOL    HW118005   1.211   6.521   5.043
 5702SOL    HW218006   1.235   6.664   4.969
 5703SOL     OW18007   1.292   2.857   6.290
 5703SOL    HW118008   1.340   2.945   6.288
 5703SOL    HW218009   1.326   2.803   6.367
 5704SOL     OW18010   3.978   5.606   4.554
 5704SOL    HW118011   3.999   5.656   4.470
 5704SOL    HW218012   3.981   5.668   4.632
 5705SOL     OW18013   5.496   1.199   4.742
 5705SOL    HW118014   5.486   1.230   4.647
 5705SOL    HW218015   5.593   1.196   4.766
 5706SOL     OW18016   5.215   1.170   1.095
 5706SOL    HW118017   5.183   1.138   1.184
 5706SOL    HW218018   5.281   1.243   1.107
 5707SOL     OW18019   5.843   5.706   1.506
 5707SOL    HW118020   5.762   5.654   1.533
 5707SOL    HW218021   5.924   5.648   1.515
 5708SOL     OW18022   5.532   6.570   2.267
 5708SOL    HW118023   5.459   6.502   2.263
 5708SOL    HW218024   5.495   6.657   2.299
 5709SOL     OW18025   0.118   2.458   1.837
 5709SOL    HW118026   0.160   2.519   1.904
 5709SOL    HW218027   0.063   2.389   1.885
 5710SOL     OW18028   5.457   1.384   0.886
 5710SOL    HW118029   5.527   1.438   0.933
 5710SOL    HW218030   5.397   1.342   0.954
 5711SOL     OW18031   4.553   1.214   2.446
 5711SOL    HW118032   4.569   1.193   2.349
 5711SOL    HW218033   4.605   1.295   2.471
 5712SOL     OW18034   6.715   6.214   6.596
 5712SOL    HW118035   6.765   6.189   6.513
 5712SOL    HW218036   6.634   6.156   6.604
 5713SOL     OW18037   1.044   1.726   0.393
 5713SOL    HW118038   1.011   1.817   0.417
 5713SOL    HW218039   0.967   1.662   0.392
 5714SOL     OW18040   5.736   0.124   1.203
 5714SOL    HW118041   5.726   0.027   1.225
 5714SOL    HW218042   5.829   0.142   1.171
 5715SOL     OW18043   0.281   6.249   0.969
 5715SOL    HW118044   0.237   6.160   0.976
 5715SOL    HW218045   0.232   6.315   1.026
 5716SOL     OW18046   6.963   4.752   5.696
 5716SOL    HW118047   6.926   4.745   5.788
 5716SOL    HW218048   6.929   4.676   5.640
 5717SOL     OW18049   6.949   5.857   3.354
 5717SOL    HW118050   6.860   5.828   3.318
 5717SOL    HW218051   0.001   5.811   3.303
 5718SOL     OW18052   1.118   4.213   0.392
 5718SOL    HW118053   1.102   4.230   0.295
 5718SOL    HW218054   1.127   4.301   0.440
 5719SOL     OW18055   3.230   3.431   0.834
 5719SOL    HW118056   3.138   3.394   0.816
 5719SOL    HW218057   3.259   3.404   0.926
 5720SOL     OW18058   2.835   4.545   6.374
 5720SOL    HW118059   2.921   4.570   6.418
 5720SOL    HW218060   2.839   4.451   6.342
 5721SOL     OW18061   0.758   2.991   0.270
 5721SOL    HW118062   0.806   2.905   0.285
 5721SOL    HW218063   0.769   3.050   0.350
 5722SOL     OW18064   1.419   0.357   6.167
 5722SOL    HW118065   1.442   0.283   6.230
 5722SOL    HW218066   1.502   0.398   6.132
 5723SOL     OW18067   4.196   3.578   0.396
 5723SOL    HW118068   4.253   3.635   0.336
 5723SOL    HW218069   4.100   3.606   0.386
 5724SOL     OW18070   6.517   1.678   6.103
 5724SOL    HW118071   6.614   1.697   6.088
 5724SOL    HW218072   6.496   1.585   6.074
 5725SOL     OW18073   0.030   4.071   4.354
 5725SOL    HW118074   0.095   4.035   4.287
 5725SOL    HW218075   7.012   4.156   4.319
 5726SOL     OW18076   3.834   4.904   2.016
 5726SOL    HW118077   3.772   4.834   2.050
 5726SOL    HW218078   3.926   4.867   2.009
 5727SOL     OW18079   1.338   3.116   6.301
 5727SOL    HW118080   1.259   3.132   6.361
 5727SOL    HW218081   1.389   3.201   6.291
 5728SOL     OW18082   2.517   6.336   4.487
 5728SOL    HW118083   2.582   6.283   4.543
 5728SOL    HW218084   2.448   6.274   4.450
 5729SOL     OW18085   2.914   1.840   4.713
 5729SOL    HW118086   2.892   1.932   4.744
 5729SOL    HW218087   2.830   1.786   4.706
 5730SOL     OW18088   6.504   4.314   4.987
 5730SOL    HW118089   6.538   4.373   4.914
 5730SOL    HW218090   6.415   4.347   5.018
 5731SOL     OW18091   0.153   6.660   2.671
 5731SOL    HW118092   0.055   6.678   2.664
 5731SOL    HW218093   0.196   6.673   2.581
 5732SOL     OW18094   5.377   0.550   3.182
 5732SOL    HW118095   5.467   0.593   3.178
 5732SOL    HW218096   5.311   0.613   3.224
 5733SOL     OW18097   2.924   1.079   5.128
 5733SOL    HW118098   2.901   1.082   5.031
 5733SOL    HW218099   2.994   1.147   5.148
 5734SOL     OW18100   2.109   6.635   4.356
 5734SOL    HW118101   2.146   6.543   4.349
 5734SOL    HW218102   2.167   6.699   4.305
 5735SOL     OW18103   2.504   0.922   1.626
 5735SOL    HW118104   2.565   0.903   1.549
 5735SOL    HW218105   2.426   0.975   1.593
 5736SOL     OW18106   1.790   4.957   1.035
 5736SOL    HW118107   1.755   4.938   1.127
 5736SOL    HW218108   1.768   4.881   0.975
 5737SOL     OW18109   6.103   4.017   6.989
 5737SOL    HW118110   6.112   4.073   0.051
 5737SOL    HW218111   6.168   4.049   6.920
 5738SOL     OW18112   0.557   5.375   4.365
 5738SOL    HW118113   0.487   5.352   4.297
 5738SOL    HW218114   0.546   5.470   4.395
 5739SOL     OW18115   0.690   2.513   0.648
 5739SOL    HW118116   0.717   2.565   0.567
 5739SOL    HW218117   0.648   2.574   0.715
 5740SOL     OW18118   4.379   5.052   0.428
 5740SOL    HW118119   4.354   5.004   0.344
 5740SOL    HW218120   4.311   5.122   0.448
 5741SOL     OW18121   0.123   2.622   2.093
 5741SOL    HW118122   0.181   2.697   2.061
 5741SOL    HW218123   0.081   2.647   2.180
 5742SOL     OW18124   0.632   5.088   3.232
 5742SOL    HW118125   0.646   5.185   3.214
 5742SOL    HW218126   0.719   5.046   3.259
 5743SOL     OW18127   0.479   0.439   5.160
 5743SOL    HW118128   0.457   0.341   5.158
 5743SOL    HW218129   0.404   0.489   5.205
 5744SOL     OW18130   6.224   0.201   1.840
 5744SOL    HW118131   6.131   0.171   1.861
 5744SOL    HW218132   6.266   0.240   1.922
 5745SOL     OW18133   6.880   3.569   2.411
 5745SOL    HW118134   6.815   3.644   2.420
 5745SOL    HW218135   6.832   3.482   2.418
 5746SOL     OW18136   0.131   3.696   5.990
 5746SOL    HW118137   0.062   3.752   6.036
 5746SOL    HW218138   0.114   3.600   6.008
 5747SOL     OW18139   0.016   6.080   3.935
 5747SOL    HW118140   6.974   6.017   3.980
 5747SOL    HW218141   6.989   6.164   3.909
 5748SOL     OW18142   1.374   0.897   4.264
 5748SOL    HW118143   1.364   0.831   4.189
 5748SOL    HW218144   1.470   0.923   4.273
 5749SOL     OW18145   0.539   0.818   3.545
 5749SOL    HW118146   0.623   0.819   3.490
 5749SOL    HW218147   0.460   0.807   3.485
 5750SOL     OW18148   5.214   6.521   2.517
 5750SOL    HW118149   5.169   6.537   2.429
 5750SOL    HW218150   5.298   6.469   2.503
 5751SOL     OW18151   1.354   2.057   6.816
 5751SOL    HW118152   1.278   2.010   6.862
 5751SOL    HW218153   1.368   2.146   6.858
 5752SOL     OW18154   1.877   0.974   6.471
 5752SOL    HW118155   1.851   1.069   6.454
 5752SOL    HW218156   1.865   0.952   6.567
 5753SOL     OW18157   4.051   1.558   6.724
 5753SOL    HW118158   4.029   1.583   6.818
 5753SOL    HW218159   3.983   1.493   6.690
 5754SOL     OW18160   6.373   5.712   0.604
 5754SOL    HW118161   6.440   5.682   0.536
 5754SOL    HW218162   6.419   5.770   0.671
 5755SOL     OW18163   3.325   3.538   1.970
 5755SOL    HW118164   3.317   3.503   2.064
 5755SOL    HW218165   3.321   3.461   1.906
 5756SOL     OW18166   6.534   0.200   3.882
 5756SOL    HW118167   6.527   0.122   3.944
 5756SOL    HW218168   6.593   0.176   3.804
 5757SOL     OW18169   6.398   6.693   1.784
 5757SOL    HW118170   6.317   6.751   1.792
 5757SOL    HW218171   6.464   6.736   1.721
 5758SOL     OW18172   3.463   0.599   5.512
 5758SOL    HW118173   3.529   0.529   5.483
 5758SOL    HW218174   3.428   0.576   5.602
 5759SOL     OW18175   0.862   1.274   5.685
 5759SOL    HW118176   0.853   1.222   5.599
 5759SOL    HW218177   0.951   1.319   5.688
 5760SOL     OW18178   6.549   5.977   1.646
 5760SOL    HW118179   6.644   5.955   1.627
 5760SOL    HW218180   6.519   5.928   1.727
 5761SOL     OW18181   4.016   0.671   4.500
 5761SOL    HW118182   3.990   0.647   4.406
 5761SOL    HW218183   4.115   0.669   4.509
 5762SOL     OW18184   5.305   6.859   1.173
 5762SOL    HW118185   5.303   6.789   1.244
 5762SOL    HW218186   5.333   6.818   1.086
 5763SOL     OW18187   3.662   0.953   0.500
 5763SOL    HW118188   3.596   1.013   0.545
 5763SOL    HW218189   3.626   0.860   0.498
 5764SOL     OW18190   3.420   2.883   6.709
 5764SOL    HW118191   3.446   2.889   6.613
 5764SOL    HW218192   3.327   2.918   6.721
 5765SOL     OW18193   6.448   4.958   6.273
 5765SOL    HW118194   6.455   4.928   6.177
 5765SOL    HW218195   6.502   5.041   6.286
 5766SOL     OW18196   2.201   1.533   3.186
 5766SOL    HW118197   2.275   1.508   3.249
 5766SOL    HW218198   2.224   1.503   3.093
 5767SOL     OW18199   5.601   6.419   0.252
 5767SOL    HW118200   5.579   6.476   0.332
 5767SOL    HW218201   5.699   6.424   0.234
 5768SOL     OW18202   6.082   6.818   1.727
 5768SOL    HW118203   6.120   6.765   1.651
 5768SOL    HW218204   6.020   6.761   1.780
 5769SOL     OW18205   0.186   4.573   2.887
 5769SOL    HW118206   0.215   4.575   2.982
 5769SOL    HW218207   0.131   4.492   2.870
 5770SOL     OW18208   4.829   2.050   1.318
 5770SOL    HW118209   4.862   2.061   1.224
 5770SOL    HW218210   4.845   2.135   1.369
 5771SOL     OW18211   1.103   0.471   1.793
 5771SOL    HW118212   1.037   0.480   1.867
 5771SOL    HW218213   1.196   0.480   1.830
 5772SOL     OW18214   6.193   4.953   5.428
 5772SOL    HW118215   6.231   4.897   5.354
 5772SOL    HW218216   6.093   4.943   5.428
 5773SOL     OW18217   4.831   6.484   4.783
 5773SOL    HW118218   4.907   6.470   4.847
 5773SOL    HW218219   4.754   6.425   4.810
 5774SOL     OW18220   1.622   4.885   2.058
 5774SOL    HW118221   1.581   4.872   2.149
 5774SOL    HW218222   1.683   4.809   2.038
 5775SOL     OW18223   0.747   0.973   0.843
 5775SOL    HW118224   0.826   0.992   0.784
 5775SOL    HW218225   0.771   0.901   0.908
 5776SOL     OW18226   5.002   1.047   5.797
 5776SOL    HW118227   5.093   1.040   5.757
 5776SOL    HW218228   4.960   1.134   5.771
 5777SOL     OW18229   5.498   6.485   4.533
 5777SOL    HW118230   5.427   6.513   4.598
 5777SOL    HW218231   5.502   6.385   4.531
 5778SOL     OW18232   2.587   6.542   3.791
 5778SOL    HW118233   2.491   6.536   3.762
 5778SOL    HW218234   2.593   6.537   3.890
 5779SOL     OW18235   3.767   6.807   2.079
 5779SOL    HW118236   3.822   6.723   2.077
 5779SOL    HW218237   3.798   6.865   2.154
 5780SOL     OW18238   6.932   4.555   6.900
 5780SOL    HW118239   6.901   4.594   6.813
 5780SOL    HW218240   6.867   4.484   6.929
 5781SOL     OW18241   4.305   4.604   5.822
 5781SOL    HW118242   4.362   4.570   5.747
 5781SOL    HW218243   4.209   4.585   5.802
 5782SOL     OW18244   5.183   1.733   2.646
 5782SOL    HW118245   5.143   1.666   2.709
 5782SOL    HW218246   5.176   1.824   2.686
 5783SOL     OW18247   3.168   6.388   3.417
 5783SOL    HW118248   3.150   6.418   3.324
 5783SOL    HW218249   3.196   6.293   3.417
 5784SOL     OW18250   0.705   6.821   2.528
 5784SOL    HW118251   0.765   6.878   2.584
 5784SOL    HW218252   0.740   6.818   2.434
 5785SOL     OW18253   2.620   0.991   6.373
 5785SOL    HW118254   2.599   1.006   6.276
 5785SOL    HW218255   2.712   1.025   6.393
 5786SOL     OW18256   2.295   1.442   6.834
 5786SOL    HW118257   2.370   1.509   6.830
 5786SOL    HW218258   2.306   1.385   6.916
 5787SOL     OW18259   0.848   1.974   6.188
 5787SOL    HW118260   0.841   1.888   6.138
 5787SOL    HW218261   0.940   2.012   6.176
 5788SOL     OW18262   0.381   2.708   1.467
 5788SOL    HW118263   0.459   2.663   1.424
 5788SOL    HW218264   0.316   2.639   1.500
 5789SOL     OW18265   2.957   0.772   0.468
 5789SOL    HW118266   2.977   0.712   0.390
 5789SOL    HW218267   3.036   0.776   0.529
 5790SOL     OW18268   6.405   6.105   2.226
 5790SOL    HW118269   6.443   6.168   2.293
 5790SOL    HW218270   6.362   6.156   2.152
 5791SOL     OW18271   3.724   0.843   0.868
 5791SOL    HW118272   3.666   0.899   0.927
 5791SOL    HW218273   3.674   0.762   0.838
 5792SOL     OW18274   4.516   1.954   2.758
 5792SOL    HW118275   4.465   2.000   2.685
 5792SOL    HW218276   4.452   1.922   2.827
 5793SOL     OW18277   4.926   2.327   0.773
 5793SOL    HW118278   4.886   2.346   0.863
 5793SOL    HW218279   4.998   2.393   0.753
 5794SOL     OW18280   3.330   6.003   0.118
 5794SOL    HW118281   3.368   5.947   0.192
 5794SOL    HW218282   3.402   6.059   0.078
 5795SOL     OW18283   1.217   0.812   1.926
 5795SOL    HW118284   1.289   0.855   1.871
 5795SOL    HW218285   1.132   0.808   1.874
 5796SOL     OW18286   4.617   0.983   5.894
 5796SOL    HW118287   4.694   0.936   5.936
 5796SOL    HW218288   4.636   0.996   5.796
 5797SOL     OW18289   5.820   1.476   0.179
 5797SOL    HW118290   5.819   1.564   0.132
 5797SOL    HW218291   5.913   1.440   0.181
 5798SOL     OW18292   2.195   2.814   4.931
 5798SOL    HW118293   2.196   2.846   4.836
 5798SOL    HW218294   2.248   2.877   4.988
 5799SOL     OW18295   2.949   0.671   3.759
 5799SOL    HW118296   2.918   0.577   3.769
 5799SOL    HW218297   3.016   0.676   3.686
 5800SOL     OW18298   1.486   6.121   1.353
 5800SOL    HW118299   1.576   6.137   1.394
 5800SOL    HW218300   1.449   6.035   1.389
 5801SOL     OW18301   1.368   2.465   3.165
 5801SOL    HW118302   1.401   2.534   3.100
 5801SOL    HW218303   1.442   2.400   3.184
 5802SOL     OW18304   6.908   0.081   2.732
 5802SOL    HW118305   6.906   0.176   2.698
 5802SOL    HW218306   6.886   0.080   2.830
 5803SOL     OW18307   0.375   6.504   4.470
 5803SOL    HW118308   0.346   6.410   4.485
 5803SOL    HW218309   0.461   6.521   4.519
 5804SOL     OW18310   5.586   2.327   3.278
 5804SOL    HW118311   5.585   2.381   3.194
 5804SOL    HW218312   5.645   2.371   3.345
 5805SOL     OW18313   0.821   2.472   1.429
 5805SOL    HW118314   0.792   2.481   1.334
 5805SOL    HW218315   0.921   2.462   1.432
 5806SOL     OW18316   6.602   4.277   1.357
 5806SOL    HW118317   6.672   4.316   1.417
 5806SOL    HW218318   6.606   4.324   1.268
 5807SOL     OW18319   0.711   0.840   3.100
 5807SOL    HW118320   0.612   0.825   3.110
 5807SOL    HW218321   0.757   0.751   3.096
 5808SOL     OW18322   6.264   5.239   5.732
 5808SOL    HW118323   6.316   5.288   5.802
 5808SOL    HW218324   6.323   5.172   5.687
 5809SOL     OW18325   6.568   3.377   4.869
 5809SOL    HW118326   6.639   3.368   4.799
 5809SOL    HW218327   6.581   3.306   4.939
 5810SOL     OW18328   0.689   6.168   5.260
 5810SOL    HW118329   0.630   6.248   5.271
 5810SOL    HW218330   0.784   6.197   5.255
 5811SOL     OW18331   3.224   5.006   0.523
 5811SOL    HW118332   3.130   5.009   0.557
 5811SOL    HW218333   3.265   4.918   0.546
 5812SOL     OW18334   6.597   1.977   5.993
 5812SOL    HW118335   6.645   1.976   5.906
 5812SOL    HW218336   6.660   1.949   6.066
 5813SOL     OW18337   6.435   5.797   0.893
 5813SOL    HW118338   6.501   5.741   0.943
 5813SOL    HW218339   6.346   5.752   0.892
 5814SOL     OW18340   4.874   1.863   2.654
 5814SOL    HW118341   4.886   1.816   2.567
 5814SOL    HW218342   4.873   1.797   2.728
 5815SOL     OW18343   6.877   4.571   4.811
 5815SOL    HW118344   6.874   4.480   4.853
 5815SOL    HW218345   6.829   4.637   4.869
 5816SOL     OW18346   6.854   4.064   1.091
 5816SOL    HW118347   6.924   4.054   1.162
 5816SOL    HW218348   6.769   4.024   1.122
 5817SOL     OW18349   6.579   2.816   3.696
 5817SOL    HW118350   6.521   2.837   3.617
 5817SOL    HW218351   6.672   2.796   3.665
 5818SOL     OW18352   2.539   0.877   4.038
 5818SOL    HW118353   2.612   0.816   4.008
 5818SOL    HW218354   2.545   0.891   4.137
 5819SOL     OW18355   3.982   4.489   1.458
 5819SOL    HW118356   3.975   4.416   1.526
 5819SOL    HW218357   3.933   4.569   1.490
 5820SOL     OW18358   0.243   6.715   2.400
 5820SOL    HW118359   0.177   6.776   2.355
 5820SOL    HW218360   0.320   6.698   2.338
 5821SOL     OW18361   4.787   6.179   1.873
 5821SOL    HW118362   4.838   6.265   1.883
 5821SOL    HW218363   4.769   6.140   1.964
 5822SOL     OW18364   1.153   3.739   3.663
 5822SOL    HW118365   1.077   3.693   3.616
 5822SOL    HW218366   1.239   3.699   3.633
 5823SOL     OW18367   2.504   6.496   4.898
 5823SOL    HW118368   2.532   6.570   4.958
 5823SOL    HW218369   2.584   6.457   4.853
 5824SOL     OW18370   2.106   5.804   2.430
 5824SOL    HW118371   2.195   5.771   2.461
 5824SOL    HW218372   2.097   5.790   2.331
 5825SOL     OW18373   3.283   2.025   4.640
 5825SOL    HW118374   3.271   2.036   4.738
 5825SOL    HW218375   3.193   2.018   4.596
 5826SOL     OW18376   1.448   6.031   5.547
 5826SOL    HW118377   1.449   5.963   5.473
 5826SOL    HW218378   1.524   6.012   5.610
 5827SOL     OW18379   2.115   4.264   3.986
 5827SOL    HW118380   2.170   4.190   4.026
 5827SOL    HW218381   2.069   4.315   4.059
 5828SOL     OW18382   4.578   0.172   5.237
 5828SOL    HW118383   4.608   0.224   5.317
 5828SOL    HW218384   4.481   0.147   5.249
 5829SOL     OW18385   1.910   1.426   2.742
 5829SOL    HW118386   1.947   1.484   2.814
 5829SOL    HW218387   1.825   1.384   2.773
 5830SOL     OW18388   5.179   5.115   4.502
 5830SOL    HW118389   5.234   5.118   4.419
 5830SOL    HW218390   5.236   5.088   4.579
 5831SOL     OW18391   2.941   1.851   4.179
 5831SOL    HW118392   2.874   1.781   4.203
 5831SOL    HW218393   2.895   1.927   4.134
 5832SOL     OW18394   2.963   5.242   3.207
 5832SOL    HW118395   2.982   5.331   3.165
 5832SOL    HW218396   3.031   5.224   3.278
 5833SOL     OW18397   2.221   4.690   1.821
 5833SOL    HW118398   2.175   4.625   1.761
 5833SOL    HW218399   2.305   4.722   1.778
 5834SOL     OW18400   5.878   1.996   6.593
 5834SOL    HW118401   5.931   1.986   6.509
 5834SOL    HW218402   5.858   1.905   6.630
 5835SOL     OW18403   3.749   0.611   3.535
 5835SOL    HW118404   3.664   0.608   3.483
 5835SOL    HW218405   3.827   0.596   3.474
 5836SOL     OW18406   5.523   5.034   1.456
 5836SOL    HW118407   5.526   4.935   1.470
 5836SOL    HW218408   5.430   5.063   1.436
 5837SOL     OW18409   2.206   3.932   0.099
 5837SOL    HW118410   2.168   4.008   0.046
 5837SOL    HW218411   2.248   3.967   0.183
 5838SOL     OW18412   2.689   3.037   0.964
 5838SOL    HW118413   2.704   3.135   0.973
 5838SOL    HW218414   2.777   2.992   0.946
 5839SOL     OW18415   2.713   1.678   1.213
 5839SOL    HW118416   2.652   1.756   1.220
 5839SOL    HW218417   2.674   1.599   1.261
 5840SOL     OW18418   6.123   3.707   2.241
 5840SOL    HW118419   6.072   3.728   2.324
 5840SOL    HW218420   6.094   3.619   2.205
 5841SOL     OW18421   4.888   1.746   0.633
 5841SOL    HW118422   4.832   1.665   0.622
 5841SOL    HW218423   4.972   1.737   0.579
 5842SOL     OW18424   3.697   1.953   2.248
 5842SOL    HW118425   3.628   1.884   2.225
 5842SOL    HW218426   3.686   2.031   2.186
 5843SOL     OW18427   3.172   2.359   1.305
 5843SOL    HW118428   3.194   2.302   1.384
 5843SOL    HW218429   3.255   2.371   1.249
 5844SOL     OW18430   6.667   5.233   5.222
 5844SOL    HW118431   6.698   5.168   5.152
 5844SOL    HW218432   6.639   5.183   5.303
 5845SOL     OW18433   2.258   5.957   3.233
 5845SOL    HW118434   2.160   5.944   3.220
 5845SOL    HW218435   2.291   6.027   3.170
 5846SOL     OW18436   0.671   4.175   5.445
 5846SOL    HW118437   0.668   4.231   5.528
 5846SOL    HW218438   0.640   4.229   5.367
 5847SOL     OW18439   2.207   3.747   5.521
 5847SOL    HW118440   2.287   3.780   5.571
 5847SOL    HW218441   2.160   3.677   5.575
 5848SOL     OW18442   2.782   6.686   1.619
 5848SOL    HW118443   2.694   6.707   1.660
 5848SOL    HW218444   2.772   6.679   1.519
 5849SOL     OW18445   2.540   6.039   6.559
 5849SOL    HW118446   2.504   5.999   6.644
 5849SOL    HW218447   2.531   5.972   6.485
 5850SOL     OW18448   5.324   2.470   1.341
 5850SOL    HW118449   5.353   2.379   1.369
 5850SOL    HW218450   5.292   2.521   1.421
 5851SOL     OW18451   1.243   2.572   6.160
 5851SOL    HW118452   1.175   2.594   6.229
 5851SOL    HW218453   1.297   2.493   6.190
 5852SOL     OW18454   4.182   5.008   3.190
 5852SOL    HW118455   4.186   4.912   3.163
 5852SOL    HW218456   4.232   5.020   3.276
 5853SOL     OW18457   3.958   4.570   6.676
 5853SOL    HW118458   3.910   4.485   6.654
 5853SOL    HW218459   4.029   4.551   6.745
 5854SOL     OW18460   2.793   4.429   5.424
 5854SOL    HW118461   2.697   4.415   5.447
 5854SOL    HW218462   2.805   4.430   5.325
 5855SOL     OW18463   1.703   2.216   4.446
 5855SOL    HW118464   1.798   2.206   4.477
 5855SOL    HW218465   1.701   2.212   4.346
 5856SOL     OW18466   0.534   0.881   2.275
 5856SOL    HW118467   0.603   0.881   2.348
 5856SOL    HW218468   0.447   0.849   2.311
 5857SOL     OW18469   6.300   5.605   6.563
 5857SOL    HW118470   6.370   5.617   6.493
 5857SOL    HW218471   6.304   5.512   6.599
 5858SOL     OW18472   2.930   1.754   1.662
 5858SOL    HW118473   2.925   1.687   1.588
 5858SOL    HW218474   2.854   1.740   1.725
 5859SOL     OW18475   6.131   5.195   1.444
 5859SOL    HW118476   6.149   5.226   1.351
 5859SOL    HW218477   6.172   5.259   1.509
 5860SOL     OW18478   1.846   2.747   1.879
 5860SOL    HW118479   1.826   2.688   1.801
 5860SOL    HW218480   1.762   2.794   1.908
 5861SOL     OW18481   5.368   6.960   4.432
 5861SOL    HW118482   5.464   6.952   4.405
 5861SOL    HW218483   5.310   6.945   4.352
 5862SOL     OW18484   0.546   5.065   1.140
 5862SOL    HW118485   0.620   5.069   1.074
 5862SOL    HW218486   0.488   5.146   1.130
 5863SOL     OW18487   4.101   6.739   6.050
 5863SOL    HW118488   4.113   6.824   6.100
 5863SOL    HW218489   4.097   6.663   6.114
 5864SOL     OW18490   3.509   3.654   3.484
 5864SOL    HW118491   3.442   3.726   3.468
 5864SOL    HW218492   3.468   3.565   3.467
 5865SOL     OW18493   6.816   6.302   1.289
 5865SOL    HW118494   6.799   6.335   1.196
 5865SOL    HW218495   6.759   6.352   1.353
 5866SOL     OW18496   2.888   3.604   4.200
 5866SOL    HW118497   2.827   3.667   4.247
 5866SOL    HW218498   2.954   3.655   4.146
 5867SOL     OW18499   4.411   0.806   0.712
 5867SOL    HW118500   4.337   0.870   0.690
 5867SOL    HW218501   4.432   0.813   0.810
 5868SOL     OW18502   1.524   1.120   0.763
 5868SOL    HW118503   1.591   1.153   0.697
 5868SOL    HW218504   1.477   1.197   0.805
 5869SOL     OW18505   2.150   5.253   3.943
 5869SOL    HW118506   2.109   5.344   3.955
 5869SOL    HW218507   2.233   5.247   3.999
 5870SOL     OW18508   3.880   6.505   3.658
 5870SOL    HW118509   3.851   6.542   3.570
 5870SOL    HW218510   3.959   6.445   3.644
 5871SOL     OW18511   3.795   2.910   3.239
 5871SOL    HW118512   3.869   2.867   3.188
 5871SOL    HW218513   3.792   3.008   3.217
 5872SOL     OW18514   3.736   5.199   1.491
 5872SOL    HW118515   3.764   5.293   1.508
 5872SOL    HW218516   3.659   5.198   1.427
 5873SOL     OW18517   3.998   6.833   2.673
 5873SOL    HW118518   4.086   6.790   2.655
 5873SOL    HW218519   3.959   6.796   2.758
 5874SOL     OW18520   0.130   3.321   4.423
 5874SOL    HW118521   0.128   3.249   4.492
 5874SOL    HW218522   0.133   3.410   4.468
 5875SOL     OW18523   5.042   2.773   1.170
 5875SOL    HW118524   5.025   2.830   1.090
 5875SOL    HW218525   5.140   2.753   1.176
 5876SOL     OW18526   3.261   3.511   2.833
 5876SOL    HW118527   3.225   3.522   2.741
 5876SOL    HW218528   3.200   3.556   2.898
 5877SOL     OW18529   4.732   4.383   1.394
 5877SOL    HW118530   4.655   4.425   1.441
 5877SOL    HW218531   4.812   4.443   1.401
 5878SOL     OW18532   0.150   3.530   1.542
 5878SOL    HW118533   0.124   3.567   1.453
 5878SOL    HW218534   0.174   3.433   1.531
 5879SOL     OW18535   1.777   4.524   4.879
 5879SOL    HW118536   1.786   4.430   4.847
 5879SOL    HW218537   1.867   4.562   4.898
 5880SOL     OW18538   2.836   5.079   0.322
 5880SOL    HW118539   2.877   5.161   0.281
 5880SOL    HW218540   2.752   5.056   0.272
 5881SOL     OW18541   1.412   6.519   4.328
 5881SOL    HW118542   1.357   6.601   4.313
 5881SOL    HW218543   1.464   6.529   4.412
 5882SOL     OW18544   4.884   0.743   3.294
 5882SOL    HW118545   4.910   0.761   3.199
 5882SOL    HW218546   4.933   0.663   3.328
 5883SOL     OW18547   0.575   3.579   5.583
 5883SOL    HW118548   0.584   3.511   5.657
 5883SOL    HW218549   0.666   3.606   5.553
 5884SOL     OW18550   0.027   1.149   3.446
 5884SOL    HW118551   7.013   1.194   3.528
 5884SOL    HW218552   0.026   1.050   3.459
 5885SOL     OW18553   6.146   5.984   0.416
 5885SOL    HW118554   6.159   5.902   0.361
 5885SOL    HW218555   6.231   6.007   0.462
 5886SOL     OW18556   5.646   1.813   5.741
 5886SOL    HW118557   5.558   1.781   5.777
 5886SOL    HW218558   5.696   1.859   5.814
 5887SOL     OW18559   3.152   0.111   2.237
 5887SOL    HW118560   3.073   0.051   2.243
 5887SOL    HW218561   3.125   0.204   2.263
 5888SOL     OW18562   6.312   6.417   1.776
 5888SOL    HW118563   6.394   6.380   1.733
 5888SOL    HW218564   6.306   6.515   1.758
 5889SOL     OW18565   3.101   6.987   0.567
 5889SOL    HW118566   3.039   6.994   0.645
 5889SOL    HW218567   3.123   0.058   0.534
 5890SOL     OW18568   4.479   5.157   6.137
 5890SOL    HW118569   4.556   5.097   6.119
 5890SOL    HW218570   4.428   5.124   6.217
 5891SOL     OW18571   2.156   2.886   6.825
 5891SOL    HW118572   2.210   2.928   6.897
 5891SOL    HW218573   2.181   2.925   6.736
 5892SOL     OW18574   2.806   5.529   1.686
 5892SOL    HW118575   2.849   5.467   1.620
 5892SOL    HW218576   2.784   5.478   1.769
 5893SOL     OW18577   0.919   2.876   1.926
 5893SOL    HW118578   0.927   2.796   1.866
 5893SOL    HW218579   0.884   2.847   2.015
 5894SOL     OW18580   1.887   3.826   3.606
 5894SOL    HW118581   1.893   3.741   3.555
 5894SOL    HW218582   1.977   3.868   3.613
 5895SOL     OW18583   5.189   5.238   2.600
 5895SOL    HW118584   5.181   5.237   2.700
 5895SOL    HW218585   5.100   5.221   2.559
 5896SOL     OW18586   6.049   1.585   5.867
 5896SOL    HW118587   6.103   1.655   5.820
 5896SOL    HW218588   5.955   1.586   5.833
 5897SOL     OW18589   4.473   4.327   0.663
 5897SOL    HW118590   4.475   4.347   0.761
 5897SOL    HW218591   4.542   4.382   0.615
 5898SOL     OW18592   1.597   5.696   2.724
 5898SOL    HW118593   1.509   5.726   2.760
 5898SOL    HW218594   1.656   5.775   2.707
 5899SOL     OW18595   5.235   0.740   3.280
 5899SOL    HW118596   5.182   0.790   3.348
 5899SOL    HW218597   5.228   0.785   3.191
 5900SOL     OW18598   3.767   5.122   1.787
 5900SOL    HW118599   3.821   5.169   1.857
 5900SOL    HW218600   3.718   5.189   1.732
 5901SOL     OW18601   3.124   6.619   3.574
 5901SOL    HW118602   3.122   6.527   3.537
 5901SOL    HW218603   3.094   6.618   3.670
 5902SOL     OW18604   5.888   2.303   0.010
 5902SOL    HW118605   5.935   2.370   6.973
 5902SOL    HW218606   5.813   2.348   0.059
 5903SOL     OW18607   0.623   1.940   6.339
 5903SOL    HW118608   0.706   1.986   6.308
 5903SOL    HW218609   0.610   1.957   6.437
 5904SOL     OW18610   0.780   3.151   1.547
 5904SOL    HW118611   0.736   3.204   1.619
 5904SOL    HW218612   0.780   3.054   1.572
 5905SOL     OW18613   6.775   3.825   2.109
 5905SOL    HW118614   6.860   3.820   2.057
 5905SOL    HW218615   6.791   3.868   2.197
 5906SOL     OW18616   6.418   1.389   3.395
 5906SOL    HW118617   6.419   1.475   3.447
 5906SOL    HW218618   6.512   1.355   3.386
 5907SOL     OW18619   1.590   0.889   2.500
 5907SOL    HW118620   1.597   0.985   2.472
 5907SOL    HW218621   1.495   0.859   2.495
 5908SOL     OW18622   0.642   3.003   5.435
 5908SOL    HW118623   0.651   3.049   5.523
 5908SOL    HW218624   0.732   2.981   5.399
 5909SOL     OW18625   6.904   4.229   6.386
 5909SOL    HW118626   6.934   4.166   6.314
 5909SOL    HW218627   6.981   4.249   6.447
 5910SOL     OW18628   1.445   1.585   3.476
 5910SOL    HW118629   1.508   1.569   3.400
 5910SOL    HW218630   1.358   1.618   3.442
 5911SOL     OW18631   5.910   5.393   6.619
 5911SOL    HW118632   5.825   5.406   6.671
 5911SOL    HW218633   5.915   5.299   6.586
 5912SOL     OW18634   0.750   1.870   2.259
 5912SOL    HW118635   0.683   1.915   2.200
 5912SOL    HW218636   0.712   1.859   2.351
 5913SOL     OW18637   0.231   3.673   1.027
 5913SOL    HW118638   0.206   3.636   0.938
 5913SOL    HW218639   0.305   3.618   1.067
 5914SOL     OW18640   1.525   6.818   0.784
 5914SOL    HW118641   1.475   6.773   0.858
 5914SOL    HW218642   1.604   6.762   0.758
 5915SOL     OW18643   4.198   0.512   5.019
 5915SOL    HW118644   4.285   0.552   5.048
 5915SOL    HW218645   4.172   0.439   5.082
 5916SOL     OW18646   0.902   0.300   2.965
 5916SOL    HW118647   0.842   0.274   2.889
 5916SOL    HW218648   0.994   0.316   2.931
 5917SOL     OW18649   3.453   3.459   0.414
 5917SOL    HW118650   3.393   3.519   0.466
 5917SOL    HW218651   3.525   3.424   0.474
 5918SOL     OW18652   3.477   6.688   4.804
 5918SOL    HW118653   3.456   6.635   4.722
 5918SOL    HW218654   3.572   6.669   4.832
 5919SOL     OW18655   2.991   3.453   5.011
 5919SOL    HW118656   3.089   3.435   5.014
 5919SOL    HW218657   2.976   3.550   4.991
 5920SOL     OW18658   1.260   0.172   5.338
 5920SOL    HW118659   1.228   0.122   5.257
 5920SOL    HW218660   1.247   0.270   5.324
 5921SOL     OW18661   2.586   4.267   1.070
 5921SOL    HW118662   2.576   4.301   0.976
 5921SOL    HW218663   2.591   4.167   1.068
 5922SOL     OW18664   4.985   2.923   2.573
 5922SOL    HW118665   5.079   2.953   2.558
 5922SOL    HW218666   4.930   2.945   2.492
 5923SOL     OW18667   5.955   0.985   2.513
 5923SOL    HW118668   5.970   0.900   2.565
 5923SOL    HW218669   5.972   1.063   2.572
 5924SOL     OW18670   0.191   6.162   3.360
 5924SOL    HW118671   0.096   6.141   3.380
 5924SOL    HW218672   0.231   6.088   3.306
 5925SOL     OW18673   4.339   0.745   0.970
 5925SOL    HW118674   4.387   0.661   0.994
 5925SOL    HW218675   4.251   0.722   0.929
 5926SOL     OW18676   4.872   3.342   3.545
 5926SOL    HW118677   4.836   3.430   3.574
 5926SOL    HW218678   4.886   3.283   3.624
 5927SOL     OW18679   1.197   0.231   1.510
 5927SOL    HW118680   1.257   0.295   1.460
 5927SOL    HW218681   1.252   0.176   1.573
 5928SOL     OW18682   2.825   0.144   0.294
 5928SOL    HW118683   2.788   0.074   0.354
 5928SOL    HW218684   2.843   0.105   0.204
 5929SOL     OW18685   0.895   1.063   1.626
 5929SOL    HW118686   0.980   1.113   1.609
 5929SOL    HW218687   0.892   0.982   1.568
 5930SOL     OW18688   0.728   4.918   1.655
 5930SOL    HW118689   0.772   4.836   1.620
 5930SOL    HW218690   0.738   4.922   1.755
 5931SOL     OW18691   4.761   0.236   4.495
 5931SOL    HW118692   4.841   0.184   4.526
 5931SOL    HW218693   4.788   0.298   4.422
 5932SOL     OW18694   3.137   5.829   0.680
 5932SOL    HW118695   3.159   5.923   0.655
 5932SOL    HW218696   3.191   5.766   0.623
 5933SOL     OW18697   6.919   5.760   4.203
 5933SOL    HW118698   6.912   5.840   4.144
 5933SOL    HW218699   6.847   5.761   4.271
 5934SOL     OW18700   3.114   4.587   7.004
 5934SOL    HW118701   3.077   4.589   0.076
 5934SOL    HW218702   3.091   4.500   6.960
 5935SOL     OW18703   1.737   0.849   5.466
 5935SOL    HW118704   1.670   0.853   5.393
 5935SOL    HW218705   1.697   0.885   5.550
 5936SOL     OW18706   3.960   3.141   2.076
 5936SOL    HW118707   4.040   3.178   2.030
 5936SOL    HW218708   3.918   3.070   2.020
 5937SOL     OW18709   0.899   2.756   0.292
 5937SOL    HW118710   0.965   2.685   0.314
 5937SOL    HW218711   0.893   2.766   0.192
 5938SOL     OW18712   0.432   3.505   4.123
 5938SOL    HW118713   0.397   3.426   4.173
 5938SOL    HW218714   0.360   3.543   4.065
 5939SOL     OW18715   5.084   1.490   6.248
 5939SOL    HW118716   5.149   1.524   6.315
 5939SOL    HW218717   5.118   1.405   6.209
 5940SOL     OW18718   5.195   5.043   1.087
 5940SOL    HW118719   5.204   4.968   1.152
 5940SOL    HW218720   5.144   5.012   1.007
 5941SOL     OW18721   1.558   1.477   3.234
 5941SOL    HW118722   1.636   1.426   3.270
 5941SOL    HW218723   1.587   1.535   3.157
 5942SOL     OW18724   4.642   2.281   6.413
 5942SOL    HW118725   4.723   2.309   6.464
 5942SOL    HW218726   4.562   2.287   6.472
 5943SOL     OW18727   1.961   4.347   2.291
 5943SOL    HW118728   2.008   4.434   2.305
 5943SOL    HW218729   1.906   4.352   2.208
 5944SOL     OW18730   6.975   3.387   5.698
 5944SOL    HW118731   6.972   3.369   5.599
 5944SOL    HW218732   6.914   3.464   5.719
 5945SOL     OW18733   0.354   6.825   4.124
 5945SOL    HW118734   0.332   6.803   4.029
 5945SOL    HW218735   0.404   6.749   4.165
 5946SOL     OW18736   3.114   2.903   6.631
 5946SOL    HW118737   3.081   2.809   6.646
 5946SOL    HW218738   3.037   2.962   6.606
 5947SOL     OW18739   3.524   3.677   5.511
 5947SOL    HW118740   3.431   3.679   5.548
 5947SOL    HW218741   3.589   3.668   5.587
 5948SOL     OW18742   4.631   3.821   1.730
 5948SOL    HW118743   4.673   3.902   1.769
 5948SOL    HW218744   4.556   3.848   1.670
 5949SOL     OW18745   1.652   4.693   4.243
 5949SOL    HW118746   1.729   4.721   4.186
 5949SOL    HW218747   1.669   4.602   4.280
 5950SOL     OW18748   1.813   6.520   5.031
 5950SOL    HW118749   1.765   6.526   5.118
 5950SOL    HW218750   1.756   6.558   4.958
 5951SOL     OW18751   6.935   3.107   6.730
 5951SOL    HW118752   6.883   3.179   6.776
 5951SOL    HW218753   6.873   3.036   6.698
 5952SOL     OW18754   3.511   4.115   1.855
 5952SOL    HW118755   3.564   4.058   1.917
 5952SOL    HW218756   3.413   4.102   1.873
 5953SOL     OW18757   6.660   2.757   7.007
 5953SOL    HW118758   6.702   2.737   0.074
 5953SOL    HW218759   6.708   2.708   6.934
 5954SOL     OW18760   2.782   5.158   3.762
 5954SOL    HW118761   2.729   5.138   3.844
 5954SOL    HW218762   2.735   5.121   3.682
 5955SOL     OW18763   4.502   2.755   0.583
 5955SOL    HW118764   4.573   2.823   0.601
 5955SOL    HW218765   4.412   2.792   0.607
 5956SOL     OW18766   3.993   2.355   6.927
 5956SOL    HW118767   3.947   2.414   6.861
 5956SOL    HW218768   4.063   2.408   6.976
 5957SOL     OW18769   0.120   2.646   3.787
 5957SOL    HW118770   0.137   2.671   3.691
 5957SOL    HW218771   0.175   2.566   3.810
 5958SOL     OW18772   2.338   6.286   2.030
 5958SOL    HW118773   2.322   6.189   2.012
 5958SOL    HW218774   2.295   6.341   1.958
 5959SOL     OW18775   4.998   4.531   2.985
 5959SOL    HW118776   5.081   4.546   2.931
 5959SOL    HW218777   5.011   4.569   3.077
 5960SOL     OW18778   6.172   6.907   6.829
 5960SOL    HW118779   6.193   6.878   6.735
 5960SOL    HW218780   6.208   6.840   6.893
 5961SOL     OW18781   1.603   1.801   3.279
 5961SOL    HW118782   1.557   1.888   3.263
 5961SOL    HW218783   1.702   1.812   3.263
 5962SOL     OW18784   5.092   5.241   0.385
 5962SOL    HW118785   5.011   5.187   0.408
 5962SOL    HW218786   5.170   5.209   0.439
 5963SOL     OW18787   2.189   4.079   1.146
 5963SOL    HW118788   2.133   3.996   1.152
 5963SOL    HW218789   2.190   4.113   1.052
 5964SOL     OW18790   1.664   6.595   3.840
 5964SOL    HW118791   1.724   6.617   3.764
 5964SOL    HW218792   1.696   6.641   3.923
 5965SOL     OW18793   2.037   0.385   1.614
 5965SOL    HW118794   2.040   0.343   1.704
 5965SOL    HW218795   1.942   0.405   1.590
 5966SOL     OW18796   2.687   2.035   5.474
 5966SOL    HW118797   2.703   1.968   5.546
 5966SOL    HW218798   2.741   2.117   5.491
 5967SOL     OW18799   4.733   2.362   5.685
 5967SOL    HW118800   4.763   2.381   5.591
 5967SOL    HW218801   4.695   2.445   5.725
 5968SOL     OW18802   6.344   2.223   3.316
 5968SOL    HW118803   6.385   2.141   3.275
 5968SOL    HW218804   6.362   2.302   3.258
 5969SOL     OW18805   5.107   6.626   1.709
 5969SOL    HW118806   5.092   6.539   1.663
 5969SOL    HW218807   5.190   6.619   1.765
 5970SOL     OW18808   5.750   1.856   0.408
 5970SOL    HW118809   5.813   1.788   0.369
 5970SOL    HW218810   5.776   1.875   0.502
 5971SOL     OW18811   6.799   5.261   3.627
 5971SOL    HW118812   6.816   5.233   3.532
 5971SOL    HW218813   6.886   5.279   3.673
 5972SOL     OW18814   6.073   5.113   0.187
 5972SOL    HW118815   6.102   5.020   0.162
 5972SOL    HW218816   6.073   5.122   0.287
 5973SOL     OW18817   3.463   0.955   1.944
 5973SOL    HW118818   3.430   0.870   1.904
 5973SOL    HW218819   3.493   0.938   2.038
 5974SOL     OW18820   5.402   1.322   4.253
 5974SOL    HW118821   5.494   1.331   4.215
 5974SOL    HW218822   5.335   1.332   4.179
 5975SOL     OW18823   3.984   4.613   0.367
 5975SOL    HW118824   4.042   4.581   0.442
 5975SOL    HW218825   3.921   4.541   0.340
 5976SOL     OW18826   0.892   2.151   6.510
 5976SOL    HW118827   0.806   2.202   6.499
 5976SOL    HW218828   0.967   2.204   6.472
 5977SOL     OW18829   0.877   5.464   1.619
 5977SOL    HW118830   0.844   5.516   1.697
 5977SOL    HW218831   0.977   5.461   1.619
 5978SOL     OW18832   2.831   3.779   6.155
 5978SOL    HW118833   2.868   3.717   6.086
 5978SOL    HW218834   2.887   3.773   6.238
 5979SOL     OW18835   5.805   0.882   1.500
 5979SOL    HW118836   5.864   0.809   1.537
 5979SOL    HW218837   5.762   0.931   1.575
 5980SOL     OW18838   3.730   2.539   0.857
 5980SOL    HW118839   3.631   2.552   0.859
 5980SOL    HW218840   3.772   2.610   0.800
 5981SOL     OW18841   4.296   2.015   1.004
 5981SOL    HW118842   4.333   2.069   0.929
 5981SOL    HW218843   4.202   2.043   1.022
 5982SOL     OW18844   5.817   2.652   1.327
 5982SOL    HW118845   5.753   2.595   1.377
 5982SOL    HW218846   5.767   2.721   1.274
 5983SOL     OW18847   7.017   1.504   3.575
 5983SOL    HW118848   6.965   1.541   3.498
 5983SOL    HW218849   0.065   1.571   3.603
 5984SOL     OW18850   6.291   5.948   1.553
 5984SOL    HW118851   6.382   5.986   1.569
 5984SOL    HW218852   6.298   5.870   1.490
 5985SOL     OW18853   0.379   4.518   2.597
 5985SOL    HW118854   0.336   4.451   2.657
 5985SOL    HW218855   0.314   4.547   2.526
 5986SOL     OW18856   3.997   3.089   3.062
 5986SOL    HW118857   4.063   3.123   2.995
 5986SOL    HW218858   3.929   3.034   3.015
 5987SOL     OW18859   0.226   6.247   4.437
 5987SOL    HW118860   0.144   6.207   4.477
 5987SOL    HW218861   0.273   6.180   4.381
 5988SOL     OW18862   1.855   2.149   0.746
 5988SOL    HW118863   1.888   2.241   0.769
 5988SOL    HW218864   1.787   2.155   0.674
 5989SOL     OW18865   2.498   6.725   5.798
 5989SOL    HW118866   2.446   6.793   5.746
 5989SOL    HW218867   2.558   6.675   5.736
 5990SOL     OW18868   2.324   3.884   1.550
 5990SOL    HW118869   2.279   3.972   1.536
 5990SOL    HW218870   2.381   3.889   1.633
 5991SOL     OW18871   5.076   1.205   0.576
 5991SOL    HW118872   5.065   1.171   0.670
 5991SOL    HW218873   5.107   1.300   0.579
 5992SOL     OW18874   2.588   4.763   3.301
 5992SOL    HW118875   2.595   4.709   3.217
 5992SOL    HW218876   2.668   4.822   3.310
 5993SOL     OW18877   5.382   1.286   0.417
 5993SOL    HW118878   5.433   1.310   0.334
 5993SOL    HW218879   5.314   1.357   0.436
 5994SOL     OW18880   0.987   4.435   1.109
 5994SOL    HW118881   0.937   4.516   1.140
 5994SOL    HW218882   0.994   4.437   1.010
 5995SOL     OW18883   5.464   4.483   1.096
 5995SOL    HW118884   5.447   4.490   0.997
 5995SOL    HW218885   5.467   4.575   1.136
 5996SOL     OW18886   2.212   0.733   1.981
 5996SOL    HW118887   2.173   0.685   1.902
 5996SOL    HW218888   2.307   0.704   1.994
 5997SOL     OW18889   6.280   0.480   4.507
 5997SOL    HW118890   6.363   0.508   4.554
 5997SOL    HW218891   6.220   0.559   4.494
 5998SOL     OW18892   6.189   6.442   0.031
 5998SOL    HW118893   6.184   6.457   0.130
 5998SOL    HW218894   6.098   6.451   7.013
 5999SOL     OW18895   5.487   3.881   0.855
 5999SOL    HW118896   5.460   3.890   0.951
 5999SOL    HW218897   5.497   3.972   0.815
 6000SOL     OW18898   0.634   5.270   1.888
 6000SOL    HW118899   0.557   5.287   1.949
 6000SOL    HW218900   0.601   5.226   1.804
 6001SOL     OW18901   0.152   6.270   5.796
 6001SOL    HW118902   0.225   6.252   5.861
 6001SOL    HW218903   0.154   6.201   5.724
 6002SOL     OW18904   5.539   4.929   4.560
 6002SOL    HW118905   5.499   5.015   4.530
 6002SOL    HW218906   5.630   4.945   4.598
 6003SOL     OW18907   2.459   0.874   5.264
 6003SOL    HW118908   2.551   0.913   5.271
 6003SOL    HW218909   2.430   0.877   5.168
 6004SOL     OW18910   5.446   2.928   4.921
 6004SOL    HW118911   5.483   2.878   5.000
 6004SOL    HW218912   5.515   2.932   4.849
 6005SOL     OW18913   3.930   3.643   0.335
 6005SOL    HW118914   3.914   3.625   0.238
 6005SOL    HW218915   3.842   3.656   0.381
 6006SOL     OW18916   2.749   6.195   5.799
 6006SOL    HW118917   2.730   6.201   5.701
 6006SOL    HW218918   2.678   6.244   5.850
 6007SOL     OW18919   3.320   6.604   4.567
 6007SOL    HW118920   3.237   6.660   4.560
 6007SOL    HW218921   3.325   6.542   4.489
 6008SOL     OW18922   2.228   3.948   6.737
 6008SOL    HW118923   2.129   3.956   6.743
 6008SOL    HW218924   2.256   3.857   6.769
 6009SOL     OW18925   2.259   5.478   2.422
 6009SOL    HW118926   2.204   5.539   2.365
 6009SOL    HW218927   2.215   5.467   2.511
 6010SOL     OW18928   0.199   5.219   6.022
 6010SOL    HW118929   0.119   5.268   6.055
 6010SOL    HW218930   0.221   5.248   5.929
 6011SOL     OW18931   5.783   2.133   3.187
 6011SOL    HW118932   5.713   2.204   3.196
 6011SOL    HW218933   5.801   2.093   3.277
 6012SOL     OW18934   6.542   0.993   5.678
 6012SOL    HW118935   6.588   1.065   5.625
 6012SOL    HW218936   6.443   1.009   5.676
 6013SOL     OW18937   5.982   1.562   2.699
 6013SOL    HW118938   6.057   1.609   2.746
 6013SOL    HW218939   5.956   1.614   2.617
 6014SOL     OW18940   4.034   3.770   3.953
 6014SOL    HW118941   4.114   3.717   3.981
 6014SOL    HW218942   4.018   3.758   3.855
 6015SOL     OW18943   6.982   0.462   3.193
 6015SOL    HW118944   6.934   0.550   3.197
 6015SOL    HW218945   0.036   0.462   3.258
 6016SOL     OW18946   4.106   1.865   4.255
 6016SOL    HW118947   4.057   1.826   4.178
 6016SOL    HW218948   4.199   1.888   4.227
 6017SOL     OW18949   1.363   2.529   5.042
 6017SOL    HW118950   1.337   2.454   5.103
 6017SOL    HW218951   1.462   2.541   5.044
 6018SOL     OW18952   2.269   0.919   4.010
 6018SOL    HW118953   2.369   0.918   4.015
 6018SOL    HW218954   2.241   0.943   3.917
 6019SOL     OW18955   6.462   3.272   6.482
 6019SOL    HW118956   6.405   3.192   6.464
 6019SOL    HW218957   6.506   3.263   6.571
 6020SOL     OW18958   0.587   5.616   4.482
 6020SOL    HW118959   0.521   5.628   4.556
 6020SOL    HW218960   0.680   5.624   4.518
 6021SOL     OW18961   4.992   0.188   3.838
 6021SOL    HW118962   4.992   0.119   3.765
 6021SOL    HW218963   4.916   0.170   3.900
 6022SOL     OW18964   6.509   3.942   0.853
 6022SOL    HW118965   6.516   3.865   0.917
 6022SOL    HW218966   6.413   3.969   0.845
 6023SOL     OW18967   4.137   7.015   2.848
 6023SOL    HW118968   4.167   6.948   2.916
 6023SOL    HW218969   4.086   6.969   2.776
 6024SOL     OW18970   0.770   6.644   7.001
 6024SOL    HW118971   0.798   6.663   6.907
 6024SOL    HW218972   0.680   6.684   7.019
 6025SOL     OW18973   3.869   0.624   5.926
 6025SOL    HW118974   3.946   0.669   5.972
 6025SOL    HW218975   3.814   0.574   5.993
 6026SOL     OW18976   5.231   6.072   3.508
 6026SOL    HW118977   5.290   6.112   3.579
 6026SOL    HW218978   5.157   6.021   3.552
 6027SOL     OW18979   6.222   4.069   5.245
 6027SOL    HW118980   6.224   4.019   5.158
 6027SOL    HW218981   6.175   4.014   5.314
 6028SOL     OW18982   5.699   5.651   6.500
 6028SOL    HW118983   5.795   5.637   6.475
 6028SOL    HW218984   5.651   5.694   6.424
 6029SOL     OW18985   2.758   1.228   2.467
 6029SOL    HW118986   2.817   1.164   2.417
 6029SOL    HW218987   2.803   1.317   2.473
 6030SOL     OW18988   6.006   3.099   4.825
 6030SOL    HW118989   5.931   3.154   4.861
 6030SOL    HW218990   6.040   3.139   4.741
 6031SOL     OW18991   0.165   0.323   3.649
 6031SOL    HW118992   0.233   0.250   3.655
 6031SOL    HW218993   0.191   0.388   3.579
 6032SOL     OW18994   3.277   6.855   2.989
 6032SOL    HW118995   3.374   6.878   3.003
 6032SOL    HW218996   3.228   6.868   3.075
 6033SOL     OW18997   0.887   1.603   2.807
 6033SOL    HW118998   0.809   1.560   2.763
 6033SOL    HW218999   0.900   1.695   2.769
 6034SOL     OW19000   0.660   0.607   0.921
 6034SOL    HW119001   0.701   0.695   0.944
 6034SOL    HW219002   0.590   0.620   0.851
 6035SOL     OW19003   1.708   1.404   2.503
 6035SOL    HW119004   1.743   1.406   2.596
 6035SOL    HW219005   1.697   1.498   2.469
 6036SOL     OW19006   0.131   3.883   0.387
 6036SOL    HW119007   0.214   3.828   0.377
 6036SOL    HW219008   0.071   3.841   0.455
 6037SOL     OW19009   4.824   0.733   6.350
 6037SOL    HW119010   4.893   0.789   6.397
 6037SOL    HW219011   4.791   0.662   6.412
 6038SOL     OW19012   2.140   1.171   0.207
 6038SOL    HW119013   2.145   1.072   0.199
 6038SOL    HW219014   2.044   1.200   0.204
 6039SOL     OW19015   3.404   2.987   4.198
 6039SOL    HW119016   3.434   2.962   4.290
 6039SOL    HW219017   3.350   3.071   4.202
 6040SOL     OW19018   6.747   1.144   0.885
 6040SOL    HW119019   6.833   1.117   0.842
 6040SOL    HW219020   6.760   1.232   0.931
 6041SOL     OW19021   0.433   3.068   4.635
 6041SOL    HW119022   0.454   3.144   4.697
 6041SOL    HW219023   0.518   3.023   4.607
 6042SOL     OW19024   2.810   6.115   3.650
 6042SOL    HW119025   2.805   6.186   3.580
 6042SOL    HW219026   2.739   6.047   3.634
 6043SOL     OW19027   2.133   5.176   1.677
 6043SOL    HW119028   2.209   5.177   1.742
 6043SOL    HW219029   2.046   5.167   1.727
 6044SOL     OW19030   6.694   3.918   6.949
 6044SOL    HW119031   6.783   3.874   6.961
 6044SOL    HW219032   6.707   4.018   6.948
 6045SOL     OW19033   4.767   1.480   3.881
 6045SOL    HW119034   4.845   1.471   3.943
 6045SOL    HW219035   4.722   1.567   3.897
 6046SOL     OW19036   3.245   3.829   2.684
 6046SOL    HW119037   3.173   3.762   2.697
 6046SOL    HW219038   3.218   3.893   2.612
 6047SOL     OW19039   6.933   1.222   0.311
 6047SOL    HW119040   6.936   1.322   0.318
 6047SOL    HW219041   6.851   1.196   0.259
 6048SOL     OW19042   6.264   5.674   3.662
 6048SOL    HW119043   6.230   5.652   3.754
 6048SOL    HW219044   6.214   5.752   3.626
 6049SOL     OW19045   5.239   4.607   6.853
 6049SOL    HW119046   5.255   4.509   6.837
 6049SOL    HW219047   5.326   4.652   6.871
 6050SOL     OW19048   1.896   5.310   3.144
 6050SOL    HW119049   1.828   5.380   3.119
 6050SOL    HW219050   1.931   5.267   3.061
 6051SOL     OW19051   0.657   1.943   2.554
 6051SOL    HW119052   0.574   1.937   2.498
 6051SOL    HW219053   0.691   2.037   2.555
 6052SOL     OW19054   5.037   5.868   6.637
 6052SOL    HW119055   4.992   5.945   6.684
 6052SOL    HW219056   5.125   5.849   6.681
 6053SOL     OW19057   3.587   2.019   5.788
 6053SOL    HW119058   3.517   1.969   5.738
 6053SOL    HW219059   3.647   1.953   5.835
 6054SOL     OW19060   4.428   3.941   6.382
 6054SOL    HW119061   4.509   3.936   6.324
 6054SOL    HW219062   4.430   3.866   6.448
 6055SOL     OW19063   2.781   4.398   1.515
 6055SOL    HW119064   2.757   4.316   1.464
 6055SOL    HW219065   2.708   4.417   1.582
 6056SOL     OW19066   5.130   6.571   3.133
 6056SOL    HW119067   5.155   6.643   3.068
 6056SOL    HW219068   5.032   6.556   3.130
 6057SOL     OW19069   5.840   1.186   3.985
 6057SOL    HW119070   5.897   1.115   4.026
 6057SOL    HW219071   5.795   1.150   3.904
 6058SOL     OW19072   6.803   3.226   6.139
 6058SOL    HW119073   6.703   3.223   6.128
 6058SOL    HW219074   6.841   3.135   6.122
 6059SOL     OW19075   4.208   2.422   6.422
 6059SOL    HW119076   4.154   2.469   6.492
 6059SOL    HW219077   4.234   2.487   6.350
 6060SOL     OW19078   2.372   2.244   1.149
 6060SOL    HW119079   2.461   2.288   1.159
 6060SOL    HW219080   2.384   2.154   1.108
 6061SOL     OW19081   2.543   4.712   6.844
 6061SOL    HW119082   2.510   4.749   6.757
 6061SOL    HW219083   2.465   4.680   6.898
 6062SOL     OW19084   2.084   2.650   5.566
 6062SOL    HW119085   2.076   2.715   5.490
 6062SOL    HW219086   2.117   2.562   5.531
 6063SOL     OW19087   4.673   3.954   6.257
 6063SOL    HW119088   4.716   4.038   6.223
 6063SOL    HW219089   4.733   3.910   6.324
 6064SOL     OW19090   5.836   5.801   0.179
 6064SOL    HW119091   5.737   5.791   0.170
 6064SOL    HW219092   5.863   5.893   0.152
 6065SOL     OW19093   1.795   5.731   1.341
 6065SOL    HW119094   1.721   5.733   1.409
 6065SOL    HW219095   1.764   5.776   1.257
 6066SOL     OW19096   5.893   5.775   2.152
 6066SOL    HW119097   5.906   5.694   2.209
 6066SOL    HW219098   5.826   5.835   2.195
 6067SOL     OW19099   6.664   4.667   5.457
 6067SOL    HW119100   6.571   4.633   5.439
 6067SOL    HW219101   6.706   4.613   5.529
 6068SOL     OW19102   4.249   2.150   3.782
 6068SOL    HW119103   4.322   2.090   3.816
 6068SOL    HW219104   4.288   2.240   3.762
 6069SOL     OW19105   0.878   4.974   5.291
 6069SOL    HW119106   0.919   5.061   5.315
 6069SOL    HW219107   0.780   4.986   5.273
 6070SOL     OW19108   2.590   1.049   1.160
 6070SOL    HW119109   2.516   1.114   1.179
 6070SOL    HW219110   2.672   1.099   1.133
 6071SOL     OW19111   6.123   0.268   6.325
 6071SOL    HW119112   6.188   0.334   6.286
 6071SOL    HW219113   6.173   0.191   6.364
 6072SOL     OW19114   6.730   3.038   0.162
 6072SOL    HW119115   6.695   3.031   0.068
 6072SOL    HW219116   6.801   2.969   0.176
 6073SOL     OW19117   4.425   4.168   0.203
 6073SOL    HW119118   4.453   4.112   0.281
 6073SOL    HW219119   4.341   4.131   0.163
 6074SOL     OW19120   1.366   5.827   2.813
 6074SOL    HW119121   1.286   5.859   2.864
 6074SOL    HW219122   1.361   5.861   2.719
 6075SOL     OW19123   6.189   0.420   6.827
 6075SOL    HW119124   6.146   0.331   6.816
 6075SOL    HW219125   6.214   0.457   6.737
 6076SOL     OW19126   0.114   6.526   3.097
 6076SOL    HW119127   0.138   6.578   3.179
 6076SOL    HW219128   0.052   6.451   3.122
 6077SOL     OW19129   5.271   6.199   2.668
 6077SOL    HW119130   5.198   6.190   2.735
 6077SOL    HW219131   5.325   6.281   2.687
 6078SOL     OW19132   5.718   4.435   0.266
 6078SOL    HW119133   5.638   4.446   0.208
 6078SOL    HW219134   5.696   4.375   0.343
 6079SOL     OW19135   3.635   1.855   0.203
 6079SOL    HW119136   3.657   1.816   0.292
 6079SOL    HW219137   3.565   1.800   0.159
 6080SOL     OW19138   6.511   3.661   5.517
 6080SOL    HW119139   6.420   3.701   5.506
 6080SOL    HW219140   6.580   3.730   5.494
 6081SOL     OW19141   2.119   3.831   4.478
 6081SOL    HW119142   2.141   3.767   4.405
 6081SOL    HW219143   2.147   3.793   4.566
 6082SOL     OW19144   3.964   0.889   0.752
 6082SOL    HW119145   3.886   0.861   0.809
 6082SOL    HW219146   3.976   0.988   0.757
 6083SOL     OW19147   4.994   0.646   5.626
 6083SOL    HW119148   5.080   0.594   5.625
 6083SOL    HW219149   4.938   0.618   5.548
 6084SOL     OW19150   6.583   4.841   3.205
 6084SOL    HW119151   6.501   4.825   3.150
 6084SOL    HW219152   6.604   4.939   3.204
 6085SOL     OW19153   0.670   6.457   1.167
 6085SOL    HW119154   0.655   6.524   1.094
 6085SOL    HW219155   0.614   6.376   1.151
 6086SOL     OW19156   4.689   3.559   0.581
 6086SOL    HW119157   4.688   3.622   0.658
 6086SOL    HW219158   4.616   3.491   0.592
 6087SOL     OW19159   4.032   0.258   0.380
 6087SOL    HW119160   4.080   0.199   0.445
 6087SOL    HW219161   3.970   0.320   0.429
 6088SOL     OW19162   3.814   5.936   2.555
 6088SOL    HW119163   3.768   5.934   2.643
 6088SOL    HW219164   3.789   5.855   2.502
 6089SOL     OW19165   6.354   5.595   2.879
 6089SOL    HW119166   6.386   5.520   2.821
 6089SOL    HW219167   6.337   5.560   2.971
 6090SOL     OW19168   3.767   5.755   4.816
 6090SOL    HW119169   3.730   5.797   4.899
 6090SOL    HW219170   3.860   5.723   4.834
 6091SOL     OW19171   0.505   2.877   1.820
 6091SOL    HW119172   0.446   2.947   1.779
 6091SOL    HW219173   0.575   2.849   1.754
 6092SOL     OW19174   1.899   6.904   0.911
 6092SOL    HW119175   1.888   6.859   0.823
 6092SOL    HW219176   1.830   6.977   0.920
 6093SOL     OW19177   3.559   3.284   2.664
 6093SOL    HW119178   3.558   3.381   2.687
 6093SOL    HW219179   3.474   3.260   2.617
 6094SOL     OW19180   0.674   0.115   5.869
 6094SOL    HW119181   0.580   0.131   5.839
 6094SOL    HW219182   0.712   0.037   5.820
 6095SOL     OW19183   5.066   5.305   2.155
 6095SOL    HW119184   5.013   5.242   2.212
 6095SOL    HW219185   5.155   5.321   2.198
 6096SOL     OW19186   5.087   5.925   2.722
 6096SOL    HW119187   5.045   6.013   2.743
 6096SOL    HW219188   5.070   5.862   2.798
 6097SOL     OW19189   2.545   5.216   1.388
 6097SOL    HW119190   2.538   5.310   1.354
 6097SOL    HW219191   2.638   5.182   1.373
 6098SOL     OW19192   5.800   1.486   5.422
 6098SOL    HW119193   5.700   1.477   5.413
 6098SOL    HW219194   5.844   1.402   5.390
 6099SOL     OW19195   3.473   0.058   5.192
 6099SOL    HW119196   3.374   0.065   5.180
 6099SOL    HW219197   3.518   0.134   5.146
 6100SOL     OW19198   7.003   5.411   6.030
 6100SOL    HW119199   6.937   5.397   5.956
 6100SOL    HW219200   6.954   5.420   6.117
 6101SOL     OW19201   0.797   2.810   0.727
 6101SOL    HW119202   0.789   2.846   0.820
 6101SOL    HW219203   0.732   2.857   0.668
 6102SOL     OW19204   3.062   0.573   2.973
 6102SOL    HW119205   3.069   0.671   2.990
 6102SOL    HW219206   3.153   0.535   2.954
 6103SOL     OW19207   6.011   0.512   2.375
 6103SOL    HW119208   5.956   0.491   2.455
 6103SOL    HW219209   6.096   0.558   2.404
 6104SOL     OW19210   6.177   1.303   5.068
 6104SOL    HW119211   6.142   1.340   4.983
 6104SOL    HW219212   6.201   1.207   5.055
 6105SOL     OW19213   3.777   5.013   6.536
 6105SOL    HW119214   3.716   4.984   6.609
 6105SOL    HW219215   3.843   4.940   6.516
 6106SOL     OW19216   6.736   4.174   4.909
 6106SOL    HW119217   6.737   4.113   4.830
 6106SOL    HW219218   6.646   4.218   4.916
 6107SOL     OW19219   5.853   5.103   5.031
 6107SOL    HW119220   5.873   5.153   5.116
 6107SOL    HW219221   5.761   5.127   4.999
 6108SOL     OW19222   3.183   0.310   6.208
 6108SOL    HW119223   3.134   0.392   6.237
 6108SOL    HW219224   3.135   0.268   6.131
 6109SOL     OW19225   6.852   6.525   3.836
 6109SOL    HW119226   6.779   6.552   3.773
 6109SOL    HW219227   6.915   6.602   3.848
 6110SOL     OW19228   1.107   1.931   3.794
 6110SOL    HW119229   1.102   1.994   3.716
 6110SOL    HW219230   1.015   1.918   3.831
 6111SOL     OW19231   2.912   2.901   0.901
 6111SOL    HW119232   2.882   2.806   0.897
 6111SOL    HW219233   2.979   2.912   0.974
 6112SOL     OW19234   4.803   6.351   3.872
 6112SOL    HW119235   4.734   6.312   3.932
 6112SOL    HW219236   4.894   6.330   3.907
 6113SOL     OW19237   3.171   5.222   0.850
 6113SOL    HW119238   3.130   5.205   0.760
 6113SOL    HW219239   3.186   5.320   0.861
 6114SOL     OW19240   5.015   3.660   1.592
 6114SOL    HW119241   5.007   3.561   1.583
 6114SOL    HW219242   5.101   3.691   1.551
 6115SOL     OW19243   6.130   1.007   4.795
 6115SOL    HW119244   6.210   0.957   4.829
 6115SOL    HW219245   6.125   0.999   4.695
 6116SOL     OW19246   6.163   2.756   0.406
 6116SOL    HW119247   6.135   2.665   0.377
 6116SOL    HW219248   6.098   2.823   0.370
 6117SOL     OW19249   2.505   2.611   1.203
 6117SOL    HW119250   2.555   2.525   1.209
 6117SOL    HW219251   2.412   2.594   1.170
 6118SOL     OW19252   5.830   0.666   1.259
 6118SOL    HW119253   5.873   0.720   1.331
 6118SOL    HW219254   5.845   0.568   1.278
 6119SOL     OW19255   0.372   1.118   6.533
 6119SOL    HW119256   0.464   1.099   6.568
 6119SOL    HW219257   0.304   1.073   6.591
 6120SOL     OW19258   3.218   1.222   3.664
 6120SOL    HW119259   3.137   1.185   3.709
 6120SOL    HW219260   3.232   1.174   3.577
 6121SOL     OW19261   2.979   1.184   5.451
 6121SOL    HW119262   2.958   1.147   5.360
 6121SOL    HW219263   3.076   1.208   5.456
 6122SOL     OW19264   4.628   4.794   4.862
 6122SOL    HW119265   4.620   4.893   4.852
 6122SOL    HW219266   4.724   4.767   4.858
 6123SOL     OW19267   6.242   1.603   5.005
 6123SOL    HW119268   6.170   1.585   5.073
 6123SOL    HW219269   6.288   1.689   5.028
 6124SOL     OW19270   2.230   6.251   4.056
 6124SOL    HW119271   2.278   6.178   4.008
 6124SOL    HW219272   2.135   6.254   4.025
 6125SOL     OW19273   3.337   1.016   5.760
 6125SOL    HW119274   3.384   1.011   5.848
 6125SOL    HW219275   3.330   1.112   5.732
 6126SOL     OW19276   5.917   2.943   6.449
 6126SOL    HW119277   5.848   2.876   6.475
 6126SOL    HW219278   5.980   2.902   6.383
 6127SOL     OW19279   4.948   2.146   2.548
 6127SOL    HW119280   4.996   2.159   2.634
 6127SOL    HW219281   4.863   2.097   2.564
 6128SOL     OW19282   5.584   5.634   5.064
 6128SOL    HW119283   5.586   5.571   5.142
 6128SOL    HW219284   5.505   5.695   5.073
 6129SOL     OW19285   2.038   6.123   3.123
 6129SOL    HW119286   1.946   6.161   3.133
 6129SOL    HW219287   2.063   6.121   3.026
 6130SOL     OW19288   6.014   2.435   6.822
 6130SOL    HW119289   6.053   2.373   6.754
 6130SOL    HW219290   5.929   2.475   6.786
 6131SOL     OW19291   5.911   3.043   2.807
 6131SOL    HW119292   6.000   3.009   2.777
 6131SOL    HW219293   5.858   3.071   2.727
 6132SOL     OW19294   4.339   6.145   6.317
 6132SOL    HW119295   4.390   6.166   6.400
 6132SOL    HW219296   4.329   6.046   6.307
 6133SOL     OW19297   0.521   2.487   3.833
 6133SOL    HW119298   0.563   2.477   3.742
 6133SOL    HW219299   0.443   2.425   3.841
 6134SOL     OW19300   0.306   6.925   5.362
 6134SOL    HW119301   0.343   6.918   5.269
 6134SOL    HW219302   0.382   6.930   5.427
 6135SOL     OW19303   6.255   6.022   0.074
 6135SOL    HW119304   6.288   5.961   0.002
 6135SOL    HW219305   6.333   6.066   0.118
 6136SOL     OW19306   1.235   2.210   3.242
 6136SOL    HW119307   1.217   2.286   3.306
 6136SOL    HW219308   1.180   2.223   3.160
 6137SOL     OW19309   6.918   4.894   1.027
 6137SOL    HW119310   6.925   4.796   1.045
 6137SOL    HW219311   6.822   4.920   1.018
 6138SOL     OW19312   5.532   1.003   2.411
 6138SOL    HW119313   5.515   0.913   2.451
 6138SOL    HW219314   5.446   1.039   2.374
 6139SOL     OW19315   2.028   2.242   5.370
 6139SOL    HW119316   2.077   2.223   5.455
 6139SOL    HW219317   1.983   2.331   5.377
 6140SOL     OW19318   2.051   0.350   4.075
 6140SOL    HW119319   1.961   0.383   4.105
 6140SOL    HW219320   2.080   0.400   3.994
 6141SOL     OW19321   1.230   6.949   0.360
 6141SOL    HW119322   1.306   6.947   0.295
 6141SOL    HW219323   1.234   0.012   0.414
 6142SOL     OW19324   0.311   0.178   1.929
 6142SOL    HW119325   0.311   0.121   2.012
 6142SOL    HW219326   0.252   0.136   1.860
 6143SOL     OW19327   0.879   3.241   5.595
 6143SOL    HW119328   0.972   3.278   5.596
 6143SOL    HW219329   0.840   3.252   5.504
 6144SOL     OW19330   3.490   5.992   2.549
 6144SOL    HW119331   3.443   5.989   2.638
 6144SOL    HW219332   3.536   6.080   2.539
 6145SOL     OW19333   5.299   3.124   4.344
 6145SOL    HW119334   5.365   3.108   4.271
 6145SOL    HW219335   5.269   3.220   4.343
 6146SOL     OW19336   5.840   1.589   5.699
 6146SOL    HW119337   5.769   1.648   5.738
 6146SOL    HW219338   5.830   1.586   5.600
 6147SOL     OW19339   1.479   1.874   5.932
 6147SOL    HW119340   1.443   1.945   5.871
 6147SOL    HW219341   1.540   1.916   5.999
 6148SOL     OW19342   4.207   5.098   6.796
 6148SOL    HW119343   4.268   5.162   6.844
 6148SOL    HW219344   4.141   5.061   6.861
 6149SOL     OW19345   4.070   1.694   1.590
 6149SOL    HW119346   3.991   1.651   1.634
 6149SOL    HW219347   4.055   1.793   1.583
 6150SOL     OW19348   0.623   4.804   4.170
 6150SOL    HW119349   0.701   4.763   4.217
 6150SOL    HW219350   0.585   4.877   4.225
 6151SOL     OW19351   4.173   5.207   2.626
 6151SOL    HW119352   4.165   5.113   2.661
 6151SOL    HW219353   4.083   5.239   2.596
 6152SOL     OW19354   0.242   3.952   3.171
 6152SOL    HW119355   0.178   3.910   3.236
 6152SOL    HW219356   0.207   4.041   3.143
 6153SOL     OW19357   5.906   6.111   1.062
 6153SOL    HW119358   5.913   6.085   0.966
 6153SOL    HW219359   5.984   6.169   1.087
 6154SOL     OW19360   4.221   4.686   2.921
 6154SOL    HW119361   4.128   4.713   2.944
 6154SOL    HW219362   4.234   4.689   2.822
 6155SOL     OW19363   1.905   1.755   3.972
 6155SOL    HW119364   1.815   1.798   3.972
 6155SOL    HW219365   1.901   1.669   4.022
 6156SOL     OW19366   4.468   4.528   2.549
 6156SOL    HW119367   4.469   4.543   2.450
 6156SOL    HW219368   4.497   4.435   2.569
 6157SOL     OW19369   0.241   2.768   1.237
 6157SOL    HW119370   0.240   2.672   1.208
 6157SOL    HW219371   0.264   2.772   1.334
 6158SOL     OW19372   3.553   0.385   5.901
 6158SOL    HW119373   3.510   0.457   5.846
 6158SOL    HW219374   3.595   0.425   5.982
 6159SOL     OW19375   6.122   2.128   1.216
 6159SOL    HW119376   6.179   2.210   1.217
 6159SOL    HW219377   6.163   2.060   1.155
 6160SOL     OW19378   0.809   6.889   1.219
 6160SOL    HW119379   0.839   6.794   1.230
 6160SOL    HW219380   0.755   6.897   1.136
 6161SOL     OW19381   5.918   3.809   0.065
 6161SOL    HW119382   5.832   3.858   0.058
 6161SOL    HW219383   5.994   3.874   0.066
 6162SOL     OW19384   6.150   6.227   1.137
 6162SOL    HW119385   6.193   6.141   1.107
 6162SOL    HW219386   6.129   6.222   1.234
 6163SOL     OW19387   5.991   6.048   3.218
 6163SOL    HW119388   6.044   6.054   3.133
 6163SOL    HW219389   6.024   5.971   3.272
 6164SOL     OW19390   3.166   4.042   4.622
 6164SOL    HW119391   3.171   4.044   4.722
 6164SOL    HW219392   3.093   3.979   4.594
 6165SOL     OW19393   3.054   0.621   0.233
 6165SOL    HW119394   3.005   0.535   0.216
 6165SOL    HW219395   3.145   0.616   0.193
 6166SOL     OW19396   3.382   1.287   6.005
 6166SOL    HW119397   3.466   1.322   6.047
 6166SOL    HW219398   3.356   1.201   6.048
 6167SOL     OW19399   1.274   3.216   3.018
 6167SOL    HW119400   1.263   3.238   2.921
 6167SOL    HW219401   1.184   3.207   3.061
 6168SOL     OW19402   0.711   3.479   4.120
 6168SOL    HW119403   0.612   3.468   4.119
 6168SOL    HW219404   0.738   3.525   4.205
 6169SOL     OW19405   2.467   1.288   0.584
 6169SOL    HW119406   2.504   1.201   0.554
 6169SOL    HW219407   2.529   1.362   0.557
 6170SOL     OW19408   2.743   4.637   1.281
 6170SOL    HW119409   2.836   4.601   1.286
 6170SOL    HW219410   2.733   4.713   1.344
 6171SOL     OW19411   2.252   4.227   1.795
 6171SOL    HW119412   2.203   4.142   1.779
 6171SOL    HW219413   2.298   4.256   1.710
 6172SOL     OW19414   2.763   4.840   1.439
 6172SOL    HW119415   2.778   4.938   1.428
 6172SOL    HW219416   2.687   4.824   1.502
 6173SOL     OW19417   1.133   5.362   2.427
 6173SOL    HW119418   1.067   5.296   2.463
 6173SOL    HW219419   1.094   5.454   2.432
 6174SOL     OW19420   6.073   4.766   1.311
 6174SOL    HW119421   6.004   4.830   1.345
 6174SOL    HW219422   6.064   4.679   1.358
 6175SOL     OW19423   5.697   0.142   4.164
 6175SOL    HW119424   5.605   0.114   4.140
 6175SOL    HW219425   5.757   0.061   4.168
 6176SOL     OW19426   6.216   3.197   0.422
 6176SOL    HW119427   6.244   3.111   0.465
 6176SOL    HW219428   6.277   3.217   0.346
 6177SOL     OW19429   6.006   2.375   2.590
 6177SOL    HW119430   5.989   2.471   2.612
 6177SOL    HW219431   5.941   2.346   2.519
 6178SOL     OW19432   6.556   2.890   1.065
 6178SOL    HW119433   6.508   2.804   1.081
 6178SOL    HW219434   6.490   2.961   1.040
 6179SOL     OW19435   0.968   1.458   5.064
 6179SOL    HW119436   0.912   1.386   5.023
 6179SOL    HW219437   0.965   1.540   5.007
 6180SOL     OW19438   3.249   0.931   6.657
 6180SOL    HW119439   3.256   0.998   6.583
 6180SOL    HW219440   3.162   0.883   6.649
 6181SOL     OW19441   4.282   6.205   6.697
 6181SOL    HW119442   4.307   6.193   6.793
 6181SOL    HW219443   4.263   6.301   6.679
 6182SOL     OW19444   4.798   6.913   5.446
 6182SOL    HW119445   4.805   6.930   5.347
 6182SOL    HW219446   4.745   6.830   5.461
 6183SOL     OW19447   2.852   0.570   2.553
 6183SOL    HW119448   2.941   0.586   2.509
 6183SOL    HW219449   2.782   0.560   2.483
 6184SOL     OW19450   6.654   0.827   5.503
 6184SOL    HW119451   6.675   0.732   5.524
 6184SOL    HW219452   6.611   0.870   5.582
 6185SOL     OW19453   2.718   2.558   0.157
 6185SOL    HW119454   2.659   2.526   0.083
 6185SOL    HW219455   2.760   2.646   0.132
 6186SOL     OW19456   4.395   1.114   4.103
 6186SOL    HW119457   4.388   1.124   4.203
 6186SOL    HW219458   4.482   1.072   4.080
 6187SOL     OW19459   3.219   4.897   4.220
 6187SOL    HW119460   3.176   4.977   4.263
 6187SOL    HW219461   3.166   4.871   4.139
 6188SOL     OW19462   2.766   0.168   2.086
 6188SOL    HW119463   2.684   0.128   2.046
 6188SOL    HW219464   2.805   0.104   2.153
 6189SOL     OW19465   5.102   4.809   3.312
 6189SOL    HW119466   5.154   4.737   3.267
 6189SOL    HW219467   5.148   4.897   3.299
 6190SOL     OW19468   5.209   2.854   5.923
 6190SOL    HW119469   5.164   2.912   5.855
 6190SOL    HW219470   5.143   2.826   5.992
 6191SOL     OW19471   7.000   1.599   6.563
 6191SOL    HW119472   6.903   1.623   6.567
 6191SOL    HW219473   7.014   1.530   6.492
 6192SOL     OW19474   3.397   2.019   0.496
 6192SOL    HW119475   3.317   2.077   0.508
 6192SOL    HW219476   3.480   2.074   0.508
 6193SOL     OW19477   0.113   0.056   1.724
 6193SOL    HW119478   0.125   0.140   1.670
 6193SOL    HW219479   0.143   6.998   1.671
 6194SOL     OW19480   2.520   0.345   0.646
 6194SOL    HW119481   2.442   0.391   0.689
 6194SOL    HW219482   2.500   0.329   0.549
 6195SOL     OW19483   2.403   0.375   5.873
 6195SOL    HW119484   2.394   0.277   5.855
 6195SOL    HW219485   2.429   0.422   5.789
 6196SOL     OW19486   1.185   1.912   5.674
 6196SOL    HW119487   1.266   1.967   5.693
 6196SOL    HW219488   1.103   1.964   5.696
 6197SOL     OW19489   2.712   2.879   1.662
 6197SOL    HW119490   2.684   2.800   1.717
 6197SOL    HW219491   2.682   2.866   1.567
 6198SOL     OW19492   3.432   5.461   2.724
 6198SOL    HW119493   3.442   5.540   2.664
 6198SOL    HW219494   3.475   5.479   2.812
 6199SOL     OW19495   0.320   0.197   6.824
 6199SOL    HW119496   0.396   0.262   6.818
 6199SOL    HW219497   0.233   0.246   6.811
 6200SOL     OW19498   3.797   0.132   5.846
 6200SOL    HW119499   3.723   0.066   5.831
 6200SOL    HW219500   3.870   0.116   5.778
 6201SOL     OW19501   2.217   5.025   4.487
 6201SOL    HW119502   2.316   5.029   4.502
 6201SOL    HW219503   2.184   4.933   4.507
 6202SOL     OW19504   2.004   2.037   1.419
 6202SOL    HW119505   1.932   2.094   1.381
 6202SOL    HW219506   2.048   2.085   1.495
 6203SOL     OW19507   5.607   2.460   3.946
 6203SOL    HW119508   5.667   2.487   4.021
 6203SOL    HW219509   5.527   2.521   3.944
 6204SOL     OW19510   1.145   6.744   5.562
 6204SOL    HW119511   1.145   6.655   5.608
 6204SOL    HW219512   1.161   6.816   5.630
 6205SOL     OW19513   4.868   6.561   0.071
 6205SOL    HW119514   4.798   6.575   0.001
 6205SOL    HW219515   4.824   6.539   0.157
 6206SOL     OW19516   4.959   0.007   3.603
 6206SOL    HW119517   5.013   0.016   3.519
 6206SOL    HW219518   4.877   6.975   3.584
 6207SOL     OW19519   2.078   4.194   4.553
 6207SOL    HW119520   2.111   4.143   4.632
 6207SOL    HW219521   2.083   4.136   4.471
 6208SOL     OW19522   5.525   4.747   5.576
 6208SOL    HW119523   5.440   4.707   5.540
 6208SOL    HW219524   5.591   4.755   5.502
 6209SOL     OW19525   2.126   5.567   0.970
 6209SOL    HW119526   2.187   5.545   0.894
 6209SOL    HW219527   2.057   5.495   0.979
 6210SOL     OW19528   0.074   4.062   2.809
 6210SOL    HW119529   0.167   4.031   2.828
 6210SOL    HW219530   0.041   4.019   2.726
 6211SOL     OW19531   2.741   0.609   5.436
 6211SOL    HW119532   2.816   0.623   5.501
 6211SOL    HW219533   2.676   0.684   5.444
 6212SOL     OW19534   6.785   0.576   3.805
 6212SOL    HW119535   6.870   0.526   3.820
 6212SOL    HW219536   6.784   0.658   3.863
 6213SOL     OW19537   6.761   6.771   0.269
 6213SOL    HW119538   6.713   6.807   0.349
 6213SOL    HW219539   6.814   6.690   0.295
 6214SOL     OW19540   4.952   4.664   1.807
 6214SOL    HW119541   4.914   4.584   1.760
 6214SOL    HW219542   4.909   4.675   1.896
 6215SOL     OW19543   3.229   4.632   1.451
 6215SOL    HW119544   3.262   4.588   1.535
 6215SOL    HW219545   3.142   4.591   1.424
 6216SOL     OW19546   6.833   2.617   2.603
 6216SOL    HW119547   6.828   2.580   2.510
 6216SOL    HW219548   6.837   2.542   2.669
 6217SOL     OW19549   4.303   1.657   1.815
 6217SOL    HW119550   4.244   1.671   1.735
 6217SOL    HW219551   4.368   1.583   1.796
 6218SOL     OW19552   4.809   5.933   4.513
 6218SOL    HW119553   4.855   5.856   4.557
 6218SOL    HW219554   4.710   5.926   4.527
 6219SOL     OW19555   0.231   1.331   4.372
 6219SOL    HW119556   0.324   1.302   4.347
 6219SOL    HW219557   0.233   1.377   4.461
 6220SOL     OW19558   1.068   3.130   5.114
 6220SOL    HW119559   1.153   3.120   5.166
 6220SOL    HW219560   0.991   3.099   5.170
 6221SOL     OW19561   4.288   4.728   4.297
 6221SOL    HW119562   4.189   4.741   4.300
 6221SOL    HW219563   4.310   4.656   4.231
 6222SOL     OW19564   6.646   2.080   1.211
 6222SOL    HW119565   6.595   2.063   1.127
 6222SOL    HW219566   6.625   2.010   1.278
 6223SOL     OW19567   5.434   4.361   3.917
 6223SOL    HW119568   5.446   4.332   4.011
 6223SOL    HW219569   5.523   4.385   3.877
 6224SOL     OW19570   2.321   0.192   4.248
 6224SOL    HW119571   2.369   0.226   4.329
 6224SOL    HW219572   2.235   0.149   4.275
 6225SOL     OW19573   3.746   1.891   6.906
 6225SOL    HW119574   3.765   1.963   6.973
 6225SOL    HW219575   3.746   1.931   6.814
 6226SOL     OW19576   6.946   6.335   4.194
 6226SOL    HW119577   6.894   6.304   4.114
 6226SOL    HW219578   7.012   6.404   4.166
 6227SOL     OW19579   2.584   4.184   6.409
 6227SOL    HW119580   2.593   4.261   6.472
 6227SOL    HW219581   2.492   4.184   6.369
 6228SOL     OW19582   0.165   2.290   2.834
 6228SOL    HW119583   0.201   2.232   2.761
 6228SOL    HW219584   0.170   2.386   2.805
 6229SOL     OW19585   1.194   2.179   1.651
 6229SOL    HW119586   1.236   2.092   1.677
 6229SOL    HW219587   1.142   2.167   1.566
 6230SOL     OW19588   2.008   2.203   3.835
 6230SOL    HW119589   2.013   2.104   3.827
 6230SOL    HW219590   1.930   2.237   3.781
 6231SOL     OW19591   6.383   4.971   1.608
 6231SOL    HW119592   6.465   4.957   1.552
 6231SOL    HW219593   6.407   4.959   1.704
 6232SOL     OW19594   1.201   0.839   0.096
 6232SOL    HW119595   1.236   0.910   0.158
 6232SOL    HW219596   1.258   0.758   0.102
 6233SOL     OW19597   3.874   1.153   6.629
 6233SOL    HW119598   3.967   1.141   6.664
 6233SOL    HW219599   3.810   1.103   6.687
 6234SOL     OW19600   2.781   1.899   3.899
 6234SOL    HW119601   2.712   1.970   3.910
 6234SOL    HW219602   2.826   1.909   3.811
 6235SOL     OW19603   2.410   5.517   2.174
 6235SOL    HW119604   2.451   5.589   2.230
 6235SOL    HW219605   2.382   5.441   2.232
 6236SOL     OW19606   0.457   4.177   0.291
 6236SOL    HW119607   0.511   4.095   0.314
 6236SOL    HW219608   0.364   4.166   0.326
 6237SOL     OW19609   3.576   5.785   6.254
 6237SOL    HW119610   3.636   5.848   6.205
 6237SOL    HW219611   3.626   5.743   6.329
 6238SOL     OW19612   5.178   3.695   1.073
 6238SOL    HW119613   5.137   3.720   0.986
 6238SOL    HW219614   5.121   3.626   1.118
 6239SOL     OW19615   3.617   6.366   3.689
 6239SOL    HW119616   3.696   6.422   3.663
 6239SOL    HW219617   3.533   6.419   3.676
 6240SOL     OW19618   2.742   4.052   0.118
 6240SOL    HW119619   2.812   4.124   0.120
 6240SOL    HW219620   2.785   3.965   0.096
 6241SOL     OW19621   4.854   6.730   2.327
 6241SOL    HW119622   4.907   6.752   2.409
 6241SOL    HW219623   4.908   6.748   2.245
 6242SOL     OW19624   3.387   2.135   2.721
 6242SOL    HW119625   3.426   2.095   2.638
 6242SOL    HW219626   3.370   2.062   2.787
 6243SOL     OW19627   6.276   5.494   3.103
 6243SOL    HW119628   6.292   5.426   3.174
 6243SOL    HW219629   6.178   5.499   3.083
 6244SOL     OW19630   1.457   1.688   1.651
 6244SOL    HW119631   1.523   1.637   1.708
 6244SOL    HW219632   1.386   1.625   1.619
 6245SOL     OW19633   2.492   3.815   0.310
 6245SOL    HW119634   2.443   3.810   0.397
 6245SOL    HW219635   2.536   3.905   0.301
 6246SOL     OW19636   4.175   6.718   0.165
 6246SOL    HW119637   4.110   6.736   0.239
 6246SOL    HW219638   4.263   6.759   0.187
 6247SOL     OW19639   6.625   6.914   2.714
 6247SOL    HW119640   6.575   6.889   2.797
 6247SOL    HW219641   6.642   6.832   2.659
 6248SOL     OW19642   1.071   6.145   0.529
 6248SOL    HW119643   1.094   6.129   0.625
 6248SOL    HW219644   0.977   6.179   0.522
 6249SOL     OW19645   6.116   2.640   5.697
 6249SOL    HW119646   6.106   2.739   5.697
 6249SOL    HW219647   6.045   2.599   5.754
 6250SOL     OW19648   6.599   4.586   5.973
 6250SOL    HW119649   6.548   4.561   5.891
 6250SOL    HW219650   6.609   4.505   6.031
 6251SOL     OW19651   4.252   1.134   1.166
 6251SOL    HW119652   4.156   1.137   1.194
 6251SOL    HW219653   4.295   1.222   1.183
 6252SOL     OW19654   1.757   6.276   4.900
 6252SOL    HW119655   1.762   6.369   4.937
 6252SOL    HW219656   1.846   6.249   4.865
 6253SOL     OW19657   2.499   3.406   1.386
 6253SOL    HW119658   2.506   3.443   1.479
 6253SOL    HW219659   2.584   3.422   1.337
 6254SOL     OW19660   4.985   0.449   0.272
 6254SOL    HW119661   4.966   0.545   0.252
 6254SOL    HW219662   5.015   0.440   0.367
 6255SOL     OW19663   0.557   3.182   3.094
 6255SOL    HW119664   0.545   3.114   3.166
 6255SOL    HW219665   0.493   3.257   3.108
 6256SOL     OW19666   3.772   5.150   4.241
 6256SOL    HW119667   3.763   5.054   4.266
 6256SOL    HW219668   3.855   5.187   4.282
 6257SOL     OW19669   4.057   2.837   6.806
 6257SOL    HW119670   4.028   2.870   6.896
 6257SOL    HW219671   3.981   2.846   6.741
 6258SOL     OW19672   4.718   2.049   3.124
 6258SOL    HW119673   4.705   1.996   3.209
 6258SOL    HW219674   4.630   2.056   3.076
 6259SOL     OW19675   3.482   2.105   1.725
 6259SOL    HW119676   3.507   2.017   1.764
 6259SOL    HW219677   3.537   2.177   1.769
 6260SOL     OW19678   3.374   4.413   1.240
 6260SOL    HW119679   3.285   4.457   1.231
 6260SOL    HW219680   3.377   4.361   1.325
 6261SOL     OW19681   4.678   6.726   6.098
 6261SOL    HW119682   4.728   6.804   6.059
 6261SOL    HW219683   4.732   6.643   6.087
 6262SOL     OW19684   7.001   5.569   5.272
 6262SOL    HW119685   0.002   5.525   5.360
 6262SOL    HW219686   6.904   5.557   5.252
 6263SOL     OW19687   6.725   0.620   1.303
 6263SOL    HW119688   6.631   0.624   1.271
 6263SOL    HW219689   6.781   0.569   1.237
 6264SOL     OW19690   2.525   1.514   0.411
 6264SOL    HW119691   2.619   1.522   0.443
 6264SOL    HW219692   2.525   1.496   0.312
 6265SOL     OW19693   6.060   3.390   0.484
 6265SOL    HW119694   5.976   3.336   0.486
 6265SOL    HW219695   6.139   3.329   0.475
 6266SOL     OW19696   2.442   6.988   2.655
 6266SOL    HW119697   2.466   6.991   2.558
 6266SOL    HW219698   2.484   6.908   2.697
 6267SOL     OW19699   2.910   6.454   0.214
 6267SOL    HW119700   2.945   6.361   0.225
 6267SOL    HW219701   2.912   6.500   0.303
 6268SOL     OW19702   2.021   6.011   2.120
 6268SOL    HW119703   2.007   6.106   2.090
 6268SOL    HW219704   2.015   5.950   2.041
 6269SOL     OW19705   6.638   4.286   6.489
 6269SOL    HW119706   6.604   4.198   6.522
 6269SOL    HW219707   6.734   4.277   6.461
 6270SOL     OW19708   0.544   1.365   3.904
 6270SOL    HW119709   0.448   1.395   3.912
 6270SOL    HW219710   0.604   1.445   3.907
 6271SOL     OW19711   5.948   1.611   1.505
 6271SOL    HW119712   5.984   1.564   1.424
 6271SOL    HW219713   6.024   1.644   1.561
 6272SOL     OW19714   2.596   2.492   3.732
 6272SOL    HW119715   2.625   2.430   3.805
 6272SOL    HW219716   2.499   2.512   3.743
 6273SOL     OW19717   3.899   1.153   2.812
 6273SOL    HW119718   3.991   1.143   2.772
 6273SOL    HW219719   3.906   1.197   2.901
 6274SOL     OW19720   2.727   6.057   0.053
 6274SOL    HW119721   2.793   6.010   7.015
 6274SOL    HW219722   2.676   6.124   7.021
 6275SOL     OW19723   3.548   0.763   4.912
 6275SOL    HW119724   3.648   0.759   4.902
 6275SOL    HW219725   3.513   0.843   4.863
 6276SOL     OW19726   1.203   5.074   3.774
 6276SOL    HW119727   1.264   5.069   3.695
 6276SOL    HW219728   1.254   5.049   3.856
 6277SOL     OW19729   6.122   3.612   4.162
 6277SOL    HW119730   6.209   3.598   4.113
 6277SOL    HW219731   6.096   3.528   4.210
 6278SOL     OW19732   4.777   1.187   3.212
 6278SOL    HW119733   4.766   1.271   3.266
 6278SOL    HW219734   4.743   1.204   3.119
 6279SOL     OW19735   4.014   1.907   5.718
 6279SOL    HW119736   3.998   1.847   5.640
 6279SOL    HW219737   4.090   1.871   5.772
 6280SOL     OW19738   1.371   5.342   5.768
 6280SOL    HW119739   1.464   5.338   5.804
 6280SOL    HW219740   1.342   5.250   5.741
 6281SOL     OW19741   3.333   5.789   4.764
 6281SOL    HW119742   3.248   5.739   4.776
 6281SOL    HW219743   3.394   5.738   4.704
 6282SOL     OW19744   0.630   6.790   4.286
 6282SOL    HW119745   0.648   6.869   4.228
 6282SOL    HW219746   0.683   6.798   4.370
 6283SOL     OW19747   0.785   2.730   4.789
 6283SOL    HW119748   0.862   2.764   4.842
 6283SOL    HW219749   0.741   2.655   4.838
 6284SOL     OW19750   2.313   4.854   0.045
 6284SOL    HW119751   2.264   4.787   7.011
 6284SOL    HW219752   2.327   4.937   7.013
 6285SOL     OW19753   2.016   4.127   2.020
 6285SOL    HW119754   1.939   4.096   2.074
 6285SOL    HW219755   2.022   4.073   1.936
 6286SOL     OW19756   6.708   6.117   4.575
 6286SOL    HW119757   6.797   6.070   4.574
 6286SOL    HW219758   6.714   6.198   4.633
 6287SOL     OW19759   3.569   4.957   2.685
 6287SOL    HW119760   3.545   4.935   2.591
 6287SOL    HW219761   3.494   4.931   2.746
 6288SOL     OW19762   6.144   3.431   0.745
 6288SOL    HW119763   6.107   3.351   0.792
 6288SOL    HW219764   6.127   3.422   0.646
 6289SOL     OW19765   0.460   6.470   2.592
 6289SOL    HW119766   0.478   6.539   2.661
 6289SOL    HW219767   0.543   6.454   2.538
 6290SOL     OW19768   5.757   3.942   4.113
 6290SOL    HW119769   5.679   3.895   4.156
 6290SOL    HW219770   5.808   3.991   4.184
 6291SOL     OW19771   3.476   4.117   3.693
 6291SOL    HW119772   3.490   4.176   3.613
 6291SOL    HW219773   3.381   4.087   3.697
 6292SOL     OW19774   0.018   1.063   1.607
 6292SOL    HW119775   6.950   1.058   1.652
 6292SOL    HW219776   0.034   1.156   1.574
 6293SOL     OW19777   5.773   4.905   5.829
 6293SOL    HW119778   5.801   4.875   5.738
 6293SOL    HW219779   5.690   4.855   5.856
 6294SOL     OW19780   3.146   6.493   1.484
 6294SOL    HW119781   3.177   6.402   1.457
 6294SOL    HW219782   3.062   6.516   1.435
 6295SOL     OW19783   6.698   5.663   6.095
 6295SOL    HW119784   6.771   5.693   6.156
 6295SOL    HW219785   6.626   5.732   6.092
 6296SOL     OW19786   5.801   1.774   3.510
 6296SOL    HW119787   5.783   1.871   3.524
 6296SOL    HW219788   5.893   1.762   3.472
 6297SOL     OW19789   5.499   1.253   5.892
 6297SOL    HW119790   5.499   1.348   5.924
 6297SOL    HW219791   5.535   1.250   5.799
 6298SOL     OW19792   6.144   2.512   4.143
 6298SOL    HW119793   6.221   2.560   4.185
 6298SOL    HW219794   6.131   2.423   4.188
 6299SOL     OW19795   0.023   2.345   0.175
 6299SOL    HW119796   6.964   2.379   0.225
 6299SOL    HW219797   0.105   2.389   0.210
 6300SOL     OW19798   5.031   1.003   3.305
 6300SOL    HW119799   4.941   0.999   3.261
 6300SOL    HW219800   5.086   1.075   3.264
 6301SOL     OW19801   3.217   0.435   1.262
 6301SOL    HW119802   3.242   0.431   1.165
 6301SOL    HW219803   3.180   0.347   1.291
 6302SOL     OW19804   6.496   0.338   2.935
 6302SOL    HW119805   6.470   0.302   3.024
 6302SOL    HW219806   6.555   0.418   2.947
 6303SOL     OW19807   2.313   5.257   4.379
 6303SOL    HW119808   2.322   5.330   4.447
 6303SOL    HW219809   2.252   5.186   4.413
 6304SOL     OW19810   4.715   0.722   4.811
 6304SOL    HW119811   4.755   0.785   4.877
 6304SOL    HW219812   4.777   0.644   4.798
 6305SOL     OW19813   5.489   0.223   2.644
 6305SOL    HW119814   5.455   0.131   2.624
 6305SOL    HW219815   5.565   0.217   2.709
 6306SOL     OW19816   6.129   3.148   4.158
 6306SOL    HW119817   6.201   3.139   4.090
 6306SOL    HW219818   6.164   3.199   4.237
 6307SOL     OW19819   2.042   4.760   0.233
 6307SOL    HW119820   1.985   4.826   0.184
 6307SOL    HW219821   2.090   4.702   0.168
 6308SOL     OW19822   4.375   2.301   6.049
 6308SOL    HW119823   4.279   2.275   6.037
 6308SOL    HW219824   4.418   2.241   6.116
 6309SOL     OW19825   6.148   2.093   5.540
 6309SOL    HW119826   6.116   2.187   5.536
 6309SOL    HW219827   6.073   2.031   5.519
 6310SOL     OW19828   6.938   5.605   4.600
 6310SOL    HW119829   6.903   5.517   4.569
 6310SOL    HW219830   6.898   5.678   4.544
 6311SOL     OW19831   5.988   7.003   4.505
 6311SOL    HW119832   6.081   6.982   4.538
 6311SOL    HW219833   5.969   6.950   4.423
 6312SOL     OW19834   5.770   3.992   5.579
 6312SOL    HW119835   5.675   4.021   5.592
 6312SOL    HW219836   5.809   3.965   5.667
 6313SOL     OW19837   2.270   5.488   4.161
 6313SOL    HW119838   2.319   5.462   4.078
 6313SOL    HW219839   2.271   5.412   4.226
 6314SOL     OW19840   1.296   0.231   3.402
 6314SOL    HW119841   1.222   0.238   3.335
 6314SOL    HW219842   1.384   0.241   3.355
 6315SOL     OW19843   1.901   3.124   0.283
 6315SOL    HW119844   1.904   3.113   0.383
 6315SOL    HW219845   1.807   3.135   0.253
 6316SOL     OW19846   4.471   1.047   4.896
 6316SOL    HW119847   4.418   1.121   4.854
 6316SOL    HW219848   4.545   1.085   4.952
 6317SOL     OW19849   6.778   5.392   4.455
 6317SOL    HW119850   6.725   5.345   4.525
 6317SOL    HW219851   6.860   5.340   4.433
 6318SOL     OW19852   1.788   2.336   4.108
 6318SOL    HW119853   1.715   2.374   4.051
 6318SOL    HW219854   1.877   2.361   4.069
 6319SOL     OW19855   1.318   1.795   3.188
 6319SOL    HW119856   1.306   1.765   3.093
 6319SOL    HW219857   1.415   1.806   3.207
 6320SOL     OW19858   0.566   2.417   2.904
 6320SOL    HW119859   0.513   2.478   2.963
 6320SOL    HW219860   0.525   2.414   2.813
 6321SOL     OW19861   1.968   3.915   6.045
 6321SOL    HW119862   2.032   3.974   6.094
 6321SOL    HW219863   1.874   3.939   6.070
 6322SOL     OW19864   2.522   6.744   6.958
 6322SOL    HW119865   2.483   6.729   6.867
 6322SOL    HW219866   2.611   6.699   6.964
 6323SOL     OW19867   4.635   1.464   2.205
 6323SOL    HW119868   4.585   1.541   2.246
 6323SOL    HW219869   4.571   1.402   2.161
 6324SOL     OW19870   3.247   1.777   0.792
 6324SOL    HW119871   3.291   1.849   0.846
 6324SOL    HW219872   3.158   1.809   0.760
 6325SOL     OW19873   1.630   3.134   3.189
 6325SOL    HW119874   1.719   3.105   3.222
 6325SOL    HW219875   1.641   3.211   3.126
 6326SOL     OW19876   4.827   6.768   1.244
 6326SOL    HW119877   4.871   6.686   1.280
 6326SOL    HW219878   4.776   6.745   1.160
 6327SOL     OW19879   4.004   5.206   5.393
 6327SOL    HW119880   3.922   5.226   5.447
 6327SOL    HW219881   4.057   5.135   5.439
 6328SOL     OW19882   2.710   4.289   6.742
 6328SOL    HW119883   2.699   4.200   6.787
 6328SOL    HW219884   2.800   4.326   6.763
 6329SOL     OW19885   0.758   1.940   3.562
 6329SOL    HW119886   0.755   1.909   3.657
 6329SOL    HW219887   0.667   1.971   3.534
 6330SOL     OW19888   3.255   0.493   6.824
 6330SOL    HW119889   3.234   0.429   6.749
 6330SOL    HW219890   3.334   0.548   6.799
 6331SOL     OW19891   5.251   3.120   1.277
 6331SOL    HW119892   5.214   3.210   1.300
 6331SOL    HW219893   5.348   3.129   1.253
 6332SOL     OW19894   4.625   6.039   2.200
 6332SOL    HW119895   4.571   6.117   2.167
 6332SOL    HW219896   4.565   5.964   2.222
 6333SOL     OW19897   2.390   5.250   2.530
 6333SOL    HW119898   2.463   5.300   2.575
 6333SOL    HW219899   2.365   5.296   2.445
 6334SOL     OW19900   2.320   0.913   2.256
 6334SOL    HW119901   2.301   0.963   2.340
 6334SOL    HW219902   2.318   0.977   2.178
 6335SOL     OW19903   6.546   0.983   6.937
 6335SOL    HW119904   6.489   1.065   6.930
 6335SOL    HW219905   6.560   0.945   6.846
 6336SOL     OW19906   1.617   2.716   5.324
 6336SOL    HW119907   1.688   2.781   5.351
 6336SOL    HW219908   1.527   2.759   5.330
 6337SOL     OW19909   0.663   4.596   5.114
 6337SOL    HW119910   0.758   4.629   5.114
 6337SOL    HW219911   0.621   4.615   5.203
 6338SOL     OW19912   3.588   1.265   4.631
 6338SOL    HW119913   3.647   1.292   4.707
 6338SOL    HW219914   3.598   1.167   4.615
 6339SOL     OW19915   6.637   2.581   3.972
 6339SOL    HW119916   6.733   2.605   3.964
 6339SOL    HW219917   6.582   2.664   3.981
 6340SOL     OW19918   3.160   5.467   3.113
 6340SOL    HW119919   3.189   5.380   3.074
 6340SOL    HW219920   3.206   5.481   3.201
 6341SOL     OW19921   6.136   5.248   2.130
 6341SOL    HW119922   6.143   5.256   2.230
 6341SOL    HW219923   6.214   5.292   2.087
 6342SOL     OW19924   1.076   3.783   0.452
 6342SOL    HW119925   1.067   3.685   0.434
 6342SOL    HW219926   0.987   3.820   0.481
 6343SOL     OW19927   4.046   1.400   0.137
 6343SOL    HW119928   3.985   1.402   0.058
 6343SOL    HW219929   4.071   1.305   0.157
 6344SOL     OW19930   6.176   4.734   4.612
 6344SOL    HW119931   6.203   4.830   4.605
 6344SOL    HW219932   6.210   4.696   4.698
 6345SOL     OW19933   1.893   1.829   1.145
 6345SOL    HW119934   1.980   1.829   1.194
 6345SOL    HW219935   1.895   1.899   1.074
 6346SOL     OW19936   0.951   5.345   3.895
 6346SOL    HW119937   0.928   5.333   3.798
 6346SOL    HW219938   0.889   5.412   3.935
 6347SOL     OW19939   2.778   0.906   0.778
 6347SOL    HW119940   2.859   0.857   0.810
 6347SOL    HW219941   2.700   0.844   0.780
 6348SOL     OW19942   0.104   2.302   4.200
 6348SOL    HW119943   0.087   2.214   4.157
 6348SOL    HW219944   0.176   2.351   4.151
 6349SOL     OW19945   1.067   1.022   0.412
 6349SOL    HW119946   1.016   0.995   0.494
 6349SOL    HW219947   1.143   0.959   0.398
 6350SOL     OW19948   6.720   5.772   3.242
 6350SOL    HW119949   6.673   5.684   3.254
 6350SOL    HW219950   6.653   5.845   3.234
 6351SOL     OW19951   0.106   2.140   3.236
 6351SOL    HW119952   0.046   2.067   3.268
 6351SOL    HW219953   0.201   2.119   3.261
 6352SOL     OW19954   6.569   4.330   2.509
 6352SOL    HW119955   6.487   4.304   2.560
 6352SOL    HW219956   6.647   4.279   2.544
 6353SOL     OW19957   6.854   7.014   1.939
 6353SOL    HW119958   6.873   0.091   1.947
 6353SOL    HW219959   6.940   6.963   1.950
 6354SOL     OW19960   6.421   7.016   4.753
 6354SOL    HW119961   6.341   0.035   4.797
 6354SOL    HW219962   6.503   0.045   4.781
 6355SOL     OW19963   1.296   1.861   1.422
 6355SOL    HW119964   1.260   1.801   1.493
 6355SOL    HW219965   1.277   1.822   1.332
 6356SOL     OW19966   3.465   3.482   1.346
 6356SOL    HW119967   3.546   3.531   1.377
 6356SOL    HW219968   3.489   3.421   1.271
 6357SOL     OW19969   4.925   1.799   1.340
 6357SOL    HW119970   4.880   1.745   1.269
 6357SOL    HW219971   4.892   1.893   1.335
 6358SOL     OW19972   0.924   2.763   5.358
 6358SOL    HW119973   0.936   2.749   5.456
 6358SOL    HW219974   0.989   2.705   5.308
 6359SOL     OW19975   6.995   0.621   6.553
 6359SOL    HW119976   6.987   0.669   6.640
 6359SOL    HW219977   0.044   0.550   6.560
 6360SOL     OW19978   2.322   5.116   4.120
 6360SOL    HW119979   2.251   5.046   4.114
 6360SOL    HW219980   2.312   5.166   4.206
 6361SOL     OW19981   3.190   6.537   5.174
 6361SOL    HW119982   3.237   6.468   5.119
 6361SOL    HW219983   3.157   6.495   5.259
 6362SOL     OW19984   6.968   5.099   5.781
 6362SOL    HW119985   0.034   5.050   5.788
 6362SOL    HW219986   6.939   5.128   5.872
 6363SOL     OW19987   0.996   5.575   3.592
 6363SOL    HW119988   1.046   5.491   3.615
 6363SOL    HW219989   0.953   5.611   3.674
 6364SOL     OW19990   2.770   1.514   6.415
 6364SOL    HW119991   2.807   1.550   6.329
 6364SOL    HW219992   2.835   1.531   6.489
 6365SOL     OW19993   3.818   5.690   2.435
 6365SOL    HW119994   3.842   5.620   2.502
 6365SOL    HW219995   3.782   5.647   2.352
 6366SOL     OW19996   0.879   4.347   5.205
 6366SOL    HW119997   0.866   4.358   5.303
 6366SOL    HW219998   0.792   4.319   5.163
 6367SOL     OW19999   5.390   5.529   1.940
 6367SOL    HW120000   5.371   5.565   2.032
 6367SOL    HW220001   5.399   5.606   1.876
 6368SOL     OW20002   2.849   1.677   2.328
 6368SOL    HW120003   2.838   1.586   2.287
 6368SOL    HW220004   2.760   1.722   2.330
 6369SOL     OW20005   2.249   6.264   5.363
 6369SOL    HW120006   2.174   6.317   5.323
 6369SOL    HW220007   2.244   6.170   5.330
 6370SOL     OW20008   5.684   2.922   2.252
 6370SOL    HW120009   5.602   2.879   2.291
 6370SOL    HW220010   5.688   2.902   2.154
 6371SOL     OW20011   4.285   1.194   3.318
 6371SOL    HW120012   4.253   1.252   3.393
 6371SOL    HW220013   4.325   1.111   3.356
 6372SOL     OW20014   2.785   0.166   2.805
 6372SOL    HW120015   2.874   0.202   2.776
 6372SOL    HW220016   2.796   0.070   2.833
 6373SOL     OW20017   3.591   4.562   7.015
 6373SOL    HW120018   3.672   4.613   0.020
 6373SOL    HW220019   3.616   4.467   6.995
 6374SOL     OW20020   3.122   3.061   4.415
 6374SOL    HW120021   3.067   3.067   4.332
 6374SOL    HW220022   3.204   3.117   4.405
 6375SOL     OW20023   2.029   5.891   1.876
 6375SOL    HW120024   2.119   5.850   1.862
 6375SOL    HW220025   2.013   5.961   1.806
 6376SOL     OW20026   1.505   1.507   5.378
 6376SOL    HW120027   1.406   1.519   5.383
 6376SOL    HW220028   1.533   1.498   5.282
 6377SOL     OW20029   0.951   2.299   3.698
 6377SOL    HW120030   0.919   2.256   3.614
 6377SOL    HW220031   0.890   2.374   3.723
 6378SOL     OW20032   3.881   4.882   3.745
 6378SOL    HW120033   3.963   4.871   3.688
 6378SOL    HW220034   3.875   4.805   3.810
 6379SOL     OW20035   2.145   4.593   2.246
 6379SOL    HW120036   2.205   4.579   2.167
 6379SOL    HW220037   2.200   4.615   2.327
 6380SOL     OW20038   1.478   0.913   6.132
 6380SOL    HW120039   1.497   0.990   6.193
 6380SOL    HW220040   1.468   0.830   6.186
 6381SOL     OW20041   3.528   3.537   2.774
 6381SOL    HW120042   3.436   3.545   2.813
 6381SOL    HW220043   3.571   3.627   2.772
 6382SOL     OW20044   1.539   4.767   4.816
 6382SOL    HW120045   1.593   4.744   4.735
 6382SOL    HW220046   1.516   4.684   4.866
 6383SOL     OW20047   3.941   1.569   3.930
 6383SOL    HW120048   3.909   1.658   3.962
 6383SOL    HW220049   4.011   1.582   3.859
 6384SOL     OW20050   7.005   4.115   1.663
 6384SOL    HW120051   0.073   4.123   1.708
 6384SOL    HW220052   7.001   4.031   1.609
 6385SOL     OW20053   1.052   5.835   5.291
 6385SOL    HW120054   1.108   5.754   5.309
 6385SOL    HW220055   0.956   5.807   5.282
 6386SOL     OW20056   2.060   5.452   2.634
 6386SOL    HW120057   2.024   5.480   2.723
 6386SOL    HW220058   2.001   5.488   2.562
 6387SOL     OW20059   6.004   0.991   5.030
 6387SOL    HW120060   6.038   0.971   4.938
 6387SOL    HW220061   5.921   1.046   5.024
 6388SOL     OW20062   2.061   4.865   2.811
 6388SOL    HW120063   2.152   4.823   2.819
 6388SOL    HW220064   1.997   4.818   2.871
 6389SOL     OW20065   1.589   3.874   1.098
 6389SOL    HW120066   1.555   3.801   1.039
 6389SOL    HW220067   1.583   3.962   1.050
 6390SOL     OW20068   0.480   3.298   4.772
 6390SOL    HW120069   0.573   3.269   4.796
 6390SOL    HW220070   0.481   3.342   4.682
 6391SOL     OW20071   3.654   0.669   0.477
 6391SOL    HW120072   3.610   0.614   0.406
 6391SOL    HW220073   3.677   0.611   0.556
 6392SOL     OW20074   1.351   5.692   4.318
 6392SOL    HW120075   1.419   5.712   4.248
 6392SOL    HW220076   1.305   5.777   4.345
 6393SOL     OW20077   4.743   1.290   6.805
 6393SOL    HW120078   4.675   1.237   6.754
 6393SOL    HW220079   4.713   1.384   6.813
 6394SOL     OW20080   3.902   5.644   2.061
 6394SOL    HW120081   3.829   5.646   1.992
 6394SOL    HW220082   3.895   5.726   2.119
 6395SOL     OW20083   5.511   2.048   0.112
 6395SOL    HW120084   5.579   2.068   0.042
 6395SOL    HW220085   5.534   1.961   0.156
 6396SOL     OW20086   6.550   2.593   6.424
 6396SOL    HW120087   6.549   2.533   6.343
 6396SOL    HW220088   6.468   2.575   6.479
 6397SOL     OW20089   6.412   0.469   0.559
 6397SOL    HW120090   6.486   0.495   0.498
 6397SOL    HW220091   6.429   0.377   0.596
 6398SOL     OW20092   4.281   0.905   1.612
 6398SOL    HW120093   4.354   0.967   1.583
 6398SOL    HW220094   4.304   0.867   1.702
 6399SOL     OW20095   0.932   6.158   6.035
 6399SOL    HW120096   0.965   6.087   6.097
 6399SOL    HW220097   0.833   6.155   6.031
 6400SOL     OW20098   3.094   4.942   4.757
 6400SOL    HW120099   3.161   4.928   4.830
 6400SOL    HW220100   3.010   4.892   4.778
 6401SOL     OW20101   0.163   4.898   5.785
 6401SOL    HW120102   0.080   4.864   5.741
 6401SOL    HW220103   0.237   4.904   5.717
 6402SOL     OW20104   2.057   3.425   3.022
 6402SOL    HW120105   2.066   3.337   2.974
 6402SOL    HW220106   2.051   3.409   3.120
 6403SOL     OW20107   7.017   6.226   1.753
 6403SOL    HW120108   6.974   6.299   1.700
 6403SOL    HW220109   0.050   6.266   1.827
 6404SOL     OW20110   5.161   0.836   2.462
 6404SOL    HW120111   5.246   0.797   2.499
 6404SOL    HW220112   5.182   0.922   2.415
 6405SOL     OW20113   3.594   0.341   1.518
 6405SOL    HW120114   3.639   0.274   1.578
 6405SOL    HW220115   3.664   0.386   1.461
 6406SOL     OW20116   2.286   2.013   3.408
 6406SOL    HW120117   2.347   1.980   3.480
 6406SOL    HW220118   2.320   2.101   3.374
 6407SOL     OW20119   4.941   6.257   6.737
 6407SOL    HW120120   4.904   6.328   6.677
 6407SOL    HW220121   5.039   6.272   6.748
 6408SOL     OW20122   5.943   2.425   1.082
 6408SOL    HW120123   5.990   2.378   1.008
 6408SOL    HW220124   6.001   2.498   1.118
 6409SOL     OW20125   0.966   5.102   1.592
 6409SOL    HW120126   0.901   5.048   1.540
 6409SOL    HW220127   0.929   5.122   1.683
 6410SOL     OW20128   0.344   0.057   1.457
 6410SOL    HW120129   0.398   0.135   1.490
 6410SOL    HW220130   0.324   0.070   1.360
 6411SOL     OW20131   1.698   1.563   2.986
 6411SOL    HW120132   1.695   1.660   2.963
 6411SOL    HW220133   1.786   1.542   3.028
 6412SOL     OW20134   5.979   2.021   4.884
 6412SOL    HW120135   5.934   1.933   4.897
 6412SOL    HW220136   6.020   2.051   4.970
 6413SOL     OW20137   0.432   5.189   0.859
 6413SOL    HW120138   0.408   5.263   0.796
 6413SOL    HW220139   0.371   5.192   0.938
 6414SOL     OW20140   6.125   0.477   3.387
 6414SOL    HW120141   6.080   0.538   3.452
 6414SOL    HW220142   6.101   0.382   3.409
 6415SOL     OW20143   1.174   1.522   1.810
 6415SOL    HW120144   1.206   1.434   1.774
 6415SOL    HW220145   1.128   1.508   1.898
 6416SOL     OW20146   2.676   6.276   6.477
 6416SOL    HW120147   2.644   6.191   6.519
 6416SOL    HW220148   2.775   6.271   6.465
 6417SOL     OW20149   0.094   5.777   4.422
 6417SOL    HW120150   0.026   5.757   4.351
 6417SOL    HW220151   0.137   5.693   4.453
 6418SOL     OW20152   6.946   4.995   2.211
 6418SOL    HW120153   6.905   5.070   2.159
 6418SOL    HW220154   7.003   4.940   2.150
 6419SOL     OW20155   2.509   2.593   0.375
 6419SOL    HW120156   2.504   2.495   0.395
 6419SOL    HW220157   2.582   2.609   0.308
 6420SOL     OW20158   0.476   2.044   6.960
 6420SOL    HW120159   0.413   1.966   6.968
 6420SOL    HW220160   0.555   2.029   7.020
 6421SOL     OW20161   5.423   1.575   0.284
 6421SOL    HW120162   5.419   1.588   0.384
 6421SOL    HW220163   5.467   1.488   0.263
 6422SOL     OW20164   5.525   2.491   3.046
 6422SOL    HW120165   5.435   2.511   3.085
 6422SOL    HW220166   5.533   2.534   2.956
 6423SOL     OW20167   5.304   4.165   0.562
 6423SOL    HW120168   5.283   4.097   0.492
 6423SOL    HW220169   5.229   4.231   0.570
 6424SOL     OW20170   6.013   3.582   5.143
 6424SOL    HW120171   6.064   3.667   5.152
 6424SOL    HW220172   6.078   3.505   5.140
 6425SOL     OW20173   0.926   5.808   0.692
 6425SOL    HW120174   0.974   5.827   0.606
 6425SOL    HW220175   0.955   5.719   0.727
 6426SOL     OW20176   6.485   3.324   3.452
 6426SOL    HW120177   6.452   3.418   3.466
 6426SOL    HW220178   6.579   3.316   3.484
 6427SOL     OW20179   1.036   3.734   5.985
 6427SOL    HW120180   0.941   3.736   6.017
 6427SOL    HW220181   1.047   3.797   5.909
 6428SOL     OW20182   6.158   3.817   5.099
 6428SOL    HW120183   6.215   3.790   5.021
 6428SOL    HW220184   6.084   3.876   5.067
 6429SOL     OW20185   1.305   1.265   5.527
 6429SOL    HW120186   1.242   1.303   5.595
 6429SOL    HW220187   1.391   1.316   5.529
 6430SOL     OW20188   6.330   3.263   0.008
 6430SOL    HW120189   6.270   3.191   0.042
 6430SOL    HW220190   6.283   3.316   6.959
 6431SOL     OW20191   5.722   1.426   2.299
 6431SOL    HW120192   5.793   1.456   2.235
 6431SOL    HW220193   5.729   1.327   2.312
 6432SOL     OW20194   6.137   3.900   0.324
 6432SOL    HW120195   6.055   3.956   0.307
 6432SOL    HW220196   6.132   3.817   0.269
 6433SOL     OW20197   2.129   3.380   1.559
 6433SOL    HW120198   2.172   3.470   1.545
 6433SOL    HW220199   2.097   3.344   1.472
 6434SOL     OW20200   1.649   6.047   0.795
 6434SOL    HW120201   1.659   6.057   0.696
 6434SOL    HW220202   1.720   6.101   0.841
 6435SOL     OW20203   5.487   3.685   1.162
 6435SOL    HW120204   5.419   3.711   1.093
 6435SOL    HW220205   5.577   3.680   1.120
 6436SOL     OW20206   2.615   2.357   1.141
 6436SOL    HW120207   2.662   2.374   1.055
 6436SOL    HW220208   2.674   2.304   1.202
 6437SOL     OW20209   0.325   1.210   1.324
 6437SOL    HW120210   0.388   1.248   1.257
 6437SOL    HW220211   0.234   1.203   1.284
 6438SOL     OW20212   0.740   3.198   4.812
 6438SOL    HW120213   0.744   3.198   4.712
 6438SOL    HW220214   0.829   3.225   4.849
 6439SOL     OW20215   0.145   6.105   2.847
 6439SOL    HW120216   0.150   6.098   2.747
 6439SOL    HW220217   0.136   6.201   2.873
 6440SOL     OW20218   0.475   0.534   2.226
 6440SOL    HW120219   0.526   0.571   2.303
 6440SOL    HW220220   0.523   0.556   2.141
 6441SOL     OW20221   5.012   1.879   3.226
 6441SOL    HW120222   5.042   1.908   3.317
 6441SOL    HW220223   5.089   1.834   3.179
 6442SOL     OW20224   1.646   1.834   3.566
 6442SOL    HW120225   1.563   1.846   3.622
 6442SOL    HW220226   1.620   1.810   3.473
 6443SOL     OW20227   2.042   0.799   1.206
 6443SOL    HW120228   2.102   0.722   1.182
 6443SOL    HW220229   2.025   0.855   1.125
 6444SOL     OW20230   0.841   1.056   2.673
 6444SOL    HW120231   0.829   1.138   2.617
 6444SOL    HW220232   0.805   1.073   2.764
 6445SOL     OW20233   3.355   4.533   6.249
 6445SOL    HW120234   3.290   4.607   6.232
 6445SOL    HW220235   3.445   4.572   6.271
 6446SOL     OW20236   0.410   0.980   1.081
 6446SOL    HW120237   0.315   0.951   1.082
 6446SOL    HW220238   0.448   0.966   0.989
 6447SOL     OW20239   2.010   1.105   3.595
 6447SOL    HW120240   1.978   1.034   3.531
 6447SOL    HW220241   1.942   1.178   3.600
 6448SOL     OW20242   6.205   2.778   2.462
 6448SOL    HW120243   6.208   2.838   2.542
 6448SOL    HW220244   6.261   2.816   2.389
 6449SOL     OW20245   4.109   2.308   0.764
 6449SOL    HW120246   4.035   2.302   0.697
 6449SOL    HW220247   4.086   2.254   0.845
 6450SOL     OW20248   6.410   2.546   0.297
 6450SOL    HW120249   6.464   2.469   0.262
 6450SOL    HW220250   6.468   2.627   0.301
 6451SOL     OW20251   2.927   6.256   4.372
 6451SOL    HW120252   2.986   6.205   4.434
 6451SOL    HW220253   2.945   6.227   4.278
 6452SOL     OW20254   3.796   5.977   4.182
 6452SOL    HW120255   3.790   5.877   4.187
 6452SOL    HW220256   3.802   6.005   4.087
 6453SOL     OW20257   2.256   5.002   6.766
 6453SOL    HW120258   2.337   5.030   6.817
 6453SOL    HW220259   2.256   5.045   6.675
 6454SOL     OW20260   3.886   0.911   4.659
 6454SOL    HW120261   3.943   0.974   4.712
 6454SOL    HW220262   3.937   0.878   4.580
 6455SOL     OW20263   6.372   3.355   0.261
 6455SOL    HW120264   6.364   3.331   0.164
 6455SOL    HW220265   6.466   3.380   0.281
 6456SOL     OW20266   6.331   1.765   4.189
 6456SOL    HW120267   6.299   1.683   4.235
 6456SOL    HW220268   6.259   1.802   4.131
 6457SOL     OW20269   5.494   3.429   2.144
 6457SOL    HW120270   5.448   3.391   2.064
 6457SOL    HW220271   5.582   3.468   2.117
 6458SOL     OW20272   1.524   5.569   3.953
 6458SOL    HW120273   1.453   5.512   3.996
 6458SOL    HW220274   1.509   5.572   3.855
 6459SOL     OW20275   5.826   4.208   0.066
 6459SOL    HW120276   5.772   4.290   0.047
 6459SOL    HW220277   5.918   4.234   0.093
 6460SOL     OW20278   3.708   4.910   1.588
 6460SOL    HW120279   3.675   4.914   1.494
 6460SOL    HW220280   3.768   4.988   1.606
 6461SOL     OW20281   2.939   5.598   4.658
 6461SOL    HW120282   3.025   5.646   4.644
 6461SOL    HW220283   2.892   5.636   4.738
 6462SOL     OW20284   1.887   3.779   2.624
 6462SOL    HW120285   1.802   3.753   2.578
 6462SOL    HW220286   1.917   3.704   2.684
 6463SOL     OW20287   1.946   3.194   6.329
 6463SOL    HW120288   1.881   3.269   6.334
 6463SOL    HW220289   1.955   3.164   6.234
 6464SOL     OW20290   0.870   5.136   1.859
 6464SOL    HW120291   0.818   5.062   1.902
 6464SOL    HW220292   0.818   5.221   1.868
 6465SOL     OW20293   6.669   0.542   3.019
 6465SOL    HW120294   6.691   0.599   2.940
 6465SOL    HW220295   6.748   0.486   3.043
 6466SOL     OW20296   6.225   2.970   4.413
 6466SOL    HW120297   6.318   2.991   4.382
 6466SOL    HW220298   6.163   2.969   4.334
 6467SOL     OW20299   3.831   6.937   6.202
 6467SOL    HW120300   3.792   0.008   6.193
 6467SOL    HW220301   3.808   6.883   6.121
 6468SOL     OW20302   6.453   4.864   1.851
 6468SOL    HW120303   6.403   4.778   1.836
 6468SOL    HW220304   6.531   4.846   1.910
 6469SOL     OW20305   6.022   1.769   6.107
 6469SOL    HW120306   6.120   1.787   6.099
 6469SOL    HW220307   6.007   1.674   6.134
 6470SOL     OW20308   6.748   6.363   4.686
 6470SOL    HW120309   6.669   6.421   4.669
 6470SOL    HW220310   6.810   6.366   4.607
 6471SOL     OW20311   6.547   6.774   4.825
 6471SOL    HW120312   6.488   6.847   4.791
 6471SOL    HW220313   6.584   6.799   4.914
 6472SOL     OW20314   1.567   6.725   1.767
 6472SOL    HW120315   1.562   6.788   1.689
 6472SOL    HW220316   1.486   6.667   1.768
 6473SOL     OW20317   2.138   1.155   5.687
 6473SOL    HW120318   2.095   1.212   5.757
 6473SOL    HW220319   2.094   1.065   5.686
 6474SOL     OW20320   1.977   3.325   6.592
 6474SOL    HW120321   1.990   3.256   6.663
 6474SOL    HW220322   1.994   3.284   6.502
 6475SOL     OW20323   4.162   5.148   3.905
 6475SOL    HW120324   4.078   5.154   3.851
 6475SOL    HW220325   4.177   5.053   3.934
 6476SOL     OW20326   4.982   5.715   3.028
 6476SOL    HW120327   4.983   5.645   2.957
 6476SOL    HW220328   5.065   5.771   3.021
 6477SOL     OW20329   6.717   6.361   0.178
 6477SOL    HW120330   6.791   6.351   0.111
 6477SOL    HW220331   6.727   6.290   0.248
 6478SOL     OW20332   4.113   6.249   1.247
 6478SOL    HW120333   4.158   6.167   1.210
 6478SOL    HW220334   4.182   6.313   1.280
 6479SOL     OW20335   2.973   5.507   2.791
 6479SOL    HW120336   2.879   5.500   2.825
 6479SOL    HW220337   2.986   5.443   2.715
 6480SOL     OW20338   2.337   0.631   0.253
 6480SOL    HW120339   2.251   0.618   0.204
 6480SOL    HW220340   2.345   0.726   0.282
 6481SOL     OW20341   4.630   0.640   1.250
 6481SOL    HW120342   4.589   0.630   1.159
 6481SOL    HW220343   4.707   0.577   1.259
 6482SOL     OW20344   0.358   0.408   5.625
 6482SOL    HW120345   0.414   0.428   5.545
 6482SOL    HW220346   0.363   0.310   5.646
 6483SOL     OW20347   1.424   5.112   1.708
 6483SOL    HW120348   1.400   5.016   1.692
 6483SOL    HW220349   1.343   5.169   1.693
 6484SOL     OW20350   4.674   0.167   2.966
 6484SOL    HW120351   4.725   0.241   3.009
 6484SOL    HW220352   4.688   0.170   2.867
 6485SOL     OW20353   0.299   2.813   2.012
 6485SOL    HW120354   0.361   2.804   1.934
 6485SOL    HW220355   0.239   2.891   1.998
 6486SOL     OW20356   1.343   3.122   3.480
 6486SOL    HW120357   1.269   3.170   3.527
 6486SOL    HW220358   1.305   3.065   3.408
 6487SOL     OW20359   6.006   5.810   3.388
 6487SOL    HW120360   5.913   5.786   3.362
 6487SOL    HW220361   6.069   5.737   3.359
 6488SOL     OW20362   3.390   5.158   4.208
 6488SOL    HW120363   3.419   5.074   4.254
 6488SOL    HW220364   3.334   5.212   4.271
 6489SOL     OW20365   2.854   1.047   6.507
 6489SOL    HW120366   2.904   1.108   6.446
 6489SOL    HW220367   2.916   0.976   6.541
 6490SOL     OW20368   4.690   0.988   0.368
 6490SOL    HW120369   4.675   0.908   0.426
 6490SOL    HW220370   4.648   1.068   0.411
 6491SOL     OW20371   5.508   1.021   6.049
 6491SOL    HW120372   5.507   1.078   5.967
 6491SOL    HW220373   5.443   1.058   6.116
 6492SOL     OW20374   6.111   5.537   5.759
 6492SOL    HW120375   6.124   5.447   5.718
 6492SOL    HW220376   6.131   5.533   5.857
 6493SOL     OW20377   0.111   0.117   5.347
 6493SOL    HW120378   0.089   0.101   5.251
 6493SOL    HW220379   0.193   0.066   5.372
 6494SOL     OW20380   0.424   2.390   3.462
 6494SOL    HW120381   0.455   2.358   3.373
 6494SOL    HW220382   0.337   2.438   3.453
 6495SOL     OW20383   5.521   4.627   1.830
 6495SOL    HW120384   5.546   4.723   1.822
 6495SOL    HW220385   5.422   4.617   1.818
 6496SOL     OW20386   0.562   6.282   3.453
 6496SOL    HW120387   0.570   6.198   3.400
 6496SOL    HW220388   0.478   6.330   3.428
 6497SOL     OW20389   0.892   6.807   1.498
 6497SOL    HW120390   0.951   6.887   1.507
 6497SOL    HW220391   0.918   6.756   1.416
 6498SOL     OW20392   1.489   3.391   4.515
 6498SOL    HW120393   1.423   3.316   4.529
 6498SOL    HW220394   1.543   3.403   4.598
 6499SOL     OW20395   6.379   1.535   3.059
 6499SOL    HW120396   6.357   1.442   3.087
 6499SOL    HW220397   6.344   1.552   2.967
 6500SOL     OW20398   5.706   4.840   2.036
 6500SOL    HW120399   5.745   4.866   2.124
 6500SOL    HW220400   5.781   4.822   1.971
 6501SOL     OW20401   6.660   4.445   1.119
 6501SOL    HW120402   6.616   4.531   1.142
 6501SOL    HW220403   6.604   4.395   1.053
 6502SOL     OW20404   0.758   5.810   1.487
 6502SOL    HW120405   0.768   5.908   1.477
 6502SOL    HW220406   0.740   5.788   1.583
 6503SOL     OW20407   4.115   0.547   3.832
 6503SOL    HW120408   4.143   0.607   3.758
 6503SOL    HW220409   4.019   0.520   3.818
 6504SOL     OW20410   2.267   2.599   0.265
 6504SOL    HW120411   2.273   2.612   0.166
 6504SOL    HW220412   2.359   2.588   0.303
 6505SOL     OW20413   5.689   5.107   0.614
 6505SOL    HW120414   5.673   5.200   0.648
 6505SOL    HW220415   5.781   5.078   0.642
 6506SOL     OW20416   2.170   1.292   1.701
 6506SOL    HW120417   2.246   1.329   1.754
 6506SOL    HW220418   2.139   1.360   1.635
 6507SOL     OW20419   3.092   0.897   1.595
 6507SOL    HW120420   3.075   0.957   1.673
 6507SOL    HW220421   3.009   0.847   1.571
 6508SOL     OW20422   1.349   2.757   1.564
 6508SOL    HW120423   1.416   2.831   1.574
 6508SOL    HW220424   1.336   2.712   1.652
 6509SOL     OW20425   1.401   3.055   3.859
 6509SOL    HW120426   1.402   3.151   3.886
 6509SOL    HW220427   1.491   3.015   3.873
 6510SOL     OW20428   6.222   4.394   6.423
 6510SOL    HW120429   6.137   4.443   6.446
 6510SOL    HW220430   6.291   4.460   6.393
 6511SOL     OW20431   6.759   6.866   5.835
 6511SOL    HW120432   6.813   6.812   5.899
 6511SOL    HW220433   6.677   6.901   5.881
 6512SOL     OW20434   5.373   6.275   4.194
 6512SOL    HW120435   5.295   6.213   4.206
 6512SOL    HW220436   5.352   6.363   4.237
 6513SOL     OW20437   1.423   6.651   3.602
 6513SOL    HW120438   1.463   6.730   3.648
 6513SOL    HW220439   1.495   6.584   3.582
 6514SOL     OW20440   3.130   0.400   3.659
 6514SOL    HW120441   3.098   0.348   3.737
 6514SOL    HW220442   3.230   0.396   3.654
 6515SOL     OW20443   1.416   0.714   3.402
 6515SOL    HW120444   1.340   0.778   3.411
 6515SOL    HW220445   1.473   0.741   3.324
 6516SOL     OW20446   1.886   1.281   5.512
 6516SOL    HW120447   1.926   1.365   5.476
 6516SOL    HW220448   1.945   1.204   5.490
 6517SOL     OW20449   2.742   1.967   0.916
 6517SOL    HW120450   2.779   2.007   1.001
 6517SOL    HW220451   2.756   2.031   0.841
 6518SOL     OW20452   5.591   6.575   1.031
 6518SOL    HW120453   5.591   6.583   1.131
 6518SOL    HW220454   5.593   6.479   1.005
 6519SOL     OW20455   0.849   1.908   3.853
 6519SOL    HW120456   0.854   2.001   3.887
 6519SOL    HW220457   0.835   1.845   3.929
 6520SOL     OW20458   5.765   5.391   0.898
 6520SOL    HW120459   5.729   5.398   0.804
 6520SOL    HW220460   5.739   5.473   0.949
 6521SOL     OW20461   1.356   2.134   5.784
 6521SOL    HW120462   1.366   2.184   5.870
 6521SOL    HW220463   1.316   2.193   5.715
 6522SOL     OW20464   2.811   4.759   4.140
 6522SOL    HW120465   2.759   4.689   4.091
 6522SOL    HW220466   2.804   4.743   4.239
 6523SOL     OW20467   2.424   2.410   0.742
 6523SOL    HW120468   2.505   2.449   0.785
 6523SOL    HW220469   2.445   2.318   0.709
 6524SOL     OW20470   3.971   2.450   5.541
 6524SOL    HW120471   3.998   2.484   5.631
 6524SOL    HW220472   3.938   2.356   5.549
 6525SOL     OW20473   0.711   2.399   4.308
 6525SOL    HW120474   0.733   2.315   4.259
 6525SOL    HW220475   0.632   2.384   4.367
 6526SOL     OW20476   1.750   6.008   3.456
 6526SOL    HW120477   1.736   5.936   3.388
 6526SOL    HW220478   1.847   6.031   3.461
 6527SOL     OW20479   1.971   1.056   4.602
 6527SOL    HW120480   1.994   1.054   4.699
 6527SOL    HW220481   1.954   1.150   4.574
 6528SOL     OW20482   0.205   0.613   3.025
 6528SOL    HW120483   0.219   0.599   2.927
 6528SOL    HW220484   0.147   0.693   3.040
 6529SOL     OW20485   6.172   3.149   2.852
 6529SOL    HW120486   6.123   3.110   2.930
 6529SOL    HW220487   6.115   3.220   2.810
 6530SOL     OW20488   0.252   1.476   6.903
 6530SOL    HW120489   0.265   1.512   6.996
 6530SOL    HW220490   0.311   1.397   6.890
 6531SOL     OW20491   5.109   2.238   5.747
 6531SOL    HW120492   5.060   2.176   5.809
 6531SOL    HW220493   5.202   2.252   5.782
 6532SOL     OW20494   1.505   1.639   6.969
 6532SOL    HW120495   1.578   1.582   6.933
 6532SOL    HW220496   1.437   1.656   6.896
 6533SOL     OW20497   5.022   0.464   0.532
 6533SOL    HW120498   5.107   0.434   0.576
 6533SOL    HW220499   4.989   0.547   0.577
 6534SOL     OW20500   3.604   2.361   6.743
 6534SOL    HW120501   3.653   2.305   6.810
 6534SOL    HW220502   3.545   2.426   6.791
 6535SOL     OW20503   2.092   3.380   5.097
 6535SOL    HW120504   2.158   3.454   5.106
 6535SOL    HW220505   2.043   3.368   5.184
 6536SOL     OW20506   0.248   1.405   0.415
 6536SOL    HW120507   0.240   1.307   0.430
 6536SOL    HW220508   0.220   1.454   0.498
 6537SOL     OW20509   0.486   0.690   6.543
 6537SOL    HW120510   0.427   0.705   6.464
 6537SOL    HW220511   0.435   0.707   6.627
 6538SOL     OW20512   3.147   2.534   5.754
 6538SOL    HW120513   3.160   2.435   5.749
 6538SOL    HW220514   3.173   2.566   5.846
 6539SOL     OW20515   3.128   1.273   7.015
 6539SOL    HW120516   3.042   1.273   6.964
 6539SOL    HW220517   3.169   1.181   7.010
 6540SOL     OW20518   4.175   2.140   2.822
 6540SOL    HW120519   4.157   2.180   2.732
 6540SOL    HW220520   4.114   2.182   2.889
 6541SOL     OW20521   2.852   2.366   5.214
 6541SOL    HW120522   2.952   2.365   5.217
 6541SOL    HW220523   2.821   2.349   5.121
 6542SOL     OW20524   4.473   4.543   2.915
 6542SOL    HW120525   4.496   4.505   3.005
 6542SOL    HW220526   4.379   4.575   2.915
 6543SOL     OW20527   1.270   6.117   5.788
 6543SOL    HW120528   1.293   6.062   5.868
 6543SOL    HW220529   1.346   6.114   5.723
 6544SOL     OW20530   0.627   5.559   2.889
 6544SOL    HW120531   0.577   5.473   2.898
 6544SOL    HW220532   0.571   5.625   2.839
 6545SOL     OW20533   6.055   2.576   6.151
 6545SOL    HW120534   6.134   2.557   6.210
 6545SOL    HW220535   6.015   2.490   6.120
 6546SOL     OW20536   3.357   4.668   6.592
 6546SOL    HW120537   3.422   4.681   6.667
 6546SOL    HW220538   3.327   4.758   6.559
 6547SOL     OW20539   4.172   1.390   6.456
 6547SOL    HW120540   4.215   1.302   6.435
 6547SOL    HW220541   4.073   1.380   6.456
 6548SOL     OW20542   5.151   3.990   6.002
 6548SOL    HW120543   5.090   4.025   5.930
 6548SOL    HW220544   5.152   4.055   6.078
 6549SOL     OW20545   2.679   2.291   2.271
 6549SOL    HW120546   2.609   2.361   2.258
 6549SOL    HW220547   2.756   2.308   2.210
 6550SOL     OW20548   0.884   6.141   2.343
 6550SOL    HW120549   0.893   6.186   2.254
 6550SOL    HW220550   0.834   6.201   2.405
 6551SOL     OW20551   3.665   5.220   2.179
 6551SOL    HW120552   3.642   5.283   2.105
 6551SOL    HW220553   3.676   5.271   2.264
 6552SOL     OW20554   4.595   4.823   5.628
 6552SOL    HW120555   4.666   4.812   5.697
 6552SOL    HW220556   4.633   4.871   5.549
 6553SOL     OW20557   6.999   3.613   3.184
 6553SOL    HW120558   0.045   3.586   3.253
 6553SOL    HW220559   6.942   3.535   3.160
 6554SOL     OW20560   6.721   3.315   4.644
 6554SOL    HW120561   6.792   3.382   4.623
 6554SOL    HW220562   6.752   3.224   4.617
 6555SOL     OW20563   0.733   1.586   1.301
 6555SOL    HW120564   0.752   1.508   1.360
 6555SOL    HW220565   0.640   1.579   1.264
 6556SOL     OW20566   3.823   0.259   3.155
 6556SOL    HW120567   3.836   0.253   3.254
 6556SOL    HW220568   3.856   0.176   3.111
 6557SOL     OW20569   5.518   6.218   0.448
 6557SOL    HW120570   5.601   6.213   0.503
 6557SOL    HW220571   5.536   6.271   0.365
 6558SOL     OW20572   6.438   6.905   5.651
 6558SOL    HW120573   6.452   6.931   5.555
 6558SOL    HW220574   6.430   6.806   5.657
 6559SOL     OW20575   2.853   3.841   1.138
 6559SOL    HW120576   2.931   3.789   1.103
 6559SOL    HW220577   2.869   3.862   1.234
 6560SOL     OW20578   4.301   1.749   1.154
 6560SOL    HW120579   4.233   1.703   1.212
 6560SOL    HW220580   4.300   1.847   1.173
 6561SOL     OW20581   3.895   4.090   4.788
 6561SOL    HW120582   3.948   4.118   4.868
 6561SOL    HW220583   3.916   3.995   4.766
 6562SOL     OW20584   0.607   4.318   5.178
 6562SOL    HW120585   0.521   4.269   5.163
 6562SOL    HW220586   0.597   4.413   5.147
 6563SOL     OW20587   1.049   5.953   2.479
 6563SOL    HW120588   1.017   6.040   2.442
 6563SOL    HW220589   1.126   5.920   2.425
 6564SOL     OW20590   1.993   5.182   2.933
 6564SOL    HW120591   1.938   5.122   2.875
 6564SOL    HW220592   2.089   5.155   2.928
 6565SOL     OW20593   6.641   3.227   5.082
 6565SOL    HW120594   6.675   3.310   5.128
 6565SOL    HW220595   6.610   3.161   5.150
 6566SOL     OW20596   3.941   1.215   0.683
 6566SOL    HW120597   3.950   1.309   0.649
 6566SOL    HW220598   3.979   1.210   0.775
 6567SOL     OW20599   6.725   2.446   0.671
 6567SOL    HW120600   6.669   2.414   0.595
 6567SOL    HW220601   6.711   2.544   0.684
 6568SOL     OW20602   5.483   3.419   1.701
 6568SOL    HW120603   5.524   3.404   1.610
 6568SOL    HW220604   5.556   3.421   1.769
 6569SOL     OW20605   1.494   3.824   5.533
 6569SOL    HW120606   1.407   3.865   5.506
 6569SOL    HW220607   1.570   3.873   5.490
 6570SOL     OW20608   0.137   4.145   2.076
 6570SOL    HW120609   0.107   4.095   1.994
 6570SOL    HW220610   0.221   4.103   2.110
 6571SOL     OW20611   2.338   5.359   3.666
 6571SOL    HW120612   2.341   5.363   3.566
 6571SOL    HW220613   2.347   5.265   3.697
 6572SOL     OW20614   1.930   3.787   5.665
 6572SOL    HW120615   1.834   3.782   5.694
 6572SOL    HW220616   1.975   3.700   5.684
 6573SOL     OW20617   1.546   2.161   1.677
 6573SOL    HW120618   1.640   2.191   1.695
 6573SOL    HW220619   1.530   2.163   1.578
 6574SOL     OW20620   2.220   4.572   4.333
 6574SOL    HW120621   2.134   4.619   4.315
 6574SOL    HW220622   2.217   4.529   4.423
 6575SOL     OW20623   1.359   1.675   2.525
 6575SOL    HW120624   1.303   1.754   2.500
 6575SOL    HW220625   1.441   1.705   2.573
 6576SOL     OW20626   0.529   5.815   4.024
 6576SOL    HW120627   0.461   5.743   4.021
 6576SOL    HW220628   0.517   5.877   3.946
 6577SOL     OW20629   0.162   3.727   5.481
 6577SOL    HW120630   0.198   3.647   5.433
 6577SOL    HW220631   0.124   3.792   5.415
 6578SOL     OW20632   6.351   6.009   3.892
 6578SOL    HW120633   6.289   6.019   3.814
 6578SOL    HW220634   6.324   6.073   3.964
 6579SOL     OW20635   0.557   3.789   3.834
 6579SOL    HW120636   0.516   3.880   3.834
 6579SOL    HW220637   0.615   3.778   3.914
 6580SOL     OW20638   5.784   2.413   0.648
 6580SOL    HW120639   5.784   2.315   0.665
 6580SOL    HW220640   5.763   2.431   0.552
 6581SOL     OW20641   2.607   2.207   5.217
 6581SOL    HW120642   2.695   2.245   5.245
 6581SOL    HW220643   2.541   2.282   5.205
 6582SOL     OW20644   6.643   0.763   2.549
 6582SOL    HW120645   6.553   0.739   2.585
 6582SOL    HW220646   6.638   0.853   2.505
 6583SOL     OW20647   6.766   0.982   6.102
 6583SOL    HW120648   6.824   1.057   6.133
 6583SOL    HW220649   6.724   1.006   6.014
 6584SOL     OW20650   5.826   2.306   0.383
 6584SOL    HW120651   5.921   2.279   0.397
 6584SOL    HW220652   5.820   2.405   0.374
 6585SOL     OW20653   2.801   0.718   2.827
 6585SOL    HW120654   2.835   0.689   2.738
 6585SOL    HW220655   2.878   0.743   2.886
 6586SOL     OW20656   5.869   1.903   0.047
 6586SOL    HW120657   5.946   1.954   0.087
 6586SOL    HW220658   5.805   1.967   0.005
 6587SOL     OW20659   1.333   5.756   1.771
 6587SOL    HW120660   1.361   5.660   1.781
 6587SOL    HW220661   1.238   5.759   1.738
 6588SOL     OW20662   3.300   2.939   0.593
 6588SOL    HW120663   3.210   2.922   0.635
 6588SOL    HW220664   3.372   2.915   0.658
 6589SOL     OW20665   5.067   1.420   5.900
 6589SOL    HW120666   5.059   1.380   5.992
 6589SOL    HW220667   5.102   1.514   5.908
 6590SOL     OW20668   6.383   1.735   5.388
 6590SOL    HW120669   6.440   1.716   5.308
 6590SOL    HW220670   6.336   1.652   5.417
 6591SOL     OW20671   5.044   0.523   2.081
 6591SOL    HW120672   5.133   0.552   2.045
 6591SOL    HW220673   5.058   0.446   2.144
 6592SOL     OW20674   5.631   4.802   5.321
 6592SOL    HW120675   5.679   4.757   5.246
 6592SOL    HW220676   5.564   4.867   5.283
 6593SOL     OW20677   5.438   1.192   2.951
 6593SOL    HW120678   5.533   1.162   2.966
 6593SOL    HW220679   5.422   1.277   3.000
 6594SOL     OW20680   5.347   1.095   0.052
 6594SOL    HW120681   5.316   1.190   0.043
 6594SOL    HW220682   5.302   1.053   0.131
 6595SOL     OW20683   3.747   2.698   6.208
 6595SOL    HW120684   3.840   2.697   6.171
 6595SOL    HW220685   3.710   2.791   6.203
 6596SOL     OW20686   2.393   5.752   4.914
 6596SOL    HW120687   2.338   5.722   4.992
 6596SOL    HW220688   2.333   5.795   4.846
 6597SOL     OW20689   0.251   4.257   6.675
 6597SOL    HW120690   0.155   4.286   6.669
 6597SOL    HW220691   0.265   4.207   6.761
 6598SOL     OW20692   3.457   6.074   4.091
 6598SOL    HW120693   3.437   5.976   4.099
 6598SOL    HW220694   3.431   6.119   4.177
 6599SOL     OW20695   4.250   3.577   6.582
 6599SOL    HW120696   4.245   3.493   6.528
 6599SOL    HW220697   4.329   3.630   6.553
 6600SOL     OW20698   4.214   4.805   4.979
 6600SOL    HW120699   4.267   4.724   5.001
 6600SOL    HW220700   4.148   4.822   5.053
 6601SOL     OW20701   1.116   1.230   2.008
 6601SOL    HW120702   1.116   1.323   2.044
 6601SOL    HW220703   1.118   1.165   2.083
 6602SOL     OW20704   5.791   1.495   1.013
 6602SOL    HW120705   5.817   1.433   1.087
 6602SOL    HW220706   5.864   1.500   0.945
 6603SOL     OW20707   2.608   2.085   1.427
 6603SOL    HW120708   2.661   2.169   1.437
 6603SOL    HW220709   2.619   2.050   1.334
 6604SOL     OW20710   4.143   5.394   5.224
 6604SOL    HW120711   4.138   5.322   5.293
 6604SOL    HW220712   4.129   5.483   5.267
 6605SOL     OW20713   5.563   6.329   0.863
 6605SOL    HW120714   5.581   6.233   0.887
 6605SOL    HW220715   5.469   6.338   0.830
 6606SOL     OW20716   0.606   2.385   3.195
 6606SOL    HW120717   0.540   2.454   3.166
 6606SOL    HW220718   0.698   2.415   3.173
 6607SOL     OW20719   1.753   3.183   2.556
 6607SOL    HW120720   1.801   3.208   2.641
 6607SOL    HW220721   1.712   3.093   2.566
 6608SOL     OW20722   5.184   4.268   4.839
 6608SOL    HW120723   5.141   4.303   4.756
 6608SOL    HW220724   5.196   4.169   4.831
 6609SOL     OW20725   5.203   2.187   6.575
 6609SOL    HW120726   5.193   2.228   6.666
 6609SOL    HW220727   5.176   2.090   6.580
 6610SOL     OW20728   3.809   1.663   1.006
 6610SOL    HW120729   3.848   1.654   1.097
 6610SOL    HW220730   3.717   1.700   1.013
 6611SOL     OW20731   5.430   3.593   2.526
 6611SOL    HW120732   5.410   3.678   2.477
 6611SOL    HW220733   5.381   3.517   2.482
 6612SOL     OW20734   0.562   5.657   6.254
 6612SOL    HW120735   0.503   5.717   6.200
 6612SOL    HW220736   0.632   5.712   6.301
 6613SOL     OW20737   5.973   5.137   0.450
 6613SOL    HW120738   5.995   5.102   0.542
 6613SOL    HW220739   5.913   5.072   0.404
 6614SOL     OW20740   5.775   4.422   5.893
 6614SOL    HW120741   5.850   4.370   5.851
 6614SOL    HW220742   5.710   4.449   5.822
 6615SOL     OW20743   0.426   3.730   4.790
 6615SOL    HW120744   0.443   3.828   4.786
 6615SOL    HW220745   0.511   3.680   4.774
 6616SOL     OW20746   5.120   0.940   3.813
 6616SOL    HW120747   5.211   0.909   3.843
 6616SOL    HW220748   5.072   0.983   3.890
 6617SOL     OW20749   4.131   0.222   4.639
 6617SOL    HW120750   4.181   0.301   4.603
 6617SOL    HW220751   4.178   0.138   4.610
 6618SOL     OW20752   0.210   4.296   1.134
 6618SOL    HW120753   0.222   4.396   1.137
 6618SOL    HW220754   0.187   4.263   1.225
 6619SOL     OW20755   6.593   6.331   2.314
 6619SOL    HW120756   6.640   6.389   2.248
 6619SOL    HW220757   6.588   6.378   2.402
 6620SOL     OW20758   4.666   3.204   5.567
 6620SOL    HW120759   4.753   3.218   5.614
 6620SOL    HW220760   4.683   3.181   5.471
 6621SOL     OW20761   3.010   3.075   0.725
 6621SOL    HW120762   2.981   3.002   0.788
 6621SOL    HW220763   3.003   3.163   0.771
 6622SOL     OW20764   5.830   5.145   0.095
 6622SOL    HW120765   5.832   5.101   0.005
 6622SOL    HW220766   5.921   5.145   0.135
 6623SOL     OW20767   3.220   4.047   2.909
 6623SOL    HW120768   3.296   4.085   2.856
 6623SOL    HW220769   3.168   3.983   2.852
 6624SOL     OW20770   4.963   5.057   4.173
 6624SOL    HW120771   5.061   5.042   4.171
 6624SOL    HW220772   4.927   5.056   4.080
 6625SOL     OW20773   5.484   6.886   0.221
 6625SOL    HW120774   5.547   6.941   0.167
 6625SOL    HW220775   5.390   6.908   0.196
 6626SOL     OW20776   2.701   5.341   4.093
 6626SOL    HW120777   2.652   5.291   4.165
 6626SOL    HW220778   2.797   5.311   4.091
 6627SOL     OW20779   0.489   0.980   1.745
 6627SOL    HW120780   0.409   0.970   1.805
 6627SOL    HW220781   0.461   1.027   1.661
 6628SOL     OW20782   4.312   6.057   3.796
 6628SOL    HW120783   4.342   6.153   3.789
 6628SOL    HW220784   4.227   6.052   3.848
 6629SOL     OW20785   2.880   4.241   0.350
 6629SOL    HW120786   2.906   4.266   0.257
 6629SOL    HW220787   2.811   4.305   0.384
 6630SOL     OW20788   3.821   1.072   6.224
 6630SOL    HW120789   3.866   1.148   6.271
 6630SOL    HW220790   3.738   1.047   6.273
 6631SOL     OW20791   3.051   6.917   1.502
 6631SOL    HW120792   3.019   6.971   1.579
 6631SOL    HW220793   3.133   6.867   1.528
 6632SOL     OW20794   6.063   3.236   1.975
 6632SOL    HW120795   6.009   3.260   1.895
 6632SOL    HW220796   6.159   3.228   1.949
 6633SOL     OW20797   1.019   5.870   2.995
 6633SOL    HW120798   0.982   5.876   2.902
 6633SOL    HW220799   1.009   5.959   3.040
 6634SOL     OW20800   6.447   1.965   5.593
 6634SOL    HW120801   6.479   2.009   5.677
 6634SOL    HW220802   6.486   1.873   5.587
 6635SOL     OW20803   4.421   4.963   3.731
 6635SOL    HW120804   4.465   4.929   3.647
 6635SOL    HW220805   4.362   5.040   3.709
 6636SOL     OW20806   1.802   3.215   2.880
 6636SOL    HW120807   1.901   3.215   2.897
 6636SOL    HW220808   1.757   3.273   2.948
 6637SOL     OW20809   6.923   2.886   0.699
 6637SOL    HW120810   6.878   2.922   0.617
 6637SOL    HW220811   6.869   2.912   0.780
 6638SOL     OW20812   1.618   0.405   6.529
 6638SOL    HW120813   1.637   0.489   6.580
 6638SOL    HW220814   1.523   0.404   6.499
 6639SOL     OW20815   4.097   5.284   5.990
 6639SOL    HW120816   4.034   5.240   6.054
 6639SOL    HW220817   4.147   5.215   5.939
 6640SOL     OW20818   5.881   3.847   3.021
 6640SOL    HW120819   5.791   3.823   3.058
 6640SOL    HW220820   5.930   3.904   3.088
 6641SOL     OW20821   2.487   5.559   6.703
 6641SOL    HW120822   2.530   5.601   6.782
 6641SOL    HW220823   2.523   5.601   6.619
 6642SOL     OW20824   6.660   6.463   5.768
 6642SOL    HW120825   6.757   6.463   5.790
 6642SOL    HW220826   6.645   6.416   5.681
 6643SOL     OW20827   4.319   5.897   0.379
 6643SOL    HW120828   4.234   5.916   0.331
 6643SOL    HW220829   4.302   5.833   0.454
 6644SOL     OW20830   0.966   3.569   1.795
 6644SOL    HW120831   0.972   3.472   1.820
 6644SOL    HW220832   0.946   3.577   1.697
 6645SOL     OW20833   6.821   4.525   5.608
 6645SOL    HW120834   6.774   4.439   5.625
 6645SOL    HW220835   6.916   4.508   5.584
 6646SOL     OW20836   1.978   5.067   3.760
 6646SOL    HW120837   1.965   5.090   3.857
 6646SOL    HW220838   2.026   5.141   3.714
 6647SOL     OW20839   4.456   1.460   1.679
 6647SOL    HW120840   4.478   1.543   1.629
 6647SOL    HW220841   4.483   1.380   1.624
 6648SOL     OW20842   3.643   5.416   1.997
 6648SOL    HW120843   3.577   5.417   1.922
 6648SOL    HW220844   3.736   5.417   1.959
 6649SOL     OW20845   4.059   1.769   5.474
 6649SOL    HW120846   4.146   1.811   5.448
 6649SOL    HW220847   4.033   1.701   5.405
 6650SOL     OW20848   3.688   1.488   3.951
 6650SOL    HW120849   3.769   1.525   3.905
 6650SOL    HW220850   3.612   1.552   3.941
 6651SOL     OW20851   0.632   1.205   0.786
 6651SOL    HW120852   0.692   1.130   0.814
 6651SOL    HW220853   0.663   1.240   0.697
 6652SOL     OW20854   1.061   5.145   3.415
 6652SOL    HW120855   1.084   5.222   3.355
 6652SOL    HW220856   1.145   5.100   3.445
 6653SOL     OW20857   3.720   4.012   3.806
 6653SOL    HW120858   3.643   4.060   3.765
 6653SOL    HW220859   3.720   3.917   3.776
 6654SOL     OW20860   1.842   3.578   1.621
 6654SOL    HW120861   1.909   3.570   1.694
 6654SOL    HW220862   1.757   3.531   1.647
 6655SOL     OW20863   1.408   1.075   6.958
 6655SOL    HW120864   1.359   1.032   0.012
 6655SOL    HW220865   1.342   1.124   6.900
 6656SOL     OW20866   6.469   2.486   1.911
 6656SOL    HW120867   6.531   2.515   1.838
 6656SOL    HW220868   6.389   2.442   1.871
 6657SOL     OW20869   3.481   4.959   5.404
 6657SOL    HW120870   3.557   4.973   5.342
 6657SOL    HW220871   3.410   4.904   5.359
 6658SOL     OW20872   6.715   0.154   5.587
 6658SOL    HW120873   6.687   0.146   5.491
 6658SOL    HW220874   6.636   0.177   5.643
 6659SOL     OW20875   1.958   3.216   0.034
 6659SOL    HW120876   1.940   3.191   0.129
 6659SOL    HW220877   1.995   3.309   0.031
 6660SOL     OW20878   0.264   6.680   2.920
 6660SOL    HW120879   0.235   6.617   2.992
 6660SOL    HW220880   0.212   6.661   2.836
 6661SOL     OW20881   6.940   0.091   4.147
 6661SOL    HW120882   6.877   0.115   4.221
 6661SOL    HW220883   6.908   0.131   4.062
 6662SOL     OW20884   1.068   3.711   6.425
 6662SOL    HW120885   1.102   3.647   6.356
 6662SOL    HW220886   0.991   3.670   6.473
 6663SOL     OW20887   0.338   5.286   1.697
 6663SOL    HW120888   0.416   5.225   1.687
 6663SOL    HW220889   0.331   5.316   1.792
 6664SOL     OW20890   6.827   2.018   2.099
 6664SOL    HW120891   6.870   2.107   2.080
 6664SOL    HW220892   6.765   2.028   2.177
 6665SOL     OW20893   2.221   6.341   3.485
 6665SOL    HW120894   2.266   6.403   3.421
 6665SOL    HW220895   2.289   6.278   3.524
 6666SOL     OW20896   5.434   0.939   0.550
 6666SOL    HW120897   5.414   0.979   0.640
 6666SOL    HW220898   5.356   0.952   0.490
 6667SOL     OW20899   5.534   4.956   5.104
 6667SOL    HW120900   5.564   5.022   5.174
 6667SOL    HW220901   5.509   5.005   5.021
 6668SOL     OW20902   6.285   6.004   1.016
 6668SOL    HW120903   6.286   6.069   0.940
 6668SOL    HW220904   6.316   5.915   0.983
 6669SOL     OW20905   0.897   4.983   3.290
 6669SOL    HW120906   0.959   5.051   3.330
 6669SOL    HW220907   0.925   4.891   3.320
 6670SOL     OW20908   5.136   4.807   0.029
 6670SOL    HW120909   5.180   4.755   6.977
 6670SOL    HW220910   5.041   4.826   0.005
 6671SOL     OW20911   0.556   2.386   5.344
 6671SOL    HW120912   0.628   2.453   5.321
 6671SOL    HW220913   0.555   2.372   5.443
 6672SOL     OW20914   0.046   0.848   4.990
 6672SOL    HW120915   6.987   0.817   5.041
 6672SOL    HW220916   0.051   0.948   4.994
 6673SOL     OW20917   3.966   6.153   1.975
 6673SOL    HW120918   4.056   6.124   1.943
 6673SOL    HW220919   3.895   6.102   1.928
 6674SOL     OW20920   0.672   5.954   5.085
 6674SOL    HW120921   0.736   5.972   5.010
 6674SOL    HW220922   0.662   6.036   5.141
 6675SOL     OW20923   6.435   6.490   6.267
 6675SOL    HW120924   6.348   6.478   6.219
 6675SOL    HW220925   6.429   6.450   6.359
 6676SOL     OW20926   0.541   1.425   0.886
 6676SOL    HW120927   0.515   1.465   0.799
 6676SOL    HW220928   0.607   1.351   0.871
 6677SOL     OW20929   0.572   5.071   0.668
 6677SOL    HW120930   0.505   5.118   0.725
 6677SOL    HW220931   0.525   5.009   0.605
 6678SOL     OW20932   0.695   3.449   3.798
 6678SOL    HW120933   0.608   3.401   3.798
 6678SOL    HW220934   0.750   3.419   3.876
 6679SOL     OW20935   2.403   1.122   4.876
 6679SOL    HW120936   2.394   1.150   4.780
 6679SOL    HW220937   2.428   1.025   4.879
 6680SOL     OW20938   2.887   0.414   6.508
 6680SOL    HW120939   2.829   0.375   6.437
 6680SOL    HW220940   2.831   0.467   6.572
 6681SOL     OW20941   5.648   5.494   6.259
 6681SOL    HW120942   5.665   5.515   6.355
 6681SOL    HW220943   5.726   5.443   6.222
 6682SOL     OW20944   6.200   5.235   2.401
 6682SOL    HW120945   6.294   5.201   2.411
 6682SOL    HW220946   6.192   5.323   2.447
 6683SOL     OW20947   5.136   2.930   4.205
 6683SOL    HW120948   5.121   2.917   4.107
 6683SOL    HW220949   5.220   2.983   4.219
 6684SOL     OW20950   2.057   1.139   1.975
 6684SOL    HW120951   2.152   1.111   1.987
 6684SOL    HW220952   2.019   1.096   1.894
 6685SOL     OW20953   5.664   2.782   6.731
 6685SOL    HW120954   5.722   2.701   6.727
 6685SOL    HW220955   5.602   2.782   6.652
 6686SOL     OW20956   5.163   4.334   3.923
 6686SOL    HW120957   5.112   4.337   4.009
 6686SOL    HW220958   5.261   4.344   3.942
 6687SOL     OW20959   0.675   0.189   6.985
 6687SOL    HW120960   0.666   0.119   6.915
 6687SOL    HW220961   0.608   0.173   0.036
 6688SOL     OW20962   0.544   4.699   2.953
 6688SOL    HW120963   0.630   4.740   2.981
 6688SOL    HW220964   0.547   4.678   2.855
 6689SOL     OW20965   5.371   3.859   0.555
 6689SOL    HW120966   5.458   3.901   0.579
 6689SOL    HW220967   5.343   3.891   0.465
 6690SOL     OW20968   0.686   1.051   0.420
 6690SOL    HW120969   0.752   1.004   0.362
 6690SOL    HW220970   0.619   1.098   0.363
 6691SOL     OW20971   1.262   5.552   1.168
 6691SOL    HW120972   1.201   5.606   1.109
 6691SOL    HW220973   1.220   5.464   1.188
 6692SOL     OW20974   4.556   3.485   6.541
 6692SOL    HW120975   4.627   3.416   6.533
 6692SOL    HW220976   4.504   3.470   6.625
 6693SOL     OW20977   4.259   3.380   6.391
 6693SOL    HW120978   4.333   3.391   6.324
 6693SOL    HW220979   4.273   3.296   6.443
 6694SOL     OW20980   2.947   5.723   6.944
 6694SOL    HW120981   2.913   5.796   6.885
 6694SOL    HW220982   3.016   5.670   6.895
 6695SOL     OW20983   1.656   1.614   0.376
 6695SOL    HW120984   1.596   1.544   0.337
 6695SOL    HW220985   1.656   1.695   0.316
 6696SOL     OW20986   1.571   2.178   1.414
 6696SOL    HW120987   1.497   2.234   1.375
 6696SOL    HW220988   1.639   2.159   1.344
 6697SOL     OW20989   5.255   3.360   4.574
 6697SOL    HW120990   5.283   3.274   4.617
 6697SOL    HW220991   5.230   3.426   4.644
 6698SOL     OW20992   2.778   4.301   6.258
 6698SOL    HW120993   2.706   4.246   6.300
 6698SOL    HW220994   2.838   4.242   6.204
 6699SOL     OW20995   2.080   3.528   6.740
 6699SOL    HW120996   2.041   3.448   6.696
 6699SOL    HW220997   2.029   3.610   6.713
 6700SOL     OW20998   0.095   6.303   6.629
 6700SOL    HW120999   0.067   6.271   6.538
 6700SOL    HW221000   0.014   6.317   6.686
 6701SOL     OW21001   1.558   2.550   0.075
 6701SOL    HW121002   1.548   2.586   7.003
 6701SOL    HW221003   1.488   2.592   0.133
 6702SOL     OW21004   2.736   3.416   1.273
 6702SOL    HW121005   2.804   3.360   1.321
 6702SOL    HW221006   2.753   3.411   1.174
 6703SOL     OW21007   0.217   2.095   0.204
 6703SOL    HW121008   0.178   2.003   0.190
 6703SOL    HW221009   0.154   2.164   0.169
 6704SOL     OW21010   5.274   3.428   2.765
 6704SOL    HW121011   5.246   3.524   2.771
 6704SOL    HW221012   5.193   3.369   2.775
 6705SOL     OW21013   5.211   1.888   1.458
 6705SOL    HW121014   5.162   1.975   1.456
 6705SOL    HW221015   5.159   1.819   1.407
 6706SOL     OW21016   1.613   6.588   6.954
 6706SOL    HW121017   1.544   6.592   0.005
 6706SOL    HW221018   1.686   6.525   6.981
 6707SOL     OW21019   1.610   5.315   3.187
 6707SOL    HW121020   1.690   5.288   3.239
 6707SOL    HW221021   1.594   5.249   3.113
 6708SOL     OW21022   2.092   6.177   1.052
 6708SOL    HW121023   2.026   6.123   1.104
 6708SOL    HW221024   2.176   6.188   1.106
 6709SOL     OW21025   5.144   1.894   3.766
 6709SOL    HW121026   5.113   1.859   3.854
 6709SOL    HW221027   5.079   1.962   3.733
 6710SOL     OW21028   2.291   2.745   0.825
 6710SOL    HW121029   2.228   2.723   0.899
 6710SOL    HW221030   2.256   2.707   0.739
 6711SOL     OW21031   5.683   3.391   6.848
 6711SOL    HW121032   5.586   3.397   6.825
 6711SOL    HW221033   5.723   3.483   6.849
 6712SOL     OW21034   3.045   6.342   1.102
 6712SOL    HW121035   3.042   6.304   1.010
 6712SOL    HW221036   3.140   6.357   1.129
 6713SOL     OW21037   0.821   2.290   2.974
 6713SOL    HW121038   0.818   2.202   3.021
 6713SOL    HW221039   0.727   2.321   2.955
 6714SOL     OW21040   6.468   0.560   4.994
 6714SOL    HW121041   6.556   0.566   5.042
 6714SOL    HW221042   6.401   0.618   5.041
 6715SOL     OW21043   5.373   2.602   0.497
 6715SOL    HW121044   5.379   2.544   0.578
 6715SOL    HW221045   5.277   2.629   0.483
 6716SOL     OW21046   3.663   6.223   0.826
 6716SOL    HW121047   3.677   6.319   0.850
 6716SOL    HW221048   3.623   6.216   0.735
 6717SOL     OW21049   3.936   0.739   6.965
 6717SOL    HW121050   3.909   0.642   6.961
 6717SOL    HW221051   3.947   0.766   0.040
 6718SOL     OW21052   3.982   0.229   6.438
 6718SOL    HW121053   3.968   0.322   6.472
 6718SOL    HW221054   4.036   0.232   6.354
 6719SOL     OW21055   0.842   1.910   5.107
 6719SOL    HW121056   0.821   2.008   5.105
 6719SOL    HW221057   0.936   1.897   5.140
 6720SOL     OW21058   1.445   4.686   1.028
 6720SOL    HW121059   1.450   4.777   1.069
 6720SOL    HW221060   1.354   4.672   0.988
 6721SOL     OW21061   6.251   6.287   3.135
 6721SOL    HW121062   6.191   6.331   3.068
 6721SOL    HW221063   6.249   6.188   3.121
 6722SOL     OW21064   4.000   4.260   6.918
 6722SOL    HW121065   4.059   4.324   6.869
 6722SOL    HW221066   3.966   4.191   6.855
 6723SOL     OW21067   3.509   1.679   2.551
 6723SOL    HW121068   3.417   1.661   2.584
 6723SOL    HW221069   3.535   1.773   2.571
 6724SOL     OW21070   3.205   4.535   5.986
 6724SOL    HW121071   3.108   4.555   5.969
 6724SOL    HW221072   3.239   4.593   6.059
 6725SOL     OW21073   1.102   5.986   1.443
 6725SOL    HW121074   1.096   6.085   1.442
 6725SOL    HW221075   1.181   5.956   1.390
 6726SOL     OW21076   2.344   2.340   1.925
 6726SOL    HW121077   2.286   2.314   2.002
 6726SOL    HW221078   2.438   2.352   1.956
 6727SOL     OW21079   3.004   3.828   0.784
 6727SOL    HW121080   2.919   3.879   0.789
 6727SOL    HW221081   2.995   3.753   0.719
 6728SOL     OW21082   4.275   1.301   3.967
 6728SOL    HW121083   4.335   1.240   4.019
 6728SOL    HW221084   4.218   1.354   4.031
 6729SOL     OW21085   4.338   5.589   3.929
 6729SOL    HW121086   4.437   5.602   3.935
 6729SOL    HW221087   4.311   5.514   3.989
 6730SOL     OW21088   1.137   6.625   2.918
 6730SOL    HW121089   1.160   6.713   2.876
 6730SOL    HW221090   1.067   6.638   2.987
 6731SOL     OW21091   1.585   3.504   1.686
 6731SOL    HW121092   1.522   3.426   1.685
 6731SOL    HW221093   1.533   3.589   1.683
 6732SOL     OW21094   3.367   6.147   0.644
 6732SOL    HW121095   3.320   6.139   0.732
 6732SOL    HW221096   3.415   6.062   0.624
 6733SOL     OW21097   6.551   6.013   4.181
 6733SOL    HW121098   6.524   6.045   4.272
 6733SOL    HW221099   6.495   5.933   4.156
 6734SOL     OW21100   2.557   3.638   6.847
 6734SOL    HW121101   2.542   3.632   6.945
 6734SOL    HW221102   2.490   3.581   6.800
 6735SOL     OW21103   0.457   6.732   5.790
 6735SOL    HW121104   0.541   6.712   5.839
 6735SOL    HW221105   0.430   6.652   5.737
 6736SOL     OW21106   1.745   4.330   1.892
 6736SOL    HW121107   1.737   4.231   1.904
 6736SOL    HW221108   1.817   4.365   1.951
 6737SOL     OW21109   1.574   0.048   1.140
 6737SOL    HW121110   1.567   6.987   1.197
 6737SOL    HW221111   1.485   0.094   1.138
 6738SOL     OW21112   5.145   1.655   1.085
 6738SOL    HW121113   5.159   1.754   1.082
 6738SOL    HW221114   5.049   1.635   1.105
 6739SOL     OW21115   3.507   6.448   5.669
 6739SOL    HW121116   3.521   6.367   5.726
 6739SOL    HW221117   3.528   6.427   5.574
 6740SOL     OW21118   5.617   2.264   5.830
 6740SOL    HW121119   5.588   2.253   5.926
 6740SOL    HW221120   5.715   2.246   5.823
 6741SOL     OW21121   0.720   0.611   5.654
 6741SOL    HW121122   0.808   0.599   5.609
 6741SOL    HW221123   0.708   0.540   5.724
 6742SOL     OW21124   6.372   5.797   4.873
 6742SOL    HW121125   6.409   5.790   4.781
 6742SOL    HW221126   6.288   5.744   4.880
 6743SOL     OW21127   5.895   2.262   1.306
 6743SOL    HW121128   5.955   2.187   1.279
 6743SOL    HW221129   5.884   2.325   1.229
 6744SOL     OW21130   4.550   0.874   4.065
 6744SOL    HW121131   4.457   0.845   4.042
 6744SOL    HW221132   4.598   0.797   4.109
 6745SOL     OW21133   0.971   3.703   2.837
 6745SOL    HW121134   1.007   3.653   2.916
 6745SOL    HW221135   0.878   3.734   2.858
 6746SOL     OW21136   6.037   0.724   0.317
 6746SOL    HW121137   5.984   0.798   0.360
 6746SOL    HW221138   6.092   0.678   0.387
 6747SOL     OW21139   5.127   5.335   6.391
 6747SOL    HW121140   5.116   5.270   6.315
 6747SOL    HW221141   5.114   5.287   6.478
 6748SOL     OW21142   6.596   6.395   2.610
 6748SOL    HW121143   6.694   6.408   2.625
 6748SOL    HW221144   6.547   6.477   2.641
 6749SOL     OW21145   2.818   5.207   1.063
 6749SOL    HW121146   2.780   5.269   0.995
 6749SOL    HW221147   2.914   5.230   1.080
 6750SOL     OW21148   2.312   3.204   5.362
 6750SOL    HW121149   2.347   3.297   5.357
 6750SOL    HW221150   2.373   3.143   5.311
 6751SOL     OW21151   4.436   2.626   5.779
 6751SOL    HW121152   4.531   2.640   5.750
 6751SOL    HW221153   4.423   2.530   5.806
 6752SOL     OW21154   6.702   1.148   0.175
 6752SOL    HW121155   6.709   1.198   0.089
 6752SOL    HW221156   6.611   1.164   0.215
 6753SOL     OW21157   6.014   0.597   6.610
 6753SOL    HW121158   5.986   0.687   6.644
 6753SOL    HW221159   5.987   0.527   6.676
 6754SOL     OW21160   4.349   1.616   6.820
 6754SOL    HW121161   4.316   1.629   6.913
 6754SOL    HW221162   4.274   1.587   6.761
 6755SOL     OW21163   5.208   1.761   3.057
 6755SOL    HW121164   5.277   1.761   2.985
 6755SOL    HW221165   5.241   1.707   3.135
 6756SOL     OW21166   4.516   5.027   3.252
 6756SOL    HW121167   4.463   4.961   3.199
 6756SOL    HW221168   4.590   5.064   3.195
 6757SOL     OW21169   6.228   4.348   1.280
 6757SOL    HW121170   6.298   4.356   1.351
 6757SOL    HW221171   6.239   4.421   1.213
 6758SOL     OW21172   6.992   2.371   2.605
 6758SOL    HW121173   6.945   2.389   2.692
 6758SOL    HW221174   6.957   2.286   2.565
 6759SOL     OW21175   0.501   5.300   3.925
 6759SOL    HW121176   0.541   5.254   3.845
 6759SOL    HW221177   0.443   5.236   3.975
 6760SOL     OW21178   0.711   3.865   5.029
 6760SOL    HW121179   0.762   3.911   5.101
 6760SOL    HW221180   0.613   3.869   5.050
 6761SOL     OW21181   6.180   2.788   6.680
 6761SOL    HW121182   6.107   2.856   6.681
 6761SOL    HW221183   6.233   2.795   6.765
 6762SOL     OW21184   6.811   2.415   4.439
 6762SOL    HW121185   6.859   2.452   4.359
 6762SOL    HW221186   6.717   2.392   4.414
 6763SOL     OW21187   5.849   6.039   5.821
 6763SOL    HW121188   5.915   5.966   5.801
 6763SOL    HW221189   5.826   6.087   5.737
 6764SOL     OW21190   1.697   3.822   6.965
 6764SOL    HW121191   1.752   3.897   7.003
 6764SOL    HW221192   1.757   3.746   6.941
 6765SOL     OW21193   4.575   5.348   2.045
 6765SOL    HW121194   4.592   5.442   2.016
 6765SOL    HW221195   4.582   5.343   2.145
 6766SOL     OW21196   2.839   2.622   5.385
 6766SOL    HW121197   2.841   2.551   5.314
 6766SOL    HW221198   2.800   2.585   5.469
 6767SOL     OW21199   0.431   2.902   5.736
 6767SOL    HW121200   0.433   2.807   5.764
 6767SOL    HW221201   0.359   2.915   5.668
 6768SOL     OW21202   6.939   0.793   6.038
 6768SOL    HW121203   6.949   0.792   5.939
 6768SOL    HW221204   6.876   0.867   6.064
 6769SOL     OW21205   0.763   2.252   6.125
 6769SOL    HW121206   0.745   2.154   6.129
 6769SOL    HW221207   0.726   2.296   6.207
 6770SOL     OW21208   0.645   1.705   3.402
 6770SOL    HW121209   0.687   1.781   3.452
 6770SOL    HW221210   0.556   1.684   3.444
 6771SOL     OW21211   5.500   2.580   2.210
 6771SOL    HW121212   5.483   2.654   2.144
 6771SOL    HW221213   5.526   2.620   2.298
 6772SOL     OW21214   1.097   0.019   1.892
 6772SOL    HW121215   1.177   6.995   1.933
 6772SOL    HW221216   1.125   0.068   1.810
 6773SOL     OW21217   1.738   1.282   3.317
 6773SOL    HW121218   1.714   1.186   3.327
 6773SOL    HW221219   1.808   1.306   3.385
 6774SOL     OW21220   3.868   1.388   5.504
 6774SOL    HW121221   3.946   1.416   5.560
 6774SOL    HW221222   3.794   1.357   5.563
 6775SOL     OW21223   1.744   2.764   4.904
 6775SOL    HW121224   1.668   2.798   4.847
 6775SOL    HW221225   1.794   2.842   4.942
 6776SOL     OW21226   3.138   3.326   3.840
 6776SOL    HW121227   3.160   3.414   3.798
 6776SOL    HW221228   3.064   3.338   3.906
 6777SOL     OW21229   0.277   0.528   5.326
 6777SOL    HW121230   0.351   0.545   5.391
 6777SOL    HW221231   0.213   0.462   5.366
 6778SOL     OW21232   5.941   6.141   2.069
 6778SOL    HW121233   5.989   6.224   2.040
 6778SOL    HW221234   5.994   6.095   2.141
 6779SOL     OW21235   5.918   3.345   5.816
 6779SOL    HW121236   5.822   3.366   5.834
 6779SOL    HW221237   5.927   3.293   5.732
 6780SOL     OW21238   4.851   0.911   1.985
 6780SOL    HW121239   4.935   0.882   1.939
 6780SOL    HW221240   4.838   1.009   1.972
 6781SOL     OW21241   5.625   3.818   3.130
 6781SOL    HW121242   5.661   3.844   3.219
 6781SOL    HW221243   5.553   3.749   3.142
 6782SOL     OW21244   6.859   2.440   2.831
 6782SOL    HW121245   6.847   2.341   2.839
 6782SOL    HW221246   6.793   2.486   2.890
 6783SOL     OW21247   0.969   6.481   6.584
 6783SOL    HW121248   0.934   6.497   6.492
 6783SOL    HW221249   1.068   6.495   6.584
 6784SOL     OW21250   1.778   4.781   6.660
 6784SOL    HW121251   1.817   4.755   6.572
 6784SOL    HW221252   1.813   4.871   6.687
 6785SOL     OW21253   5.588   4.546   2.083
 6785SOL    HW121254   5.558   4.613   2.151
 6785SOL    HW221255   5.579   4.585   1.991
 6786SOL     OW21256   6.302   1.147   6.335
 6786SOL    HW121257   6.208   1.114   6.343
 6786SOL    HW221258   6.312   1.232   6.386
 6787SOL     OW21259   4.343   2.476   1.357
 6787SOL    HW121260   4.424   2.432   1.316
 6787SOL    HW221261   4.334   2.447   1.452
 6788SOL     OW21262   1.784   4.255   0.885
 6788SOL    HW121263   1.776   4.268   0.983
 6788SOL    HW221264   1.763   4.160   0.862
 6789SOL     OW21265   5.796   2.511   3.072
 6789SOL    HW121266   5.697   2.516   3.059
 6789SOL    HW221267   5.829   2.596   3.113
 6790SOL     OW21268   0.875   5.703   6.951
 6790SOL    HW121269   0.816   5.650   7.013
 6790SOL    HW221270   0.838   5.795   6.941
 6791SOL     OW21271   1.972   6.344   4.127
 6791SOL    HW121272   1.898   6.411   4.135
 6791SOL    HW221273   1.933   6.252   4.124
 6792SOL     OW21274   3.199   5.596   0.508
 6792SOL    HW121275   3.160   5.665   0.446
 6792SOL    HW221276   3.137   5.517   0.512
 6793SOL     OW21277   1.530   3.593   6.254
 6793SOL    HW121278   1.592   3.594   6.332
 6793SOL    HW221279   1.472   3.674   6.256
 6794SOL     OW21280   4.701   2.358   4.491
 6794SOL    HW121281   4.704   2.358   4.591
 6794SOL    HW221282   4.611   2.391   4.461
 6795SOL     OW21283   0.835   0.404   2.458
 6795SOL    HW121284   0.760   0.341   2.477
 6795SOL    HW221285   0.916   0.353   2.431
 6796SOL     OW21286   6.645   2.237   2.296
 6796SOL    HW121287   6.579   2.279   2.358
 6796SOL    HW221288   6.733   2.227   2.342
 6797SOL     OW21289   1.631   3.847   0.319
 6797SOL    HW121290   1.604   3.761   0.362
 6797SOL    HW221291   1.731   3.850   0.310
 6798SOL     OW21292   5.033   2.049   1.692
 6798SOL    HW121293   4.986   2.128   1.731
 6798SOL    HW221294   5.076   2.075   1.605
 6799SOL     OW21295   4.354   6.975   2.507
 6799SOL    HW121296   4.272   0.000   2.474
 6799SOL    HW221297   4.419   6.964   2.432
 6800SOL     OW21298   6.697   2.821   2.419
 6800SOL    HW121299   6.689   2.880   2.339
 6800SOL    HW221300   6.745   2.870   2.492
 6801SOL     OW21301   2.067   4.945   5.199
 6801SOL    HW121302   2.034   5.035   5.230
 6801SOL    HW221303   2.149   4.920   5.250
 6802SOL     OW21304   2.636   4.183   1.679
 6802SOL    HW121305   2.574   4.106   1.689
 6802SOL    HW221306   2.685   4.175   1.591
 6803SOL     OW21307   6.372   5.349   5.975
 6803SOL    HW121308   6.471   5.361   5.989
 6803SOL    HW221309   6.326   5.437   5.990
 6804SOL     OW21310   3.054   5.644   1.672
 6804SOL    HW121311   2.960   5.619   1.694
 6804SOL    HW221312   3.067   5.643   1.573
 6805SOL     OW21313   0.659   4.072   4.051
 6805SOL    HW121314   0.658   4.172   4.060
 6805SOL    HW221315   0.754   4.040   4.051
 6806SOL     OW21316   6.378   3.862   1.924
 6806SOL    HW121317   6.448   3.835   1.859
 6806SOL    HW221318   6.368   3.791   1.994
 6807SOL     OW21319   4.070   3.715   2.906
 6807SOL    HW121320   3.989   3.734   2.849
 6807SOL    HW221321   4.146   3.688   2.847
 6808SOL     OW21322   2.746   6.456   4.358
 6808SOL    HW121323   2.660   6.431   4.403
 6808SOL    HW221324   2.811   6.381   4.365
 6809SOL     OW21325   6.339   2.631   0.613
 6809SOL    HW121326   6.300   2.663   0.527
 6809SOL    HW221327   6.273   2.573   0.660
 6810SOL     OW21328   2.989   0.045   4.963
 6810SOL    HW121329   3.003   6.969   4.944
 6810SOL    HW221330   3.078   0.090   4.969
 6811SOL     OW21331   6.527   2.298   1.363
 6811SOL    HW121332   6.469   2.223   1.396
 6811SOL    HW221333   6.592   2.264   1.296
 6812SOL     OW21334   3.381   4.773   5.186
 6812SOL    HW121335   3.313   4.705   5.214
 6812SOL    HW221336   3.352   4.817   5.101
 6813SOL     OW21337   0.584   3.540   1.641
 6813SOL    HW121338   0.614   3.453   1.680
 6813SOL    HW221339   0.659   3.605   1.643
 6814SOL     OW21340   4.681   2.345   1.622
 6814SOL    HW121341   4.727   2.295   1.696
 6814SOL    HW221342   4.633   2.424   1.661
 6815SOL     OW21343   1.864   6.214   0.873
 6815SOL    HW121344   1.942   6.199   0.934
 6815SOL    HW221345   1.847   6.312   0.863
 6816SOL     OW21346   5.517   0.375   3.337
 6816SOL    HW121347   5.583   0.442   3.371
 6816SOL    HW221348   5.450   0.421   3.278
 6817SOL     OW21349   5.846   1.144   1.260
 6817SOL    HW121350   5.764   1.143   1.204
 6817SOL    HW221351   5.909   1.073   1.229
 6818SOL     OW21352   6.975   0.116   5.626
 6818SOL    HW121353   0.005   0.076   5.551
 6818SOL    HW221354   6.879   0.127   5.600
 6819SOL     OW21355   5.896   3.618   0.453
 6819SOL    HW121356   5.800   3.592   0.443
 6819SOL    HW221357   5.951   3.536   0.470
 6820SOL     OW21358   2.374   4.501   1.134
 6820SOL    HW121359   2.355   4.599   1.126
 6820SOL    HW221360   2.443   4.487   1.206
 6821SOL     OW21361   2.387   3.254   5.934
 6821SOL    HW121362   2.435   3.321   5.991
 6821SOL    HW221363   2.442   3.235   5.853
 6822SOL     OW21364   0.300   4.647   4.755
 6822SOL    HW121365   0.364   4.721   4.772
 6822SOL    HW221366   0.349   4.568   4.717
 6823SOL     OW21367   6.693   3.442   5.263
 6823SOL    HW121368   6.655   3.525   5.221
 6823SOL    HW221369   6.621   3.394   5.312
 6824SOL     OW21370   1.085   0.651   3.990
 6824SOL    HW121371   1.122   0.597   3.913
 6824SOL    HW221372   1.161   0.695   4.038
 6825SOL     OW21373   4.931   5.212   1.388
 6825SOL    HW121374   4.897   5.280   1.453
 6825SOL    HW221375   5.015   5.171   1.424
 6826SOL     OW21376   6.024   0.356   4.227
 6826SOL    HW121377   5.935   0.373   4.185
 6826SOL    HW221378   6.025   0.392   4.320
 6827SOL     OW21379   4.944   5.025   5.518
 6827SOL    HW121380   5.026   5.019   5.575
 6827SOL    HW221381   4.952   5.103   5.456
 6828SOL     OW21382   2.346   2.147   2.458
 6828SOL    HW121383   2.321   2.051   2.445
 6828SOL    HW221384   2.422   2.153   2.522
 6829SOL     OW21385   5.712   6.620   4.760
 6829SOL    HW121386   5.645   6.694   4.757
 6829SOL    HW221387   5.665   6.532   4.753
 6830SOL     OW21388   3.711   6.635   2.561
 6830SOL    HW121389   3.662   6.707   2.611
 6830SOL    HW221390   3.650   6.557   2.546
 6831SOL     OW21391   1.964   0.398   6.909
 6831SOL    HW121392   1.869   0.374   6.927
 6831SOL    HW221393   2.010   0.322   6.864
 6832SOL     OW21394   3.699   3.821   0.399
 6832SOL    HW121395   3.755   3.900   0.374
 6832SOL    HW221396   3.681   3.822   0.497
 6833SOL     OW21397   4.275   5.347   0.118
 6833SOL    HW121398   4.193   5.300   0.150
 6833SOL    HW221399   4.312   5.403   0.192
 6834SOL     OW21400   6.744   5.512   5.207
 6834SOL    HW121401   6.693   5.559   5.135
 6834SOL    HW221402   6.701   5.424   5.227
 6835SOL     OW21403   4.407   0.626   2.835
 6835SOL    HW121404   4.405   0.622   2.934
 6835SOL    HW221405   4.320   0.663   2.801
 6836SOL     OW21406   0.967   4.721   6.450
 6836SOL    HW121407   1.025   4.681   6.520
 6836SOL    HW221408   1.022   4.780   6.391
 6837SOL     OW21409   6.238   2.391   1.798
 6837SOL    HW121410   6.234   2.316   1.733
 6837SOL    HW221411   6.268   2.475   1.752
 6838SOL     OW21412   2.036   4.381   6.851
 6838SOL    HW121413   2.070   4.404   6.760
 6838SOL    HW221414   2.001   4.464   6.895
 6839SOL     OW21415   6.412   2.138   5.139
 6839SOL    HW121416   6.357   2.222   5.138
 6839SOL    HW221417   6.508   2.162   5.156
 6840SOL     OW21418   3.189   0.553   4.603
 6840SOL    HW121419   3.145   0.637   4.570
 6840SOL    HW221420   3.236   0.572   4.689
 6841SOL     OW21421   4.674   5.894   0.651
 6841SOL    HW121422   4.665   5.831   0.729
 6841SOL    HW221423   4.750   5.957   0.667
 6842SOL     OW21424   0.225   3.097   3.257
 6842SOL    HW121425   0.311   3.062   3.294
 6842SOL    HW221426   0.169   3.134   3.332
 6843SOL     OW21427   4.444   3.107   1.718
 6843SOL    HW121428   4.507   3.071   1.786
 6843SOL    HW221429   4.416   3.033   1.657
 6844SOL     OW21430   3.381   6.514   3.960
 6844SOL    HW121431   3.317   6.442   3.933
 6844SOL    HW221432   3.399   6.506   4.058
 6845SOL     OW21433   3.721   4.317   6.948
 6845SOL    HW121434   3.820   4.301   6.949
 6845SOL    HW221435   3.679   4.267   0.002
 6846SOL     OW21436   3.930   3.251   4.061
 6846SOL    HW121437   3.863   3.325   4.053
 6846SOL    HW221438   3.883   3.163   4.060
 6847SOL     OW21439   5.151   3.863   1.283
 6847SOL    HW121440   5.157   3.809   1.199
 6847SOL    HW221441   5.070   3.922   1.279
 6848SOL     OW21442   1.002   6.368   4.723
 6848SOL    HW121443   1.058   6.344   4.643
 6848SOL    HW221444   0.987   6.287   4.778
 6849SOL     OW21445   2.539   0.257   4.408
 6849SOL    HW121446   2.605   0.329   4.385
 6849SOL    HW221447   2.587   0.180   4.448
 6850SOL     OW21448   6.474   2.949   1.951
 6850SOL    HW121449   6.480   2.942   1.851
 6850SOL    HW221450   6.430   2.866   1.987
 6851SOL     OW21451   2.180   5.314   0.555
 6851SOL    HW121452   2.102   5.278   0.605
 6851SOL    HW221453   2.148   5.380   0.486
 6852SOL     OW21454   4.852   4.746   2.491
 6852SOL    HW121455   4.773   4.784   2.539
 6852SOL    HW221456   4.819   4.688   2.416
 6853SOL     OW21457   5.746   4.395   4.157
 6853SOL    HW121458   5.793   4.333   4.094
 6853SOL    HW221459   5.810   4.464   4.191
 6854SOL     OW21460   6.080   0.974   6.906
 6854SOL    HW121461   5.999   0.981   6.848
 6854SOL    HW221462   6.138   0.899   6.874
 6855SOL     OW21463   2.783   6.759   2.764
 6855SOL    HW121464   2.833   6.678   2.797
 6855SOL    HW221465   2.686   6.748   2.783
 6856SOL     OW21466   0.944   5.206   5.436
 6856SOL    HW121467   0.900   5.263   5.506
 6856SOL    HW221468   1.030   5.169   5.471
 6857SOL     OW21469   4.473   0.892   6.707
 6857SOL    HW121470   4.520   0.978   6.690
 6857SOL    HW221471   4.392   0.886   6.649
 6858SOL     OW21472   3.291   3.067   6.452
 6858SOL    HW121473   3.252   3.133   6.387
 6858SOL    HW221474   3.218   3.022   6.502
 6859SOL     OW21475   4.403   6.872   1.786
 6859SOL    HW121476   4.478   6.808   1.767
 6859SOL    HW221477   4.370   6.858   1.879
 6860SOL     OW21478   4.742   3.239   7.012
 6860SOL    HW121479   4.716   3.186   6.930
 6860SOL    HW221480   4.695   3.201   0.071
 6861SOL     OW21481   6.521   3.758   0.048
 6861SOL    HW121482   6.487   3.806   0.129
 6861SOL    HW221483   6.581   3.819   7.017
 6862SOL     OW21484   2.626   4.754   4.595
 6862SOL    HW121485   2.609   4.720   4.502
 6862SOL    HW221486   2.563   4.708   4.658
 6863SOL     OW21487   1.096   3.248   3.904
 6863SOL    HW121488   1.188   3.234   3.940
 6863SOL    HW221489   1.029   3.240   3.978
 6864SOL     OW21490   3.151   5.616   6.109
 6864SOL    HW121491   3.248   5.643   6.109
 6864SOL    HW221492   3.104   5.661   6.034
 6865SOL     OW21493   1.029   2.404   5.677
 6865SOL    HW121494   0.960   2.463   5.634
 6865SOL    HW221495   1.013   2.401   5.776
 6866SOL     OW21496   0.362   4.028   2.797
 6866SOL    HW121497   0.375   4.084   2.715
 6866SOL    HW221498   0.441   4.040   2.858
 6867SOL     OW21499   2.772   5.417   3.679
 6867SOL    HW121500   2.829   5.439   3.600
 6867SOL    HW221501   2.789   5.322   3.707
 6868SOL     OW21502   1.630   5.371   4.994
 6868SOL    HW121503   1.549   5.324   4.960
 6868SOL    HW221504   1.614   5.470   4.996
 6869SOL     OW21505   0.326   2.455   4.109
 6869SOL    HW121506   0.375   2.370   4.091
 6869SOL    HW221507   0.375   2.507   4.180
 6870SOL     OW21508   5.273   3.944   3.039
 6870SOL    HW121509   5.332   3.929   2.960
 6870SOL    HW221510   5.290   4.036   3.076
 6871SOL     OW21511   4.478   6.268   2.041
 6871SOL    HW121512   4.396   6.268   2.098
 6871SOL    HW221513   4.529   6.353   2.056
 6872SOL     OW21514   3.393   4.142   0.781
 6872SOL    HW121515   3.326   4.076   0.746
 6872SOL    HW221516   3.393   4.223   0.723
 6873SOL     OW21517   5.304   4.934   5.249
 6873SOL    HW121518   5.379   4.937   5.184
 6873SOL    HW221519   5.255   4.848   5.240
 6874SOL     OW21520   1.549   1.804   6.480
 6874SOL    HW121521   1.472   1.749   6.512
 6874SOL    HW221522   1.606   1.750   6.418
 6875SOL     OW21523   3.665   6.920   4.972
 6875SOL    HW121524   3.634   6.837   5.018
 6875SOL    HW221525   3.746   6.900   4.917
 6876SOL     OW21526   3.022   6.407   4.600
 6876SOL    HW121527   2.956   6.383   4.528
 6876SOL    HW221528   3.052   6.501   4.586
 6877SOL     OW21529   1.912   3.842   0.306
 6877SOL    HW121530   1.951   3.890   0.227
 6877SOL    HW221531   1.955   3.753   0.315
 6878SOL     OW21532   2.006   1.667   4.945
 6878SOL    HW121533   2.053   1.632   5.026
 6878SOL    HW221534   2.024   1.606   4.868
 6879SOL     OW21535   6.213   1.411   6.031
 6879SOL    HW121536   6.224   1.448   6.123
 6879SOL    HW221537   6.195   1.486   5.967
 6880SOL     OW21538   1.004   4.485   4.713
 6880SOL    HW121539   1.058   4.411   4.752
 6880SOL    HW221540   0.988   4.467   4.616
 6881SOL     OW21541   5.156   6.125   1.344
 6881SOL    HW121542   5.085   6.056   1.356
 6881SOL    HW221543   5.214   6.127   1.426
 6882SOL     OW21544   2.667   5.895   5.601
 6882SOL    HW121545   2.570   5.892   5.575
 6882SOL    HW221546   2.707   5.981   5.570
 6883SOL     OW21547   2.888   6.715   2.094
 6883SOL    HW121548   2.801   6.674   2.120
 6883SOL    HW221549   2.963   6.670   2.143
 6884SOL     OW21550   1.682   4.906   3.129
 6884SOL    HW121551   1.647   4.991   3.090
 6884SOL    HW221552   1.684   4.913   3.229
 6885SOL     OW21553   4.217   4.880   4.700
 6885SOL    HW121554   4.296   4.846   4.650
 6885SOL    HW221555   4.210   4.832   4.787
 6886SOL     OW21556   5.139   6.856   0.717
 6886SOL    HW121557   5.131   6.757   0.717
 6886SOL    HW221558   5.052   6.896   0.687
 6887SOL     OW21559   6.370   0.874   4.853
 6887SOL    HW121560   6.416   0.941   4.794
 6887SOL    HW221561   6.380   0.783   4.813
 6888SOL     OW21562   6.736   6.858   3.775
 6888SOL    HW121563   6.672   6.785   3.797
 6888SOL    HW221564   6.788   6.882   3.858
 6889SOL     OW21565   2.287   3.960   6.188
 6889SOL    HW121566   2.278   3.877   6.133
 6889SOL    HW221567   2.258   3.943   6.281
 6890SOL     OW21568   1.338   0.804   1.666
 6890SOL    HW121569   1.292   0.753   1.594
 6890SOL    HW221570   1.355   0.897   1.635
 6891SOL     OW21571   4.886   5.324   5.609
 6891SOL    HW121572   4.986   5.326   5.601
 6891SOL    HW221573   4.849   5.415   5.593
 6892SOL     OW21574   3.204   1.857   4.229
 6892SOL    HW121575   3.215   1.957   4.236
 6892SOL    HW221576   3.112   1.836   4.197
 6893SOL     OW21577   5.088   7.004   1.160
 6893SOL    HW121578   5.176   6.957   1.156
 6893SOL    HW221579   5.067   0.005   1.255
 6894SOL     OW21580   6.158   4.538   5.957
 6894SOL    HW121581   6.080   4.586   5.996
 6894SOL    HW221582   6.177   4.574   5.865
 6895SOL     OW21583   4.933   5.090   4.620
 6895SOL    HW121584   4.877   5.013   4.591
 6895SOL    HW221585   5.018   5.091   4.567
 6896SOL     OW21586   5.439   2.304   2.208
 6896SOL    HW121587   5.344   2.275   2.215
 6896SOL    HW221588   5.444   2.404   2.208
 6897SOL     OW21589   3.944   1.251   1.768
 6897SOL    HW121590   4.016   1.284   1.829
 6897SOL    HW221591   3.957   1.153   1.751
 6898SOL     OW21592   3.920   1.459   2.051
 6898SOL    HW121593   3.846   1.392   2.047
 6898SOL    HW221594   4.007   1.411   2.066
 6899SOL     OW21595   5.896   4.652   5.637
 6899SOL    HW121596   5.807   4.610   5.621
 6899SOL    HW221597   5.956   4.588   5.684
 6900SOL     OW21598   4.092   0.378   6.002
 6900SOL    HW121599   4.138   0.444   5.942
 6900SOL    HW221600   4.116   0.286   5.974
 6901SOL     OW21601   1.361   0.637   0.096
 6901SOL    HW121602   1.337   0.546   0.130
 6901SOL    HW221603   1.453   0.634   0.056
 6902SOL     OW21604   6.674   5.616   2.756
 6902SOL    HW121605   6.633   5.703   2.782
 6902SOL    HW221606   6.604   5.546   2.750
 6903SOL     OW21607   6.067   4.372   6.713
 6903SOL    HW121608   6.055   4.278   6.742
 6903SOL    HW221609   6.058   4.377   6.613
 6904SOL     OW21610   0.701   1.469   2.674
 6904SOL    HW121611   0.664   1.386   2.716
 6904SOL    HW221612   0.651   1.548   2.707
 6905SOL     OW21613   3.836   5.356   0.785
 6905SOL    HW121614   3.854   5.266   0.824
 6905SOL    HW221615   3.759   5.398   0.833
 6906SOL     OW21616   6.258   6.330   2.484
 6906SOL    HW121617   6.216   6.375   2.563
 6906SOL    HW221618   6.267   6.396   2.410
 6907SOL     OW21619   3.444   0.742   1.543
 6907SOL    HW121620   3.375   0.672   1.561
 6907SOL    HW221621   3.517   0.735   1.611
 6908SOL     OW21622   5.213   6.877   0.171
 6908SOL    HW121623   5.187   6.883   0.075
 6908SOL    HW221624   5.166   6.947   0.224
 6909SOL     OW21625   2.540   2.402   7.008
 6909SOL    HW121626   2.526   2.309   0.021
 6909SOL    HW221627   2.515   2.407   6.912
 6910SOL     OW21628   4.437   1.008   1.012
 6910SOL    HW121629   4.400   0.918   0.992
 6910SOL    HW221630   4.365   1.066   1.052
 6911SOL     OW21631   3.743   6.644   4.854
 6911SOL    HW121632   3.762   6.645   4.952
 6911SOL    HW221633   3.742   6.550   4.822
 6912SOL     OW21634   3.756   6.031   1.848
 6912SOL    HW121635   3.667   6.066   1.878
 6912SOL    HW221636   3.779   5.950   1.902
 6913SOL     OW21637   4.210   5.792   5.810
 6913SOL    HW121638   4.298   5.830   5.781
 6913SOL    HW221639   4.207   5.694   5.787
 6914SOL     OW21640   0.270   5.206   6.992
 6914SOL    HW121641   0.272   5.106   6.999
 6914SOL    HW221642   0.186   5.241   0.012
 6915SOL     OW21643   0.899   6.854   6.732
 6915SOL    HW121644   0.821   6.793   6.744
 6915SOL    HW221645   0.884   6.911   6.651
 6916SOL     OW21646   6.201   0.577   6.328
 6916SOL    HW121647   6.208   0.524   6.243
 6916SOL    HW221648   6.105   0.603   6.343
 6917SOL     OW21649   4.224   6.400   5.972
 6917SOL    HW121650   4.143   6.421   6.027
 6917SOL    HW221651   4.297   6.366   6.031
 6918SOL     OW21652   2.075   2.552   3.067
 6918SOL    HW121653   2.136   2.618   3.111
 6918SOL    HW221654   2.105   2.459   3.091
 6919SOL     OW21655   1.877   6.007   3.818
 6919SOL    HW121656   1.918   6.093   3.787
 6919SOL    HW221657   1.950   5.944   3.847
 6920SOL     OW21658   5.901   5.382   4.160
 6920SOL    HW121659   5.997   5.378   4.189
 6920SOL    HW221660   5.855   5.457   4.208
 6921SOL     OW21661   1.856   4.736   2.955
 6921SOL    HW121662   1.795   4.721   2.877
 6921SOL    HW221663   1.813   4.800   3.020
 6922SOL     OW21664   1.743   6.112   1.471
 6922SOL    HW121665   1.704   6.178   1.536
 6922SOL    HW221666   1.768   6.028   1.520
 6923SOL     OW21667   5.094   5.676   4.180
 6923SOL    HW121668   5.037   5.748   4.220
 6923SOL    HW221669   5.048   5.588   4.192
 6924SOL     OW21670   5.525   6.194   2.423
 6924SOL    HW121671   5.461   6.118   2.421
 6924SOL    HW221672   5.559   6.207   2.516
 6925SOL     OW21673   4.592   5.615   2.025
 6925SOL    HW121674   4.668   5.659   1.978
 6925SOL    HW221675   4.576   5.660   2.113
 6926SOL     OW21676   2.631   3.647   5.678
 6926SOL    HW121677   2.720   3.681   5.649
 6926SOL    HW221678   2.610   3.562   5.629
 6927SOL     OW21679   4.064   3.929   0.775
 6927SOL    HW121680   3.986   3.990   0.791
 6927SOL    HW221681   4.067   3.903   0.679
 6928SOL     OW21682   6.698   0.657   6.677
 6928SOL    HW121683   6.763   0.732   6.678
 6928SOL    HW221684   6.710   0.601   6.760
 6929SOL     OW21685   3.029   5.905   1.079
 6929SOL    HW121686   2.964   5.974   1.110
 6929SOL    HW221687   3.091   5.881   1.153
 6930SOL     OW21688   0.161   1.179   2.983
 6930SOL    HW121689   0.163   1.187   3.083
 6930SOL    HW221690   0.074   1.136   2.956
 6931SOL     OW21691   2.327   0.417   1.316
 6931SOL    HW121692   2.397   0.360   1.274
 6931SOL    HW221693   2.241   0.366   1.321
 6932SOL     OW21694   3.262   2.606   0.301
 6932SOL    HW121695   3.265   2.706   0.302
 6932SOL    HW221696   3.241   2.574   0.208
 6933SOL     OW21697   3.072   6.110   5.273
 6933SOL    HW121698   2.993   6.053   5.249
 6933SOL    HW221699   3.057   6.150   5.363
 6934SOL     OW21700   5.451   4.710   6.451
 6934SOL    HW121701   5.416   4.616   6.455
 6934SOL    HW221702   5.536   4.716   6.504
 6935SOL     OW21703   4.218   5.319   3.386
 6935SOL    HW121704   4.288   5.342   3.318
 6935SOL    HW221705   4.144   5.386   3.379
 6936SOL     OW21706   1.004   4.458   0.543
 6936SOL    HW121707   0.918   4.440   0.495
 6936SOL    HW221708   1.067   4.505   0.481
 6937SOL     OW21709   4.288   5.851   6.379
 6937SOL    HW121710   4.300   5.878   6.475
 6937SOL    HW221711   4.200   5.885   6.345
 6938SOL     OW21712   6.566   1.956   5.331
 6938SOL    HW121713   6.600   1.965   5.238
 6938SOL    HW221714   6.598   1.869   5.369
 6939SOL     OW21715   7.012   4.693   1.635
 6939SOL    HW121716   6.986   4.765   1.700
 6939SOL    HW221717   0.073   4.647   1.669
 6940SOL     OW21718   4.459   0.547   4.247
 6940SOL    HW121719   4.435   0.451   4.237
 6940SOL    HW221720   4.409   0.601   4.180
 6941SOL     OW21721   3.337   2.775   5.264
 6941SOL    HW121722   3.383   2.717   5.331
 6941SOL    HW221723   3.240   2.783   5.288
 6942SOL     OW21724   6.360   1.356   6.523
 6942SOL    HW121725   6.298   1.374   6.599
 6942SOL    HW221726   6.406   1.441   6.497
 6943SOL     OW21727   5.902   4.579   6.813
 6943SOL    HW121728   5.979   4.516   6.800
 6943SOL    HW221729   5.931   4.672   6.789
 6944SOL     OW21730   1.693   0.098   0.240
 6944SOL    HW121731   1.785   0.105   0.202
 6944SOL    HW221732   1.626   0.129   0.172
 6945SOL     OW21733   3.810   1.377   6.981
 6945SOL    HW121734   3.830   1.405   6.887
 6945SOL    HW221735   3.769   1.286   6.981
 6946SOL     OW21736   6.288   4.070   2.296
 6946SOL    HW121737   6.198   4.089   2.256
 6946SOL    HW221738   6.320   3.981   2.265
 6947SOL     OW21739   3.411   6.471   0.910
 6947SOL    HW121740   3.508   6.469   0.935
 6947SOL    HW221741   3.355   6.475   0.993
 6948SOL     OW21742   2.997   1.737   5.819
 6948SOL    HW121743   2.987   1.681   5.901
 6948SOL    HW221744   3.063   1.811   5.837
 6949SOL     OW21745   5.133   0.315   2.283
 6949SOL    HW121746   5.221   0.285   2.247
 6949SOL    HW221747   5.148   0.386   2.352
 6950SOL     OW21748   3.729   1.595   2.901
 6950SOL    HW121749   3.689   1.505   2.911
 6950SOL    HW221750   3.817   1.588   2.854
 6951SOL     OW21751   4.754   3.827   5.598
 6951SOL    HW121752   4.846   3.808   5.564
 6951SOL    HW221753   4.699   3.744   5.595
 6952SOL     OW21754   0.289   3.924   6.618
 6952SOL    HW121755   0.310   4.002   6.676
 6952SOL    HW221756   0.291   3.840   6.672
 6953SOL     OW21757   5.884   2.331   4.823
 6953SOL    HW121758   5.815   2.316   4.753
 6953SOL    HW221759   5.884   2.255   4.888
 6954SOL     OW21760   0.268   4.623   1.662
 6954SOL    HW121761   0.285   4.719   1.641
 6954SOL    HW221762   0.313   4.565   1.594
 6955SOL     OW21763   0.289   1.109   4.005
 6955SOL    HW121764   0.372   1.079   4.052
 6955SOL    HW221765   0.275   1.054   3.923
 6956SOL     OW21766   3.370   3.852   1.583
 6956SOL    HW121767   3.358   3.812   1.674
 6956SOL    HW221768   3.392   3.950   1.593
 6957SOL     OW21769   1.409   4.431   0.704
 6957SOL    HW121770   1.396   4.340   0.664
 6957SOL    HW221771   1.325   4.484   0.695
 6958SOL     OW21772   1.638   3.129   5.994
 6958SOL    HW121773   1.628   3.053   5.930
 6958SOL    HW221774   1.555   3.185   5.993
 6959SOL     OW21775   4.457   0.795   4.982
 6959SOL    HW121776   4.459   0.890   4.953
 6959SOL    HW221777   4.546   0.752   4.963
 6960SOL     OW21778   1.214   5.839   6.640
 6960SOL    HW121779   1.164   5.926   6.644
 6960SOL    HW221780   1.160   5.772   6.590
 6961SOL     OW21781   6.042   1.126   3.330
 6961SOL    HW121782   5.953   1.170   3.339
 6961SOL    HW221783   6.030   1.027   3.324
 6962SOL     OW21784   3.076   3.728   1.030
 6962SOL    HW121785   3.018   3.768   0.959
 6962SOL    HW221786   3.161   3.780   1.036
 6963SOL     OW21787   6.046   6.090   1.780
 6963SOL    HW121788   6.027   6.181   1.742
 6963SOL    HW221789   5.988   6.074   1.860
 6964SOL     OW21790   3.786   5.045   5.703
 6964SOL    HW121791   3.815   4.968   5.646
 6964SOL    HW221792   3.861   5.112   5.708
 6965SOL     OW21793   6.002   1.153   6.067
 6965SOL    HW121794   6.073   1.217   6.038
 6965SOL    HW221795   6.001   1.074   6.006
 6966SOL     OW21796   4.628   1.834   4.043
 6966SOL    HW121797   4.677   1.920   4.055
 6966SOL    HW221798   4.645   1.775   4.122
 6967SOL     OW21799   2.704   2.707   6.279
 6967SOL    HW121800   2.786   2.649   6.279
 6967SOL    HW221801   2.709   2.772   6.204
 6968SOL     OW21802   4.199   0.447   3.452
 6968SOL    HW121803   4.216   0.537   3.492
 6968SOL    HW221804   4.266   0.430   3.380
 6969SOL     OW21805   3.243   3.334   1.121
 6969SOL    HW121806   3.198   3.248   1.144
 6969SOL    HW221807   3.188   3.411   1.156
 6970SOL     OW21808   5.107   4.566   0.462
 6970SOL    HW121809   5.074   4.657   0.489
 6970SOL    HW221810   5.195   4.576   0.415
 6971SOL     OW21811   6.064   1.600   2.191
 6971SOL    HW121812   6.022   1.510   2.184
 6971SOL    HW221813   6.132   1.611   2.118
 6972SOL     OW21814   5.159   5.838   4.572
 6972SOL    HW121815   5.134   5.930   4.543
 6972SOL    HW221816   5.077   5.780   4.577
 6973SOL     OW21817   1.350   4.145   3.658
 6973SOL    HW121818   1.255   4.116   3.648
 6973SOL    HW221819   1.405   4.102   3.587
 6974SOL     OW21820   3.485   4.015   4.837
 6974SOL    HW121821   3.533   4.020   4.749
 6974SOL    HW221822   3.550   4.034   4.911
 6975SOL     OW21823   1.741   6.444   6.186
 6975SOL    HW121824   1.663   6.502   6.211
 6975SOL    HW221825   1.806   6.440   6.262
 6976SOL     OW21826   1.396   6.206   0.780
 6976SOL    HW121827   1.406   6.303   0.755
 6976SOL    HW221828   1.477   6.176   0.829
 6977SOL     OW21829   5.346   2.858   1.313
 6977SOL    HW121830   5.341   2.783   1.247
 6977SOL    HW221831   5.277   2.927   1.291
 6978SOL     OW21832   4.435   2.440   3.502
 6978SOL    HW121833   4.355   2.473   3.452
 6978SOL    HW221834   4.491   2.384   3.442
 6979SOL     OW21835   0.129   3.518   4.661
 6979SOL    HW121836   0.036   3.517   4.624
 6979SOL    HW221837   0.125   3.505   4.760
 6980SOL     OW21838   4.925   1.876   4.957
 6980SOL    HW121839   4.888   1.815   5.028
 6980SOL    HW221840   5.022   1.855   4.943
 6981SOL     OW21841   3.585   3.633   6.206
 6981SOL    HW121842   3.564   3.552   6.152
 6981SOL    HW221843   3.680   3.659   6.192
 6982SOL     OW21844   0.469   0.238   4.793
 6982SOL    HW121845   0.459   0.222   4.695
 6982SOL    HW221846   0.501   0.331   4.809
 6983SOL     OW21847   6.156   0.973   3.100
 6983SOL    HW121848   6.234   0.986   3.039
 6983SOL    HW221849   6.143   1.055   3.156
 6984SOL     OW21850   1.707   1.253   6.128
 6984SOL    HW121851   1.799   1.224   6.101
 6984SOL    HW221852   1.704   1.353   6.130
 6985SOL     OW21853   5.274   6.719   3.955
 6985SOL    HW121854   5.327   6.635   3.953
 6985SOL    HW221855   5.254   6.744   4.050
 6986SOL     OW21856   1.983   6.110   5.175
 6986SOL    HW121857   2.014   6.204   5.164
 6986SOL    HW221858   1.888   6.102   5.145
 6987SOL     OW21859   6.705   3.358   6.377
 6987SOL    HW121860   6.618   3.317   6.404
 6987SOL    HW221861   6.755   3.294   6.318
 6988SOL     OW21862   5.765   1.774   6.693
 6988SOL    HW121863   5.783   1.684   6.732
 6988SOL    HW221864   5.669   1.781   6.668
 6989SOL     OW21865   1.928   3.393   4.639
 6989SOL    HW121866   2.018   3.426   4.609
 6989SOL    HW221867   1.885   3.463   4.695
 6990SOL     OW21868   4.240   3.486   1.838
 6990SOL    HW121869   4.224   3.580   1.809
 6990SOL    HW221870   4.305   3.442   1.775
 6991SOL     OW21871   4.398   4.624   5.450
 6991SOL    HW121872   4.464   4.609   5.524
 6991SOL    HW221873   4.306   4.634   5.490
 6992SOL     OW21874   6.519   6.521   4.682
 6992SOL    HW121875   6.514   6.609   4.729
 6992SOL    HW221876   6.454   6.457   4.723
 6993SOL     OW21877   0.567   7.012   3.233
 6993SOL    HW121878   0.618   6.949   3.174
 6993SOL    HW221879   0.597   0.085   3.216
 6994SOL     OW21880   1.657   2.184   0.558
 6994SOL    HW121881   1.627   2.132   0.478
 6994SOL    HW221882   1.722   2.255   0.529
 6995SOL     OW21883   1.286   4.975   4.017
 6995SOL    HW121884   1.242   4.947   4.102
 6995SOL    HW221885   1.354   4.906   3.990
 6996SOL     OW21886   1.780   6.566   5.309
 6996SOL    HW121887   1.694   6.609   5.283
 6996SOL    HW221888   1.762   6.488   5.369
 6997SOL     OW21889   4.227   5.121   4.235
 6997SOL    HW121890   4.197   5.157   4.147
 6997SOL    HW221891   4.293   5.047   4.221
 6998SOL     OW21892   2.699   2.028   2.220
 6998SOL    HW121893   2.797   2.026   2.203
 6998SOL    HW221894   2.670   2.120   2.244
 6999SOL     OW21895   5.166   1.916   6.672
 6999SOL    HW121896   5.231   1.969   6.726
 6999SOL    HW221897   5.179   1.818   6.690
 7000SOL     OW21898   7.013   6.977   1.425
 7000SOL    HW121899   0.064   6.918   1.387
 7000SOL    HW221900   6.965   6.928   1.498
 7001SOL     OW21901   2.931   1.604   6.626
 7001SOL    HW121902   3.031   1.601   6.628
 7001SOL    HW221903   2.901   1.699   6.617
 7002SOL     OW21904   2.728   5.013   1.772
 7002SOL    HW121905   2.788   5.066   1.833
 7002SOL    HW221906   2.713   4.922   1.810
 7003SOL     OW21907   1.906   6.313   5.671
 7003SOL    HW121908   1.976   6.385   5.680
 7003SOL    HW221909   1.862   6.299   5.759
 7004SOL     OW21910   1.871   3.782   6.319
 7004SOL    HW121911   1.782   3.818   6.290
 7004SOL    HW221912   1.929   3.858   6.350
 7005SOL     OW21913   6.197   0.436   6.101
 7005SOL    HW121914   6.272   0.458   6.039
 7005SOL    HW221915   6.140   0.364   6.060
 7006SOL     OW21916   4.979   5.407   4.212
 7006SOL    HW121917   5.047   5.342   4.177
 7006SOL    HW221918   4.890   5.362   4.218
 7007SOL     OW21919   5.297   5.012   1.789
 7007SOL    HW121920   5.247   5.027   1.704
 7007SOL    HW221921   5.315   5.100   1.834
 7008SOL     OW21922   0.631   6.096   4.472
 7008SOL    HW121923   0.556   6.078   4.536
 7008SOL    HW221924   0.607   6.061   4.382
 7009SOL     OW21925   0.048   4.642   1.364
 7009SOL    HW121926   0.042   4.653   1.463
 7009SOL    HW221927   6.990   4.590   1.331
 7010SOL     OW21928   5.631   4.183   5.996
 7010SOL    HW121929   5.699   4.251   6.022
 7010SOL    HW221930   5.604   4.198   5.900
 7011SOL     OW21931   1.023   0.135   5.483
 7011SOL    HW121932   1.042   0.211   5.545
 7011SOL    HW221933   1.093   0.134   5.411
 7012SOL     OW21934   0.419   0.689   1.500
 7012SOL    HW121935   0.481   0.664   1.575
 7012SOL    HW221936   0.362   0.766   1.528
 7013SOL     OW21937   6.302   2.344   1.229
 7013SOL    HW121938   6.389   2.337   1.277
 7013SOL    HW221939   6.264   2.436   1.242
 7014SOL     OW21940   2.221   5.095   0.989
 7014SOL    HW121941   2.208   5.078   1.087
 7014SOL    HW221942   2.316   5.120   0.972
 7015SOL     OW21943   4.989   2.415   2.301
 7015SOL    HW121944   4.937   2.433   2.384
 7015SOL    HW221945   4.931   2.429   2.221
 7016SOL     OW21946   4.640   4.498   0.489
 7016SOL    HW121947   4.638   4.465   0.394
 7016SOL    HW221948   4.713   4.451   0.538
 7017SOL     OW21949   5.374   2.394   5.352
 7017SOL    HW121950   5.326   2.330   5.411
 7017SOL    HW221951   5.345   2.380   5.257
 7018SOL     OW21952   0.453   3.760   2.823
 7018SOL    HW121953   0.428   3.843   2.774
 7018SOL    HW221954   0.404   3.758   2.911
 7019SOL     OW21955   6.908   6.299   2.642
 7019SOL    HW121956   6.874   6.246   2.565
 7019SOL    HW221957   6.998   6.266   2.669
 7020SOL     OW21958   0.290   5.622   6.837
 7020SOL    HW121959   0.245   5.653   6.921
 7020SOL    HW221960   0.354   5.692   6.806
 7021SOL     OW21961   2.881   6.743   5.302
 7021SOL    HW121962   2.836   6.672   5.356
 7021SOL    HW221963   2.899   6.823   5.359
 7022SOL     OW21964   3.624   5.023   5.943
 7022SOL    HW121965   3.679   4.984   6.017
 7022SOL    HW221966   3.671   5.008   5.856
 7023SOL     OW21967   3.912   5.307   2.417
 7023SOL    HW121968   3.862   5.221   2.416
 7023SOL    HW221969   3.855   5.378   2.457
 7024SOL     OW21970   5.924   6.610   1.815
 7024SOL    HW121971   5.989   6.551   1.863
 7024SOL    HW221972   5.837   6.611   1.864
 7025SOL     OW21973   2.786   0.240   1.193
 7025SOL    HW121974   2.817   0.246   1.288
 7025SOL    HW221975   2.696   0.283   1.185
 7026SOL     OW21976   4.813   2.586   0.601
 7026SOL    HW121977   4.805   2.592   0.501
 7026SOL    HW221978   4.901   2.622   0.630
 7027SOL     OW21979   5.904   5.753   4.756
 7027SOL    HW121980   5.895   5.667   4.705
 7027SOL    HW221981   5.979   5.744   4.822
 7028SOL     OW21982   3.358   0.982   4.283
 7028SOL    HW121983   3.380   1.049   4.212
 7028SOL    HW221984   3.432   0.914   4.289
 7029SOL     OW21985   3.709   0.700   3.948
 7029SOL    HW121986   3.796   0.660   3.976
 7029SOL    HW221987   3.726   0.773   3.881
 7030SOL     OW21988   1.562   3.772   4.028
 7030SOL    HW121989   1.470   3.765   4.065
 7030SOL    HW221990   1.570   3.854   3.971
 7031SOL     OW21991   1.970   0.636   4.614
 7031SOL    HW121992   1.941   0.557   4.667
 7031SOL    HW221993   1.890   0.688   4.584
 7032SOL     OW21994   5.790   2.752   3.440
 7032SOL    HW121995   5.736   2.668   3.431
 7032SOL    HW221996   5.732   2.827   3.472
 7033SOL     OW21997   0.217   1.238   4.759
 7033SOL    HW121998   0.170   1.167   4.707
 7033SOL    HW221999   0.290   1.197   4.813
 7034SOL     OW22000   0.366   5.122   3.655
 7034SOL    HW122001   0.434   5.193   3.676
 7034SOL    HW222002   0.300   5.117   3.729
 7035SOL     OW22003   0.159   4.900   1.322
 7035SOL    HW122004   0.083   4.965   1.324
 7035SOL    HW222005   0.122   4.807   1.318
 7036SOL     OW22006   6.685   5.064   0.349
 7036SOL    HW122007   6.743   5.012   0.286
 7036SOL    HW222008   6.591   5.064   0.315
 7037SOL     OW22009   1.030   0.337   6.383
 7037SOL    HW122010   1.009   0.393   6.463
 7037SOL    HW222011   0.946   0.316   6.334
 7038SOL     OW22012   2.298   2.933   4.408
 7038SOL    HW122013   2.265   3.024   4.386
 7038SOL    HW222014   2.340   2.892   4.326
 7039SOL     OW22015   3.886   1.669   6.948
 7039SOL    HW122016   3.835   1.585   6.961
 7039SOL    HW222017   3.822   1.743   6.924
 7040SOL     OW22018   6.154   2.324   6.562
 7040SOL    HW122019   6.064   2.325   6.517
 7040SOL    HW222020   6.207   2.246   6.529
 7041SOL     OW22021   2.001   1.540   3.603
 7041SOL    HW122022   1.982   1.540   3.505
 7041SOL    HW222023   1.949   1.613   3.647
 7042SOL     OW22024   2.042   0.916   6.922
 7042SOL    HW122025   2.097   0.833   6.926
 7042SOL    HW222026   1.970   0.905   6.854
 7043SOL     OW22027   1.701   2.702   1.461
 7043SOL    HW122028   1.622   2.752   1.498
 7043SOL    HW222029   1.748   2.653   1.535
 7044SOL     OW22030   6.998   5.681   0.781
 7044SOL    HW122031   6.923   5.640   0.730
 7044SOL    HW222032   0.062   5.634   0.758
 7045SOL     OW22033   0.404   4.943   0.493
 7045SOL    HW122034   0.411   4.966   0.396
 7045SOL    HW222035   0.343   4.865   0.504
 7046SOL     OW22036   2.853   2.266   3.776
 7046SOL    HW122037   2.780   2.284   3.842
 7046SOL    HW222038   2.942   2.278   3.820
 7047SOL     OW22039   1.617   6.956   3.380
 7047SOL    HW122040   1.684   6.938   3.308
 7047SOL    HW222041   1.661   7.005   3.455
 7048SOL     OW22042   0.084   5.314   0.117
 7048SOL    HW122043   0.128   5.330   0.205
 7048SOL    HW222044   7.007   5.326   0.126
 7049SOL     OW22045   2.438   0.922   0.016
 7049SOL    HW122046   2.402   0.840   6.994
 7049SOL    HW222047   2.440   0.997   6.970
 7050SOL     OW22048   4.367   3.357   5.509
 7050SOL    HW122049   4.359   3.427   5.580
 7050SOL    HW222050   4.458   3.361   5.468
 7051SOL     OW22051   6.074   6.367   2.921
 7051SOL    HW122052   6.047   6.271   2.913
 7051SOL    HW222053   5.992   6.423   2.934
 7052SOL     OW22054   6.366   0.390   5.253
 7052SOL    HW122055   6.287   0.359   5.306
 7052SOL    HW222056   6.423   0.450   5.310
 7053SOL     OW22057   6.283   3.228   6.080
 7053SOL    HW122058   6.216   3.243   6.153
 7053SOL    HW222059   6.238   3.184   6.002
 7054SOL     OW22060   6.161   2.235   2.795
 7054SOL    HW122061   6.174   2.136   2.792
 7054SOL    HW222062   6.109   2.265   2.716
 7055SOL     OW22063   4.381   1.688   3.559
 7055SOL    HW122064   4.448   1.756   3.588
 7055SOL    HW222065   4.426   1.601   3.542
 7056SOL     OW22066   4.638   5.636   4.383
 7056SOL    HW122067   4.568   5.612   4.450
 7056SOL    HW222068   4.610   5.720   4.335
 7057SOL     OW22069   5.699   5.947   2.915
 7057SOL    HW122070   5.651   5.957   3.003
 7057SOL    HW222071   5.725   5.852   2.902
 7058SOL     OW22072   0.190   3.910   4.566
 7058SOL    HW122073   0.138   3.985   4.525
 7058SOL    HW222074   0.264   3.948   4.621
 7059SOL     OW22075   1.847   0.935   2.400
 7059SOL    HW122076   1.840   0.963   2.304
 7059SOL    HW222077   1.761   0.893   2.429
 7060SOL     OW22078   3.570   6.974   0.770
 7060SOL    HW122079   3.662   6.937   0.783
 7060SOL    HW222080   3.540   7.017   0.854
 7061SOL     OW22081   0.740   1.070   2.960
 7061SOL    HW122082   0.791   1.142   3.006
 7061SOL    HW222083   0.731   0.991   3.021
 7062SOL     OW22084   6.907   1.227   5.619
 7062SOL    HW122085   6.924   1.167   5.541
 7062SOL    HW222086   6.809   1.228   5.639
 7063SOL     OW22087   1.858   6.359   1.722
 7063SOL    HW122088   1.897   6.356   1.630
 7063SOL    HW222089   1.892   6.282   1.776
 7064SOL     OW22090   3.413   2.400   0.612
 7064SOL    HW122091   3.392   2.418   0.515
 7064SOL    HW222092   3.354   2.326   0.645
 7065SOL     OW22093   3.177   3.458   2.529
 7065SOL    HW122094   3.130   3.421   2.449
 7065SOL    HW222095   3.238   3.532   2.500
 7066SOL     OW22096   2.559   4.827   1.633
 7066SOL    HW122097   2.611   4.810   1.717
 7066SOL    HW222098   2.511   4.914   1.640
 7067SOL     OW22099   0.949   4.201   4.934
 7067SOL    HW122100   1.032   4.147   4.916
 7067SOL    HW222101   0.945   4.224   5.031
 7068SOL     OW22102   0.480   0.813   2.824
 7068SOL    HW122103   0.473   0.804   2.923
 7068SOL    HW222104   0.576   0.801   2.796
 7069SOL     OW22105   1.664   4.673   5.490
 7069SOL    HW122106   1.674   4.575   5.508
 7069SOL    HW222107   1.735   4.702   5.425
 7070SOL     OW22108   5.668   5.203   3.080
 7070SOL    HW122109   5.623   5.291   3.074
 7070SOL    HW222110   5.756   5.207   3.032
 7071SOL     OW22111   1.548   6.307   5.282
 7071SOL    HW122112   1.553   6.404   5.261
 7071SOL    HW222113   1.569   6.293   5.379
 7072SOL     OW22114   0.348   0.137   6.336
 7072SOL    HW122115   0.401   0.198   6.395
 7072SOL    HW222116   0.389   0.136   6.245
 7073SOL     OW22117   1.832   2.475   7.020
 7073SOL    HW122118   1.907   2.541   7.018
 7073SOL    HW222119   1.747   2.522   0.019
 7074SOL     OW22120   3.559   1.482   6.725
 7074SOL    HW122121   3.536   1.528   6.639
 7074SOL    HW222122   3.565   1.550   6.798
 7075SOL     OW22123   0.951   6.112   3.112
 7075SOL    HW122124   0.954   6.149   3.019
 7075SOL    HW222125   1.010   6.167   3.171
 7076SOL     OW22126   3.672   1.379   6.441
 7076SOL    HW122127   3.616   1.320   6.499
 7076SOL    HW222128   3.628   1.468   6.432
 7077SOL     OW22129   1.143   5.604   6.429
 7077SOL    HW122130   1.043   5.603   6.425
 7077SOL    HW222131   1.180   5.556   6.349
 7078SOL     OW22132   0.539   0.714   1.763
 7078SOL    HW122133   0.518   0.810   1.745
 7078SOL    HW222134   0.547   0.699   1.861
 7079SOL     OW22135   5.342   6.508   4.304
 7079SOL    HW122136   5.404   6.503   4.383
 7079SOL    HW222137   5.268   6.571   4.325
 7080SOL     OW22138   6.041   0.842   3.596
 7080SOL    HW122139   5.989   0.837   3.511
 7080SOL    HW222140   6.057   0.749   3.631
 7081SOL     OW22141   4.668   1.190   4.535
 7081SOL    HW122142   4.756   1.216   4.574
 7081SOL    HW222143   4.632   1.111   4.586
 7082SOL     OW22144   5.948   1.197   0.565
 7082SOL    HW122145   5.859   1.216   0.525
 7082SOL    HW222146   5.937   1.157   0.655
 7083SOL     OW22147   4.144   0.334   5.217
 7083SOL    HW122148   4.215   0.264   5.223
 7083SOL    HW222149   4.060   0.299   5.258
 7084SOL     OW22150   6.068   5.718   0.291
 7084SOL    HW122151   5.974   5.747   0.269
 7084SOL    HW222152   6.103   5.659   0.219
 7085SOL     OW22153   4.808   1.640   1.584
 7085SOL    HW122154   4.805   1.686   1.673
 7085SOL    HW222155   4.876   1.684   1.527
 7086SOL     OW22156   1.314   1.038   5.926
 7086SOL    HW122157   1.314   0.970   5.999
 7086SOL    HW222158   1.405   1.079   5.919
 7087SOL     OW22159   2.345   2.705   4.548
 7087SOL    HW122160   2.341   2.790   4.495
 7087SOL    HW222161   2.420   2.711   4.615
 7088SOL     OW22162   6.974   1.991   4.380
 7088SOL    HW122163   6.980   1.922   4.309
 7088SOL    HW222164   0.045   2.016   4.410
 7089SOL     OW22165   2.997   2.002   1.744
 7089SOL    HW122166   2.991   1.903   1.729
 7089SOL    HW222167   2.980   2.049   1.658
 7090SOL     OW22168   3.175   1.200   5.113
 7090SOL    HW122169   3.263   1.181   5.156
 7090SOL    HW222170   3.188   1.260   5.034
 7091SOL     OW22171   6.795   5.887   0.438
 7091SOL    HW122172   6.885   5.921   0.465
 7091SOL    HW222173   6.802   5.841   0.350
 7092SOL     OW22174   3.646   2.152   0.548
 7092SOL    HW122175   3.707   2.074   0.559
 7092SOL    HW222176   3.671   2.203   0.466
 7093SOL     OW22177   3.936   3.111   6.420
 7093SOL    HW122178   3.949   3.153   6.510
 7093SOL    HW222179   3.898   3.179   6.356
 7094SOL     OW22180   6.297   0.788   6.787
 7094SOL    HW122181   6.373   0.842   6.749
 7094SOL    HW222182   6.273   0.715   6.724
 7095SOL     OW22183   1.134   4.240   1.480
 7095SOL    HW122184   1.180   4.152   1.469
 7095SOL    HW222185   1.043   4.236   1.437
 7096SOL     OW22186   3.816   6.697   3.197
 7096SOL    HW122187   3.911   6.702   3.165
 7096SOL    HW222188   3.755   6.704   3.118
 7097SOL     OW22189   1.790   1.408   1.531
 7097SOL    HW122190   1.768   1.502   1.504
 7097SOL    HW222191   1.788   1.349   1.450
 7098SOL     OW22192   1.160   0.323   6.140
 7098SOL    HW122193   1.258   0.329   6.119
 7098SOL    HW222194   1.145   0.348   6.235
 7099SOL     OW22195   6.934   1.358   5.022
 7099SOL    HW122196   6.958   1.368   5.119
 7099SOL    HW222197   6.945   1.446   4.976
 7100SOL     OW22198   5.482   1.823   1.394
 7100SOL    HW122199   5.417   1.889   1.431
 7100SOL    HW222200   5.462   1.733   1.431
 7101SOL     OW22201   1.748   0.704   4.933
 7101SOL    HW122202   1.775   0.723   4.839
 7101SOL    HW222203   1.748   0.789   4.986
 7102SOL     OW22204   4.259   2.538   0.686
 7102SOL    HW122205   4.185   2.481   0.721
 7102SOL    HW222206   4.317   2.570   0.761
 7103SOL     OW22207   2.197   6.881   5.993
 7103SOL    HW122208   2.146   6.881   6.079
 7103SOL    HW222209   2.189   6.970   5.949
 7104SOL     OW22210   0.597   3.069   1.255
 7104SOL    HW122211   0.598   3.043   1.351
 7104SOL    HW222212   0.567   3.164   1.246
 7105SOL     OW22213   2.158   2.866   5.409
 7105SOL    HW122214   2.147   2.934   5.337
 7105SOL    HW222215   2.244   2.817   5.396
 7106SOL     OW22216   3.095   3.009   5.190
 7106SOL    HW122217   3.032   3.080   5.159
 7106SOL    HW222218   3.049   2.948   5.255
 7107SOL     OW22219   1.539   1.442   0.146
 7107SOL    HW122220   1.534   1.524   0.089
 7107SOL    HW222221   1.589   1.370   0.098
 7108SOL     OW22222   4.763   6.864   1.989
 7108SOL    HW122223   4.672   6.822   1.995
 7108SOL    HW222224   4.773   6.908   1.899
 7109SOL     OW22225   4.630   5.955   6.838
 7109SOL    HW122226   4.605   5.891   6.765
 7109SOL    HW222227   4.548   5.986   6.886
 7110SOL     OW22228   3.723   4.890   4.320
 7110SOL    HW122229   3.755   4.862   4.411
 7110SOL    HW222230   3.626   4.913   4.325
 7111SOL     OW22231   1.155   2.800   3.528
 7111SOL    HW122232   1.189   2.836   3.441
 7111SOL    HW222233   1.143   2.876   3.592
 7112SOL     OW22234   1.750   6.181   3.131
 7112SOL    HW122235   1.658   6.216   3.110
 7112SOL    HW222236   1.747   6.081   3.136
 7113SOL     OW22237   3.982   4.025   6.064
 7113SOL    HW122238   4.003   3.939   6.112
 7113SOL    HW222239   3.889   4.021   6.028
 7114SOL     OW22240   3.680   6.495   1.009
 7114SOL    HW122241   3.753   6.528   0.949
 7114SOL    HW222242   3.704   6.405   1.045
 7115SOL     OW22243   4.038   2.839   1.262
 7115SOL    HW122244   4.092   2.887   1.193
 7115SOL    HW222245   4.001   2.905   1.327
 7116SOL     OW22246   6.212   4.505   3.800
 7116SOL    HW122247   6.239   4.601   3.796
 7116SOL    HW222248   6.289   4.447   3.775
 7117SOL     OW22249   5.345   6.747   2.375
 7117SOL    HW122250   5.272   6.708   2.432
 7117SOL    HW222251   5.359   6.843   2.401
 7118SOL     OW22252   6.714   3.524   3.592
 7118SOL    HW122253   6.720   3.615   3.552
 7118SOL    HW222254   6.618   3.502   3.608
 7119SOL     OW22255   0.751   2.244   2.525
 7119SOL    HW122256   0.793   2.302   2.595
 7119SOL    HW222257   0.720   2.301   2.449
 7120SOL     OW22258   4.684   6.267   4.115
 7120SOL    HW122259   4.762   6.287   4.174
 7120SOL    HW222260   4.626   6.349   4.108
 7121SOL     OW22261   1.778   6.429   1.236
 7121SOL    HW122262   1.702   6.434   1.171
 7121SOL    HW222263   1.858   6.473   1.196
 7122SOL     OW22264   0.033   5.985   0.445
 7122SOL    HW122265   0.015   6.051   0.373
 7122SOL    HW222266   0.130   5.958   0.443
 7123SOL     OW22267   2.992   4.914   0.875
 7123SOL    HW122268   2.897   4.923   0.903
 7123SOL    HW222269   3.010   4.976   0.798
 7124SOL     OW22270   0.250   5.973   6.501
 7124SOL    HW122271   0.215   5.942   6.590
 7124SOL    HW222272   0.200   5.928   6.428
 7125SOL     OW22273   1.207   6.015   3.397
 7125SOL    HW122274   1.295   6.062   3.404
 7125SOL    HW222275   1.136   6.071   3.440
 7126SOL     OW22276   1.538   3.711   1.430
 7126SOL    HW122277   1.561   3.781   1.362
 7126SOL    HW222278   1.545   3.620   1.389
 7127SOL     OW22279   2.097   0.492   5.302
 7127SOL    HW122280   2.054   0.450   5.222
 7127SOL    HW222281   2.042   0.569   5.332
 7128SOL     OW22282   3.272   3.203   2.642
 7128SOL    HW122283   3.213   3.122   2.642
 7128SOL    HW222284   3.228   3.276   2.590
 7129SOL     OW22285   3.214   2.227   0.886
 7129SOL    HW122286   3.309   2.202   0.866
 7129SOL    HW222287   3.167   2.148   0.924
 7130SOL     OW22288   1.908   0.637   3.006
 7130SOL    HW122289   1.868   0.566   3.065
 7130SOL    HW222290   1.936   0.715   3.062
 7131SOL     OW22291   2.459   1.140   3.484
 7131SOL    HW122292   2.378   1.119   3.430
 7131SOL    HW222293   2.520   1.062   3.485
 7132SOL     OW22294   2.877   3.536   2.556
 7132SOL    HW122295   2.895   3.601   2.482
 7132SOL    HW222296   2.787   3.496   2.545
 7133SOL     OW22297   6.593   4.043   1.519
 7133SOL    HW122298   6.639   4.036   1.608
 7133SOL    HW222299   6.623   4.126   1.472
 7134SOL     OW22300   4.452   4.621   2.282
 7134SOL    HW122301   4.398   4.636   2.199
 7134SOL    HW222302   4.533   4.679   2.280
 7135SOL     OW22303   0.469   1.514   5.782
 7135SOL    HW122304   0.494   1.594   5.836
 7135SOL    HW222305   0.382   1.477   5.816
 7136SOL     OW22306   1.579   1.994   6.688
 7136SOL    HW122307   1.498   2.005   6.746
 7136SOL    HW222308   1.561   1.923   6.620
 7137SOL     OW22309   5.429   1.943   4.711
 7137SOL    HW122310   5.459   1.848   4.716
 7137SOL    HW222311   5.438   1.977   4.617
 7138SOL     OW22312   2.041   1.981   6.818
 7138SOL    HW122313   2.055   2.073   6.781
 7138SOL    HW222314   2.099   1.968   6.899
 7139SOL     OW22315   2.503   1.989   0.330
 7139SOL    HW122316   2.567   2.024   0.262
 7139SOL    HW222317   2.553   1.947   0.405
 7140SOL     OW22318   6.716   4.529   4.366
 7140SOL    HW122319   6.756   4.457   4.422
 7140SOL    HW222320   6.695   4.493   4.275
 7141SOL     OW22321   0.618   0.123   2.274
 7141SOL    HW122322   0.689   0.068   2.319
 7141SOL    HW222323   0.660   0.177   2.202
 7142SOL     OW22324   3.628   6.215   3.923
 7142SOL    HW122325   3.564   6.175   3.989
 7142SOL    HW222326   3.577   6.259   3.850
 7143SOL     OW22327   1.541   2.394   3.515
 7143SOL    HW122328   1.551   2.488   3.547
 7143SOL    HW222329   1.458   2.354   3.555
 7144SOL     OW22330   1.475   3.554   3.830
 7144SOL    HW122331   1.503   3.634   3.883
 7144SOL    HW222332   1.535   3.477   3.851
 7145SOL     OW22333   3.810   5.505   6.759
 7145SOL    HW122334   3.755   5.439   6.708
 7145SOL    HW222335   3.904   5.471   6.766
 7146SOL     OW22336   3.430   4.999   1.800
 7146SOL    HW122337   3.376   4.961   1.724
 7146SOL    HW222338   3.417   5.098   1.803
 7147SOL     OW22339   0.515   1.045   3.677
 7147SOL    HW122340   0.574   1.111   3.630
 7147SOL    HW222341   0.516   0.958   3.629
 7148SOL     OW22342   6.627   1.706   0.372
 7148SOL    HW122343   6.598   1.612   0.358
 7148SOL    HW222344   6.647   1.749   0.284
 7149SOL     OW22345   1.125   0.705   4.790
 7149SOL    HW122346   1.076   0.736   4.709
 7149SOL    HW222347   1.098   0.761   4.869
 7150SOL     OW22348   5.819   2.893   5.817
 7150SOL    HW122349   5.766   2.865   5.897
 7150SOL    HW222350   5.915   2.868   5.830
 7151SOL     OW22351   1.706   0.442   0.007
 7151SOL    HW122352   1.681   0.536   7.003
 7151SOL    HW222353   1.717   0.436   0.106
 7152SOL     OW22354   1.370   2.264   5.152
 7152SOL    HW122355   1.339   2.210   5.230
 7152SOL    HW222356   1.417   2.205   5.087
 7153SOL     OW22357   4.420   2.025   3.036
 7153SOL    HW122358   4.383   1.932   3.026
 7153SOL    HW222359   4.381   2.084   2.965
 7154SOL     OW22360   3.395   6.903   4.621
 7154SOL    HW122361   3.414   6.991   4.665
 7154SOL    HW222362   3.396   6.831   4.690
 7155SOL     OW22363   2.469   1.182   3.989
 7155SOL    HW122364   2.437   1.251   3.925
 7155SOL    HW222365   2.479   1.095   3.941
 7156SOL     OW22366   2.347   5.627   5.355
 7156SOL    HW122367   2.414   5.606   5.283
 7156SOL    HW222368   2.255   5.603   5.323
 7157SOL     OW22369   5.122   4.888   0.305
 7157SOL    HW122370   5.214   4.926   0.294
 7157SOL    HW222371   5.095   4.840   0.222
 7158SOL     OW22372   3.879   0.615   3.282
 7158SOL    HW122373   3.897   0.519   3.260
 7158SOL    HW222374   3.835   0.659   3.204
 7159SOL     OW22375   1.455   6.276   6.991
 7159SOL    HW122376   1.462   6.326   0.057
 7159SOL    HW222377   1.427   6.339   6.918
 7160SOL     OW22378   6.859   0.806   2.283
 7160SOL    HW122379   6.910   0.784   2.366
 7160SOL    HW222380   6.778   0.747   2.278
 7161SOL     OW22381   3.226   4.087   4.875
 7161SOL    HW122382   3.235   4.168   4.934
 7161SOL    HW222383   3.317   4.050   4.856
 7162SOL     OW22384   3.501   5.043   3.990
 7162SOL    HW122385   3.468   5.089   4.072
 7162SOL    HW222386   3.428   4.988   3.950
 7163SOL     OW22387   1.097   6.239   3.564
 7163SOL    HW122388   1.185   6.206   3.597
 7163SOL    HW222389   1.095   6.339   3.569
 7164SOL     OW22390   3.479   1.671   4.475
 7164SOL    HW122391   3.546   1.729   4.428
 7164SOL    HW222392   3.501   1.669   4.573
 7165SOL     OW22393   4.158   5.216   2.051
 7165SOL    HW122394   4.061   5.195   2.046
 7165SOL    HW222395   4.173   5.294   2.112
 7166SOL     OW22396   3.373   6.614   2.340
 7166SOL    HW122397   3.440   6.630   2.266
 7166SOL    HW222398   3.327   6.700   2.361
 7167SOL     OW22399   5.813   3.443   0.726
 7167SOL    HW122400   5.778   3.531   0.694
 7167SOL    HW222401   5.907   3.431   0.694
 7168SOL     OW22402   7.020   1.440   4.176
 7168SOL    HW122403   0.073   1.399   4.228
 7168SOL    HW222404   0.036   1.497   4.103
 7169SOL     OW22405   2.323   2.695   6.759
 7169SOL    HW122406   2.385   2.723   6.686
 7169SOL    HW222407   2.286   2.777   6.804
 7170SOL     OW22408   4.858   3.631   4.080
 7170SOL    HW122409   4.839   3.562   4.149
 7170SOL    HW222410   4.862   3.721   4.123
 7171SOL     OW22411   3.756   3.899   5.570
 7171SOL    HW122412   3.848   3.881   5.604
 7171SOL    HW222413   3.692   3.833   5.612
 7172SOL     OW22414   6.134   5.774   1.335
 7172SOL    HW122415   6.073   5.852   1.334
 7172SOL    HW222416   6.225   5.802   1.303
 7173SOL     OW22417   6.894   6.416   4.457
 7173SOL    HW122418   6.975   6.470   4.479
 7173SOL    HW222419   6.915   6.351   4.385
 7174SOL     OW22420   1.032   5.893   5.803
 7174SOL    HW122421   1.105   5.845   5.754
 7174SOL    HW222422   1.009   5.977   5.754
 7175SOL     OW22423   6.569   3.683   5.206
 7175SOL    HW122424   6.506   3.654   5.134
 7175SOL    HW222425   6.538   3.649   5.294
 7176SOL     OW22426   1.055   3.442   1.099
 7176SOL    HW122427   0.968   3.412   1.139
 7176SOL    HW222428   1.068   3.539   1.118
 7177SOL     OW22429   0.924   5.253   1.311
 7177SOL    HW122430   0.854   5.200   1.358
 7177SOL    HW222431   1.000   5.271   1.374
 7178SOL     OW22432   6.302   0.568   6.598
 7178SOL    HW122433   6.390   0.548   6.555
 7178SOL    HW222434   6.235   0.590   6.527
 7179SOL     OW22435   0.374   3.977   5.440
 7179SOL    HW122436   0.431   4.059   5.444
 7179SOL    HW222437   0.430   3.898   5.415
 7180SOL     OW22438   6.827   0.492   2.123
 7180SOL    HW122439   6.911   0.482   2.177
 7180SOL    HW222440   6.851   0.515   2.028
 7181SOL     OW22441   5.507   5.850   2.467
 7181SOL    HW122442   5.537   5.903   2.546
 7181SOL    HW222443   5.408   5.861   2.456
 7182SOL     OW22444   4.316   3.398   6.025
 7182SOL    HW122445   4.377   3.420   6.101
 7182SOL    HW222446   4.242   3.338   6.058
 7183SOL     OW22447   2.261   2.825   3.088
 7183SOL    HW122448   2.319   2.795   3.012
 7183SOL    HW222449   2.288   2.776   3.171
 7184SOL     OW22450   2.140   5.210   3.222
 7184SOL    HW122451   2.046   5.240   3.215
 7184SOL    HW222452   2.180   5.202   3.130
 7185SOL     OW22453   4.986   2.643   6.586
 7185SOL    HW122454   4.938   2.696   6.656
 7185SOL    HW222455   5.080   2.624   6.616
 7186SOL     OW22456   0.969   6.485   4.360
 7186SOL    HW122457   1.014   6.546   4.426
 7186SOL    HW222458   0.897   6.433   4.407
 7187SOL     OW22459   1.735   4.814   1.542
 7187SOL    HW122460   1.833   4.832   1.536
 7187SOL    HW222461   1.719   4.734   1.601
 7188SOL     OW22462   4.985   0.700   1.467
 7188SOL    HW122463   5.023   0.662   1.552
 7188SOL    HW222464   4.892   0.731   1.483
 7189SOL     OW22465   5.841   0.728   5.772
 7189SOL    HW122466   5.776   0.803   5.761
 7189SOL    HW222467   5.918   0.740   5.709
 7190SOL     OW22468   4.859   5.360   2.659
 7190SOL    HW122469   4.786   5.345   2.726
 7190SOL    HW222470   4.843   5.302   2.579
 7191SOL     OW22471   0.645   2.787   1.231
 7191SOL    HW122472   0.565   2.736   1.200
 7191SOL    HW222473   0.619   2.881   1.252
 7192SOL     OW22474   3.094   4.082   6.015
 7192SOL    HW122475   3.155   4.151   5.976
 7192SOL    HW222476   3.084   4.097   6.113
 7193SOL     OW22477   5.889   1.763   4.950
 7193SOL    HW122478   5.871   1.711   4.866
 7193SOL    HW222479   5.879   1.703   5.029
 7194SOL     OW22480   3.110   0.895   2.084
 7194SOL    HW122481   3.052   0.848   2.150
 7194SOL    HW222482   3.161   0.968   2.130
 7195SOL     OW22483   0.560   0.059   2.765
 7195SOL    HW122484   0.505   0.025   2.688
 7195SOL    HW222485   0.502   0.109   2.829
 7196SOL     OW22486   3.703   3.785   1.728
 7196SOL    HW122487   3.768   3.828   1.665
 7196SOL    HW222488   3.691   3.843   1.809
 7197SOL     OW22489   1.906   0.935   4.366
 7197SOL    HW122490   1.922   1.006   4.298
 7197SOL    HW222491   1.934   0.967   4.456
 7198SOL     OW22492   0.385   0.139   5.673
 7198SOL    HW122493   0.320   0.117   5.746
 7198SOL    HW222494   0.441   0.060   5.653
 7199SOL     OW22495   6.168   5.569   2.080
 7199SOL    HW122496   6.205   5.482   2.045
 7199SOL    HW222497   6.169   5.637   2.006
 7200SOL     OW22498   1.313   2.329   2.495
 7200SOL    HW122499   1.362   2.248   2.529
 7200SOL    HW222500   1.329   2.338   2.396
 7201SOL     OW22501   1.714   4.148   3.883
 7201SOL    HW122502   1.797   4.138   3.828
 7201SOL    HW222503   1.739   4.149   3.980
 7202SOL     OW22504   2.373   6.778   6.268
 7202SOL    HW122505   2.372   6.799   6.170
 7202SOL    HW222506   2.366   6.679   6.281
 7203SOL     OW22507   5.470   0.215   0.340
 7203SOL    HW122508   5.452   0.309   0.312
 7203SOL    HW222509   5.454   0.205   0.438
 7204SOL     OW22510   0.370   2.828   2.889
 7204SOL    HW122511   0.309   2.752   2.866
 7204SOL    HW222512   0.341   2.869   2.975
 7205SOL     OW22513   1.045   3.874   1.651
 7205SOL    HW122514   1.001   3.923   1.576
 7205SOL    HW222515   0.982   3.807   1.689
 7206SOL     OW22516   6.216   0.938   1.502
 7206SOL    HW122517   6.219   0.997   1.421
 7206SOL    HW222518   6.124   0.938   1.540
 7207SOL     OW22519   4.030   6.926   1.414
 7207SOL    HW122520   4.063   6.896   1.503
 7207SOL    HW222521   4.034   0.005   1.408
 7208SOL     OW22522   2.517   0.623   5.044
 7208SOL    HW122523   2.503   0.561   5.122
 7208SOL    HW222524   2.464   0.589   4.966
 7209SOL     OW22525   3.140   3.695   5.255
 7209SOL    HW122526   3.062   3.668   5.198
 7209SOL    HW222527   3.148   3.794   5.256
 7210SOL     OW22528   4.779   6.912   4.366
 7210SOL    HW122529   4.830   6.946   4.288
 7210SOL    HW222530   4.769   6.813   4.359
 7211SOL     OW22531   1.001   5.089   2.518
 7211SOL    HW122532   1.040   5.094   2.426
 7211SOL    HW222533   1.004   4.994   2.550
 7212SOL     OW22534   5.481   6.856   3.147
 7212SOL    HW122535   5.421   6.925   3.106
 7212SOL    HW222536   5.500   6.784   3.081
 7213SOL     OW22537   5.888   6.290   5.944
 7213SOL    HW122538   5.835   6.324   6.021
 7213SOL    HW222539   5.857   6.197   5.921
 7214SOL     OW22540   1.433   5.075   5.914
 7214SOL    HW122541   1.519   5.125   5.908
 7214SOL    HW222542   1.386   5.098   5.999
 7215SOL     OW22543   1.242   3.081   1.140
 7215SOL    HW122544   1.261   3.007   1.204
 7215SOL    HW222545   1.265   3.169   1.182
 7216SOL     OW22546   2.820   1.537   2.725
 7216SOL    HW122547   2.847   1.500   2.636
 7216SOL    HW222548   2.893   1.520   2.791
 7217SOL     OW22549   0.263   3.430   1.949
 7217SOL    HW122550   0.284   3.461   2.042
 7217SOL    HW222551   0.277   3.506   1.885
 7218SOL     OW22552   6.357   3.090   4.001
 7218SOL    HW122553   6.396   3.001   3.977
 7218SOL    HW222554   6.430   3.151   4.034
 7219SOL     OW22555   2.478   1.404   1.569
 7219SOL    HW122556   2.400   1.467   1.571
 7219SOL    HW222557   2.508   1.385   1.663
 7220SOL     OW22558   6.947   1.774   3.154
 7220SOL    HW122559   6.856   1.807   3.128
 7220SOL    HW222560   7.002   1.759   3.072
 7221SOL     OW22561   6.987   4.153   4.619
 7221SOL    HW122562   6.908   4.106   4.660
 7221SOL    HW222563   6.999   4.120   4.525
 7222SOL     OW22564   6.595   0.180   2.736
 7222SOL    HW122565   6.581   0.081   2.732
 7222SOL    HW222566   6.607   0.208   2.831
 7223SOL     OW22567   4.745   1.540   4.590
 7223SOL    HW122568   4.813   1.466   4.590
 7223SOL    HW222569   4.679   1.525   4.517
 7224SOL     OW22570   5.349   1.551   3.525
 7224SOL    HW122571   5.338   1.452   3.518
 7224SOL    HW222572   5.446   1.575   3.513
 7225SOL     OW22573   2.803   0.382   1.451
 7225SOL    HW122574   2.813   0.437   1.368
 7225SOL    HW222575   2.892   0.371   1.495
 7226SOL     OW22576   5.884   6.630   5.252
 7226SOL    HW122577   5.839   6.681   5.179
 7226SOL    HW222578   5.967   6.587   5.217
 7227SOL     OW22579   0.227   3.416   5.747
 7227SOL    HW122580   0.253   3.332   5.699
 7227SOL    HW222581   0.128   3.428   5.742
 7228SOL     OW22582   1.884   0.209   2.823
 7228SOL    HW122583   1.826   0.278   2.780
 7228SOL    HW222584   1.913   0.242   2.913
 7229SOL     OW22585   6.859   0.026   3.308
 7229SOL    HW122586   6.881   6.989   3.387
 7229SOL    HW222587   6.922   0.103   3.306
 7230SOL     OW22588   6.377   5.371   1.127
 7230SOL    HW122589   6.427   5.457   1.125
 7230SOL    HW222590   6.428   5.303   1.180
 7231SOL     OW22591   5.589   0.629   0.011
 7231SOL    HW122592   5.677   0.619   0.057
 7231SOL    HW222593   5.565   0.544   6.986
 7232SOL     OW22594   3.225   3.954   0.683
 7232SOL    HW122595   3.248   3.910   0.596
 7232SOL    HW222596   3.162   3.896   0.734
 7233SOL     OW22597   1.021   2.116   5.749
 7233SOL    HW122598   0.928   2.098   5.718
 7233SOL    HW222599   1.024   2.206   5.794
 7234SOL     OW22600   5.351   2.546   4.253
 7234SOL    HW122601   5.326   2.451   4.268
 7234SOL    HW222602   5.336   2.570   4.157
 7235SOL     OW22603   5.910   2.830   4.861
 7235SOL    HW122604   5.811   2.836   4.869
 7235SOL    HW222605   5.947   2.921   4.842
 7236SOL     OW22606   1.142   1.367   3.333
 7236SOL    HW122607   1.067   1.326   3.281
 7236SOL    HW222608   1.230   1.340   3.293
 7237SOL     OW22609   5.766   6.180   5.136
 7237SOL    HW122610   5.765   6.082   5.154
 7237SOL    HW222611   5.816   6.199   5.052
 7238SOL     OW22612   1.480   0.078   2.726
 7238SOL    HW122613   1.555   0.067   2.792
 7238SOL    HW222614   1.500   0.026   2.643
 7239SOL     OW22615   4.726   2.145   2.282
 7239SOL    HW122616   4.684   2.204   2.351
 7239SOL    HW222617   4.824   2.140   2.299
 7240SOL     OW22618   3.389   3.375   3.245
 7240SOL    HW122619   3.375   3.338   3.337
 7240SOL    HW222620   3.309   3.429   3.219
 7241SOL     OW22621   4.513   0.168   4.641
 7241SOL    HW122622   4.454   0.238   4.601
 7241SOL    HW222623   4.608   0.187   4.616
 7242SOL     OW22624   6.412   6.057   0.513
 7242SOL    HW122625   6.410   6.044   0.414
 7242SOL    HW222626   6.409   6.154   0.534
 7243SOL     OW22627   0.719   5.869   0.859
 7243SOL    HW122628   0.746   5.935   0.928
 7243SOL    HW222629   0.798   5.842   0.805
 7244SOL     OW22630   5.576   1.935   1.688
 7244SOL    HW122631   5.599   2.032   1.699
 7244SOL    HW222632   5.646   1.890   1.633
 7245SOL     OW22633   5.620   1.555   3.521
 7245SOL    HW122634   5.687   1.621   3.485
 7245SOL    HW222635   5.659   1.507   3.599
 7246SOL     OW22636   0.781   5.498   5.404
 7246SOL    HW122637   0.879   5.514   5.414
 7246SOL    HW222638   0.763   5.455   5.315
 7247SOL     OW22639   3.941   5.460   4.147
 7247SOL    HW122640   3.912   5.527   4.216
 7247SOL    HW222641   3.861   5.421   4.102
 7248SOL     OW22642   3.373   1.240   4.898
 7248SOL    HW122643   3.436   1.180   4.849
 7248SOL    HW222644   3.420   1.280   4.977
 7249SOL     OW22645   4.565   3.099   6.494
 7249SOL    HW122646   4.472   3.134   6.491
 7249SOL    HW222647   4.571   3.015   6.439
 7250SOL     OW22648   3.080   2.989   0.080
 7250SOL    HW122649   3.143   3.061   0.107
 7250SOL    HW222650   3.109   2.950   7.014
 7251SOL     OW22651   5.564   1.235   5.629
 7251SOL    HW122652   5.554   1.334   5.626
 7251SOL    HW222653   5.579   1.199   5.537
 7252SOL     OW22654   4.603   3.440   5.381
 7252SOL    HW122655   4.609   3.502   5.302
 7252SOL    HW222656   4.650   3.355   5.359
 7253SOL     OW22657   5.155   4.814   6.664
 7253SOL    HW122658   5.163   4.725   6.709
 7253SOL    HW222659   5.059   4.829   6.638
 7254SOL     OW22660   5.382   6.086   5.079
 7254SOL    HW122661   5.474   6.124   5.088
 7254SOL    HW222662   5.333   6.097   5.165
 7255SOL     OW22663   3.487   3.233   3.008
 7255SOL    HW122664   3.426   3.241   3.087
 7255SOL    HW222665   3.498   3.323   2.966
 7256SOL     OW22666   2.965   5.866   3.574
 7256SOL    HW122667   2.949   5.906   3.664
 7256SOL    HW222668   2.963   5.938   3.504
 7257SOL     OW22669   6.193   5.476   2.512
 7257SOL    HW122670   6.140   5.448   2.591
 7257SOL    HW222671   6.227   5.569   2.526
 7258SOL     OW22672   3.056   0.528   6.294
 7258SOL    HW122673   2.988   0.474   6.343
 7258SOL    HW222674   3.093   0.598   6.355
 7259SOL     OW22675   3.393   4.323   6.083
 7259SOL    HW122676   3.406   4.398   6.149
 7259SOL    HW222677   3.312   4.342   6.027
 7260SOL     OW22678   4.284   2.288   2.607
 7260SOL    HW122679   4.328   2.203   2.578
 7260SOL    HW222680   4.300   2.359   2.539
 7261SOL     OW22681   2.362   4.760   1.197
 7261SOL    HW122682   2.387   4.735   1.290
 7261SOL    HW222683   2.429   4.825   1.161
 7262SOL     OW22684   5.869   0.519   4.602
 7262SOL    HW122685   5.778   0.478   4.593
 7262SOL    HW222686   5.939   0.449   4.589
 7263SOL     OW22687   5.318   5.191   1.270
 7263SOL    HW122688   5.384   5.249   1.221
 7263SOL    HW222689   5.264   5.140   1.204
 7264SOL     OW22690   0.107   6.871   4.520
 7264SOL    HW122691   0.022   6.844   4.564
 7264SOL    HW222692   0.184   6.854   4.583
 7265SOL     OW22693   4.459   2.742   6.988
 7265SOL    HW122694   4.387   2.681   6.953
 7265SOL    HW222695   4.417   2.823   0.006
 7266SOL     OW22696   4.063   1.513   2.960
 7266SOL    HW122697   4.100   1.538   2.871
 7266SOL    HW222698   4.053   1.596   3.016
 7267SOL     OW22699   4.903   2.133   3.967
 7267SOL    HW122700   4.900   2.069   3.890
 7267SOL    HW222701   4.866   2.089   4.049
 7268SOL     OW22702   4.229   6.450   0.138
 7268SOL    HW122703   4.207   6.547   0.137
 7268SOL    HW222704   4.317   6.436   0.184
 7269SOL     OW22705   1.696   0.009   2.899
 7269SOL    HW122706   1.665   0.048   2.985
 7269SOL    HW222707   1.785   0.049   2.874
 7270SOL     OW22708   3.245   2.432   1.691
 7270SOL    HW122709   3.342   2.452   1.702
 7270SOL    HW222710   3.234   2.336   1.664
 7271SOL     OW22711   5.918   5.545   3.551
 7271SOL    HW122712   5.863   5.469   3.584
 7271SOL    HW222713   5.940   5.607   3.627
 7272SOL     OW22714   5.577   1.356   1.712
 7272SOL    HW122715   5.563   1.308   1.799
 7272SOL    HW222716   5.651   1.422   1.722
 7273SOL     OW22717   6.198   5.362   4.781
 7273SOL    HW122718   6.288   5.361   4.737
 7273SOL    HW222719   6.176   5.270   4.814
 7274SOL     OW22720   5.606   5.075   3.541
 7274SOL    HW122721   5.584   5.108   3.633
 7274SOL    HW222722   5.525   5.034   3.500
 7275SOL     OW22723   6.118   6.822   2.425
 7275SOL    HW122724   6.105   6.740   2.369
 7275SOL    HW222725   6.097   6.903   2.371
 7276SOL     OW22726   4.052   1.779   2.940
 7276SOL    HW122727   3.978   1.845   2.923
 7276SOL    HW222728   4.134   1.807   2.891
 7277SOL     OW22729   5.858   2.567   3.708
 7277SOL    HW122730   5.768   2.602   3.685
 7277SOL    HW222731   5.927   2.637   3.693
 7278SOL     OW22732   3.678   1.146   3.209
 7278SOL    HW122733   3.656   1.190   3.297
 7278SOL    HW222734   3.773   1.115   3.211
 7279SOL     OW22735   3.620   3.603   2.032
 7279SOL    HW122736   3.656   3.615   2.124
 7279SOL    HW222737   3.526   3.569   2.038
 7280SOL     OW22738   6.788   1.588   5.814
 7280SOL    HW122739   6.875   1.550   5.784
 7280SOL    HW222740   6.731   1.515   5.851
 7281SOL     OW22741   3.898   6.569   3.912
 7281SOL    HW122742   3.874   6.544   3.819
 7281SOL    HW222743   3.821   6.616   3.955
 7282SOL     OW22744   0.534   3.899   1.330
 7282SOL    HW122745   0.511   3.899   1.233
 7282SOL    HW222746   0.467   3.954   1.380
 7283SOL     OW22747   2.969   6.249   3.178
 7283SOL    HW122748   2.975   6.349   3.176
 7283SOL    HW222749   3.032   6.211   3.111
 7284SOL     OW22750   0.535   0.330   3.846
 7284SOL    HW122751   0.534   0.421   3.804
 7284SOL    HW222752   0.537   0.260   3.775
 7285SOL     OW22753   4.983   2.513   1.908
 7285SOL    HW122754   5.046   2.442   1.876
 7285SOL    HW222755   4.998   2.597   1.857
 7286SOL     OW22756   6.519   1.087   4.730
 7286SOL    HW122757   6.588   1.132   4.786
 7286SOL    HW222758   6.556   1.071   4.638
 7287SOL     OW22759   3.192   1.728   4.469
 7287SOL    HW122760   3.202   1.767   4.377
 7287SOL    HW222761   3.282   1.716   4.510
 7288SOL     OW22762   2.896   2.094   1.513
 7288SOL    HW122763   2.866   2.176   1.464
 7288SOL    HW222764   2.929   2.026   1.448
 7289SOL     OW22765   6.845   2.430   1.272
 7289SOL    HW122766   6.844   2.347   1.327
 7289SOL    HW222767   6.812   2.507   1.326
 7290SOL     OW22768   3.312   2.031   4.929
 7290SOL    HW122769   3.392   2.052   4.987
 7290SOL    HW222770   3.252   2.111   4.925
 7291SOL     OW22771   0.995   1.011   0.699
 7291SOL    HW122772   1.027   1.082   0.762
 7291SOL    HW222773   1.041   0.925   0.720
 7292SOL     OW22774   3.905   1.376   2.556
 7292SOL    HW122775   3.949   1.332   2.634
 7292SOL    HW222776   3.907   1.314   2.477
 7293SOL     OW22777   6.466   1.176   4.032
 7293SOL    HW122778   6.382   1.121   4.029
 7293SOL    HW222779   6.441   1.273   4.039
 7294SOL     OW22780   2.412   1.297   2.793
 7294SOL    HW122781   2.466   1.360   2.736
 7294SOL    HW222782   2.329   1.270   2.743
 7295SOL     OW22783   5.310   4.275   1.524
 7295SOL    HW122784   5.405   4.273   1.492
 7295SOL    HW222785   5.308   4.300   1.621
 7296SOL     OW22786   3.190   0.227   2.730
 7296SOL    HW122787   3.103   0.271   2.749
 7296SOL    HW222788   3.228   0.190   2.815
 7297SOL     OW22789   4.137   7.000   0.094
 7297SOL    HW122790   4.146   6.903   0.070
 7297SOL    HW222791   4.189   0.035   0.029
 7298SOL     OW22792   3.805   4.491   0.839
 7298SOL    HW122793   3.854   4.530   0.918
 7298SOL    HW222794   3.831   4.396   0.827
 7299SOL     OW22795   6.788   3.310   0.294
 7299SOL    HW122796   6.839   3.379   0.243
 7299SOL    HW222797   6.793   3.223   0.245
 7300SOL     OW22798   0.986   4.307   1.931
 7300SOL    HW122799   1.036   4.227   1.963
 7300SOL    HW222800   0.972   4.299   1.832
 7301SOL     OW22801   3.878   1.976   0.452
 7301SOL    HW122802   3.977   1.972   0.468
 7301SOL    HW222803   3.845   1.884   0.430
 7302SOL     OW22804   5.439   1.946   6.768
 7302SOL    HW122805   5.463   1.875   6.703
 7302SOL    HW222806   5.490   2.030   6.746
 7303SOL     OW22807   3.672   2.361   1.374
 7303SOL    HW122808   3.733   2.282   1.360
 7303SOL    HW222809   3.726   2.439   1.406
 7304SOL     OW22810   2.487   0.098   0.767
 7304SOL    HW122811   2.489   0.182   0.713
 7304SOL    HW222812   2.554   0.104   0.841
 7305SOL     OW22813   6.711   0.244   6.590
 7305SOL    HW122814   6.776   0.290   6.530
 7305SOL    HW222815   6.625   0.295   6.591
 7306SOL     OW22816   1.897   3.510   0.969
 7306SOL    HW122817   1.913   3.535   0.874
 7306SOL    HW222818   1.984   3.497   1.016
 7307SOL     OW22819   4.029   6.654   2.092
 7307SOL    HW122820   3.994   6.562   2.106
 7307SOL    HW222821   4.080   6.683   2.173
 7308SOL     OW22822   3.621   1.855   2.795
 7308SOL    HW122823   3.697   1.919   2.804
 7308SOL    HW222824   3.649   1.765   2.826
 7309SOL     OW22825   2.463   4.896   3.800
 7309SOL    HW122826   2.503   4.983   3.831
 7309SOL    HW222827   2.532   4.846   3.747
 7310SOL     OW22828   4.717   2.940   0.643
 7310SOL    HW122829   4.694   3.027   0.599
 7310SOL    HW222830   4.743   2.956   0.738
 7311SOL     OW22831   1.468   6.366   5.722
 7311SOL    HW122832   1.471   6.465   5.738
 7311SOL    HW222833   1.373   6.335   5.725
 7312SOL     OW22834   5.859   2.023   4.259
 7312SOL    HW122835   5.815   2.012   4.170
 7312SOL    HW222836   5.818   2.100   4.308
 7313SOL     OW22837   3.521   0.798   3.192
 7313SOL    HW122838   3.503   0.893   3.167
 7313SOL    HW222839   3.612   0.772   3.159
 7314SOL     OW22840   2.373   5.449   4.555
 7314SOL    HW122841   2.339   5.440   4.649
 7314SOL    HW222842   2.471   5.429   4.553
 7315SOL     OW22843   2.219   4.790   2.499
 7315SOL    HW122844   2.276   4.869   2.478
 7315SOL    HW222845   2.244   4.755   2.590
 7316SOL     OW22846   3.524   0.940   2.220
 7316SOL    HW122847   3.558   0.866   2.278
 7316SOL    HW222848   3.584   1.019   2.227
 7317SOL     OW22849   6.160   1.688   1.694
 7317SOL    HW122850   6.201   1.774   1.725
 7317SOL    HW222851   6.108   1.647   1.769
 7318SOL     OW22852   4.515   6.283   1.786
 7318SOL    HW122853   4.486   6.275   1.882
 7318SOL    HW222854   4.598   6.229   1.773
 7319SOL     OW22855   4.682   4.992   6.000
 7319SOL    HW122856   4.720   5.051   5.929
 7319SOL    HW222857   4.757   4.952   6.054
 7320SOL     OW22858   1.418   3.186   0.640
 7320SOL    HW122859   1.366   3.113   0.595
 7320SOL    HW222860   1.416   3.268   0.583
 7321SOL     OW22861   2.311   2.113   5.370
 7321SOL    HW122862   2.381   2.177   5.404
 7321SOL    HW222863   2.285   2.138   5.277
 7322SOL     OW22864   2.581   2.024   4.177
 7322SOL    HW122865   2.562   2.105   4.233
 7322SOL    HW222866   2.557   2.043   4.082
 7323SOL     OW22867   2.118   1.710   0.100
 7323SOL    HW122868   2.130   1.646   0.025
 7323SOL    HW222869   2.082   1.661   0.180
 7324SOL     OW22870   5.401   3.804   4.914
 7324SOL    HW122871   5.305   3.793   4.886
 7324SOL    HW222872   5.454   3.726   4.881
 7325SOL     OW22873   3.517   0.495   6.618
 7325SOL    HW122874   3.590   0.459   6.677
 7325SOL    HW222875   3.552   0.572   6.565
 7326SOL     OW22876   3.582   6.512   6.725
 7326SOL    HW122877   3.554   6.568   6.647
 7326SOL    HW222878   3.594   6.570   6.806
 7327SOL     OW22879   1.955   4.435   3.489
 7327SOL    HW122880   1.900   4.476   3.417
 7327SOL    HW222881   1.945   4.336   3.487
 7328SOL     OW22882   4.246   5.578   6.635
 7328SOL    HW122883   4.335   5.575   6.591
 7328SOL    HW222884   4.185   5.638   6.583
 7329SOL     OW22885   2.619   3.958   6.535
 7329SOL    HW122886   2.605   4.038   6.477
 7329SOL    HW222887   2.573   3.879   6.493
 7330SOL     OW22888   2.271   3.628   1.522
 7330SOL    HW122889   2.259   3.718   1.564
 7330SOL    HW222890   2.363   3.594   1.544
 7331SOL     OW22891   5.493   1.604   2.693
 7331SOL    HW122892   5.471   1.666   2.768
 7331SOL    HW222893   5.426   1.615   2.619
 7332SOL     OW22894   1.896   6.947   5.054
 7332SOL    HW122895   1.822   6.970   4.990
 7332SOL    HW222896   1.928   6.854   5.036
 7333SOL     OW22897   6.447   1.750   2.131
 7333SOL    HW122898   6.384   1.688   2.086
 7333SOL    HW222899   6.396   1.819   2.181
 7334SOL     OW22900   1.046   4.968   4.962
 7334SOL    HW122901   1.018   4.876   4.936
 7334SOL    HW222902   1.145   4.976   4.957
 7335SOL     OW22903   6.341   3.178   2.021
 7335SOL    HW122904   6.346   3.186   2.120
 7335SOL    HW222905   6.387   3.094   1.991
 7336SOL     OW22906   2.567   0.405   1.197
 7336SOL    HW122907   2.586   0.480   1.261
 7336SOL    HW222908   2.570   0.439   1.104
 7337SOL     OW22909   3.172   1.724   2.009
 7337SOL    HW122910   3.077   1.753   2.018
 7337SOL    HW222911   3.233   1.800   2.034
 7338SOL     OW22912   5.032   2.871   0.301
 7338SOL    HW122913   4.962   2.816   0.255
 7338SOL    HW222914   5.001   2.965   0.310
 7339SOL     OW22915   0.014   6.988   3.800
 7339SOL    HW122916   7.004   6.963   3.708
 7339SOL    HW222917   6.983   0.046   3.832
 7340SOL     OW22918   2.998   0.233   0.501
 7340SOL    HW122919   2.994   0.313   0.559
 7340SOL    HW222920   2.908   0.218   0.458
 7341SOL     OW22921   6.560   5.150   2.903
 7341SOL    HW122922   6.475   5.202   2.895
 7341SOL    HW222923   6.638   5.213   2.900
 7342SOL     OW22924   0.012   5.013   0.140
 7342SOL    HW122925   0.038   5.077   0.212
 7342SOL    HW222926   0.094   4.975   0.098
 7343SOL     OW22927   0.580   1.635   2.990
 7343SOL    HW122928   0.490   1.592   3.001
 7343SOL    HW222929   0.602   1.642   2.893
 7344SOL     OW22930   1.980   1.797   5.735
 7344SOL    HW122931   2.025   1.708   5.724
 7344SOL    HW222932   2.031   1.852   5.802
 7345SOL     OW22933   1.434   6.774   6.743
 7345SOL    HW122934   1.338   6.755   6.719
 7345SOL    HW222935   1.480   6.688   6.765
 7346SOL     OW22936   3.708   5.575   2.971
 7346SOL    HW122937   3.666   5.485   2.985
 7346SOL    HW222938   3.767   5.597   3.049
 7347SOL     OW22939   5.623   2.946   3.532
 7347SOL    HW122940   5.633   3.032   3.583
 7347SOL    HW222941   5.577   2.965   3.445
 7348SOL     OW22942   5.440   0.115   6.376
 7348SOL    HW122943   5.518   0.163   6.336
 7348SOL    HW222944   5.473   0.056   6.450
 7349SOL     OW22945   3.447   2.180   1.420
 7349SOL    HW122946   3.437   2.151   1.515
 7349SOL    HW222947   3.521   2.247   1.414
 7350SOL     OW22948   1.579   1.743   2.685
 7350SOL    HW122949   1.578   1.661   2.741
 7350SOL    HW222950   1.573   1.824   2.744
 7351SOL     OW22951   6.235   4.696   6.816
 7351SOL    HW122952   6.221   4.744   6.902
 7351SOL    HW222953   6.287   4.612   6.832
 7352SOL     OW22954   6.644   1.516   3.096
 7352SOL    HW122955   6.552   1.532   3.060
 7352SOL    HW222956   6.657   1.570   3.178
 7353SOL     OW22957   5.510   1.687   4.542
 7353SOL    HW122958   5.440   1.634   4.496
 7353SOL    HW222959   5.553   1.632   4.614
 7354SOL     OW22960   5.818   4.424   5.262
 7354SOL    HW122961   5.788   4.372   5.342
 7354SOL    HW222962   5.824   4.362   5.183
 7355SOL     OW22963   0.082   5.691   0.463
 7355SOL    HW122964   0.124   5.620   0.520
 7355SOL    HW222965   0.134   5.776   0.472
 7356SOL     OW22966   0.013   2.133   6.489
 7356SOL    HW122967   6.989   2.169   6.571
 7356SOL    HW222968   0.079   2.199   6.455
 7357SOL     OW22969   0.424   0.916   0.512
 7357SOL    HW122970   0.412   0.910   0.611
 7357SOL    HW222971   0.507   0.968   0.492
 7358SOL     OW22972   3.411   1.396   3.745
 7358SOL    HW122973   3.340   1.328   3.725
 7358SOL    HW222974   3.404   1.425   3.840
 7359SOL     OW22975   3.110   3.696   4.023
 7359SOL    HW122976   3.165   3.738   4.094
 7359SOL    HW222977   3.169   3.640   3.964
 7360SOL     OW22978   1.622   4.312   6.157
 7360SOL    HW122979   1.557   4.388   6.167
 7360SOL    HW222980   1.673   4.323   6.072
 7361SOL     OW22981   4.507   0.255   1.987
 7361SOL    HW122982   4.467   0.329   2.041
 7361SOL    HW222983   4.500   0.277   1.890
 7362SOL     OW22984   1.090   4.980   0.089
 7362SOL    HW122985   1.172   5.030   0.116
 7362SOL    HW222986   1.026   5.043   0.044
 7363SOL     OW22987   4.941   2.107   5.934
 7363SOL    HW122988   4.953   2.049   6.015
 7363SOL    HW222989   4.850   2.149   5.936
 7364SOL     OW22990   5.136   0.084   0.338
 7364SOL    HW122991   5.073   0.115   0.409
 7364SOL    HW222992   5.229   0.109   0.363
 7365SOL     OW22993   5.343   7.000   1.556
 7365SOL    HW122994   5.247   6.989   1.580
 7365SOL    HW222995   5.351   0.018   1.464
 7366SOL     OW22996   2.852   6.921   0.464
 7366SOL    HW122997   2.935   6.943   0.515
 7366SOL    HW222998   2.772   6.953   0.515
 7367SOL     OW22999   4.272   2.985   6.028
 7367SOL    HW123000   4.254   3.005   6.124
 7367SOL    HW223001   4.221   3.049   5.971
 7368SOL     OW23002   3.249   2.960   4.928
 7368SOL    HW123003   3.243   2.892   5.001
 7368SOL    HW223004   3.158   2.977   4.891
 7369SOL     OW23005   6.822   6.852   6.415
 7369SOL    HW123006   6.877   6.785   6.465
 7369SOL    HW223007   6.787   6.811   6.331
 7370SOL     OW23008   0.118   5.738   1.018
 7370SOL    HW123009   0.125   5.659   1.079
 7370SOL    HW223010   0.055   5.717   0.943
 7371SOL     OW23011   2.292   4.666   3.743
 7371SOL    HW123012   2.209   4.716   3.719
 7371SOL    HW223013   2.371   4.727   3.734
 7372SOL     OW23014   2.719   0.380   5.174
 7372SOL    HW123015   2.651   0.338   5.233
 7372SOL    HW223016   2.792   0.419   5.229
 7373SOL     OW23017   3.908   1.724   1.246
 7373SOL    HW123018   3.973   1.787   1.287
 7373SOL    HW223019   3.815   1.757   1.261
 7374SOL     OW23020   2.303   3.784   0.537
 7374SOL    HW123021   2.285   3.686   0.546
 7374SOL    HW223022   2.245   3.822   0.464
 7375SOL     OW23023   2.206   5.536   3.214
 7375SOL    HW123024   2.114   5.520   3.251
 7375SOL    HW223025   2.209   5.505   3.119
 7376SOL     OW23026   3.439   4.342   6.860
 7376SOL    HW123027   3.375   4.385   6.796
 7376SOL    HW223028   3.533   4.359   6.831
 7377SOL     OW23029   5.659   6.074   1.211
 7377SOL    HW123030   5.728   6.085   1.139
 7377SOL    HW223031   5.574   6.040   1.170
 7378SOL     OW23032   1.032   1.641   6.314
 7378SOL    HW123033   1.045   1.543   6.302
 7378SOL    HW223034   1.074   1.670   6.400
 7379SOL     OW23035   4.205   0.623   0.535
 7379SOL    HW123036   4.120   0.673   0.517
 7379SOL    HW223037   4.283   0.683   0.520
 7380SOL     OW23038   0.213   3.372   6.824
 7380SOL    HW123039   0.257   3.435   6.760
 7380SOL    HW223040   0.140   3.421   6.872
 7381SOL     OW23041   5.387   2.446   0.726
 7381SOL    HW123042   5.448   2.507   0.777
 7381SOL    HW223043   5.385   2.356   0.770
 7382SOL     OW23044   0.858   5.138   3.603
 7382SOL    HW123045   0.905   5.069   3.658
 7382SOL    HW223046   0.899   5.141   3.512
 7383SOL     OW23047   1.811   4.500   2.597
 7383SOL    HW123048   1.865   4.438   2.654
 7383SOL    HW223049   1.871   4.571   2.559
 7384SOL     OW23050   5.836   1.415   1.315
 7384SOL    HW123051   5.818   1.471   1.396
 7384SOL    HW223052   5.795   1.325   1.326
 7385SOL     OW23053   5.363   0.214   2.200
 7385SOL    HW123054   5.452   0.244   2.232
 7385SOL    HW223055   5.344   0.256   2.111
 7386SOL     OW23056   6.221   1.734   5.672
 7386SOL    HW123057   6.222   1.825   5.713
 7386SOL    HW223058   6.312   1.693   5.681
 7387SOL     OW23059   4.595   5.686   3.882
 7387SOL    HW123060   4.659   5.760   3.860
 7387SOL    HW223061   4.630   5.635   3.960
 7388SOL     OW23062   5.249   3.560   4.803
 7388SOL    HW123063   5.275   3.505   4.883
 7388SOL    HW223064   5.156   3.594   4.814
 7389SOL     OW23065   2.532   3.283   5.678
 7389SOL    HW123066   2.543   3.349   5.603
 7389SOL    HW223067   2.510   3.193   5.640
 7390SOL     OW23068   4.602   6.683   0.484
 7390SOL    HW123069   4.688   6.733   0.491
 7390SOL    HW223070   4.556   6.683   0.573
 7391SOL     OW23071   6.895   5.227   0.896
 7391SOL    HW123072   6.857   5.318   0.909
 7391SOL    HW223073   6.829   5.159   0.930
 7392SOL     OW23074   1.669   4.560   2.059
 7392SOL    HW123075   1.689   4.510   1.975
 7392SOL    HW223076   1.743   4.624   2.079
 7393SOL     OW23077   1.492   3.947   0.577
 7393SOL    HW123078   1.571   3.943   0.516
 7393SOL    HW223079   1.447   4.035   0.568
 7394SOL     OW23080   2.913   3.825   0.120
 7394SOL    HW123081   2.906   3.812   0.021
 7394SOL    HW223082   3.002   3.792   0.151
 7395SOL     OW23083   2.581   6.887   0.153
 7395SOL    HW123084   2.573   6.847   0.062
 7395SOL    HW223085   2.506   6.951   0.168
 7396SOL     OW23086   6.821   0.021   2.446
 7396SOL    HW123087   6.833   0.035   2.544
 7396SOL    HW223088   6.828   0.109   2.398
 7397SOL     OW23089   5.845   4.209   3.976
 7397SOL    HW123090   5.933   4.191   4.019
 7397SOL    HW223091   5.793   4.124   3.968
 7398SOL     OW23092   4.390   6.249   2.744
 7398SOL    HW123093   4.368   6.270   2.839
 7398SOL    HW223094   4.307   6.226   2.694
 7399SOL     OW23095   5.144   6.146   4.274
 7399SOL    HW123096   5.148   6.066   4.214
 7399SOL    HW223097   5.112   6.119   4.365
 7400SOL     OW23098   2.605   4.444   6.527
 7400SOL    HW123099   2.644   4.382   6.595
 7400SOL    HW223100   2.673   4.511   6.499
 7401SOL     OW23101   6.585   2.830   4.156
 7401SOL    HW123102   6.638   2.913   4.141
 7401SOL    HW223103   6.527   2.813   4.076
 7402SOL     OW23104   2.006   6.179   4.777
 7402SOL    HW123105   2.039   6.128   4.698
 7402SOL    HW223106   2.080   6.189   4.843
 7403SOL     OW23107   2.131   2.795   1.780
 7403SOL    HW123108   2.032   2.785   1.785
 7403SOL    HW223109   2.162   2.777   1.687
 7404SOL     OW23110   1.323   2.965   2.774
 7404SOL    HW123111   1.419   2.981   2.797
 7404SOL    HW223112   1.266   3.000   2.848
 7405SOL     OW23113   3.450   4.987   6.291
 7405SOL    HW123114   3.534   5.040   6.297
 7405SOL    HW223115   3.422   4.979   6.195
 7406SOL     OW23116   6.133   5.999   2.969
 7406SOL    HW123117   6.124   5.900   2.982
 7406SOL    HW223118   6.106   6.023   2.876
 7407SOL     OW23119   3.741   1.614   6.103
 7407SOL    HW123120   3.805   1.629   6.177
 7407SOL    HW223121   3.791   1.592   6.019
 7408SOL     OW23122   0.883   3.570   4.848
 7408SOL    HW123123   0.920   3.477   4.844
 7408SOL    HW223124   0.791   3.568   4.888
 7409SOL     OW23125   2.160   0.303   4.826
 7409SOL    HW123126   2.208   0.218   4.801
 7409SOL    HW223127   2.152   0.361   4.745
 7410SOL     OW23128   4.575   5.784   5.621
 7410SOL    HW123129   4.519   5.829   5.691
 7410SOL    HW223130   4.557   5.826   5.532
 7411SOL     OW23131   6.090   3.665   5.659
 7411SOL    HW123132   6.071   3.658   5.757
 7411SOL    HW223133   6.032   3.736   5.619
 7412SOL     OW23134   1.138   0.544   0.580
 7412SOL    HW123135   1.182   0.465   0.622
 7412SOL    HW223136   1.073   0.584   0.644
 7413SOL     OW23137   6.016   3.992   3.219
 7413SOL    HW123138   6.069   4.055   3.277
 7413SOL    HW223139   6.001   3.906   3.268
 7414SOL     OW23140   0.005   6.049   2.102
 7414SOL    HW123141   6.953   6.031   2.036
 7414SOL    HW223142   0.080   5.984   2.087
 7415SOL     OW23143   2.774   1.625   3.217
 7415SOL    HW123144   2.846   1.561   3.189
 7415SOL    HW223145   2.807   1.682   3.292
 7416SOL     OW23146   6.458   0.525   2.361
 7416SOL    HW123147   6.451   0.459   2.286
 7416SOL    HW223148   6.493   0.479   2.442
 7417SOL     OW23149   0.444   5.374   1.273
 7417SOL    HW123150   0.380   5.383   1.349
 7417SOL    HW223151   0.513   5.446   1.278
 7418SOL     OW23152   2.487   3.747   1.081
 7418SOL    HW123153   2.431   3.683   1.028
 7418SOL    HW223154   2.428   3.796   1.145
 7419SOL     OW23155   6.215   1.989   5.825
 7419SOL    HW123156   6.183   2.050   5.897
 7419SOL    HW223157   6.222   2.040   5.739
 7420SOL     OW23158   0.433   5.840   1.683
 7420SOL    HW123159   0.355   5.839   1.746
 7420SOL    HW223160   0.415   5.776   1.608
 7421SOL     OW23161   4.123   2.250   1.351
 7421SOL    HW123162   4.131   2.317   1.426
 7421SOL    HW223163   4.214   2.216   1.327
 7422SOL     OW23164   1.395   2.292   0.367
 7422SOL    HW123165   1.344   2.242   0.437
 7422SOL    HW223166   1.477   2.240   0.343
 7423SOL     OW23167   3.337   4.403   0.663
 7423SOL    HW123168   3.304   4.448   0.746
 7423SOL    HW223169   3.288   4.439   0.584
 7424SOL     OW23170   5.686   0.020   3.847
 7424SOL    HW123171   5.687   0.037   3.946
 7424SOL    HW223172   5.654   6.948   3.829
 7425SOL     OW23173   3.714   0.510   4.800
 7425SOL    HW123174   3.627   0.537   4.842
 7425SOL    HW223175   3.779   0.487   4.872
 7426SOL     OW23176   0.092   0.379   6.801
 7426SOL    HW123177   0.020   0.313   6.784
 7426SOL    HW223178   0.136   0.404   6.714
 7427SOL     OW23179   5.215   5.393   5.895
 7427SOL    HW123180   5.238   5.445   5.978
 7427SOL    HW223181   5.253   5.301   5.902
 7428SOL     OW23182   5.411   1.625   5.712
 7428SOL    HW123183   5.367   1.709   5.742
 7428SOL    HW223184   5.502   1.646   5.676
 7429SOL     OW23185   5.849   6.168   3.659
 7429SOL    HW123186   5.844   6.267   3.674
 7429SOL    HW223187   5.918   6.148   3.590
 7430SOL     OW23188   0.843   3.911   4.326
 7430SOL    HW123189   0.919   3.909   4.391
 7430SOL    HW223190   0.757   3.914   4.377
 7431SOL     OW23191   0.173   3.729   2.717
 7431SOL    HW123192   0.106   3.795   2.685
 7431SOL    HW223193   0.203   3.753   2.809
 7432SOL     OW23194   2.040   6.073   5.767
 7432SOL    HW123195   2.122   6.044   5.718
 7432SOL    HW223196   1.963   6.077   5.704
 7433SOL     OW23197   0.731   6.899   0.622
 7433SOL    HW123198   0.714   6.945   0.535
 7433SOL    HW223199   0.649   6.847   0.649
 7434SOL     OW23200   4.505   6.856   0.780
 7434SOL    HW123201   4.464   6.923   0.717
 7434SOL    HW223202   4.474   6.764   0.755
 7435SOL     OW23203   0.992   4.794   6.862
 7435SOL    HW123204   0.982   4.850   6.944
 7435SOL    HW223205   0.981   4.852   6.781
 7436SOL     OW23206   5.286   3.696   6.987
 7436SOL    HW123207   5.197   3.656   6.966
 7436SOL    HW223208   5.355   3.624   6.992
 7437SOL     OW23209   6.786   6.554   5.474
 7437SOL    HW123210   6.882   6.531   5.458
 7437SOL    HW223211   6.779   6.649   5.503
 7438SOL     OW23212   6.508   4.419   0.482
 7438SOL    HW123213   6.504   4.366   0.567
 7438SOL    HW223214   6.595   4.401   0.436
 7439SOL     OW23215   1.495   6.269   3.103
 7439SOL    HW123216   1.443   6.354   3.090
 7439SOL    HW223217   1.486   6.212   3.022
 7440SOL     OW23218   1.255   0.941   4.517
 7440SOL    HW123219   1.325   0.939   4.589
 7440SOL    HW223220   1.299   0.938   4.428
 7441SOL     OW23221   6.860   0.516   4.119
 7441SOL    HW123222   6.849   0.452   4.196
 7441SOL    HW223223   6.935   0.485   4.061
 7442SOL     OW23224   1.842   1.184   0.219
 7442SOL    HW123225   1.838   1.195   0.319
 7442SOL    HW223226   1.758   1.138   0.187
 7443SOL     OW23227   6.611   1.667   1.474
 7443SOL    HW123228   6.513   1.664   1.492
 7443SOL    HW223229   6.661   1.658   1.561
 7444SOL     OW23230   1.592   3.059   5.298
 7444SOL    HW123231   1.565   3.085   5.205
 7444SOL    HW223232   1.685   3.023   5.297
 7445SOL     OW23233   5.730   3.079   2.601
 7445SOL    HW123234   5.649   3.028   2.629
 7445SOL    HW223235   5.709   3.176   2.597
 7446SOL     OW23236   4.560   4.321   2.766
 7446SOL    HW123237   4.579   4.260   2.843
 7446SOL    HW223238   4.509   4.401   2.798
 7447SOL     OW23239   1.438   3.371   6.339
 7447SOL    HW123240   1.456   3.391   6.436
 7447SOL    HW223241   1.458   3.452   6.284
 7448SOL     OW23242   0.277   0.849   5.491
 7448SOL    HW123243   0.257   0.753   5.513
 7448SOL    HW223244   0.289   0.900   5.576
 7449SOL     OW23245   3.219   0.969   3.179
 7449SOL    HW123246   3.226   0.870   3.185
 7449SOL    HW223247   3.299   1.006   3.132
 7450SOL     OW23248   4.033   1.704   2.199
 7450SOL    HW123249   4.124   1.666   2.185
 7450SOL    HW223250   3.996   1.735   2.112
 7451SOL     OW23251   0.953   0.598   2.040
 7451SOL    HW123252   0.964   0.653   1.958
 7451SOL    HW223253   0.859   0.606   2.074
 7452SOL     OW23254   2.032   5.759   3.082
 7452SOL    HW123255   2.007   5.721   3.171
 7452SOL    HW223256   2.074   5.688   3.026
 7453SOL     OW23257   6.711   4.576   5.181
 7453SOL    HW123258   6.617   4.544   5.168
 7453SOL    HW223259   6.736   4.566   5.277
 7454SOL     OW23260   2.699   2.111   0.159
 7454SOL    HW123261   2.772   2.175   0.184
 7454SOL    HW223262   2.735   2.040   0.100
 7455SOL     OW23263   5.019   0.127   0.789
 7455SOL    HW123264   5.072   0.171   0.862
 7455SOL    HW223265   4.992   0.036   0.818
 7456SOL     OW23266   1.421   3.443   5.674
 7456SOL    HW123267   1.401   3.472   5.768
 7456SOL    HW223268   1.509   3.396   5.672
 7457SOL     OW23269   0.363   6.552   6.042
 7457SOL    HW123270   0.309   6.605   5.975
 7457SOL    HW223271   0.306   6.532   6.121
 7458SOL     OW23272   2.600   0.252   1.588
 7458SOL    HW123273   2.507   0.289   1.582
 7458SOL    HW223274   2.666   0.323   1.564
 7459SOL     OW23275   3.980   6.137   3.347
 7459SOL    HW123276   4.075   6.127   3.317
 7459SOL    HW223277   3.944   6.047   3.372
 7460SOL     OW23278   0.910   5.229   6.414
 7460SOL    HW123279   0.957   5.317   6.422
 7460SOL    HW223280   0.918   5.195   6.320
 7461SOL     OW23281   3.650   1.623   3.313
 7461SOL    HW123282   3.623   1.650   3.405
 7461SOL    HW223283   3.699   1.536   3.317
 7462SOL     OW23284   1.657   1.885   3.979
 7462SOL    HW123285   1.658   1.955   4.050
 7462SOL    HW223286   1.590   1.815   4.003
 7463SOL     OW23287   3.866   3.849   3.080
 7463SOL    HW123288   3.959   3.813   3.070
 7463SOL    HW223289   3.832   3.827   3.172
 7464SOL     OW23290   4.767   5.806   0.413
 7464SOL    HW123291   4.759   5.708   0.393
 7464SOL    HW223292   4.710   5.828   0.492
 7465SOL     OW23293   3.294   1.538   2.940
 7465SOL    HW123294   3.198   1.509   2.936
 7465SOL    HW223295   3.325   1.565   2.849
 7466SOL     OW23296   0.046   6.548   0.902
 7466SOL    HW123297   0.009   6.638   0.881
 7466SOL    HW223298   0.116   6.524   0.834
 7467SOL     OW23299   4.370   2.375   1.056
 7467SOL    HW123300   4.286   2.326   1.081
 7467SOL    HW223301   4.449   2.325   1.091
 7468SOL     OW23302   4.815   4.634   4.637
 7468SOL    HW123303   4.832   4.725   4.674
 7468SOL    HW223304   4.901   4.585   4.625
 7469SOL     OW23305   5.453   2.224   1.461
 7469SOL    HW123306   5.510   2.176   1.395
 7469SOL    HW223307   5.499   2.224   1.550
 7470SOL     OW23308   0.691   3.560   3.204
 7470SOL    HW123309   0.612   3.552   3.144
 7470SOL    HW223310   0.774   3.570   3.148
 7471SOL     OW23311   6.744   4.258   5.637
 7471SOL    HW123312   6.749   4.222   5.544
 7471SOL    HW223313   6.806   4.206   5.696
 7472SOL     OW23314   4.396   5.374   3.180
 7472SOL    HW123315   4.453   5.452   3.157
 7472SOL    HW223316   4.436   5.290   3.143
 7473SOL     OW23317   1.611   2.482   6.547
 7473SOL    HW123318   1.680   2.467   6.618
 7473SOL    HW223319   1.608   2.404   6.486
 7474SOL     OW23320   2.790   1.155   2.160
 7474SOL    HW123321   2.781   1.094   2.239
 7474SOL    HW223322   2.703   1.201   2.143
 7475SOL     OW23323   4.921   1.099   6.050
 7475SOL    HW123324   4.892   1.011   6.087
 7475SOL    HW223325   4.957   1.086   5.958
 7476SOL     OW23326   1.980   6.399   4.623
 7476SOL    HW123327   1.980   6.318   4.681
 7476SOL    HW223328   1.981   6.373   4.527
 7477SOL     OW23329   4.422   4.639   4.780
 7477SOL    HW123330   4.381   4.587   4.854
 7477SOL    HW223331   4.489   4.703   4.817
 7478SOL     OW23332   0.291   4.478   1.408
 7478SOL    HW123333   0.373   4.509   1.361
 7478SOL    HW223334   0.211   4.526   1.371
 7479SOL     OW23335   3.695   0.388   4.524
 7479SOL    HW123336   3.599   0.375   4.499
 7479SOL    HW223337   3.701   0.454   4.599
 7480SOL     OW23338   5.600   4.974   0.134
 7480SOL    HW123339   5.523   5.001   0.076
 7480SOL    HW223340   5.667   5.048   0.138
 7481SOL     OW23341   5.655   6.034   0.290
 7481SOL    HW123342   5.643   6.093   0.370
 7481SOL    HW223343   5.572   5.981   0.275
 7482SOL     OW23344   4.785   0.162   5.038
 7482SOL    HW123345   4.711   0.190   5.098
 7482SOL    HW223346   4.768   0.070   5.004
 7483SOL     OW23347   3.261   0.053   6.979
 7483SOL    HW123348   3.206   6.992   6.989
 7483SOL    HW223349   3.356   0.033   7.002
 7484SOL     OW23350   3.376   6.499   1.171
 7484SOL    HW123351   3.460   6.482   1.223
 7484SOL    HW223352   3.374   6.594   1.140
 7485SOL     OW23353   0.913   0.086   4.956
 7485SOL    HW123354   0.930   0.149   4.880
 7485SOL    HW223355   0.841   0.125   5.015
 7486SOL     OW23356   1.565   2.137   4.909
 7486SOL    HW123357   1.620   2.071   4.959
 7486SOL    HW223358   1.619   2.219   4.890
 7487SOL     OW23359   2.947   5.771   2.464
 7487SOL    HW123360   3.008   5.806   2.535
 7487SOL    HW223361   3.000   5.734   2.388
 7488SOL     OW23362   4.496   1.811   5.080
 7488SOL    HW123363   4.548   1.845   5.159
 7488SOL    HW223364   4.446   1.887   5.038
 7489SOL     OW23365   0.844   3.374   3.585
 7489SOL    HW123366   0.813   3.289   3.543
 7489SOL    HW223367   0.778   3.403   3.655
 7490SOL     OW23368   5.918   0.287   2.202
 7490SOL    HW123369   5.846   0.313   2.137
 7490SOL    HW223370   5.944   0.367   2.257
 7491SOL     OW23371   0.692   6.923   0.979
 7491SOL    HW123372   0.705   6.860   0.902
 7491SOL    HW223373   0.701   7.017   0.947
 7492SOL     OW23374   1.627   2.288   2.832
 7492SOL    HW123375   1.555   2.262   2.897
 7492SOL    HW223376   1.656   2.382   2.852
 7493SOL     OW23377   5.816   4.169   6.530
 7493SOL    HW123378   5.795   4.170   6.628
 7493SOL    HW223379   5.913   4.186   6.516
 7494SOL     OW23380   4.703   1.939   1.580
 7494SOL    HW123381   4.769   1.976   1.515
 7494SOL    HW223382   4.751   1.897   1.657
 7495SOL     OW23383   1.419   1.541   3.742
 7495SOL    HW123384   1.505   1.522   3.791
 7495SOL    HW223385   1.439   1.563   3.647
 7496SOL     OW23386   0.722   5.094   6.031
 7496SOL    HW123387   0.733   5.128   5.937
 7496SOL    HW223388   0.807   5.110   6.082
 7497SOL     OW23389   0.753   4.872   3.056
 7497SOL    HW123390   0.822   4.880   2.983
 7497SOL    HW223391   0.771   4.941   3.126
 7498SOL     OW23392   5.479   1.833   4.175
 7498SOL    HW123393   5.523   1.800   4.091
 7498SOL    HW223394   5.537   1.812   4.254
 7499SOL     OW23395   3.841   5.313   3.509
 7499SOL    HW123396   3.893   5.395   3.534
 7499SOL    HW223397   3.823   5.315   3.411
 7500SOL     OW23398   4.815   4.055   1.771
 7500SOL    HW123399   4.762   4.127   1.815
 7500SOL    HW223400   4.886   4.022   1.834
 7501SOL     OW23401   1.162   3.998   3.539
 7501SOL    HW123402   1.140   3.904   3.564
 7501SOL    HW223403   1.085   4.037   3.487
 7502SOL     OW23404   1.174   2.038   4.104
 7502SOL    HW123405   1.187   2.130   4.141
 7502SOL    HW223406   1.199   2.038   4.007
 7503SOL     OW23407   2.187   1.953   0.072
 7503SOL    HW123408   2.169   1.855   0.081
 7503SOL    HW223409   2.178   1.996   0.161
 7504SOL     OW23410   5.531   5.807   5.378
 7504SOL    HW123411   5.578   5.733   5.425
 7504SOL    HW223412   5.461   5.769   5.318
 7505SOL     OW23413   1.544   2.076   3.283
 7505SOL    HW123414   1.571   2.172   3.275
 7505SOL    HW223415   1.488   2.063   3.364
 7506SOL     OW23416   4.084   0.507   2.980
 7506SOL    HW123417   4.109   0.419   3.020
 7506SOL    HW223418   3.991   0.502   2.944
 7507SOL     OW23419   1.602   7.009   5.390
 7507SOL    HW123420   1.638   0.007   5.299
 7507SOL    HW223421   1.607   0.071   5.446
 7508SOL     OW23422   5.463   5.973   3.371
 7508SOL    HW123423   5.379   6.022   3.393
 7508SOL    HW223424   5.534   6.038   3.343
 7509SOL     OW23425   3.254   4.346   6.421
 7509SOL    HW123426   3.294   4.258   6.392
 7509SOL    HW223427   3.277   4.416   6.354
 7510SOL     OW23428   3.963   3.265   5.223
 7510SOL    HW123429   3.869   3.228   5.224
 7510SOL    HW223430   3.994   3.272   5.128
 7511SOL     OW23431   1.201   1.107   2.264
 7511SOL    HW123432   1.174   1.012   2.283
 7511SOL    HW223433   1.168   1.166   2.337
 7512SOL     OW23434   2.247   2.620   2.285
 7512SOL    HW123435   2.264   2.614   2.187
 7512SOL    HW223436   2.264   2.713   2.316
 7513SOL     OW23437   2.387   2.947   6.980
 7513SOL    HW123438   2.478   2.966   6.943
 7513SOL    HW223439   2.393   2.933   0.057
 7514SOL     OW23440   2.960   5.052   2.932
 7514SOL    HW123441   2.928   5.075   2.840
 7514SOL    HW223442   3.005   5.132   2.973
 7515SOL     OW23443   0.271   4.870   2.988
 7515SOL    HW123444   0.262   4.846   2.891
 7515SOL    HW223445   0.312   4.794   3.038
 7516SOL     OW23446   2.191   3.402   1.034
 7516SOL    HW123447   2.165   3.311   1.000
 7516SOL    HW223448   2.191   3.401   1.134
 7517SOL     OW23449   1.351   5.069   1.998
 7517SOL    HW123450   1.369   4.971   2.003
 7517SOL    HW223451   1.434   5.120   2.023
 7518SOL     OW23452   5.120   3.964   2.354
 7518SOL    HW123453   5.042   3.902   2.339
 7518SOL    HW223454   5.200   3.910   2.379
 7519SOL     OW23455   1.760   0.414   4.966
 7519SOL    HW123456   1.734   0.510   4.963
 7519SOL    HW223457   1.679   0.358   4.983
 7520SOL     OW23458   1.853   0.217   4.799
 7520SOL    HW123459   1.830   0.295   4.858
 7520SOL    HW223460   1.948   0.190   4.815
 7521SOL     OW23461   4.252   2.687   5.960
 7521SOL    HW123462   4.228   2.784   5.951
 7521SOL    HW223463   4.338   2.669   5.912
 7522SOL     OW23464   2.160   6.595   2.860
 7522SOL    HW123465   2.129   6.625   2.950
 7522SOL    HW223466   2.107   6.641   2.789
 7523SOL     OW23467   6.417   6.741   6.210
 7523SOL    HW123468   6.454   6.653   6.241
 7523SOL    HW223469   6.362   6.727   6.128
 7524SOL     OW23470   6.422   1.396   5.148
 7524SOL    HW123471   6.457   1.412   5.055
 7524SOL    HW223472   6.326   1.372   5.144
 7525SOL     OW23473   0.436   6.988   0.848
 7525SOL    HW123474   0.525   0.013   0.857
 7525SOL    HW223475   0.365   0.036   0.831
 7526SOL     OW23476   3.987   2.985   5.407
 7526SOL    HW123477   4.057   3.040   5.363
 7526SOL    HW223478   3.963   2.908   5.348
 7527SOL     OW23479   2.650   6.298   2.044
 7527SOL    HW123480   2.644   6.198   2.045
 7527SOL    HW223481   2.711   6.327   1.970
 7528SOL     OW23482   6.272   2.899   0.130
 7528SOL    HW123483   6.224   2.981   0.101
 7528SOL    HW223484   6.217   2.818   0.107
 7529SOL     OW23485   1.666   0.029   4.035
 7529SOL    HW123486   1.735   6.997   3.985
 7529SOL    HW223487   1.578   7.002   4.032
 7530SOL     OW23488   0.116   2.907   3.094
 7530SOL    HW123489   0.148   2.983   3.150
 7530SOL    HW223490   0.148   2.821   3.134
 7531SOL     OW23491   1.585   2.409   3.954
 7531SOL    HW123492   1.551   2.324   3.912
 7531SOL    HW223493   1.508   2.458   3.993
 7532SOL     OW23494   4.678   4.350   2.158
 7532SOL    HW123495   4.671   4.317   2.253
 7532SOL    HW223496   4.588   4.346   2.115
 7533SOL     OW23497   3.288   0.775   5.352
 7533SOL    HW123498   3.370   0.721   5.333
 7533SOL    HW223499   3.221   0.760   5.279
 7534SOL     OW23500   4.060   6.163   4.193
 7534SOL    HW123501   4.150   6.150   4.235
 7534SOL    HW223502   3.991   6.115   4.247
 7535SOL     OW23503   2.825   5.428   6.727
 7535SOL    HW123504   2.758   5.495   6.695
 7535SOL    HW223505   2.795   5.393   6.816
 7536SOL     OW23506   4.594   5.048   6.503
 7536SOL    HW123507   4.578   5.046   6.601
 7536SOL    HW223508   4.646   5.130   6.479
 7537SOL     OW23509   2.360   4.514   5.021
 7537SOL    HW123510   2.354   4.415   5.013
 7537SOL    HW223511   2.277   4.556   4.983
 7538SOL     OW23512   3.472   4.344   5.263
 7538SOL    HW123513   3.568   4.372   5.270
 7538SOL    HW223514   3.413   4.423   5.278
 7539SOL     OW23515   0.721   2.545   4.968
 7539SOL    HW123516   0.734   2.555   5.067
 7539SOL    HW223517   0.626   2.520   4.950
 7540SOL     OW23518   2.644   0.707   0.223
 7540SOL    HW123519   2.545   0.715   0.213
 7540SOL    HW223520   2.688   0.790   0.189
 7541SOL     OW23521   0.233   1.986   6.080
 7541SOL    HW123522   0.184   1.906   6.114
 7541SOL    HW223523   0.238   1.983   5.980
 7542SOL     OW23524   1.564   0.259   5.046
 7542SOL    HW123525   1.525   0.281   5.136
 7542SOL    HW223526   1.606   0.169   5.050
 7543SOL     OW23527   2.824   2.578   1.504
 7543SOL    HW123528   2.887   2.585   1.582
 7543SOL    HW223529   2.730   2.573   1.538
 7544SOL     OW23530   1.295   1.913   2.110
 7544SOL    HW123531   1.198   1.897   2.128
 7544SOL    HW223532   1.312   1.910   2.012
 7545SOL     OW23533   4.628   0.274   3.354
 7545SOL    HW123534   4.695   0.257   3.282
 7545SOL    HW223535   4.672   0.261   3.443
 7546SOL     OW23536   5.080   6.925   5.492
 7546SOL    HW123537   5.109   6.996   5.428
 7546SOL    HW223538   4.980   6.918   5.492
 7547SOL     OW23539   2.353   6.680   0.283
 7547SOL    HW123540   2.430   6.729   0.243
 7547SOL    HW223541   2.363   6.674   0.382
 7548SOL     OW23542   2.744   3.887   0.837
 7548SOL    HW123543   2.714   3.911   0.929
 7548SOL    HW223544   2.729   3.790   0.821
 7549SOL     OW23545   6.220   0.252   2.329
 7549SOL    HW123546   6.284   0.238   2.405
 7549SOL    HW223547   6.170   0.337   2.344
 7550SOL     OW23548   1.197   4.870   0.659
 7550SOL    HW123549   1.164   4.916   0.577
 7550SOL    HW223550   1.280   4.818   0.638
 7551SOL     OW23551   4.964   3.755   6.113
 7551SOL    HW123552   4.961   3.659   6.086
 7551SOL    HW223553   4.887   3.804   6.072
 7552SOL     OW23554   3.760   5.717   4.195
 7552SOL    HW123555   3.723   5.654   4.126
 7552SOL    HW223556   3.767   5.670   4.283
 7553SOL     OW23557   4.320   4.099   6.043
 7553SOL    HW123558   4.242   4.114   5.982
 7553SOL    HW223559   4.355   4.006   6.029
 7554SOL     OW23560   0.023   1.687   0.835
 7554SOL    HW123561   6.970   1.750   0.858
 7554SOL    HW223562   0.106   1.714   0.884
 7555SOL     OW23563   2.162   6.450   5.986
 7555SOL    HW123564   2.179   6.375   6.050
 7555SOL    HW223565   2.241   6.512   5.986
 7556SOL     OW23566   0.128   3.463   2.367
 7556SOL    HW123567   0.043   3.514   2.352
 7556SOL    HW223568   0.194   3.520   2.415
 7557SOL     OW23569   4.549   4.030   0.723
 7557SOL    HW123570   4.544   4.130   0.721
 7557SOL    HW223571   4.475   3.994   0.779
 7558SOL     OW23572   1.754   3.190   3.624
 7558SOL    HW123573   1.828   3.128   3.597
 7558SOL    HW223574   1.669   3.139   3.632
 7559SOL     OW23575   0.739   5.140   0.247
 7559SOL    HW123576   0.795   5.144   0.163
 7559SOL    HW223577   0.789   5.089   0.317
 7560SOL     OW23578   4.651   0.125   5.644
 7560SOL    HW123579   4.637   0.031   5.612
 7560SOL    HW223580   4.624   0.132   5.740
 7561SOL     OW23581   1.231   3.095   0.179
 7561SOL    HW123582   1.157   3.116   0.243
 7561SOL    HW223583   1.253   2.997   0.185
 7562SOL     OW23584   4.324   6.084   5.089
 7562SOL    HW123585   4.263   6.163   5.096
 7562SOL    HW223586   4.295   6.013   5.152
 7563SOL     OW23587   1.813   1.464   3.812
 7563SOL    HW123588   1.727   1.476   3.861
 7563SOL    HW223589   1.845   1.553   3.778
 7564SOL     OW23590   6.349   5.772   4.280
 7564SOL    HW123591   6.264   5.823   4.270
 7564SOL    HW223592   6.371   5.762   4.377
 7565SOL     OW23593   5.269   4.683   6.217
 7565SOL    HW123594   5.353   4.707   6.267
 7565SOL    HW223595   5.293   4.623   6.140
 7566SOL     OW23596   1.754   5.290   4.400
 7566SOL    HW123597   1.827   5.269   4.464
 7566SOL    HW223598   1.691   5.212   4.394
 7567SOL     OW23599   2.609   3.370   0.257
 7567SOL    HW123600   2.586   3.451   0.204
 7567SOL    HW223601   2.700   3.382   0.298
 7568SOL     OW23602   4.214   4.783   3.817
 7568SOL    HW123603   4.172   4.797   3.727
 7568SOL    HW223604   4.306   4.823   3.818
 7569SOL     OW23605   4.194   0.742   2.710
 7569SOL    HW123606   4.197   0.761   2.612
 7569SOL    HW223607   4.111   0.691   2.732
 7570SOL     OW23608   5.554   4.786   4.860
 7570SOL    HW123609   5.522   4.824   4.773
 7570SOL    HW223610   5.530   4.849   4.935
 7571SOL     OW23611   6.440   4.132   0.171
 7571SOL    HW123612   6.426   4.051   0.228
 7571SOL    HW223613   6.505   4.193   0.216
 7572SOL     OW23614   6.048   1.780   3.410
 7572SOL    HW123615   6.083   1.870   3.384
 7572SOL    HW223616   6.053   1.719   3.332
 7573SOL     OW23617   3.288   5.141   3.743
 7573SOL    HW123618   3.338   5.063   3.781
 7573SOL    HW223619   3.192   5.115   3.732
 7574SOL     OW23620   4.193   6.130   1.660
 7574SOL    HW123621   4.229   6.049   1.614
 7574SOL    HW223622   4.214   6.124   1.758
 7575SOL     OW23623   4.993   3.149   4.280
 7575SOL    HW123624   5.047   3.067   4.265
 7575SOL    HW223625   5.052   3.224   4.309
 7576SOL     OW23626   0.453   4.341   1.789
 7576SOL    HW123627   0.528   4.367   1.728
 7576SOL    HW223628   0.409   4.423   1.826
 7577SOL     OW23629   4.104   1.434   4.129
 7577SOL    HW123630   4.044   1.498   4.081
 7577SOL    HW223631   4.078   1.430   4.226
 7578SOL     OW23632   2.095   5.509   5.385
 7578SOL    HW123633   2.004   5.490   5.347
 7578SOL    HW223634   2.141   5.423   5.407
 7579SOL     OW23635   4.409   2.023   4.399
 7579SOL    HW123636   4.389   2.076   4.316
 7579SOL    HW223637   4.508   2.023   4.415
 7580SOL     OW23638   2.067   3.184   2.008
 7580SOL    HW123639   2.106   3.276   2.019
 7580SOL    HW223640   2.016   3.180   1.923
 7581SOL     OW23641   5.621   1.197   1.118
 7581SOL    HW123642   5.579   1.288   1.113
 7581SOL    HW223643   5.552   1.130   1.147
 7582SOL     OW23644   4.094   2.769   1.555
 7582SOL    HW123645   4.079   2.747   1.459
 7582SOL    HW223646   4.007   2.765   1.604
 7583SOL     OW23647   6.807   4.039   3.458
 7583SOL    HW123648   6.850   3.990   3.382
 7583SOL    HW223649   6.850   4.128   3.470
 7584SOL     OW23650   1.963   2.419   1.935
 7584SOL    HW123651   1.924   2.400   2.026
 7584SOL    HW223652   1.968   2.517   1.921
 7585SOL     OW23653   2.675   4.160   0.799
 7585SOL    HW123654   2.710   4.113   0.718
 7585SOL    HW223655   2.686   4.100   0.879
 7586SOL     OW23656   1.796   2.465   3.049
 7586SOL    HW123657   1.821   2.374   3.015
 7586SOL    HW223658   1.878   2.522   3.057
 7587SOL     OW23659   2.844   0.966   5.898
 7587SOL    HW123660   2.801   0.883   5.862
 7587SOL    HW223661   2.929   0.942   5.944
 7588SOL     OW23662   0.729   5.020   1.353
 7588SOL    HW123663   0.666   5.016   1.431
 7588SOL    HW223664   0.677   5.038   1.270
 7589SOL     OW23665   4.912   5.963   6.012
 7589SOL    HW123666   4.923   5.922   5.921
 7589SOL    HW223667   4.839   5.916   6.061
 7590SOL     OW23668   2.235   0.766   5.366
 7590SOL    HW123669   2.200   0.751   5.273
 7590SOL    HW223670   2.333   0.785   5.361
 7591SOL     OW23671   6.478   5.628   6.332
 7591SOL    HW123672   6.573   5.658   6.344
 7591SOL    HW223673   6.431   5.690   6.270
 7592SOL     OW23674   4.421   4.864   5.943
 7592SOL    HW123675   4.430   4.781   5.888
 7592SOL    HW223676   4.512   4.906   5.955
 7593SOL     OW23677   6.859   4.642   0.167
 7593SOL    HW123678   6.913   4.581   0.110
 7593SOL    HW223679   6.803   4.588   0.230
 7594SOL     OW23680   0.961   6.765   4.037
 7594SOL    HW123681   0.908   6.726   3.961
 7594SOL    HW223682   1.019   6.694   4.077
 7595SOL     OW23683   0.058   3.705   6.649
 7595SOL    HW123684   6.989   3.667   6.668
 7595SOL    HW223685   0.126   3.632   6.650
 7596SOL     OW23686   4.996   5.601   2.083
 7596SOL    HW123687   5.063   5.636   2.147
 7596SOL    HW223688   5.004   5.501   2.076
 7597SOL     OW23689   2.224   4.311   2.051
 7597SOL    HW123690   2.234   4.303   1.952
 7597SOL    HW223691   2.162   4.240   2.084
 7598SOL     OW23692   6.573   1.395   2.760
 7598SOL    HW123693   6.481   1.433   2.768
 7598SOL    HW223694   6.640   1.466   2.782
 7599SOL     OW23695   5.379   3.733   2.118
 7599SOL    HW123696   5.477   3.751   2.106
 7599SOL    HW223697   5.341   3.697   2.034
 7600SOL     OW23698   2.083   2.195   2.498
 7600SOL    HW123699   2.039   2.225   2.413
 7600SOL    HW223700   2.179   2.174   2.480
 7601SOL     OW23701   2.002   0.973   5.499
 7601SOL    HW123702   1.906   0.956   5.523
 7601SOL    HW223703   2.043   0.888   5.466
 7602SOL     OW23704   1.902   3.016   5.607
 7602SOL    HW123705   1.956   3.095   5.579
 7602SOL    HW223706   1.804   3.040   5.607
 7603SOL     OW23707   6.899   1.692   2.257
 7603SOL    HW123708   6.860   1.610   2.299
 7603SOL    HW223709   6.847   1.717   2.176
 7604SOL     OW23710   5.487   5.758   6.305
 7604SOL    HW123711   5.432   5.686   6.263
 7604SOL    HW223712   5.519   5.821   6.235
 7605SOL     OW23713   5.229   3.535   5.737
 7605SOL    HW123714   5.253   3.442   5.709
 7605SOL    HW223715   5.262   3.552   5.830
 7606SOL     OW23716   5.538   1.272   3.810
 7606SOL    HW123717   5.602   1.219   3.755
 7606SOL    HW223718   5.578   1.362   3.831
 7607SOL     OW23719   4.891   6.223   5.935
 7607SOL    HW123720   4.933   6.235   5.845
 7607SOL    HW223721   4.912   6.132   5.970
 7608SOL     OW23722   3.562   3.759   4.944
 7608SOL    HW123723   3.485   3.805   4.899
 7608SOL    HW223724   3.624   3.827   4.982
 7609SOL     OW23725   1.107   2.837   3.081
 7609SOL    HW123726   1.099   2.904   3.007
 7609SOL    HW223727   1.076   2.748   3.049
 7610SOL     OW23728   5.735   0.524   2.248
 7610SOL    HW123729   5.817   0.575   2.273
 7610SOL    HW223730   5.655   0.581   2.260
 7611SOL     OW23731   1.414   1.384   1.634
 7611SOL    HW123732   1.499   1.410   1.588
 7611SOL    HW223733   1.381   1.298   1.595
 7612SOL     OW23734   4.512   1.114   2.826
 7612SOL    HW123735   4.485   1.154   2.739
 7612SOL    HW223736   4.441   1.050   2.857
 7613SOL     OW23737   6.650   0.668   2.226
 7613SOL    HW123738   6.689   0.618   2.149
 7613SOL    HW223739   6.593   0.606   2.280
 7614SOL     OW23740   4.126   0.689   0.806
 7614SOL    HW123741   4.078   0.774   0.781
 7614SOL    HW223742   4.180   0.658   0.728
 7615SOL     OW23743   3.911   4.807   5.601
 7615SOL    HW123744   3.956   4.730   5.556
 7615SOL    HW223745   3.816   4.784   5.621
 7616SOL     OW23746   0.021   5.994   3.574
 7616SOL    HW123747   0.065   5.934   3.641
 7616SOL    HW223748   7.014   5.941   3.494
 7617SOL     OW23749   3.953   5.716   3.590
 7617SOL    HW123750   3.956   5.688   3.686
 7617SOL    HW223751   3.879   5.782   3.577
 7618SOL     OW23752   3.433   1.663   0.282
 7618SOL    HW123753   3.406   1.682   0.376
 7618SOL    HW223754   3.474   1.572   0.277
 7619SOL     OW23755   5.531   2.990   5.778
 7619SOL    HW123756   5.468   2.919   5.748
 7619SOL    HW223757   5.586   2.956   5.855
 7620SOL     OW23758   2.768   5.390   1.909
 7620SOL    HW123759   2.796   5.442   1.989
 7620SOL    HW223760   2.805   5.297   1.915
 7621SOL     OW23761   2.602   2.838   1.436
 7621SOL    HW123762   2.568   2.745   1.422
 7621SOL    HW223763   2.532   2.904   1.409
 7622SOL     OW23764   5.100   1.910   0.966
 7622SOL    HW123765   5.058   1.822   0.943
 7622SOL    HW223766   5.031   1.972   1.001
 7623SOL     OW23767   6.920   6.831   4.739
 7623SOL    HW123768   6.843   6.800   4.685
 7623SOL    HW223769   6.895   6.915   4.787
 7624SOL     OW23770   6.632   0.900   4.995
 7624SOL    HW123771   6.637   0.904   5.094
 7624SOL    HW223772   6.593   0.812   4.967
 7625SOL     OW23773   2.413   4.718   0.496
 7625SOL    HW123774   2.411   4.646   0.565
 7625SOL    HW223775   2.326   4.767   0.496
 7626SOL     OW23776   2.630   4.130   5.335
 7626SOL    HW123777   2.606   4.220   5.300
 7626SOL    HW223778   2.563   4.063   5.303
 7627SOL     OW23779   6.587   0.424   0.334
 7627SOL    HW123780   6.522   0.412   0.259
 7627SOL    HW223781   6.677   0.390   0.305
 7628SOL     OW23782   4.280   1.420   0.515
 7628SOL    HW123783   4.187   1.449   0.539
 7628SOL    HW223784   4.332   1.401   0.598
 7629SOL     OW23785   6.313   5.702   2.631
 7629SOL    HW123786   6.321   5.797   2.604
 7629SOL    HW223787   6.347   5.691   2.725
 7630SOL     OW23788   5.738   1.602   1.741
 7630SOL    HW123789   5.718   1.684   1.795
 7630SOL    HW223790   5.787   1.629   1.658
 7631SOL     OW23791   1.253   0.149   3.912
 7631SOL    HW123792   1.243   0.243   3.945
 7631SOL    HW223793   1.162   0.108   3.902
 7632SOL     OW23794   4.588   0.965   4.659
 7632SOL    HW123795   4.632   0.876   4.674
 7632SOL    HW223796   4.524   0.983   4.734
 7633SOL     OW23797   6.097   3.474   6.218
 7633SOL    HW123798   6.189   3.506   6.237
 7633SOL    HW223799   6.035   3.507   6.289
 7634SOL     OW23800   1.106   2.507   1.669
 7634SOL    HW123801   1.154   2.577   1.721
 7634SOL    HW223802   1.094   2.426   1.726
 7635SOL     OW23803   2.303   4.505   5.431
 7635SOL    HW123804   2.293   4.584   5.371
 7635SOL    HW223805   2.355   4.532   5.512
 7636SOL     OW23806   0.923   1.026   3.551
 7636SOL    HW123807   0.996   1.082   3.590
 7636SOL    HW223808   0.838   1.078   3.551
 7637SOL     OW23809   3.022   6.146   4.118
 7637SOL    HW123810   2.971   6.106   4.042
 7637SOL    HW223811   3.108   6.185   4.084
 7638SOL     OW23812   4.466   4.830   1.967
 7638SOL    HW123813   4.451   4.731   1.973
 7638SOL    HW223814   4.394   4.877   2.018
 7639SOL     OW23815   0.708   2.250   4.631
 7639SOL    HW123816   0.790   2.285   4.586
 7639SOL    HW223817   0.715   2.151   4.641
 7640SOL     OW23818   1.961   3.001   6.512
 7640SOL    HW123819   2.057   2.977   6.520
 7640SOL    HW223820   1.951   3.084   6.456
 7641SOL     OW23821   6.015   3.660   1.880
 7641SOL    HW123822   5.977   3.607   1.956
 7641SOL    HW223823   6.105   3.624   1.855
 7642SOL     OW23824   1.193   2.458   2.710
 7642SOL    HW123825   1.239   2.380   2.667
 7642SOL    HW223826   1.196   2.537   2.649
 7643SOL     OW23827   5.330   3.801   3.274
 7643SOL    HW123828   5.273   3.818   3.354
 7643SOL    HW223829   5.277   3.815   3.191
 7644SOL     OW23830   6.076   3.082   3.805
 7644SOL    HW123831   6.160   3.136   3.807
 7644SOL    HW223832   6.023   3.106   3.724
 7645SOL     OW23833   4.409   3.063   0.938
 7645SOL    HW123834   4.499   3.104   0.921
 7645SOL    HW223835   4.376   3.020   0.854
 7646SOL     OW23836   0.780   0.286   2.101
 7646SOL    HW123837   0.869   0.328   2.118
 7646SOL    HW223838   0.793   0.198   2.055
 7647SOL     OW23839   2.301   4.496   6.741
 7647SOL    HW123840   2.395   4.526   6.728
 7647SOL    HW223841   2.294   4.398   6.724
 7648SOL     OW23842   2.733   0.455   3.674
 7648SOL    HW123843   2.764   0.390   3.743
 7648SOL    HW223844   2.712   0.406   3.589
 7649SOL     OW23845   3.643   2.025   1.236
 7649SOL    HW123846   3.731   2.072   1.231
 7649SOL    HW223847   3.580   2.065   1.169
 7650SOL     OW23848   6.865   4.934   0.588
 7650SOL    HW123849   6.934   4.906   0.521
 7650SOL    HW223850   6.791   4.982   0.541
 7651SOL     OW23851   5.451   2.024   6.010
 7651SOL    HW123852   5.358   2.054   6.031
 7651SOL    HW223853   5.516   2.085   6.055
 7652SOL     OW23854   0.945   3.299   2.646
 7652SOL    HW123855   1.006   3.354   2.703
 7652SOL    HW223856   0.850   3.320   2.669
 7653SOL     OW23857   4.565   2.508   2.008
 7653SOL    HW123858   4.646   2.537   2.059
 7653SOL    HW223859   4.550   2.569   1.931
 7654SOL     OW23860   5.424   3.723   5.338
 7654SOL    HW123861   5.400   3.734   5.434
 7654SOL    HW223862   5.503   3.661   5.331
 7655SOL     OW23863   5.172   5.103   6.525
 7655SOL    HW123864   5.184   5.142   6.616
 7655SOL    HW223865   5.260   5.073   6.489
 7656SOL     OW23866   0.307   0.779   5.143
 7656SOL    HW123867   0.380   0.835   5.184
 7656SOL    HW223868   0.296   0.696   5.197
 7657SOL     OW23869   3.778   1.765   3.128
 7657SOL    HW123870   3.756   1.723   3.040
 7657SOL    HW223871   3.724   1.721   3.200
 7658SOL     OW23872   4.183   0.821   5.714
 7658SOL    HW123873   4.158   0.901   5.659
 7658SOL    HW223874   4.163   0.840   5.811
 7659SOL     OW23875   5.149   6.434   5.993
 7659SOL    HW123876   5.135   6.488   6.077
 7659SOL    HW223877   5.168   6.339   6.018
 7660SOL     OW23878   5.275   5.274   3.619
 7660SOL    HW123879   5.277   5.365   3.578
 7660SOL    HW223880   5.197   5.266   3.680
 7661SOL     OW23881   6.016   3.230   3.495
 7661SOL    HW123882   6.059   3.317   3.520
 7661SOL    HW223883   5.934   3.248   3.440
 7662SOL     OW23884   6.163   5.585   3.375
 7662SOL    HW123885   6.238   5.533   3.415
 7662SOL    HW223886   6.077   5.558   3.420
 7663SOL     OW23887   1.022   6.282   6.779
 7663SOL    HW123888   1.063   6.202   6.736
 7663SOL    HW223889   1.003   6.352   6.710
 7664SOL     OW23890   4.129   5.353   4.956
 7664SOL    HW123891   4.093   5.260   4.965
 7664SOL    HW223892   4.159   5.385   5.045
 7665SOL     OW23893   2.051   5.269   3.592
 7665SOL    HW123894   2.145   5.297   3.611
 7665SOL    HW223895   1.988   5.340   3.623
 7666SOL     OW23896   2.063   0.412   2.589
 7666SOL    HW123897   2.076   0.384   2.494
 7666SOL    HW223898   1.978   0.373   2.624
 7667SOL     OW23899   5.864   6.981   5.631
 7667SOL    HW123900   5.938   6.936   5.582
 7667SOL    HW223901   5.783   6.922   5.631
 7668SOL     OW23902   3.377   3.236   2.394
 7668SOL    HW123903   3.341   3.209   2.484
 7668SOL    HW223904   3.302   3.240   2.328
 7669SOL     OW23905   4.620   6.679   4.958
 7669SOL    HW123906   4.655   6.631   4.877
 7669SOL    HW223907   4.593   6.611   5.027
 7670SOL     OW23908   1.936   5.777   0.958
 7670SOL    HW123909   2.019   5.726   0.982
 7670SOL    HW223910   1.870   5.714   0.917
 7671SOL     OW23911   4.514   2.531   4.837
 7671SOL    HW123912   4.482   2.514   4.930
 7671SOL    HW223913   4.469   2.469   4.773
 7672SOL     OW23914   5.927   0.031   1.677
 7672SOL    HW123915   5.996   6.980   1.684
 7672SOL    HW223916   5.905   0.065   1.768
 7673SOL     OW23917   1.768   3.498   0.210
 7673SOL    HW123918   1.803   3.515   0.118
 7673SOL    HW223919   1.669   3.491   0.207
 7674SOL     OW23920   5.988   1.304   5.264
 7674SOL    HW123921   6.022   1.250   5.341
 7674SOL    HW223922   6.061   1.314   5.196
 7675SOL     OW23923   5.056   0.463   3.155
 7675SOL    HW123924   5.102   0.397   3.097
 7675SOL    HW223925   5.071   0.555   3.120
 7676SOL     OW23926   2.127   0.240   1.393
 7676SOL    HW123927   2.096   0.272   1.482
 7676SOL    HW223928   2.051   0.195   1.345
 7677SOL     OW23929   1.800   2.775   2.721
 7677SOL    HW123930   1.855   2.693   2.707
 7677SOL    HW223931   1.758   2.771   2.812
 7678SOL     OW23932   4.846   6.678   5.839
 7678SOL    HW123933   4.819   6.763   5.795
 7678SOL    HW223934   4.941   6.685   5.870
 7679SOL     OW23935   1.633   5.010   4.828
 7679SOL    HW123936   1.637   5.035   4.732
 7679SOL    HW223937   1.586   4.923   4.838
 7680SOL     OW23938   4.332   0.309   0.741
 7680SOL    HW123939   4.425   0.296   0.776
 7680SOL    HW223940   4.322   0.402   0.707
 7681SOL     OW23941   3.888   2.170   5.664
 7681SOL    HW123942   3.915   2.081   5.629
 7681SOL    HW223943   3.886   2.167   5.764
 7682SOL     OW23944   2.718   0.650   0.487
 7682SOL    HW123945   2.677   0.651   0.396
 7682SOL    HW223946   2.797   0.711   0.489
 7683SOL     OW23947   6.872   3.283   3.286
 7683SOL    HW123948   6.941   3.285   3.213
 7683SOL    HW223949   6.903   3.340   3.362
 7684SOL     OW23950   3.886   1.537   5.874
 7684SOL    HW123951   3.964   1.576   5.825
 7684SOL    HW223952   3.888   1.437   5.867
 7685SOL     OW23953   4.486   4.457   1.520
 7685SOL    HW123954   4.528   4.496   1.602
 7685SOL    HW223955   4.391   4.431   1.542
 7686SOL     OW23956   2.215   0.678   2.703
 7686SOL    HW123957   2.129   0.648   2.745
 7686SOL    HW223958   2.196   0.746   2.633
 7687SOL     OW23959   4.775   4.139   5.564
 7687SOL    HW123960   4.784   4.193   5.648
 7687SOL    HW223961   4.731   4.052   5.585
 7688SOL     OW23962   6.937   0.893   3.529
 7688SOL    HW123963   6.924   0.811   3.473
 7688SOL    HW223964   6.854   0.948   3.528
 7689SOL     OW23965   3.198   0.159   5.162
 7689SOL    HW123966   3.211   0.223   5.087
 7689SOL    HW223967   3.132   0.197   5.228
 7690SOL     OW23968   0.922   5.364   3.052
 7690SOL    HW123969   0.970   5.447   3.023
 7690SOL    HW223970   0.831   5.362   3.012
 7691SOL     OW23971   6.698   3.849   5.425
 7691SOL    HW123972   6.708   3.856   5.326
 7691SOL    HW223973   6.709   3.939   5.467
 7692SOL     OW23974   1.492   6.140   1.063
 7692SOL    HW123975   1.493   6.116   1.160
 7692SOL    HW223976   1.514   6.059   1.008
 7693SOL     OW23977   4.626   0.769   0.541
 7693SOL    HW123978   4.558   0.782   0.614
 7693SOL    HW223979   4.589   0.705   0.473
 7694SOL     OW23980   5.954   4.779   3.219
 7694SOL    HW123981   5.961   4.815   3.312
 7694SOL    HW223982   5.893   4.700   3.218
 7695SOL     OW23983   5.101   0.299   6.673
 7695SOL    HW123984   5.110   0.253   6.584
 7695SOL    HW223985   5.055   0.387   6.660
 7696SOL     OW23986   1.176   4.140   5.406
 7696SOL    HW123987   1.273   4.159   5.393
 7696SOL    HW223988   1.144   4.187   5.489
 7697SOL     OW23989   4.755   0.592   2.148
 7697SOL    HW123990   4.848   0.576   2.115
 7697SOL    HW223991   4.749   0.682   2.191
 7698SOL     OW23992   0.231   1.713   6.150
 7698SOL    HW123993   0.254   1.639   6.213
 7698SOL    HW223994   0.312   1.735   6.095
 7699SOL     OW23995   3.294   3.365   1.494
 7699SOL    HW123996   3.350   3.404   1.420
 7699SOL    HW223997   3.198   3.385   1.478
 7700SOL     OW23998   5.194   0.383   4.985
 7700SOL    HW123999   5.243   0.296   4.982
 7700SOL    HW224000   5.239   0.445   5.049
 7701SOL     OW24001   6.133   1.914   5.255
 7701SOL    HW124002   6.170   1.844   5.193
 7701SOL    HW224003   6.078   1.869   5.326
 7702SOL     OW24004   1.353   6.372   6.758
 7702SOL    HW124005   1.292   6.450   6.745
 7702SOL    HW224006   1.384   6.339   6.669
 7703SOL     OW24007   0.636   2.227   6.836
 7703SOL    HW124008   0.733   2.206   6.849
 7703SOL    HW224009   0.581   2.173   6.900
 7704SOL     OW24010   3.619   4.050   1.273
 7704SOL    HW124011   3.587   4.063   1.367
 7704SOL    HW224012   3.561   3.982   1.227
 7705SOL     OW24013   4.059   3.800   4.270
 7705SOL    HW124014   4.004   3.880   4.293
 7705SOL    HW224015   4.084   3.804   4.173
 7706SOL     OW24016   6.008   1.305   5.779
 7706SOL    HW124017   6.020   1.397   5.816
 7706SOL    HW224018   5.918   1.269   5.806
 7707SOL     OW24019   0.053   4.983   6.439
 7707SOL    HW124020   0.010   4.893   6.449
 7707SOL    HW224021   0.148   4.970   6.411
 7708SOL     OW24022   4.741   1.151   5.049
 7708SOL    HW124023   4.697   1.238   5.027
 7708SOL    HW224024   4.776   1.153   5.142
 7709SOL     OW24025   3.716   2.578   1.133
 7709SOL    HW124026   3.745   2.491   1.173
 7709SOL    HW224027   3.738   2.580   1.035
 7710SOL     OW24028   3.410   2.081   6.644
 7710SOL    HW124029   3.416   2.038   6.734
 7710SOL    HW224030   3.369   2.017   6.579
 7711SOL     OW24031   4.342   6.084   4.801
 7711SOL    HW124032   4.321   6.179   4.777
 7711SOL    HW224033   4.349   6.075   4.900
 7712SOL     OW24034   6.102   4.086   6.044
 7712SOL    HW124035   6.190   4.061   6.004
 7712SOL    HW224036   6.116   4.118   6.138
 7713SOL     OW24037   0.424   5.379   6.485
 7713SOL    HW124038   0.426   5.359   6.387
 7713SOL    HW224039   0.330   5.392   6.515
 7714SOL     OW24040   5.288   4.605   4.762
 7714SOL    HW124041   5.338   4.564   4.838
 7714SOL    HW224042   5.352   4.627   4.688
 7715SOL     OW24043   3.749   2.105   1.571
 7715SOL    HW124044   3.784   2.143   1.656
 7715SOL    HW224045   3.650   2.091   1.578
 7716SOL     OW24046   4.142   2.247   4.508
 7716SOL    HW124047   4.066   2.197   4.549
 7716SOL    HW224048   4.161   2.211   4.417
 7717SOL     OW24049   2.758   6.942   6.806
 7717SOL    HW124050   2.791   6.971   6.717
 7717SOL    HW224051   2.774   6.843   6.817
 7718SOL     OW24052   1.939   6.350   3.511
 7718SOL    HW124053   2.035   6.358   3.536
 7718SOL    HW224054   1.887   6.315   3.590
 7719SOL     OW24055   5.584   2.266   5.478
 7719SOL    HW124056   5.519   2.317   5.422
 7719SOL    HW224057   5.648   2.331   5.521
 7720SOL     OW24058   4.975   6.554   1.364
 7720SOL    HW124059   5.021   6.501   1.435
 7720SOL    HW224060   4.926   6.492   1.302
 7721SOL     OW24061   0.781   5.209   2.856
 7721SOL    HW124062   0.851   5.261   2.807
 7721SOL    HW224063   0.826   5.143   2.917
 7722SOL     OW24064   0.750   5.920   3.774
 7722SOL    HW124065   0.809   6.000   3.761
 7722SOL    HW224066   0.655   5.946   3.755
 7723SOL     OW24067   6.703   1.992   6.574
 7723SOL    HW124068   6.621   1.964   6.624
 7723SOL    HW224069   6.784   1.957   6.621
 7724SOL     OW24070   2.329   6.194   6.464
 7724SOL    HW124071   2.298   6.267   6.524
 7724SOL    HW224072   2.400   6.141   6.509
 7725SOL     OW24073   5.035   4.103   3.905
 7725SOL    HW124074   5.078   4.047   3.835
 7725SOL    HW224075   5.083   4.191   3.912
 7726SOL     OW24076   5.265   5.522   3.481
 7726SOL    HW124077   5.297   5.565   3.397
 7726SOL    HW224078   5.170   5.493   3.470
 7727SOL     OW24079   6.111   3.941   1.839
 7727SOL    HW124080   6.210   3.928   1.845
 7727SOL    HW224081   6.064   3.854   1.853
 7728SOL     OW24082   2.003   2.945   3.082
 7728SOL    HW124083   2.094   2.903   3.088
 7728SOL    HW224084   1.935   2.876   3.061
 7729SOL     OW24085   5.479   1.722   6.356
 7729SOL    HW124086   5.568   1.767   6.364
 7729SOL    HW224087   5.452   1.719   6.260
 7730SOL     OW24088   4.675   6.659   2.610
 7730SOL    HW124089   4.756   6.709   2.578
 7730SOL    HW224090   4.611   6.722   2.653
 7731SOL     OW24091   6.191   1.508   3.751
 7731SOL    HW124092   6.164   1.599   3.719
 7731SOL    HW224093   6.130   1.479   3.824
 7732SOL     OW24094   4.763   4.449   0.913
 7732SOL    HW124095   4.759   4.479   1.009
 7732SOL    HW224096   4.681   4.480   0.865
 7733SOL     OW24097   3.582   5.414   0.877
 7733SOL    HW124098   3.537   5.361   0.805
 7733SOL    HW224099   3.532   5.500   0.892
 7734SOL     OW24100   1.385   2.847   2.064
 7734SOL    HW124101   1.359   2.791   2.143
 7734SOL    HW224102   1.381   2.943   2.089
 7735SOL     OW24103   5.805   4.309   0.565
 7735SOL    HW124104   5.790   4.392   0.619
 7735SOL    HW224105   5.858   4.243   0.619
 7736SOL     OW24106   5.937   4.434   6.422
 7736SOL    HW124107   5.845   4.460   6.452
 7736SOL    HW224108   5.929   4.361   6.353
 7737SOL     OW24109   4.774   2.792   0.167
 7737SOL    HW124110   4.734   2.777   0.076
 7737SOL    HW224111   4.718   2.857   0.218
 7738SOL     OW24112   1.871   5.044   6.696
 7738SOL    HW124113   1.897   5.093   6.612
 7738SOL    HW224114   1.940   5.060   6.766
 7739SOL     OW24115   5.502   4.782   2.204
 7739SOL    HW124116   5.524   4.814   2.297
 7739SOL    HW224117   5.570   4.818   2.140
 7740SOL     OW24118   6.750   6.059   3.571
 7740SOL    HW124119   6.846   6.086   3.559
 7740SOL    HW224120   6.714   6.025   3.484
 7741SOL     OW24121   3.075   5.474   3.519
 7741SOL    HW124122   3.072   5.519   3.608
 7741SOL    HW224123   2.984   5.477   3.477
 7742SOL     OW24124   6.659   0.698   4.568
 7742SOL    HW124125   6.635   0.712   4.472
 7742SOL    HW224126   6.742   0.749   4.589
 7743SOL     OW24127   4.894   3.369   2.425
 7743SOL    HW124128   4.869   3.281   2.385
 7743SOL    HW224129   4.989   3.366   2.457
 7744SOL     OW24130   0.331   6.587   4.899
 7744SOL    HW124131   0.238   6.623   4.905
 7744SOL    HW224132   0.332   6.493   4.933
 7745SOL     OW24133   5.532   2.854   5.444
 7745SOL    HW124134   5.521   2.774   5.386
 7745SOL    HW224135   5.469   2.926   5.414
 7746SOL     OW24136   1.943   0.894   6.227
 7746SOL    HW124137   1.916   0.909   6.322
 7746SOL    HW224138   2.029   0.842   6.224
 7747SOL     OW24139   4.696   5.529   0.289
 7747SOL    HW124140   4.750   5.534   0.205
 7747SOL    HW224141   4.721   5.447   0.340
 7748SOL     OW24142   1.937   3.995   6.777
 7748SOL    HW124143   1.938   3.907   6.730
 7748SOL    HW224144   1.921   3.981   6.874
 7749SOL     OW24145   5.749   3.042   6.218
 7749SOL    HW124146   5.824   3.000   6.269
 7749SOL    HW224147   5.774   3.135   6.192
 7750SOL     OW24148   4.227   5.529   3.020
 7750SOL    HW124149   4.258   5.475   2.942
 7750SOL    HW224150   4.267   5.493   3.104
 7751SOL     OW24151   0.752   2.477   1.151
 7751SOL    HW124152   0.847   2.479   1.120
 7751SOL    HW224153   0.694   2.445   1.076
 7752SOL     OW24154   3.237   0.752   2.729
 7752SOL    HW124155   3.300   0.826   2.754
 7752SOL    HW224156   3.288   0.670   2.708
 7753SOL     OW24157   4.267   0.490   5.781
 7753SOL    HW124158   4.257   0.429   5.703
 7753SOL    HW224159   4.248   0.584   5.752
 7754SOL     OW24160   4.445   6.033   1.486
 7754SOL    HW124161   4.394   5.948   1.498
 7754SOL    HW224162   4.514   6.041   1.557
 7755SOL     OW24163   0.866   3.960   6.340
 7755SOL    HW124164   0.923   3.878   6.334
 7755SOL    HW224165   0.824   3.978   6.251
 7756SOL     OW24166   1.964   3.937   2.349
 7756SOL    HW124167   1.985   3.999   2.425
 7756SOL    HW224168   1.911   3.859   2.383
 7757SOL     OW24169   1.076   4.477   0.130
 7757SOL    HW124170   1.090   4.521   0.219
 7757SOL    HW224171   1.125   4.528   0.060
 7758SOL     OW24172   0.592   1.127   5.509
 7758SOL    HW124173   0.578   1.224   5.526
 7758SOL    HW224174   0.588   1.077   5.596
 7759SOL     OW24175   3.620   1.212   2.378
 7759SOL    HW124176   3.668   1.235   2.294
 7759SOL    HW224177   3.629   1.286   2.444
 7760SOL     OW24178   4.667   3.124   0.225
 7760SOL    HW124179   4.606   3.052   0.256
 7760SOL    HW224180   4.755   3.115   0.271
 7761SOL     OW24181   5.363   5.444   2.835
 7761SOL    HW124182   5.367   5.520   2.899
 7761SOL    HW224183   5.317   5.366   2.878
 7762SOL     OW24184   4.465   1.642   0.593
 7762SOL    HW124185   4.392   1.624   0.527
 7762SOL    HW224186   4.540   1.577   0.579
 7763SOL     OW24187   1.637   0.534   3.400
 7763SOL    HW124188   1.565   0.601   3.417
 7763SOL    HW224189   1.620   0.489   3.312
 7764SOL     OW24190   3.876   4.630   5.274
 7764SOL    HW124191   3.777   4.633   5.282
 7764SOL    HW224192   3.910   4.541   5.307
 7765SOL     OW24193   6.561   4.141   4.464
 7765SOL    HW124194   6.482   4.091   4.500
 7765SOL    HW224195   6.533   4.193   4.383
 7766SOL     OW24196   6.729   2.053   5.771
 7766SOL    HW124197   6.746   1.966   5.725
 7766SOL    HW224198   6.696   2.120   5.704
 7767SOL     OW24199   4.482   0.404   3.709
 7767SOL    HW124200   4.488   0.314   3.667
 7767SOL    HW224201   4.413   0.459   3.662
 7768SOL     OW24202   3.532   5.854   3.414
 7768SOL    HW124203   3.461   5.922   3.434
 7768SOL    HW224204   3.564   5.867   3.320
 7769SOL     OW24205   3.696   2.042   6.680
 7769SOL    HW124206   3.714   2.140   6.666
 7769SOL    HW224207   3.597   2.027   6.681
 7770SOL     OW24208   1.170   2.985   3.720
 7770SOL    HW124209   1.132   3.071   3.687
 7770SOL    HW224210   1.267   2.999   3.742
 7771SOL     OW24211   1.167   3.988   4.829
 7771SOL    HW124212   1.256   3.969   4.871
 7771SOL    HW224213   1.103   3.915   4.853
 7772SOL     OW24214   5.084   5.673   1.813
 7772SOL    HW124215   5.052   5.638   1.901
 7772SOL    HW224216   5.127   5.600   1.761
 7773SOL     OW24217   2.711   6.457   6.683
 7773SOL    HW124218   2.802   6.483   6.650
 7773SOL    HW224219   2.661   6.412   6.609
 7774SOL     OW24220   5.015   1.311   2.660
 7774SOL    HW124221   4.952   1.236   2.682
 7774SOL    HW224222   5.092   1.275   2.608
 7775SOL     OW24223   3.641   1.764   1.283
 7775SOL    HW124224   3.619   1.862   1.280
 7775SOL    HW224225   3.590   1.717   1.211
 7776SOL     OW24226   2.674   1.340   3.829
 7776SOL    HW124227   2.702   1.254   3.874
 7776SOL    HW224228   2.752   1.377   3.778
 7777SOL     OW24229   5.135   5.187   3.305
 7777SOL    HW124230   5.151   5.279   3.341
 7777SOL    HW224231   5.222   5.148   3.274
 7778SOL     OW24232   1.125   3.050   1.542
 7778SOL    HW124233   1.047   3.053   1.480
 7778SOL    HW224234   1.191   3.121   1.515
 7779SOL     OW24235   2.715   0.639   3.468
 7779SOL    HW124236   2.729   0.579   3.547
 7779SOL    HW224237   2.804   0.669   3.432
 7780SOL     OW24238   6.536   5.596   4.108
 7780SOL    HW124239   6.542   5.631   4.015
 7780SOL    HW224240   6.465   5.646   4.158
 7781SOL     OW24241   3.090   3.113   1.263
 7781SOL    HW124242   3.028   3.040   1.236
 7781SOL    HW224243   3.120   3.099   1.357
 7782SOL     OW24244   5.334   5.006   3.641
 7782SOL    HW124245   5.265   4.937   3.620
 7782SOL    HW224246   5.297   5.097   3.626
 7783SOL     OW24247   0.614   6.301   3.886
 7783SOL    HW124248   0.536   6.359   3.908
 7783SOL    HW224249   0.665   6.342   3.810
 7784SOL     OW24250   1.097   2.955   2.390
 7784SOL    HW124251   1.171   2.903   2.347
 7784SOL    HW224252   1.133   3.010   2.465
 7785SOL     OW24253   6.016   6.695   2.659
 7785SOL    HW124254   5.975   6.637   2.589
 7785SOL    HW224255   6.070   6.766   2.615
 7786SOL     OW24256   5.546   1.090   6.803
 7786SOL    HW124257   5.554   1.066   6.706
 7786SOL    HW224258   5.461   1.053   6.840
 7787SOL     OW24259   0.989   2.346   1.127
 7787SOL    HW124260   1.030   2.402   1.200
 7787SOL    HW224261   1.028   2.373   1.039
 7788SOL     OW24262   1.098   4.098   2.116
 7788SOL    HW124263   1.131   4.077   2.024
 7788SOL    HW224264   1.096   4.014   2.170
 7789SOL     OW24265   3.674   0.154   6.243
 7789SOL    HW124266   3.633   0.206   6.319
 7789SOL    HW224267   3.694   0.216   6.167
 7790SOL     OW24268   4.015   5.268   4.330
 7790SOL    HW124269   4.089   5.206   4.305
 7790SOL    HW224270   3.994   5.327   4.253
 7791SOL     OW24271   2.250   6.584   1.332
 7791SOL    HW124272   2.312   6.509   1.353
 7791SOL    HW224273   2.294   6.645   1.265
 7792SOL     OW24274   1.447   1.245   2.187
 7792SOL    HW124275   1.394   1.320   2.227
 7792SOL    HW224276   1.404   1.158   2.208
 7793SOL     OW24277   5.517   1.527   0.638
 7793SOL    HW124278   5.469   1.468   0.702
 7793SOL    HW224279   5.461   1.608   0.618
 7794SOL     OW24280   1.396   1.314   2.767
 7794SOL    HW124281   1.318   1.375   2.756
 7794SOL    HW224282   1.382   1.231   2.713
 7795SOL     OW24283   4.499   3.742   1.256
 7795SOL    HW124284   4.567   3.676   1.287
 7795SOL    HW224285   4.411   3.696   1.244
 7796SOL     OW24286   4.081   1.446   0.925
 7796SOL    HW124287   4.088   1.472   1.021
 7796SOL    HW224288   4.118   1.519   0.867
 7797SOL     OW24289   1.446   6.108   3.342
 7797SOL    HW124290   1.538   6.082   3.372
 7797SOL    HW224291   1.452   6.182   3.276
 7798SOL     OW24292   1.798   3.237   0.877
 7798SOL    HW124293   1.718   3.252   0.820
 7798SOL    HW224294   1.815   3.318   0.933
 7799SOL     OW24295   1.957   6.081   4.155
 7799SOL    HW124296   1.993   5.992   4.126
 7799SOL    HW224297   1.926   6.075   4.250
 7800SOL     OW24298   0.550   0.635   2.465
 7800SOL    HW124299   0.638   0.593   2.488
 7800SOL    HW224300   0.481   0.605   2.531
 7801SOL     OW24301   2.467   2.145   0.640
 7801SOL    HW124302   2.510   2.064   0.600
 7801SOL    HW224303   2.385   2.118   0.690
 7802SOL     OW24304   6.733   5.007   3.725
 7802SOL    HW124305   6.769   4.946   3.655
 7802SOL    HW224306   6.754   5.102   3.701
 7803SOL     OW24307   3.308   2.397   6.336
 7803SOL    HW124308   3.382   2.453   6.301
 7803SOL    HW224309   3.339   2.346   6.416
 7804SOL     OW24310   2.955   1.147   5.728
 7804SOL    HW124311   2.936   1.147   5.630
 7804SOL    HW224312   2.903   1.073   5.772
 7805SOL     OW24313   6.446   1.794   6.662
 7805SOL    HW124314   6.484   1.724   6.723
 7805SOL    HW224315   6.453   1.762   6.568
 7806SOL     OW24316   6.257   2.462   4.914
 7806SOL    HW124317   6.168   2.485   4.872
 7806SOL    HW224318   6.308   2.546   4.932
 7807SOL     OW24319   1.859   5.734   5.273
 7807SOL    HW124320   1.922   5.777   5.338
 7807SOL    HW224321   1.912   5.682   5.206
 7808SOL     OW24322   7.015   2.930   4.256
 7808SOL    HW124323   7.017   2.892   4.349
 7808SOL    HW224324   0.060   2.882   4.199
 7809SOL     OW24325   3.226   0.700   3.196
 7809SOL    HW124326   3.317   0.705   3.157
 7809SOL    HW224327   3.206   0.605   3.223
 7810SOL     OW24328   2.700   6.661   6.010
 7810SOL    HW124329   2.700   6.565   5.981
 7810SOL    HW224330   2.637   6.713   5.952
 7811SOL     OW24331   1.531   5.127   3.021
 7811SOL    HW124332   1.445   5.113   3.072
 7811SOL    HW224333   1.511   5.169   2.933
 7812SOL     OW24334   3.085   0.694   5.966
 7812SOL    HW124335   2.993   0.692   6.006
 7812SOL    HW224336   3.124   0.602   5.969
 7813SOL     OW24337   5.707   1.210   0.445
 7813SOL    HW124338   5.640   1.193   0.518
 7813SOL    HW224339   5.694   1.143   0.372
 7814SOL     OW24340   0.226   2.497   1.466
 7814SOL    HW124341   0.170   2.453   1.396
 7814SOL    HW224342   0.282   2.429   1.512
 7815SOL     OW24343   4.813   6.126   3.214
 7815SOL    HW124344   4.771   6.203   3.165
 7815SOL    HW224345   4.892   6.160   3.265
 7816SOL     OW24346   1.568   1.756   5.671
 7816SOL    HW124347   1.469   1.745   5.661
 7816SOL    HW224348   1.587   1.818   5.748
 7817SOL     OW24349   4.661   0.969   5.628
 7817SOL    HW124350   4.606   1.029   5.570
 7817SOL    HW224351   4.741   0.938   5.577
 7818SOL     OW24352   4.810   0.618   2.597
 7818SOL    HW124353   4.711   0.629   2.606
 7818SOL    HW224354   4.848   0.699   2.552
 7819SOL     OW24355   2.603   2.359   4.615
 7819SOL    HW124356   2.601   2.418   4.696
 7819SOL    HW224357   2.513   2.357   4.572
 7820SOL     OW24358   1.810   0.453   6.266
 7820SOL    HW124359   1.717   0.470   6.299
 7820SOL    HW224360   1.873   0.445   6.344
 7821SOL     OW24361   3.764   5.897   6.609
 7821SOL    HW124362   3.714   5.980   6.583
 7821SOL    HW224363   3.743   5.824   6.544
 7822SOL     OW24364   0.709   1.211   4.682
 7822SOL    HW124365   0.774   1.274   4.639
 7822SOL    HW224366   0.715   1.221   4.781
 7823SOL     OW24367   2.322   2.605   5.767
 7823SOL    HW124368   2.288   2.534   5.706
 7823SOL    HW224369   2.337   2.690   5.716
 7824SOL     OW24370   6.139   3.889   2.492
 7824SOL    HW124371   6.061   3.952   2.494
 7824SOL    HW224372   6.198   3.911   2.415
 7825SOL     OW24373   3.596   2.901   3.977
 7825SOL    HW124374   3.528   2.929   4.045
 7825SOL    HW224375   3.562   2.821   3.927
 7826SOL     OW24376   6.179   6.481   1.044
 7826SOL    HW124377   6.105   6.534   1.002
 7826SOL    HW224378   6.141   6.406   1.098
 7827SOL     OW24379   5.046   3.834   0.542
 7827SOL    HW124380   5.129   3.825   0.597
 7827SOL    HW224381   4.966   3.814   0.598
 7828SOL     OW24382   0.803   6.226   0.209
 7828SOL    HW124383   0.863   6.146   0.203
 7828SOL    HW224384   0.857   6.310   0.202
 7829SOL     OW24385   3.280   3.997   3.188
 7829SOL    HW124386   3.244   4.011   3.096
 7829SOL    HW224387   3.379   3.985   3.184
 7830SOL     OW24388   0.201   4.525   6.870
 7830SOL    HW124389   0.106   4.553   6.889
 7830SOL    HW224390   0.250   4.601   6.829
 7831SOL     OW24391   3.077   2.707   6.973
 7831SOL    HW124392   3.096   2.666   6.884
 7831SOL    HW224393   3.150   2.683   0.016
 7832SOL     OW24394   3.658   2.603   5.671
 7832SOL    HW124395   3.695   2.543   5.741
 7832SOL    HW224396   3.562   2.582   5.655
 7833SOL     OW24397   6.428   0.117   1.385
 7833SOL    HW124398   6.413   0.022   1.411
 7833SOL    HW224399   6.432   0.174   1.467
 7834SOL     OW24400   5.110   1.101   1.333
 7834SOL    HW124401   5.058   1.137   1.409
 7834SOL    HW224402   5.140   1.007   1.354
 7835SOL     OW24403   2.516   2.620   4.035
 7835SOL    HW124404   2.447   2.563   3.991
 7835SOL    HW224405   2.582   2.561   4.083
 7836SOL     OW24406   2.404   0.684   6.908
 7836SOL    HW124407   2.467   0.607   6.922
 7836SOL    HW224408   2.380   0.690   6.811
 7837SOL     OW24409   5.766   6.447   2.169
 7837SOL    HW124410   5.695   6.495   2.219
 7837SOL    HW224411   5.735   6.355   2.146
 7838SOL     OW24412   3.443   5.633   3.895
 7838SOL    HW124413   3.425   5.680   3.809
 7838SOL    HW224414   3.357   5.614   3.942
 7839SOL     OW24415   6.878   5.689   3.030
 7839SOL    HW124416   6.850   5.772   2.983
 7839SOL    HW224417   6.824   5.677   3.113
 7840SOL     OW24418   4.276   2.602   6.227
 7840SOL    HW124419   4.374   2.604   6.211
 7840SOL    HW224420   4.228   2.633   6.145
 7841SOL     OW24421   1.169   2.191   6.098
 7841SOL    HW124422   1.124   2.104   6.119
 7841SOL    HW224423   1.115   2.241   6.031
 7842SOL     OW24424   1.909   1.249   2.387
 7842SOL    HW124425   1.901   1.154   2.416
 7842SOL    HW224426   1.830   1.300   2.421
 7843SOL     OW24427   0.137   2.197   1.674
 7843SOL    HW124428   0.214   2.205   1.610
 7843SOL    HW224429   0.149   2.263   1.748
 7844SOL     OW24430   3.244   1.917   3.198
 7844SOL    HW124431   3.297   1.894   3.116
 7844SOL    HW224432   3.233   1.836   3.255
 7845SOL     OW24433   1.138   1.006   4.106
 7845SOL    HW124434   1.113   0.934   4.172
 7845SOL    HW224435   1.237   1.007   4.093
 7846SOL     OW24436   4.933   6.803   2.576
 7846SOL    HW124437   4.960   6.725   2.632
 7846SOL    HW224438   4.978   6.886   2.608
 7847SOL     OW24439   0.278   6.557   6.418
 7847SOL    HW124440   0.220   6.542   6.499
 7847SOL    HW224441   0.244   6.502   6.342
 7848SOL     OW24442   4.377   3.902   1.600
 7848SOL    HW124443   4.379   3.874   1.504
 7848SOL    HW224444   4.407   3.998   1.607
 7849SOL     OW24445   5.643   4.241   4.996
 7849SOL    HW124446   5.640   4.173   5.069
 7849SOL    HW224447   5.701   4.207   4.922
 7850SOL     OW24448   1.289   2.795   5.000
 7850SOL    HW124449   1.289   2.695   5.007
 7850SOL    HW224450   1.280   2.834   5.091
 7851SOL     OW24451   3.036   6.652   0.606
 7851SOL    HW124452   3.077   6.633   0.696
 7851SOL    HW224453   3.051   6.748   0.582
 7852SOL     OW24454   2.391   6.605   0.810
 7852SOL    HW124455   2.317   6.540   0.821
 7852SOL    HW224456   2.472   6.572   0.857
 7853SOL     OW24457   1.981   1.423   0.088
 7853SOL    HW124458   1.890   1.384   0.074
 7853SOL    HW224459   2.020   1.447   7.020
 7854SOL     OW24460   3.882   4.005   4.311
 7854SOL    HW124461   3.796   4.025   4.357
 7854SOL    HW224462   3.877   4.033   4.215
 7855SOL     OW24463   2.930   6.960   4.663
 7855SOL    HW124464   2.900   0.017   4.608
 7855SOL    HW224465   3.030   6.958   4.666
 7856SOL     OW24466   2.902   3.244   6.303
 7856SOL    HW124467   2.867   3.231   6.396
 7856SOL    HW224468   2.825   3.246   6.239
 7857SOL     OW24469   0.093   2.754   4.882
 7857SOL    HW124470   0.179   2.791   4.847
 7857SOL    HW224471   0.102   2.734   4.980
 7858SOL     OW24472   5.055   2.834   3.472
 7858SOL    HW124473   5.023   2.826   3.378
 7858SOL    HW224474   5.153   2.853   3.472
 7859SOL     OW24475   6.714   6.856   0.526
 7859SOL    HW124476   6.805   6.897   0.519
 7859SOL    HW224477   6.714   6.786   0.597
 7860SOL     OW24478   4.529   6.294   1.346
 7860SOL    HW124479   4.588   6.280   1.267
 7860SOL    HW224480   4.535   6.215   1.407
 7861SOL     OW24481   6.412   3.349   0.565
 7861SOL    HW124482   6.352   3.416   0.523
 7861SOL    HW224483   6.434   3.277   0.499
 7862SOL     OW24484   2.617   4.447   1.734
 7862SOL    HW124485   2.703   4.466   1.782
 7862SOL    HW224486   2.600   4.348   1.735
 7863SOL     OW24487   4.457   5.947   2.595
 7863SOL    HW124488   4.487   5.932   2.689
 7863SOL    HW224489   4.423   5.860   2.558
 7864SOL     OW24490   1.615   5.643   5.337
 7864SOL    HW124491   1.580   5.605   5.252
 7864SOL    HW224492   1.712   5.665   5.326
 7865SOL     OW24493   4.591   0.843   3.262
 7865SOL    HW124494   4.660   0.795   3.317
 7865SOL    HW224495   4.541   0.907   3.320
 7866SOL     OW24496   3.211   0.373   5.710
 7866SOL    HW124497   3.263   0.313   5.649
 7866SOL    HW224498   3.140   0.320   5.756
 7867SOL     OW24499   6.758   2.989   0.880
 7867SOL    HW124500   6.706   2.960   0.961
 7867SOL    HW224501   6.768   3.089   0.881
 7868SOL     OW24502   4.930   6.434   1.136
 7868SOL    HW124503   4.952   6.504   1.069
 7868SOL    HW224504   5.014   6.386   1.162
 7869SOL     OW24505   6.019   1.581   4.135
 7869SOL    HW124506   6.102   1.528   4.152
 7869SOL    HW224507   6.037   1.678   4.153
 7870SOL     OW24508   6.699   0.229   3.450
 7870SOL    HW124509   6.774   0.285   3.485
 7870SOL    HW224510   6.734   0.165   3.382
 7871SOL     OW24511   5.525   2.994   3.243
 7871SOL    HW124512   5.470   2.917   3.277
 7871SOL    HW224513   5.579   2.964   3.164
 7872SOL     OW24514   6.015   3.939   3.951
 7872SOL    HW124515   5.929   3.926   4.000
 7872SOL    HW224516   6.066   4.014   3.994
 7873SOL     OW24517   6.703   5.878   4.954
 7873SOL    HW124518   6.758   5.876   5.038
 7873SOL    HW224519   6.654   5.792   4.944
 7874SOL     OW24520   5.993   6.800   0.090
 7874SOL    HW124521   5.949   6.711   0.083
 7874SOL    HW224522   6.075   6.792   0.148
 7875SOL     OW24523   5.729   2.579   0.409
 7875SOL    HW124524   5.635   2.582   0.373
 7875SOL    HW224525   5.747   2.663   0.460
 7876SOL     OW24526   6.863   1.864   4.820
 7876SOL    HW124527   6.854   1.837   4.724
 7876SOL    HW224528   6.778   1.908   4.850
 7877SOL     OW24529   5.693   4.036   1.693
 7877SOL    HW124530   5.715   3.956   1.749
 7877SOL    HW224531   5.648   4.105   1.749
 7878SOL     OW24532   3.539   4.153   2.188
 7878SOL    HW124533   3.587   4.105   2.261
 7878SOL    HW224534   3.601   4.221   2.148
 7879SOL     OW24535   6.739   1.196   4.926
 7879SOL    HW124536   6.716   1.115   4.980
 7879SOL    HW224537   6.817   1.243   4.969
 7880SOL     OW24538   2.071   6.086   6.699
 7880SOL    HW124539   2.103   6.161   6.641
 7880SOL    HW224540   1.982   6.054   6.668
 7881SOL     OW24541   0.611   5.022   5.252
 7881SOL    HW124542   0.517   5.026   5.286
 7881SOL    HW224543   0.613   5.050   5.156
 7882SOL     OW24544   1.423   4.941   1.120
 7882SOL    HW124545   1.448   5.008   1.050
 7882SOL    HW224546   1.342   4.972   1.170
 7883SOL     OW24547   2.729   2.219   2.525
 7883SOL    HW124548   2.820   2.251   2.552
 7883SOL    HW224549   2.722   2.221   2.425
 7884SOL     OW24550   0.241   1.990   5.771
 7884SOL    HW124551   0.239   2.057   5.696
 7884SOL    HW224552   0.327   1.941   5.769
 7885SOL     OW24553   5.834   5.115   2.673
 7885SOL    HW124554   5.780   5.159   2.601
 7885SOL    HW224555   5.861   5.023   2.642
 7886SOL     OW24556   3.726   4.999   2.936
 7886SOL    HW124557   3.786   5.067   2.895
 7886SOL    HW224558   3.659   4.967   2.869
 7887SOL     OW24559   0.174   3.209   0.457
 7887SOL    HW124560   0.148   3.190   0.362
 7887SOL    HW224561   0.098   3.256   0.503
 7888SOL     OW24562   0.705   1.771   5.314
 7888SOL    HW124563   0.623   1.733   5.272
 7888SOL    HW224564   0.776   1.782   5.245
 7889SOL     OW24565   5.377   5.042   0.003
 7889SOL    HW124566   5.304   4.974   0.003
 7889SOL    HW224567   5.347   5.124   0.052
 7890SOL     OW24568   1.308   2.666   1.830
 7890SOL    HW124569   1.320   2.732   1.903
 7890SOL    HW224570   1.371   2.589   1.843
 7891SOL     OW24571   5.703   0.892   4.175
 7891SOL    HW124572   5.653   0.912   4.259
 7891SOL    HW224573   5.651   0.927   4.097
 7892SOL     OW24574   1.181   2.192   4.416
 7892SOL    HW124575   1.153   2.205   4.511
 7892SOL    HW224576   1.114   2.234   4.355
 7893SOL     OW24577   5.292   6.184   0.576
 7893SOL    HW124578   5.285   6.243   0.657
 7893SOL    HW224579   5.370   6.213   0.521
 7894SOL     OW24580   2.906   0.031   6.575
 7894SOL    HW124581   2.914   0.130   6.563
 7894SOL    HW224582   2.900   7.009   6.485
 7895SOL     OW24583   5.209   6.718   2.900
 7895SOL    HW124584   5.155   6.637   2.875
 7895SOL    HW224585   5.274   6.738   2.827
 7896SOL     OW24586   2.934   2.604   1.005
 7896SOL    HW124587   2.902   2.671   1.072
 7896SOL    HW224588   2.860   2.541   0.983
 7897SOL     OW24589   5.202   0.854   1.418
 7897SOL    HW124590   5.268   0.793   1.373
 7897SOL    HW224591   5.115   0.806   1.430
 7898SOL     OW24592   4.334   6.682   2.902
 7898SOL    HW124593   4.300   6.592   2.928
 7898SOL    HW224594   4.284   6.752   2.952
 7899SOL     OW24595   6.367   5.015   3.046
 7899SOL    HW124596   6.369   4.915   3.043
 7899SOL    HW224597   6.439   5.051   2.987
 7900SOL     OW24598   7.008   3.624   0.509
 7900SOL    HW124599   6.962   3.535   0.513
 7900SOL    HW224600   0.056   3.622   0.436
 7901SOL     OW24601   0.446   2.436   6.481
 7901SOL    HW124602   0.426   2.533   6.493
 7901SOL    HW224603   0.520   2.425   6.415
 7902SOL     OW24604   1.779   0.404   1.528
 7902SOL    HW124605   1.742   0.490   1.565
 7902SOL    HW224606   1.736   0.384   1.441
 7903SOL     OW24607   3.094   2.080   5.617
 7903SOL    HW124608   3.137   2.107   5.531
 7903SOL    HW224609   3.050   1.991   5.607
 7904SOL     OW24610   5.695   3.568   2.533
 7904SOL    HW124611   5.719   3.540   2.626
 7904SOL    HW224612   5.596   3.583   2.528
 7905SOL     OW24613   6.160   2.186   1.616
 7905SOL    HW124614   6.062   2.172   1.623
 7905SOL    HW224615   6.187   2.184   1.520
 7906SOL     OW24616   6.938   6.136   5.917
 7906SOL    HW124617   7.016   6.081   5.947
 7906SOL    HW224618   6.968   6.230   5.898
 7907SOL     OW24619   5.767   5.721   3.342
 7907SOL    HW124620   5.804   5.665   3.416
 7907SOL    HW224621   5.684   5.767   3.374
 7908SOL     OW24622   1.649   6.741   6.271
 7908SOL    HW124623   1.650   6.672   6.343
 7908SOL    HW224624   1.583   6.714   6.200
 7909SOL     OW24625   6.965   4.211   2.265
 7909SOL    HW124626   0.031   4.196   2.219
 7909SOL    HW224627   6.982   4.236   2.360
 7910SOL     OW24628   1.431   4.212   4.906
 7910SOL    HW124629   1.448   4.288   4.843
 7910SOL    HW224630   1.382   4.246   4.987
 7911SOL     OW24631   5.973   3.549   5.993
 7911SOL    HW124632   6.038   3.531   6.066
 7911SOL    HW224633   5.963   3.467   5.936
 7912SOL     OW24634   5.473   5.794   1.829
 7912SOL    HW124635   5.559   5.802   1.879
 7912SOL    HW224636   5.402   5.847   1.875
 7913SOL     OW24637   1.543   4.775   6.550
 7913SOL    HW124638   1.566   4.704   6.484
 7913SOL    HW224639   1.621   4.791   6.610
 7914SOL     OW24640   1.031   0.309   4.824
 7914SOL    HW124641   1.083   0.285   4.742
 7914SOL    HW224642   0.985   0.396   4.809
 7915SOL     OW24643   3.220   6.084   2.188
 7915SOL    HW124644   3.234   6.179   2.215
 7915SOL    HW224645   3.307   6.036   2.187
 7916SOL     OW24646   1.760   0.960   4.002
 7916SOL    HW124647   1.718   1.040   4.044
 7916SOL    HW224648   1.804   0.905   4.073
 7917SOL     OW24649   5.265   1.993   2.760
 7917SOL    HW124650   5.224   2.081   2.784
 7917SOL    HW224651   5.343   2.008   2.698
 7918SOL     OW24652   1.387   2.087   2.648
 7918SOL    HW124653   1.353   2.051   2.735
 7918SOL    HW224654   1.484   2.065   2.638
 7919SOL     OW24655   0.875   6.827   4.851
 7919SOL    HW124656   0.899   6.905   4.908
 7919SOL    HW224657   0.776   6.823   4.838
 7920SOL     OW24658   5.268   0.218   0.901
 7920SOL    HW124659   5.300   0.125   0.880
 7920SOL    HW224660   5.302   0.245   0.991
 7921SOL     OW24661   5.720   3.681   1.015
 7921SOL    HW124662   5.680   3.635   0.935
 7921SOL    HW224663   5.782   3.753   0.984
 7922SOL     OW24664   2.426   6.273   3.649
 7922SOL    HW124665   2.416   6.188   3.700
 7922SOL    HW224666   2.519   6.308   3.659
 7923SOL     OW24667   5.076   0.445   1.114
 7923SOL    HW124668   5.099   0.515   1.046
 7923SOL    HW224669   5.135   0.365   1.101
 7924SOL     OW24670   5.398   6.090   0.122
 7924SOL    HW124671   5.419   6.188   0.126
 7924SOL    HW224672   5.467   6.044   0.065
 7925SOL     OW24673   2.285   5.109   6.044
 7925SOL    HW124674   2.340   5.087   5.963
 7925SOL    HW224675   2.290   5.034   6.110
 7926SOL     OW24676   4.183   5.986   6.118
 7926SOL    HW124677   4.127   5.904   6.133
 7926SOL    HW224678   4.187   6.006   6.020
 7927SOL     OW24679   5.166   0.063   3.220
 7927SOL    HW124680   5.185   0.143   3.163
 7927SOL    HW224681   5.251   0.023   3.252
 7928SOL     OW24682   5.729   2.017   4.026
 7928SOL    HW124683   5.709   2.029   3.929
 7928SOL    HW224684   5.650   2.047   4.080
 7929SOL     OW24685   4.459   3.724   5.329
 7929SOL    HW124686   4.502   3.796   5.382
 7929SOL    HW224687   4.516   3.701   5.250
 7930SOL     OW24688   4.167   5.149   0.878
 7930SOL    HW124689   4.202   5.066   0.921
 7930SOL    HW224690   4.244   5.202   0.842
 7931SOL     OW24691   4.793   0.599   0.664
 7931SOL    HW124692   4.748   0.675   0.616
 7931SOL    HW224693   4.790   0.617   0.763
 7932SOL     OW24694   0.932   3.592   0.727
 7932SOL    HW124695   0.837   3.623   0.726
 7932SOL    HW224696   0.990   3.664   0.765
 7933SOL     OW24697   1.464   1.250   0.336
 7933SOL    HW124698   1.405   1.274   0.413
 7933SOL    HW224699   1.469   1.327   0.272
 7934SOL     OW24700   6.565   5.536   0.235
 7934SOL    HW124701   6.484   5.489   0.271
 7934SOL    HW224702   6.565   5.531   0.135
 7935SOL     OW24703   6.080   3.735   3.296
 7935SOL    HW124704   6.053   3.662   3.360
 7935SOL    HW224705   6.139   3.697   3.225
 7936SOL     OW24706   2.354   5.871   3.491
 7936SOL    HW124707   2.321   5.779   3.510
 7936SOL    HW224708   2.323   5.899   3.400
 7937SOL     OW24709   3.540   1.410   1.339
 7937SOL    HW124710   3.592   1.459   1.408
 7937SOL    HW224711   3.531   1.314   1.365
 7938SOL     OW24712   2.282   6.696   3.312
 7938SOL    HW124713   2.183   6.692   3.297
 7938SOL    HW224714   2.301   6.734   3.402
 7939SOL     OW24715   1.788   6.949   3.167
 7939SOL    HW124716   1.857   7.015   3.198
 7939SOL    HW224717   1.817   6.911   3.079
 7940SOL     OW24718   6.481   1.503   4.902
 7940SOL    HW124719   6.484   1.416   4.853
 7940SOL    HW224720   6.385   1.529   4.918
 7941SOL     OW24721   3.282   0.698   0.946
 7941SOL    HW124722   3.371   0.724   0.984
 7941SOL    HW224723   3.292   0.612   0.895
 7942SOL     OW24724   1.301   3.901   1.254
 7942SOL    HW124725   1.303   3.856   1.343
 7942SOL    HW224726   1.315   3.999   1.266
 7943SOL     OW24727   1.693   5.396   0.024
 7943SOL    HW124728   1.704   5.364   6.951
 7943SOL    HW224729   1.779   5.437   0.055
 7944SOL     OW24730   0.941   2.054   0.740
 7944SOL    HW124731   0.935   2.153   0.731
 7944SOL    HW224732   1.037   2.027   0.751
 7945SOL     OW24733   6.569   4.500   3.294
 7945SOL    HW124734   6.641   4.552   3.249
 7945SOL    HW224735   6.479   4.538   3.270
 7946SOL     OW24736   4.895   1.346   5.683
 7946SOL    HW124737   4.965   1.376   5.748
 7946SOL    HW224738   4.806   1.381   5.713
 7947SOL     OW24739   0.827   3.789   6.958
 7947SOL    HW124740   0.848   3.775   0.033
 7947SOL    HW224741   0.761   3.721   6.928
 7948SOL     OW24742   1.685   5.953   1.846
 7948SOL    HW124743   1.737   5.955   1.760
 7948SOL    HW224744   1.588   5.969   1.826
 7949SOL     OW24745   3.303   5.555   5.058
 7949SOL    HW124746   3.300   5.458   5.036
 7949SOL    HW224747   3.397   5.583   5.077
 7950SOL     OW24748   6.605   2.628   5.577
 7950SOL    HW124749   6.636   2.702   5.637
 7950SOL    HW224750   6.519   2.591   5.613
 7951SOL     OW24751   3.960   0.607   2.703
 7951SOL    HW124752   3.905   0.688   2.685
 7951SOL    HW224753   3.915   0.552   2.774
 7952SOL     OW24754   0.107   3.321   5.270
 7952SOL    HW124755   0.098   3.406   5.218
 7952SOL    HW224756   0.050   3.327   5.353
 7953SOL     OW24757   1.100   0.526   0.307
 7953SOL    HW124758   1.167   0.483   0.247
 7953SOL    HW224759   1.133   0.525   0.401
 7954SOL     OW24760   3.806   2.850   0.760
 7954SOL    HW124761   3.831   2.798   0.679
 7954SOL    HW224762   3.888   2.892   0.799
 7955SOL     OW24763   6.831   0.485   6.159
 7955SOL    HW124764   6.891   0.555   6.122
 7955SOL    HW224765   6.859   0.463   6.252
 7956SOL     OW24766   0.102   0.227   0.744
 7956SOL    HW124767   0.099   0.205   0.842
 7956SOL    HW224768   0.121   0.325   0.733
 7957SOL     OW24769   5.545   1.792   6.038
 7957SOL    HW124770   5.508   1.884   6.022
 7957SOL    HW224771   5.643   1.798   6.055
 7958SOL     OW24772   4.691   2.468   6.805
 7958SOL    HW124773   4.692   2.369   6.787
 7958SOL    HW224774   4.639   2.514   6.733
 7959SOL     OW24775   5.151   2.899   6.927
 7959SOL    HW124776   5.063   2.864   6.896
 7959SOL    HW224777   5.153   2.998   6.914
 7960SOL     OW24778   1.075   2.333   5.340
 7960SOL    HW124779   1.133   2.301   5.415
 7960SOL    HW224780   0.979   2.332   5.368
 7961SOL     OW24781   6.046   0.007   6.201
 7961SOL    HW124782   5.957   0.016   6.155
 7961SOL    HW224783   6.042   0.053   6.290
 7962SOL     OW24784   5.253   0.082   4.912
 7962SOL    HW124785   5.280   0.067   4.817
 7962SOL    HW224786   5.325   0.049   4.972
 7963SOL     OW24787   5.547   6.005   2.681
 7963SOL    HW124788   5.606   6.002   2.762
 7963SOL    HW224789   5.498   6.092   2.679
 7964SOL     OW24790   0.238   3.861   1.511
 7964SOL    HW124791   0.268   3.767   1.529
 7964SOL    HW224792   0.143   3.871   1.540
 7965SOL     OW24793   4.032   1.757   6.518
 7965SOL    HW124794   4.044   1.691   6.592
 7965SOL    HW224795   4.053   1.849   6.552
 7966SOL     OW24796   5.765   3.474   5.135
 7966SOL    HW124797   5.852   3.517   5.157
 7966SOL    HW224798   5.782   3.389   5.085
 7967SOL     OW24799   1.920   3.871   1.480
 7967SOL    HW124800   1.953   3.787   1.525
 7967SOL    HW224801   1.879   3.848   1.393
 7968SOL     OW24802   2.567   2.072   3.903
 7968SOL    HW124803   2.567   2.055   3.804
 7968SOL    HW224804   2.516   2.156   3.922
 7969SOL     OW24805   2.885   4.017   6.473
 7969SOL    HW124806   2.787   4.002   6.488
 7969SOL    HW224807   2.929   3.930   6.451
 7970SOL     OW24808   6.680   3.248   2.825
 7970SOL    HW124809   6.710   3.334   2.784
 7970SOL    HW224810   6.582   3.254   2.847
 7971SOL     OW24811   2.570   0.410   6.854
 7971SOL    HW124812   2.568   0.314   6.828
 7971SOL    HW224813   2.609   0.419   6.945
 7972SOL     OW24814   4.196   3.555   4.857
 7972SOL    HW124815   4.180   3.618   4.781
 7972SOL    HW224816   4.270   3.492   4.833
 7973SOL     OW24817   0.350   5.336   1.982
 7973SOL    HW124818   0.285   5.288   2.041
 7973SOL    HW224819   0.382   5.418   2.028
 7974SOL     OW24820   6.736   2.652   4.521
 7974SOL    HW124821   6.789   2.715   4.577
 7974SOL    HW224822   6.786   2.566   4.511
 7975SOL     OW24823   3.769   0.038   6.529
 7975SOL    HW124824   3.742   6.979   6.476
 7975SOL    HW224825   3.842   0.087   6.482
 7976SOL     OW24826   0.666   0.163   0.866
 7976SOL    HW124827   0.604   0.238   0.885
 7976SOL    HW224828   0.744   0.197   0.813
 7977SOL     OW24829   4.936   5.055   2.903
 7977SOL    HW124830   4.959   5.115   2.979
 7977SOL    HW224831   4.843   5.075   2.872
 7978SOL     OW24832   0.428   4.140   0.716
 7978SOL    HW124833   0.373   4.166   0.636
 7978SOL    HW224834   0.522   4.123   0.687
 7979SOL     OW24835   3.437   2.447   5.696
 7979SOL    HW124836   3.367   2.512   5.725
 7979SOL    HW224837   3.394   2.357   5.682
 7980SOL     OW24838   4.150   5.902   2.738
 7980SOL    HW124839   4.108   5.992   2.733
 7980SOL    HW224840   4.191   5.889   2.829
 7981SOL     OW24841   0.900   2.795   4.388
 7981SOL    HW124842   0.946   2.844   4.314
 7981SOL    HW224843   0.816   2.843   4.413
 7982SOL     OW24844   6.477   0.090   0.211
 7982SOL    HW124845   6.382   0.101   0.182
 7982SOL    HW224846   6.481   0.079   0.311
 7983SOL     OW24847   3.273   1.344   1.583
 7983SOL    HW124848   3.260   1.268   1.519
 7983SOL    HW224849   3.186   1.365   1.629
 7984SOL     OW24850   6.249   2.616   2.856
 7984SOL    HW124851   6.172   2.589   2.798
 7984SOL    HW224852   6.232   2.586   2.950
 7985SOL     OW24853   3.223   3.334   5.829
 7985SOL    HW124854   3.234   3.237   5.809
 7985SOL    HW224855   3.293   3.387   5.781
 7986SOL     OW24856   2.220   0.969   3.734
 7986SOL    HW124857   2.165   1.036   3.684
 7986SOL    HW224858   2.184   0.877   3.717
 7987SOL     OW24859   1.174   3.084   6.079
 7987SOL    HW124860   1.201   3.000   6.032
 7987SOL    HW224861   1.236   3.101   6.155
 7988SOL     OW24862   6.439   0.333   1.538
 7988SOL    HW124863   6.497   0.370   1.611
 7988SOL    HW224864   6.343   0.347   1.562
 7989SOL     OW24865   0.937   4.669   1.290
 7989SOL    HW124866   0.922   4.675   1.389
 7989SOL    HW224867   0.862   4.716   1.243
 7990SOL     OW24868   4.286   5.269   5.554
 7990SOL    HW124869   4.355   5.225   5.610
 7990SOL    HW224870   4.328   5.342   5.500
 7991SOL     OW24871   5.291   0.535   4.341
 7991SOL    HW124872   5.351   0.571   4.270
 7991SOL    HW224873   5.197   0.562   4.323
 7992SOL     OW24874   2.340   0.324   0.026
 7992SOL    HW124875   2.429   0.310   0.070
 7992SOL    HW224876   2.352   0.379   6.965
 7993SOL     OW24877   6.103   5.667   0.542
 7993SOL    HW124878   6.200   5.679   0.566
 7993SOL    HW224879   6.091   5.688   0.445
 7994SOL     OW24880   0.916   1.674   4.844
 7994SOL    HW124881   1.009   1.667   4.809
 7994SOL    HW224882   0.894   1.770   4.862
 7995SOL     OW24883   0.250   6.287   0.674
 7995SOL    HW124884   0.330   6.243   0.632
 7995SOL    HW224885   0.264   6.293   0.773
 7996SOL     OW24886   2.033   6.739   4.031
 7996SOL    HW124887   2.017   6.676   4.108
 7996SOL    HW224888   2.112   6.708   3.978
 7997SOL     OW24889   2.925   0.707   5.631
 7997SOL    HW124890   2.998   0.767   5.598
 7997SOL    HW224891   2.962   0.639   5.693
 7998SOL     OW24892   2.214   1.525   1.456
 7998SOL    HW124893   2.256   1.535   1.366
 7998SOL    HW224894   2.158   1.606   1.476
 7999SOL     OW24895   6.973   0.849   2.530
 7999SOL    HW124896   0.014   0.907   2.477
 7999SOL    HW224897   0.004   0.782   2.581
 8000SOL     OW24898   4.525   5.919   1.152
 8000SOL    HW124899   4.450   5.900   1.216
 8000SOL    HW224900   4.488   5.928   1.060
 8001SOL     OW24901   5.445   5.126   2.487
 8001SOL    HW124902   5.518   5.187   2.517
 8001SOL    HW224903   5.363   5.144   2.541
 8002SOL     OW24904   1.358   0.704   5.304
 8002SOL    HW124905   1.373   0.736   5.397
 8002SOL    HW224906   1.261   0.683   5.290
 8003SOL     OW24907   2.620   5.401   2.618
 8003SOL    HW124908   2.660   5.492   2.612
 8003SOL    HW224909   2.611   5.375   2.714
 8004SOL     OW24910   2.135   3.536   4.080
 8004SOL    HW124911   2.118   3.445   4.041
 8004SOL    HW224912   2.127   3.605   4.009
 8005SOL     OW24913   2.701   0.468   4.323
 8005SOL    HW124914   2.708   0.420   4.236
 8005SOL    HW224915   2.792   0.475   4.364
 8006SOL     OW24916   4.947   5.032   6.384
 8006SOL    HW124917   5.024   5.065   6.438
 8006SOL    HW224918   4.879   5.105   6.376
 8007SOL     OW24919   6.995   0.803   0.814
 8007SOL    HW124920   6.896   0.804   0.802
 8007SOL    HW224921   0.017   0.747   0.744
 8008SOL     OW24922   5.191   5.557   1.298
 8008SOL    HW124923   5.277   5.524   1.259
 8008SOL    HW224924   5.149   5.485   1.352
 8009SOL     OW24925   6.197   0.559   1.084
 8009SOL    HW124926   6.200   0.505   1.000
 8009SOL    HW224927   6.288   0.561   1.125
 8010SOL     OW24928   2.596   0.167   6.770
 8010SOL    HW124929   2.626   0.183   6.676
 8010SOL    HW224930   2.641   0.086   6.806
 8011SOL     OW24931   3.936   2.148   2.141
 8011SOL    HW124932   3.923   2.058   2.098
 8011SOL    HW224933   3.853   2.203   2.127
 8012SOL     OW24934   6.236   0.535   5.504
 8012SOL    HW124935   6.192   0.468   5.564
 8012SOL    HW224936   6.185   0.542   5.419
 8013SOL     OW24937   3.485   0.345   3.321
 8013SOL    HW124938   3.505   0.443   3.315
 8013SOL    HW224939   3.501   0.314   3.415
 8014SOL     OW24940   2.353   2.683   3.319
 8014SOL    HW124941   2.288   2.681   3.395
 8014SOL    HW224942   2.433   2.627   3.341
 8015SOL     OW24943   3.477   5.516   4.752
 8015SOL    HW124944   3.543   5.590   4.747
 8015SOL    HW224945   3.391   5.545   4.709
 8016SOL     OW24946   2.918   3.203   5.127
 8016SOL    HW124947   2.933   3.296   5.095
 8016SOL    HW224948   2.846   3.202   5.195
 8017SOL     OW24949   5.152   6.342   1.953
 8017SOL    HW124950   5.120   6.300   2.038
 8017SOL    HW224951   5.252   6.350   1.955
 8018SOL     OW24952   2.984   2.845   1.214
 8018SOL    HW124953   2.886   2.829   1.229
 8018SOL    HW224954   3.036   2.766   1.249
 8019SOL     OW24955   3.032   3.516   1.568
 8019SOL    HW124956   2.954   3.572   1.596
 8019SOL    HW224957   3.115   3.571   1.570
 8020SOL     OW24958   0.943   0.118   0.027
 8020SOL    HW124959   0.959   0.071   0.114
 8020SOL    HW224960   0.846   0.113   0.005
 8021SOL     OW24961   0.905   2.311   0.713
 8021SOL    HW124962   0.849   2.391   0.691
 8021SOL    HW224963   0.974   2.336   0.781
 8022SOL     OW24964   4.406   0.340   2.801
 8022SOL    HW124965   4.429   0.436   2.819
 8022SOL    HW224966   4.452   0.281   2.867
 8023SOL     OW24967   3.581   4.957   2.207
 8023SOL    HW124968   3.573   4.889   2.135
 8023SOL    HW224969   3.617   5.042   2.169
 8024SOL     OW24970   2.851   0.676   6.117
 8024SOL    HW124971   2.754   0.695   6.135
 8024SOL    HW224972   2.888   0.621   6.191
 8025SOL     OW24973   1.285   6.543   1.229
 8025SOL    HW124974   1.232   6.603   1.289
 8025SOL    HW224975   1.243   6.541   1.138
 8026SOL     OW24976   0.244   6.658   5.401
 8026SOL    HW124977   0.211   6.620   5.315
 8026SOL    HW224978   0.270   6.754   5.387
 8027SOL     OW24979   4.227   6.456   6.671
 8027SOL    HW124980   4.253   6.533   6.613
 8027SOL    HW224981   4.146   6.411   6.633
 8028SOL     OW24982   4.011   5.882   6.327
 8028SOL    HW124983   4.018   5.788   6.360
 8028SOL    HW224984   3.980   5.941   6.401
 8029SOL     OW24985   1.200   6.787   1.987
 8029SOL    HW124986   1.149   6.705   1.960
 8029SOL    HW224987   1.212   6.788   2.086
 8030SOL     OW24988   0.738   3.562   1.001
 8030SOL    HW124989   0.780   3.645   0.966
 8030SOL    HW224990   0.645   3.583   1.034
 8031SOL     OW24991   0.256   0.978   3.759
 8031SOL    HW124992   0.216   0.907   3.702
 8031SOL    HW224993   0.349   0.998   3.728
 8032SOL     OW24994   6.956   3.291   1.308
 8032SOL    HW124995   6.934   3.196   1.331
 8032SOL    HW224996   0.005   3.292   1.236
 8033SOL     OW24997   4.440   4.716   0.996
 8033SOL    HW124998   4.503   4.733   0.921
 8033SOL    HW224999   4.488   4.668   1.070
 8034SOL     OW25000   1.902   1.364   5.052
 8034SOL    HW125001   1.883   1.363   4.954
 8034SOL    HW225002   1.879   1.275   5.091
 8035SOL     OW25003   5.347   0.086   4.660
 8035SOL    HW125004   5.334   0.033   4.576
 8035SOL    HW225005   5.343   0.184   4.639
 8036SOL     OW25006   5.099   4.505   4.504
 8036SOL    HW125007   5.138   4.576   4.445
 8036SOL    HW225008   5.157   4.492   4.584
 8037SOL     OW25009   2.644   1.116   6.659
 8037SOL    HW125010   2.717   1.075   6.604
 8037SOL    HW225011   2.647   1.215   6.651
 8038SOL     OW25012   6.380   5.644   1.873
 8038SOL    HW125013   6.455   5.692   1.828
 8038SOL    HW225014   6.310   5.710   1.900
 8039SOL     OW25015   1.903   2.939   5.059
 8039SOL    HW125016   1.980   2.882   5.030
 8039SOL    HW225017   1.927   3.035   5.048
 8040SOL     OW25018   0.478   6.566   5.513
 8040SOL    HW125019   0.389   6.600   5.481
 8040SOL    HW225020   0.551   6.618   5.470
 8041SOL     OW25021   3.125   1.862   2.762
 8041SOL    HW125022   3.051   1.836   2.825
 8041SOL    HW225023   3.106   1.825   2.671
 8042SOL     OW25024   4.574   3.903   6.005
 8042SOL    HW125025   4.594   3.910   6.102
 8042SOL    HW225026   4.660   3.888   5.955
 8043SOL     OW25027   5.182   5.568   6.859
 8043SOL    HW125028   5.245   5.630   6.907
 8043SOL    HW225029   5.215   5.474   6.867
 8044SOL     OW25030   1.087   2.433   1.387
 8044SOL    HW125031   1.143   2.498   1.334
 8044SOL    HW225032   1.107   2.443   1.484
 8045SOL     OW25033   5.742   2.983   5.121
 8045SOL    HW125034   5.801   2.996   5.201
 8045SOL    HW225035   5.711   2.888   5.117
 8046SOL     OW25036   0.670   4.118   1.144
 8046SOL    HW125037   0.589   4.077   1.103
 8046SOL    HW225038   0.643   4.173   1.223
 8047SOL     OW25039   2.863   6.223   6.818
 8047SOL    HW125040   2.924   6.289   6.862
 8047SOL    HW225041   2.821   6.267   6.738
 8048SOL     OW25042   4.341   1.876   6.387
 8048SOL    HW125043   4.330   1.907   6.482
 8048SOL    HW225044   4.254   1.841   6.354
 8049SOL     OW25045   2.260   1.536   0.981
 8049SOL    HW125046   2.204   1.616   0.956
 8049SOL    HW225047   2.208   1.453   0.963
 8050SOL     OW25048   6.585   5.072   5.824
 8050SOL    HW125049   6.661   5.130   5.852
 8050SOL    HW225050   6.554   5.017   5.901
 8051SOL     OW25051   4.085   6.671   3.162
 8051SOL    HW125052   4.110   6.654   3.258
 8051SOL    HW225053   4.073   6.584   3.115
 8052SOL     OW25054   2.329   1.560   2.905
 8052SOL    HW125055   2.417   1.580   2.947
 8052SOL    HW225056   2.339   1.480   2.845
 8053SOL     OW25057   1.580   1.358   6.583
 8053SOL    HW125058   1.528   1.443   6.571
 8053SOL    HW225059   1.639   1.366   6.663
 8054SOL     OW25060   5.147   3.660   5.195
 8054SOL    HW125061   5.144   3.581   5.134
 8054SOL    HW225062   5.240   3.673   5.230
 8055SOL     OW25063   6.917   0.822   6.727
 8055SOL    HW125064   6.981   0.890   6.689
 8055SOL    HW225065   6.868   0.863   6.804
 8056SOL     OW25066   1.713   2.781   2.998
 8056SOL    HW125067   1.695   2.706   3.061
 8056SOL    HW225068   1.644   2.852   3.010
 8057SOL     OW25069   3.272   1.658   1.742
 8057SOL    HW125070   3.232   1.729   1.800
 8057SOL    HW225071   3.328   1.700   1.671
 8058SOL     OW25072   3.397   6.490   1.932
 8058SOL    HW125073   3.467   6.419   1.932
 8058SOL    HW225074   3.395   6.535   1.843
 8059SOL     OW25075   4.437   4.070   5.443
 8059SOL    HW125076   4.372   4.139   5.413
 8059SOL    HW225077   4.455   4.081   5.540
 8060SOL     OW25078   0.180   1.558   5.318
 8060SOL    HW125079   0.161   1.469   5.359
 8060SOL    HW225080   0.199   1.546   5.221
 8061SOL     OW25081   6.391   0.870   1.274
 8061SOL    HW125082   6.415   0.860   1.177
 8061SOL    HW225083   6.362   0.964   1.292
 8062SOL     OW25084   4.590   4.572   6.245
 8062SOL    HW125085   4.564   4.650   6.302
 8062SOL    HW225086   4.522   4.559   6.173
 8063SOL     OW25087   2.620   4.581   2.729
 8063SOL    HW125088   2.606   4.491   2.768
 8063SOL    HW225089   2.621   4.575   2.629
 8064SOL     OW25090   6.806   2.705   0.219
 8064SOL    HW125091   6.889   2.761   0.214
 8064SOL    HW225092   6.829   2.614   0.255
 8065SOL     OW25093   4.458   0.203   6.286
 8065SOL    HW125094   4.455   0.108   6.254
 8065SOL    HW225095   4.487   0.204   6.382
 8066SOL     OW25096   6.600   1.077   5.921
 8066SOL    HW125097   6.580   1.042   5.830
 8066SOL    HW225098   6.526   1.052   5.984
 8067SOL     OW25099   5.296   0.185   4.161
 8067SOL    HW125100   5.270   0.256   4.095
 8067SOL    HW225101   5.267   0.213   4.252
 8068SOL     OW25102   0.035   4.442   0.865
 8068SOL    HW125103   0.046   4.372   0.936
 8068SOL    HW225104   6.999   4.407   0.791
 8069SOL     OW25105   0.993   2.758   1.669
 8069SOL    HW125106   1.070   2.799   1.620
 8069SOL    HW225107   0.994   2.659   1.655
 8070SOL     OW25108   5.005   4.319   1.718
 8070SOL    HW125109   4.931   4.327   1.785
 8070SOL    HW225110   5.093   4.315   1.766
 8071SOL     OW25111   1.765   0.010   6.133
 8071SOL    HW125112   1.734   7.011   6.226
 8071SOL    HW225113   1.814   6.953   6.096
 8072SOL     OW25114   2.632   2.369   5.581
 8072SOL    HW125115   2.608   2.444   5.520
 8072SOL    HW225116   2.716   2.325   5.549
 8073SOL     OW25117   5.117   6.705   6.782
 8073SOL    HW125118   5.109   6.797   6.821
 8073SOL    HW225119   5.112   6.637   6.855
 8074SOL     OW25120   5.957   0.695   0.999
 8074SOL    HW125121   6.037   0.641   1.024
 8074SOL    HW225122   5.891   0.694   1.074
 8075SOL     OW25123   0.260   0.223   1.214
 8075SOL    HW125124   0.290   0.288   1.284
 8075SOL    HW225125   0.339   0.191   1.162
 8076SOL     OW25126   6.609   5.672   0.472
 8076SOL    HW125127   6.669   5.752   0.469
 8076SOL    HW225128   6.594   5.639   0.378
 8077SOL     OW25129   6.456   4.372   0.925
 8077SOL    HW125130   6.369   4.325   0.931
 8077SOL    HW225131   6.441   4.468   0.900
 8078SOL     OW25132   5.894   2.073   1.531
 8078SOL    HW125133   5.879   1.975   1.515
 8078SOL    HW225134   5.892   2.121   1.443
 8079SOL     OW25135   6.968   0.677   0.276
 8079SOL    HW125136   6.891   0.737   0.295
 8079SOL    HW225137   6.950   0.625   0.192
 8080SOL     OW25138   0.095   3.527   3.801
 8080SOL    HW125139   0.089   3.610   3.857
 8080SOL    HW225140   0.169   3.536   3.735
 8081SOL     OW25141   5.789   0.416   5.418
 8081SOL    HW125142   5.878   0.440   5.377
 8081SOL    HW225143   5.726   0.389   5.346
 8082SOL     OW25144   4.606   1.717   4.849
 8082SOL    HW125145   4.565   1.638   4.802
 8082SOL    HW225146   4.553   1.739   4.930
 8083SOL     OW25147   6.831   2.775   3.673
 8083SOL    HW125148   6.902   2.777   3.603
 8083SOL    HW225149   6.870   2.739   3.758
 8084SOL     OW25150   5.477   1.788   6.997
 8084SOL    HW125151   5.448   1.857   6.931
 8084SOL    HW225152   5.454   1.819   0.068
 8085SOL     OW25153   1.613   5.982   4.582
 8085SOL    HW125154   1.526   5.944   4.552
 8085SOL    HW225155   1.611   6.082   4.573
 8086SOL     OW25156   6.901   2.281   1.974
 8086SOL    HW125157   6.950   2.301   2.058
 8086SOL    HW225158   6.804   2.301   1.986
 8087SOL     OW25159   6.336   0.736   6.130
 8087SOL    HW125160   6.313   0.678   6.208
 8087SOL    HW225161   6.370   0.679   6.055
 8088SOL     OW25162   6.764   0.048   5.079
 8088SOL    HW125163   6.710   7.013   5.016
 8088SOL    HW225164   6.818   7.010   5.138
 8089SOL     OW25165   6.459   1.060   0.391
 8089SOL    HW125166   6.542   1.064   0.448
 8089SOL    HW225167   6.413   0.973   0.406
 8090SOL     OW25168   4.450   2.109   4.679
 8090SOL    HW125169   4.377   2.176   4.670
 8090SOL    HW225170   4.431   2.030   4.622
 8091SOL     OW25171   1.049   3.404   5.329
 8091SOL    HW125172   1.084   3.449   5.412
 8091SOL    HW225173   1.003   3.471   5.272
 8092SOL     OW25174   4.020   6.998   5.416
 8092SOL    HW125175   4.069   6.962   5.336
 8092SOL    HW225176   3.956   0.048   5.386
 8093SOL     OW25177   3.972   0.292   3.579
 8093SOL    HW125178   4.040   0.335   3.520
 8093SOL    HW225179   3.945   0.356   3.651
 8094SOL     OW25180   2.094   4.841   3.673
 8094SOL    HW125181   2.036   4.796   3.605
 8094SOL    HW225182   2.065   4.936   3.684
 8095SOL     OW25183   0.942   5.769   4.362
 8095SOL    HW125184   0.997   5.848   4.335
 8095SOL    HW225185   0.910   5.721   4.281
 8096SOL     OW25186   0.763   4.883   0.737
 8096SOL    HW125187   0.694   4.938   0.690
 8096SOL    HW225188   0.845   4.938   0.751
 8097SOL     OW25189   4.416   0.214   0.509
 8097SOL    HW125190   4.374   0.259   0.588
 8097SOL    HW225191   4.512   0.197   0.528
 8098SOL     OW25192   2.254   6.375   4.944
 8098SOL    HW125193   2.325   6.437   4.910
 8098SOL    HW225194   2.278   6.281   4.921
 8099SOL     OW25195   1.998   3.582   2.794
 8099SOL    HW125196   1.996   3.522   2.714
 8099SOL    HW225197   2.013   3.527   2.876
 8100SOL     OW25198   0.092   6.441   0.448
 8100SOL    HW125199   0.094   6.345   0.420
 8100SOL    HW225200   0.112   6.447   0.546
 8101SOL     OW25201   2.987   5.084   7.013
 8101SOL    HW125202   3.051   5.074   0.069
 8101SOL    HW225203   3.010   5.018   6.942
 8102SOL     OW25204   1.796   4.596   3.956
 8102SOL    HW125205   1.881   4.568   3.910
 8102SOL    HW225206   1.759   4.519   4.008
 8103SOL     OW25207   4.592   0.548   1.648
 8103SOL    HW125208   4.493   0.558   1.646
 8103SOL    HW225209   4.629   0.593   1.729
 8104SOL     OW25210   1.361   6.621   0.079
 8104SOL    HW125211   1.303   6.663   0.009
 8104SOL    HW225212   1.335   6.655   0.169
 8105SOL     OW25213   6.984   0.305   2.587
 8105SOL    HW125214   6.922   0.294   2.510
 8105SOL    HW225215   6.977   0.397   2.624
 8106SOL     OW25216   3.692   6.170   6.864
 8106SOL    HW125217   3.733   6.242   6.808
 8106SOL    HW225218   3.731   6.174   6.956
 8107SOL     OW25219   0.929   6.448   0.096
 8107SOL    HW125220   1.026   6.426   0.082
 8107SOL    HW225221   0.901   6.517   0.029
 8108SOL     OW25222   2.042   0.828   0.751
 8108SOL    HW125223   2.025   0.904   0.689
 8108SOL    HW225224   2.047   0.862   0.845
 8109SOL     OW25225   0.294   3.831   1.892
 8109SOL    HW125226   0.299   3.756   1.825
 8109SOL    HW225227   0.382   3.839   1.939
 8110SOL     OW25228   4.602   4.588   0.105
 8110SOL    HW125229   4.683   4.556   0.153
 8110SOL    HW225230   4.625   4.607   0.009
 8111SOL     OW25231   5.505   2.062   2.301
 8111SOL    HW125232   5.595   2.043   2.261
 8111SOL    HW225233   5.478   2.156   2.279
 8112SOL     OW25234   2.015   4.470   6.593
 8112SOL    HW125235   2.022   4.379   6.552
 8112SOL    HW225236   1.919   4.492   6.611
 8113SOL     OW25237   5.220   4.953   6.174
 8113SOL    HW125238   5.219   4.853   6.170
 8113SOL    HW225239   5.287   4.983   6.242
 8114SOL     OW25240   2.125   2.835   2.742
 8114SOL    HW125241   2.174   2.775   2.805
 8114SOL    HW225242   2.027   2.814   2.746
 8115SOL     OW25243   2.487   1.352   6.291
 8115SOL    HW125244   2.578   1.311   6.295
 8115SOL    HW225245   2.496   1.451   6.278
 8116SOL     OW25246   4.064   3.605   2.229
 8116SOL    HW125247   4.088   3.570   2.138
 8116SOL    HW225248   4.092   3.539   2.299
 8117SOL     OW25249   0.968   0.382   3.751
 8117SOL    HW125250   0.878   0.424   3.751
 8117SOL    HW225251   0.976   0.321   3.672
 8118SOL     OW25252   6.814   2.435   6.514
 8118SOL    HW125253   6.829   2.500   6.440
 8118SOL    HW225254   6.754   2.361   6.483
 8119SOL     OW25255   5.503   4.730   6.797
 8119SOL    HW125256   5.466   4.821   6.780
 8119SOL    HW225257   5.543   4.726   6.888
 8120SOL     OW25258   2.060   6.655   2.438
 8120SOL    HW125259   1.974   6.687   2.478
 8120SOL    HW225260   2.137   6.692   2.491
 8121SOL     OW25261   1.151   2.558   2.980
 8121SOL    HW125262   1.156   2.494   2.903
 8121SOL    HW225263   1.206   2.522   3.056
 8122SOL     OW25264   1.054   5.045   1.129
 8122SOL    HW125265   1.080   4.977   1.198
 8122SOL    HW225266   0.959   5.073   1.143
 8123SOL     OW25267   0.004   1.107   5.867
 8123SOL    HW125268   6.989   1.167   5.796
 8123SOL    HW225269   6.996   1.140   5.957
 8124SOL     OW25270   6.092   6.141   5.520
 8124SOL    HW125271   6.124   6.092   5.601
 8124SOL    HW225272   6.144   6.111   5.440
 8125SOL     OW25273   0.530   6.179   2.252
 8125SOL    HW125274   0.486   6.141   2.170
 8125SOL    HW225275   0.584   6.109   2.297
 8126SOL     OW25276   3.225   5.519   4.636
 8126SOL    HW125277   3.175   5.458   4.697
 8126SOL    HW225278   3.274   5.464   4.568
 8127SOL     OW25279   4.327   1.487   5.949
 8127SOL    HW125280   4.252   1.529   6.001
 8127SOL    HW225281   4.414   1.525   5.981
 8128SOL     OW25282   3.585   3.527   0.920
 8128SOL    HW125283   3.678   3.561   0.906
 8128SOL    HW225284   3.589   3.444   0.976
 8129SOL     OW25285   6.471   2.817   3.398
 8129SOL    HW125286   6.499   2.868   3.316
 8129SOL    HW225287   6.414   2.876   3.455
 8130SOL     OW25288   6.926   6.320   0.027
 8130SOL    HW125289   6.904   6.301   6.952
 8130SOL    HW225290   0.004   6.314   0.041
 8131SOL     OW25291   2.111   2.687   1.020
 8131SOL    HW125292   2.137   2.688   1.116
 8131SOL    HW225293   2.081   2.778   0.992
 8132SOL     OW25294   6.000   1.403   4.364
 8132SOL    HW125295   6.073   1.457   4.405
 8132SOL    HW225296   5.953   1.458   4.294
 8133SOL     OW25297   3.731   5.553   1.321
 8133SOL    HW125298   3.678   5.624   1.276
 8133SOL    HW225299   3.808   5.527   1.263
 8134SOL     OW25300   6.010   1.347   6.970
 8134SOL    HW125301   5.956   1.268   6.999
 8134SOL    HW225302   6.073   1.373   0.022
 8135SOL     OW25303   2.361   6.022   1.933
 8135SOL    HW125304   2.409   5.974   2.006
 8135SOL    HW225305   2.263   6.000   1.938
 8136SOL     OW25306   4.587   4.882   2.261
 8136SOL    HW125307   4.584   4.855   2.357
 8136SOL    HW225308   4.494   4.903   2.229
 8137SOL     OW25309   4.114   1.302   5.647
 8137SOL    HW125310   4.079   1.262   5.733
 8137SOL    HW225311   4.129   1.400   5.660
 8138SOL     OW25312   6.447   0.629   2.707
 8138SOL    HW125313   6.481   0.548   2.659
 8138SOL    HW225314   6.349   0.640   2.689
 8139SOL     OW25315   0.828   1.574   4.424
 8139SOL    HW125316   0.796   1.562   4.331
 8139SOL    HW225317   0.854   1.485   4.462
 8140SOL     OW25318   4.723   2.749   3.087
 8140SOL    HW125319   4.645   2.687   3.083
 8140SOL    HW225320   4.734   2.796   2.999
 8141SOL     OW25321   5.758   4.378   3.555
 8141SOL    HW125322   5.714   4.421   3.633
 8141SOL    HW225323   5.846   4.339   3.583
 8142SOL     OW25324   0.577   6.102   0.327
 8142SOL    HW125325   0.658   6.150   0.294
 8142SOL    HW225326   0.539   6.046   0.253
 8143SOL     OW25327   6.925   2.547   6.275
 8143SOL    HW125328   6.917   2.478   6.204
 8143SOL    HW225329   7.020   2.580   6.279
 8144SOL     OW25330   4.944   6.078   0.213
 8144SOL    HW125331   4.926   6.067   0.115
 8144SOL    HW225332   5.030   6.127   0.226
 8145SOL     OW25333   4.913   6.325   4.264
 8145SOL    HW125334   4.889   6.356   4.356
 8145SOL    HW225335   4.997   6.271   4.269
 8146SOL     OW25336   3.126   1.742   3.396
 8146SOL    HW125337   3.166   1.655   3.368
 8146SOL    HW225338   3.182   1.783   3.468
 8147SOL     OW25339   4.780   1.399   3.516
 8147SOL    HW125340   4.870   1.416   3.556
 8147SOL    HW225341   4.720   1.359   3.584
 8148SOL     OW25342   0.512   3.500   3.028
 8148SOL    HW125343   0.436   3.450   2.987
 8148SOL    HW225344   0.573   3.534   2.956
 8149SOL     OW25345   3.754   5.290   4.005
 8149SOL    HW125346   3.738   5.223   4.078
 8149SOL    HW225347   3.795   5.245   3.927
 8150SOL     OW25348   1.337   5.893   1.339
 8150SOL    HW125349   1.383   5.810   1.370
 8150SOL    HW225350   1.350   5.904   1.240
 8151SOL     OW25351   1.366   1.627   4.949
 8151SOL    HW125352   1.341   1.640   4.853
 8151SOL    HW225353   1.351   1.532   4.975
 8152SOL     OW25354   0.754   0.858   3.391
 8152SOL    HW125355   0.780   0.865   3.294
 8152SOL    HW225356   0.812   0.919   3.445
 8153SOL     OW25357   2.442   5.964   0.449
 8153SOL    HW125358   2.454   5.969   0.548
 8153SOL    HW225359   2.468   6.052   0.408
 8154SOL     OW25360   2.087   6.267   3.755
 8154SOL    HW125361   2.139   6.345   3.790
 8154SOL    HW225362   2.149   6.192   3.733
 8155SOL     OW25363   3.557   3.558   4.639
 8155SOL    HW125364   3.640   3.565   4.695
 8155SOL    HW225365   3.580   3.574   4.543
 8156SOL     OW25366   0.554   6.735   4.936
 8156SOL    HW125367   0.555   6.801   4.860
 8156SOL    HW225368   0.483   6.667   4.919
 8157SOL     OW25369   5.735   2.468   6.753
 8157SOL    HW125370   5.734   2.368   6.754
 8157SOL    HW225371   5.688   2.503   6.834
 8158SOL     OW25372   0.852   6.178   2.645
 8158SOL    HW125373   0.877   6.111   2.716
 8158SOL    HW225374   0.929   6.238   2.627
 8159SOL     OW25375   0.581   6.288   0.032
 8159SOL    HW125376   0.618   6.253   6.967
 8159SOL    HW225377   0.656   6.303   0.097
 8160SOL     OW25378   5.308   2.095   1.018
 8160SOL    HW125379   5.368   2.069   1.094
 8160SOL    HW225380   5.228   2.035   1.018
 8161SOL     OW25381   4.071   3.614   1.524
 8161SOL    HW125382   4.081   3.514   1.520
 8161SOL    HW225383   4.083   3.645   1.618
 8162SOL     OW25384   6.210   1.063   1.854
 8162SOL    HW125385   6.262   0.980   1.836
 8162SOL    HW225386   6.119   1.038   1.888
 8163SOL     OW25387   2.372   2.774   5.278
 8163SOL    HW125388   2.353   2.710   5.203
 8163SOL    HW225389   2.411   2.858   5.241
 8164SOL     OW25390   5.234   4.575   1.766
 8164SOL    HW125391   5.221   4.487   1.812
 8164SOL    HW225392   5.146   4.618   1.749
 8165SOL     OW25393   1.381   3.345   1.647
 8165SOL    HW125394   1.359   3.314   1.740
 8165SOL    HW225395   1.316   3.416   1.620
 8166SOL     OW25396   2.449   6.813   2.061
 8166SOL    HW125397   2.376   6.818   2.129
 8166SOL    HW225398   2.463   6.718   2.033
 8167SOL     OW25399   5.797   2.909   4.423
 8167SOL    HW125400   5.853   2.895   4.342
 8167SOL    HW225401   5.722   2.843   4.424
 8168SOL     OW25402   2.600   1.790   2.292
 8168SOL    HW125403   2.571   1.809   2.385
 8168SOL    HW225404   2.618   1.877   2.244
 8169SOL     OW25405   5.534   4.101   5.656
 8169SOL    HW125406   5.511   4.150   5.572
 8169SOL    HW225407   5.451   4.061   5.695
 8170SOL     OW25408   0.983   4.928   3.706
 8170SOL    HW125409   1.072   4.972   3.721
 8170SOL    HW225410   0.931   4.928   3.792
 8171SOL     OW25411   1.853   0.878   6.727
 8171SOL    HW125412   1.871   0.781   6.739
 8171SOL    HW225413   1.764   0.901   6.767
 8172SOL     OW25414   6.686   6.465   2.094
 8172SOL    HW125415   6.778   6.474   2.132
 8172SOL    HW225416   6.684   6.504   2.003
 8173SOL     OW25417   6.569   3.152   0.408
 8173SOL    HW125418   6.630   3.226   0.380
 8173SOL    HW225419   6.496   3.141   0.340
 8174SOL     OW25420   5.026   6.194   2.800
 8174SOL    HW125421   4.983   6.173   2.888
 8174SOL    HW225422   4.990   6.280   2.764
 8175SOL     OW25423   1.205   2.492   3.390
 8175SOL    HW125424   1.276   2.499   3.320
 8175SOL    HW225425   1.243   2.515   3.479
 8176SOL     OW25426   4.034   5.540   3.397
 8176SOL    HW125427   4.013   5.598   3.476
 8176SOL    HW225428   3.961   5.546   3.330
 8177SOL     OW25429   1.914   6.557   6.011
 8177SOL    HW125430   1.848   6.509   6.068
 8177SOL    HW225431   1.992   6.497   5.993
 8178SOL     OW25432   1.669   6.242   6.430
 8178SOL    HW125433   1.657   6.215   6.334
 8178SOL    HW225434   1.765   6.235   6.455
 8179SOL     OW25435   4.177   0.504   6.519
 8179SOL    HW125436   4.135   0.516   6.430
 8179SOL    HW225437   4.273   0.480   6.507
 8180SOL     OW25438   4.787   4.330   4.498
 8180SOL    HW125439   4.768   4.344   4.401
 8180SOL    HW225440   4.745   4.403   4.551
 8181SOL     OW25441   2.285   2.284   2.232
 8181SOL    HW125442   2.187   2.263   2.222
 8181SOL    HW225443   2.328   2.216   2.291
 8182SOL     OW25444   5.326   3.050   5.368
 8182SOL    HW125445   5.275   2.986   5.310
 8182SOL    HW225446   5.389   3.103   5.311
 8183SOL     OW25447   1.975   3.365   3.287
 8183SOL    HW125448   1.899   3.397   3.343
 8183SOL    HW225449   1.974   3.265   3.282
 8184SOL     OW25450   6.490   6.162   4.407
 8184SOL    HW125451   6.574   6.141   4.457
 8184SOL    HW225452   6.476   6.261   4.407
 8185SOL     OW25453   0.898   2.201   3.455
 8185SOL    HW125454   0.902   2.291   3.411
 8185SOL    HW225455   0.833   2.143   3.406
 8186SOL     OW25456   4.465   3.757   6.574
 8186SOL    HW125457   4.484   3.790   6.667
 8186SOL    HW225458   4.519   3.675   6.556
 8187SOL     OW25459   2.102   1.540   5.816
 8187SOL    HW125460   2.081   1.443   5.820
 8187SOL    HW225461   2.188   1.554   5.767
 8188SOL     OW25462   5.471   3.229   2.858
 8188SOL    HW125463   5.465   3.314   2.910
 8188SOL    HW225464   5.476   3.250   2.760
 8189SOL     OW25465   6.555   5.099   3.298
 8189SOL    HW125466   6.518   5.079   3.389
 8189SOL    HW225467   6.497   5.168   3.254
 8190SOL     OW25468   5.740   3.447   2.913
 8190SOL    HW125469   5.704   3.372   2.968
 8190SOL    HW225470   5.664   3.498   2.872
 8191SOL     OW25471   5.803   5.134   1.500
 8191SOL    HW125472   5.809   5.230   1.528
 8191SOL    HW225473   5.707   5.107   1.495
 8192SOL     OW25474   1.548   2.043   1.031
 8192SOL    HW125475   1.521   1.978   0.960
 8192SOL    HW225476   1.532   2.003   1.121
 8193SOL     OW25477   3.630   6.179   5.734
 8193SOL    HW125478   3.636   6.087   5.770
 8193SOL    HW225479   3.712   6.199   5.680
 8194SOL     OW25480   1.744   0.884   2.734
 8194SOL    HW125481   1.787   0.794   2.741
 8194SOL    HW225482   1.684   0.886   2.654
 8195SOL     OW25483   5.919   1.162   1.527
 8195SOL    HW125484   5.866   1.130   1.449
 8195SOL    HW225485   5.879   1.127   1.611
 8196SOL     OW25486   2.671   0.907   1.372
 8196SOL    HW125487   2.730   0.978   1.412
 8196SOL    HW225488   2.623   0.944   1.293
 8197SOL     OW25489   0.494   6.750   0.697
 8197SOL    HW125490   0.418   6.812   0.715
 8197SOL    HW225491   0.459   6.660   0.672
 8198SOL     OW25492   3.027   1.459   2.892
 8198SOL    HW125493   3.038   1.361   2.881
 8198SOL    HW225494   3.015   1.481   2.989
 8199SOL     OW25495   5.566   4.721   1.189
 8199SOL    HW125496   5.538   4.743   1.283
 8199SOL    HW225497   5.664   4.738   1.178
 8200SOL     OW25498   3.730   4.330   1.418
 8200SOL    HW125499   3.703   4.237   1.446
 8200SOL    HW225500   3.822   4.327   1.379
 8201SOL     OW25501   0.979   0.955   5.251
 8201SOL    HW125502   1.037   0.989   5.325
 8201SOL    HW225503   0.997   1.007   5.168
 8202SOL     OW25504   1.447   3.250   4.260
 8202SOL    HW125505   1.484   3.315   4.327
 8202SOL    HW225506   1.470   3.156   4.289
 8203SOL     OW25507   6.596   4.363   6.209
 8203SOL    HW125508   6.684   4.349   6.164
 8203SOL    HW225509   6.595   4.314   6.296
 8204SOL     OW25510   2.973   6.868   1.016
 8204SOL    HW125511   2.950   6.886   0.920
 8204SOL    HW225512   2.964   6.952   1.069
 8205SOL     OW25513   3.695   6.955   2.817
 8205SOL    HW125514   3.741   0.017   2.786
 8205SOL    HW225515   3.637   6.920   2.743
 8206SOL     OW25516   3.587   1.979   4.694
 8206SOL    HW125517   3.491   2.005   4.701
 8206SOL    HW225518   3.595   1.879   4.688
 8207SOL     OW25519   2.597   5.766   0.116
 8207SOL    HW125520   2.662   5.729   0.182
 8207SOL    HW225521   2.623   5.860   0.094
 8208SOL     OW25522   1.131   6.093   1.070
 8208SOL    HW125523   1.217   6.048   1.045
 8208SOL    HW225524   1.147   6.155   1.146
 8209SOL     OW25525   0.892   5.922   4.876
 8209SOL    HW125526   0.893   5.822   4.879
 8209SOL    HW225527   0.865   5.953   4.785
 8210SOL     OW25528   2.233   0.606   1.140
 8210SOL    HW125529   2.271   0.541   1.206
 8210SOL    HW225530   2.307   0.663   1.104
 8211SOL     OW25531   3.226   4.107   4.325
 8211SOL    HW125532   3.198   4.150   4.411
 8211SOL    HW225533   3.325   4.107   4.318
 8212SOL     OW25534   4.176   4.414   6.790
 8212SOL    HW125535   4.268   4.448   6.811
 8212SOL    HW225536   4.183   4.335   6.730
 8213SOL     OW25537   4.836   4.070   2.163
 8213SOL    HW125538   4.900   4.136   2.203
 8213SOL    HW225539   4.749   4.115   2.144
 8214SOL     OW25540   4.225   5.121   3.584
 8214SOL    HW125541   4.247   5.189   3.513
 8214SOL    HW225542   4.142   5.148   3.632
 8215SOL     OW25543   2.787   6.094   5.210
 8215SOL    HW125544   2.831   6.139   5.133
 8215SOL    HW225545   2.688   6.093   5.196
 8216SOL     OW25546   6.375   5.210   6.936
 8216SOL    HW125547   6.279   5.238   6.932
 8216SOL    HW225548   6.383   5.116   6.901
 8217SOL     OW25549   3.563   6.156   3.527
 8217SOL    HW125550   3.588   6.246   3.562
 8217SOL    HW225551   3.476   6.127   3.568
 8218SOL     OW25552   2.388   6.033   3.961
 8218SOL    HW125553   2.424   5.990   4.044
 8218SOL    HW225554   2.462   6.083   3.916
 8219SOL     OW25555   3.373   3.483   4.248
 8219SOL    HW125556   3.445   3.543   4.281
 8219SOL    HW225557   3.326   3.526   4.171
 8220SOL     OW25558   4.549   4.267   6.007
 8220SOL    HW125559   4.492   4.344   6.037
 8220SOL    HW225560   4.493   4.186   5.997
 8221SOL     OW25561   6.992   4.097   3.846
 8221SOL    HW125562   6.963   4.169   3.782
 8221SOL    HW225563   6.934   4.099   3.926
 8222SOL     OW25564   4.986   2.070   6.427
 8222SOL    HW125565   5.044   2.150   6.411
 8222SOL    HW225566   4.950   2.072   6.520
 8223SOL     OW25567   1.179   6.143   5.474
 8223SOL    HW125568   1.260   6.105   5.519
 8223SOL    HW225569   1.176   6.112   5.379
 8224SOL     OW25570   5.281   0.755   5.419
 8224SOL    HW125571   5.343   0.748   5.496
 8224SOL    HW225572   5.226   0.672   5.412
 8225SOL     OW25573   6.138   2.507   0.289
 8225SOL    HW125574   6.118   2.427   0.345
 8225SOL    HW225575   6.236   2.526   0.292
 8226SOL     OW25576   3.772   0.456   6.751
 8226SOL    HW125577   3.749   0.364   6.722
 8226SOL    HW225578   3.871   0.463   6.766
 8227SOL     OW25579   5.664   3.767   2.115
 8227SOL    HW125580   5.649   3.670   2.135
 8227SOL    HW225581   5.721   3.807   2.186
 8228SOL     OW25582   2.709   1.492   4.445
 8228SOL    HW125583   2.658   1.529   4.367
 8228SOL    HW225584   2.645   1.462   4.515
 8229SOL     OW25585   4.298   4.168   0.518
 8229SOL    HW125586   4.358   4.220   0.579
 8229SOL    HW225587   4.260   4.090   0.567
 8230SOL     OW25588   6.697   0.736   6.240
 8230SOL    HW125589   6.719   0.658   6.182
 8230SOL    HW225590   6.723   0.821   6.194
 8231SOL     OW25591   3.431   1.792   1.560
 8231SOL    HW125592   3.517   1.809   1.607
 8231SOL    HW225593   3.448   1.783   1.462
 8232SOL     OW25594   3.648   6.279   4.198
 8232SOL    HW125595   3.727   6.339   4.210
 8232SOL    HW225596   3.660   6.222   4.117
 8233SOL     OW25597   3.127   0.365   6.616
 8233SOL    HW125598   3.164   0.277   6.645
 8233SOL    HW225599   3.030   0.355   6.596
 8234SOL     OW25600   0.612   2.714   6.632
 8234SOL    HW125601   0.630   2.775   6.555
 8234SOL    HW225602   0.648   2.622   6.611
 8235SOL     OW25603   1.149   6.304   0.245
 8235SOL    HW125604   1.163   6.352   0.159
 8235SOL    HW225605   1.122   6.209   0.227
 8236SOL     OW25606   1.228   0.038   0.871
 8236SOL    HW125607   1.228   6.987   0.801
 8236SOL    HW225608   1.207   0.126   0.828
 8237SOL     OW25609   4.105   4.937   5.433
 8237SOL    HW125610   4.187   4.929   5.490
 8237SOL    HW225611   4.026   4.898   5.481
 8238SOL     OW25612   6.717   5.058   6.403
 8238SOL    HW125613   6.729   4.977   6.461
 8238SOL    HW225614   6.800   5.073   6.349
 8239SOL     OW25615   4.386   2.378   3.787
 8239SOL    HW125616   4.477   2.421   3.784
 8239SOL    HW225617   4.323   2.429   3.728
 8240SOL     OW25618   3.657   3.711   5.280
 8240SOL    HW125619   3.597   3.714   5.359
 8240SOL    HW225620   3.749   3.742   5.305
 8241SOL     OW25621   0.485   3.139   5.859
 8241SOL    HW125622   0.471   3.059   5.801
 8241SOL    HW225623   0.564   3.191   5.826
 8242SOL     OW25624   0.637   3.362   3.343
 8242SOL    HW125625   0.716   3.310   3.376
 8242SOL    HW225626   0.666   3.452   3.312
 8243SOL     OW25627   2.084   5.834   3.870
 8243SOL    HW125628   2.165   5.789   3.833
 8243SOL    HW225629   2.084   5.827   3.970
 8244SOL     OW25630   5.600   0.113   4.697
 8244SOL    HW125631   5.638   0.112   4.605
 8244SOL    HW225632   5.502   0.093   4.693
 8245SOL     OW25633   5.822   4.284   2.492
 8245SOL    HW125634   5.729   4.305   2.462
 8245SOL    HW225635   5.819   4.235   2.579
 8246SOL     OW25636   2.278   4.524   0.037
 8246SOL    HW125637   2.294   4.488   6.966
 8246SOL    HW225638   2.181   4.518   0.060
 8247SOL     OW25639   1.891   4.583   3.254
 8247SOL    HW125640   1.917   4.514   3.187
 8247SOL    HW225641   1.926   4.672   3.226
 8248SOL     OW25642   6.556   0.116   2.308
 8248SOL    HW125643   6.505   0.066   2.238
 8248SOL    HW225644   6.627   0.057   2.346
 8249SOL     OW25645   3.540   6.902   5.408
 8249SOL    HW125646   3.500   6.962   5.339
 8249SOL    HW225647   3.468   6.865   5.467
 8250SOL     OW25648   1.251   1.666   6.795
 8250SOL    HW125649   1.184   1.654   6.721
 8250SOL    HW225650   1.223   1.742   6.853
 8251SOL     OW25651   1.462   2.060   6.364
 8251SOL    HW125652   1.495   1.971   6.397
 8251SOL    HW225653   1.369   2.075   6.396
 8252SOL     OW25654   1.008   1.353   6.320
 8252SOL    HW125655   1.015   1.332   6.222
 8252SOL    HW225656   0.931   1.303   6.359
 8253SOL     OW25657   0.352   4.247   5.088
 8253SOL    HW125658   0.267   4.299   5.078
 8253SOL    HW225659   0.402   4.247   5.002
 8254SOL     OW25660   4.826   4.428   0.181
 8254SOL    HW125661   4.897   4.383   0.234
 8254SOL    HW225662   4.772   4.358   0.132
 8255SOL     OW25663   1.683   6.381   5.531
 8255SOL    HW125664   1.772   6.359   5.570
 8255SOL    HW225665   1.612   6.368   5.601
 8256SOL     OW25666   1.793   5.881   2.726
 8256SOL    HW125667   1.823   5.976   2.737
 8256SOL    HW225668   1.834   5.843   2.643
 8257SOL     OW25669   4.825   4.528   3.749
 8257SOL    HW125670   4.779   4.440   3.755
 8257SOL    HW225671   4.821   4.560   3.654
 8258SOL     OW25672   0.310   3.291   4.989
 8258SOL    HW125673   0.346   3.322   5.077
 8258SOL    HW225674   0.384   3.287   4.922
 8259SOL     OW25675   5.694   3.464   4.163
 8259SOL    HW125676   5.595   3.457   4.155
 8259SOL    HW225677   5.730   3.517   4.085
 8260SOL     OW25678   4.889   2.371   6.506
 8260SOL    HW125679   4.931   2.295   6.556
 8260SOL    HW225680   4.902   2.456   6.557
 8261SOL     OW25681   5.347   2.685   2.605
 8261SOL    HW125682   5.346   2.589   2.636
 8261SOL    HW225683   5.284   2.739   2.661
 8262SOL     OW25684   5.272   4.068   1.988
 8262SOL    HW125685   5.175   4.043   1.985
 8262SOL    HW225686   5.318   4.015   2.060
 8263SOL     OW25687   6.746   1.295   6.984
 8263SOL    HW125688   6.800   1.374   7.014
 8263SOL    HW225689   6.701   1.316   6.897
 8264SOL     OW25690   3.492   1.364   1.742
 8264SOL    HW125691   3.566   1.354   1.677
 8264SOL    HW225692   3.406   1.382   1.693
 8265SOL     OW25693   4.938   5.536   6.735
 8265SOL    HW125694   4.871   5.588   6.788
 8265SOL    HW225695   5.029   5.548   6.774
 8266SOL     OW25696   4.745   2.867   2.857
 8266SOL    HW125697   4.824   2.812   2.832
 8266SOL    HW225698   4.770   2.964   2.854
 8267SOL     OW25699   2.074   3.165   2.925
 8267SOL    HW125700   2.053   3.085   2.982
 8267SOL    HW225701   2.155   3.147   2.870
 8268SOL     OW25702   2.816   5.099   1.395
 8268SOL    HW125703   2.885   5.129   1.461
 8268SOL    HW225704   2.840   5.130   1.304
 8269SOL     OW25705   6.687   2.097   3.261
 8269SOL    HW125706   6.682   2.191   3.226
 8269SOL    HW225707   6.690   2.098   3.360
 8270SOL     OW25708   3.987   4.991   6.971
 8270SOL    HW125709   3.945   5.082   6.966
 8270SOL    HW225710   4.026   4.978   0.040
 8271SOL     OW25711   2.591   6.979   5.157
 8271SOL    HW125712   2.675   0.011   5.157
 8271SOL    HW225713   2.514   0.018   5.135
 8272SOL     OW25714   0.642   0.736   2.036
 8272SOL    HW125715   0.674   0.804   1.970
 8272SOL    HW225716   0.556   0.766   2.077
 8273SOL     OW25717   5.047   0.134   5.853
 8273SOL    HW125718   4.987   0.190   5.911
 8273SOL    HW225719   5.075   0.188   5.773
 8274SOL     OW25720   5.428   6.449   3.945
 8274SOL    HW125721   5.496   6.401   3.889
 8274SOL    HW225722   5.398   6.389   4.019
 8275SOL     OW25723   4.890   0.374   4.277
 8275SOL    HW125724   4.985   0.348   4.295
 8275SOL    HW225725   4.875   0.469   4.303
 8276SOL     OW25726   5.451   2.750   0.834
 8276SOL    HW125727   5.517   2.693   0.882
 8276SOL    HW225728   5.491   2.840   0.817
 8277SOL     OW25729   1.373   6.988   1.935
 8277SOL    HW125730   1.344   6.894   1.954
 8277SOL    HW225731   1.472   6.996   1.949
 8278SOL     OW25732   1.816   0.790   1.488
 8278SOL    HW125733   1.794   0.768   1.392
 8278SOL    HW225734   1.763   0.730   1.548
 8279SOL     OW25735   6.186   4.641   5.683
 8279SOL    HW125736   6.174   4.630   5.584
 8279SOL    HW225737   6.147   4.728   5.711
 8280SOL     OW25738   0.495   4.838   0.008
 8280SOL    HW125739   0.482   4.788   6.943
 8280SOL    HW225740   0.588   4.823   0.041
 8281SOL     OW25741   2.687   4.921   6.960
 8281SOL    HW125742   2.622   4.857   6.920
 8281SOL    HW225743   2.776   4.877   6.970
 8282SOL     OW25744   4.457   3.449   0.722
 8282SOL    HW125745   4.432   3.528   0.778
 8282SOL    HW225746   4.503   3.380   0.779
 8283SOL     OW25747   0.973   1.763   3.482
 8283SOL    HW125748   0.908   1.831   3.515
 8283SOL    HW225749   0.977   1.766   3.382
 8284SOL     OW25750   4.807   2.424   0.992
 8284SOL    HW125751   4.779   2.503   0.938
 8284SOL    HW225752   4.854   2.456   1.075
 8285SOL     OW25753   0.240   4.924   0.010
 8285SOL    HW125754   0.336   4.896   0.003
 8285SOL    HW225755   0.186   4.874   6.963
 8286SOL     OW25756   6.320   2.013   6.735
 8286SOL    HW125757   6.380   2.035   6.813
 8286SOL    HW225758   6.346   1.924   6.698
 8287SOL     OW25759   0.628   1.288   2.837
 8287SOL    HW125760   0.529   1.280   2.828
 8287SOL    HW225761   0.664   1.206   2.881
 8288SOL     OW25762   2.482   6.581   2.400
 8288SOL    HW125763   2.468   6.496   2.348
 8288SOL    HW225764   2.426   6.579   2.482
 8289SOL     OW25765   5.837   6.951   0.355
 8289SOL    HW125766   5.934   6.947   0.331
 8289SOL    HW225767   5.804   0.023   0.340
 8290SOL     OW25768   4.660   2.813   1.716
 8290SOL    HW125769   4.582   2.836   1.658
 8290SOL    HW225770   4.681   2.892   1.774
 8291SOL     OW25771   5.564   5.462   5.274
 8291SOL    HW125772   5.476   5.507   5.289
 8291SOL    HW225773   5.603   5.436   5.363
 8292SOL     OW25774   6.927   3.752   5.679
 8292SOL    HW125775   6.886   3.721   5.593
 8292SOL    HW225776   7.020   3.784   5.661
 8293SOL     OW25777   2.909   5.470   4.435
 8293SOL    HW125778   2.952   5.528   4.367
 8293SOL    HW225779   2.935   5.500   4.527
 8294SOL     OW25780   6.521   3.500   5.741
 8294SOL    HW125781   6.522   3.546   5.652
 8294SOL    HW225782   6.609   3.510   5.786
 8295SOL     OW25783   4.149   4.577   1.258
 8295SOL    HW125784   4.105   4.541   1.340
 8295SOL    HW225785   4.248   4.581   1.272
 8296SOL     OW25786   3.050   0.272   1.964
 8296SOL    HW125787   2.965   0.220   1.952
 8296SOL    HW225788   3.120   0.237   1.902
 8297SOL     OW25789   5.925   4.677   1.857
 8297SOL    HW125790   5.995   4.610   1.829
 8297SOL    HW225791   5.874   4.641   1.934
 8298SOL     OW25792   0.010   6.148   0.683
 8298SOL    HW125793   0.095   6.192   0.654
 8298SOL    HW225794   7.012   6.070   0.624
 8299SOL     OW25795   1.170   1.851   7.004
 8299SOL    HW125796   1.094   1.902   0.023
 8299SOL    HW225797   1.252   1.863   0.039
 8300SOL     OW25798   4.316   6.329   4.456
 8300SOL    HW125799   4.397   6.363   4.502
 8300SOL    HW225800   4.291   6.239   4.494
 8301SOL     OW25801   6.401   4.949   6.806
 8301SOL    HW125802   6.334   4.875   6.802
 8301SOL    HW225803   6.493   4.911   6.806
 8302SOL     OW25804   3.586   6.247   6.012
 8302SOL    HW125805   3.592   6.346   6.022
 8302SOL    HW225806   3.565   6.224   5.917
 8303SOL     OW25807   6.994   4.559   4.117
 8303SOL    HW125808   6.939   4.642   4.110
 8303SOL    HW225809   0.021   4.558   4.205
 8304SOL     OW25810   5.681   3.042   3.838
 8304SOL    HW125811   5.732   3.074   3.917
 8304SOL    HW225812   5.677   3.114   3.769
 8305SOL     OW25813   4.591   6.189   5.326
 8305SOL    HW125814   4.531   6.121   5.369
 8305SOL    HW225815   4.552   6.216   5.238
 8306SOL     OW25816   5.326   1.258   3.548
 8306SOL    HW125817   5.402   1.253   3.612
 8306SOL    HW225818   5.241   1.236   3.596
 8307SOL     OW25819   6.787   5.113   4.385
 8307SOL    HW125820   6.876   5.108   4.339
 8307SOL    HW225821   6.714   5.101   4.318
 8308SOL     OW25822   2.246   5.038   0.231
 8308SOL    HW125823   2.283   4.962   0.177
 8308SOL    HW225824   2.292   5.042   0.320
 8309SOL     OW25825   5.737   5.225   2.465
 8309SOL    HW125826   5.723   5.323   2.453
 8309SOL    HW225827   5.764   5.184   2.377
 8310SOL     OW25828   2.046   5.913   2.839
 8310SOL    HW125829   1.951   5.896   2.813
 8310SOL    HW225830   2.063   5.874   2.929
 8311SOL     OW25831   5.104   6.559   2.277
 8311SOL    HW125832   5.181   6.507   2.240
 8311SOL    HW225833   5.053   6.601   2.201
 8312SOL     OW25834   6.876   0.414   0.864
 8312SOL    HW125835   6.902   0.432   0.769
 8312SOL    HW225836   6.834   0.323   0.870
 8313SOL     OW25837   4.874   2.675   5.912
 8313SOL    HW125838   4.825   2.647   5.829
 8313SOL    HW225839   4.949   2.611   5.930
 8314SOL     OW25840   5.453   6.226   4.633
 8314SOL    HW125841   5.354   6.230   4.633
 8314SOL    HW225842   5.482   6.132   4.613
 8315SOL     OW25843   3.545   1.727   0.973
 8315SOL    HW125844   3.506   1.818   0.958
 8315SOL    HW225845   3.472   1.660   0.981
 8316SOL     OW25846   1.743   1.738   4.636
 8316SOL    HW125847   1.745   1.832   4.671
 8316SOL    HW225848   1.713   1.676   4.708
 8317SOL     OW25849   2.360   1.689   6.577
 8317SOL    HW125850   2.418   1.674   6.658
 8317SOL    HW225851   2.403   1.648   6.497
 8318SOL     OW25852   4.115   6.321   5.117
 8318SOL    HW125853   4.119   6.403   5.060
 8318SOL    HW225854   4.025   6.314   5.160
 8319SOL     OW25855   2.934   5.934   6.311
 8319SOL    HW125856   2.999   5.939   6.235
 8319SOL    HW225857   2.861   5.870   6.287
 8320SOL     OW25858   3.796   5.336   5.575
 8320SOL    HW125859   3.702   5.303   5.572
 8320SOL    HW225860   3.825   5.345   5.670
 8321SOL     OW25861   0.491   0.283   0.320
 8321SOL    HW125862   0.412   0.310   0.375
 8321SOL    HW225863   0.461   0.257   0.228
 8322SOL     OW25864   2.310   0.413   2.039
 8322SOL    HW125865   2.346   0.358   2.115
 8322SOL    HW225866   2.381   0.474   2.005
 8323SOL     OW25867   5.473   5.424   6.676
 8323SOL    HW125868   5.403   5.480   6.633
 8323SOL    HW225869   5.513   5.363   6.607
 8324SOL     OW25870   6.389   5.907   5.883
 8324SOL    HW125871   6.479   5.948   5.865
 8324SOL    HW225872   6.358   5.858   5.801
 8325SOL     OW25873   1.686   5.854   5.083
 8325SOL    HW125874   1.755   5.818   5.146
 8325SOL    HW225875   1.678   5.953   5.095
 8326SOL     OW25876   3.218   0.611   6.518
 8326SOL    HW125877   3.315   0.603   6.541
 8326SOL    HW225878   3.168   0.534   6.556
 8327SOL     OW25879   0.494   5.956   5.618
 8327SOL    HW125880   0.581   5.956   5.668
 8327SOL    HW225881   0.488   6.037   5.561
 8328SOL     OW25882   0.994   6.983   0.232
 8328SOL    HW125883   0.930   6.907   0.247
 8328SOL    HW225884   1.049   6.997   0.314
 8329SOL     OW25885   1.630   2.397   5.396
 8329SOL    HW125886   1.702   2.411   5.464
 8329SOL    HW225887   1.616   2.481   5.344
 8330SOL     OW25888   3.603   6.679   6.961
 8330SOL    HW125889   3.561   6.650   0.026
 8330SOL    HW225890   3.678   6.743   6.980
 8331SOL     OW25891   1.862   2.444   5.552
 8331SOL    HW125892   1.899   2.390   5.627
 8331SOL    HW225893   1.893   2.539   5.560
 8332SOL     OW25894   5.520   4.457   1.381
 8332SOL    HW125895   5.500   4.458   1.283
 8332SOL    HW225896   5.523   4.551   1.415
 8333SOL     OW25897   2.566   4.421   6.104
 8333SOL    HW125898   2.639   4.375   6.154
 8333SOL    HW225899   2.496   4.452   6.168
 8334SOL     OW25900   2.988   2.834   5.361
 8334SOL    HW125901   2.926   2.757   5.351
 8334SOL    HW225902   2.935   2.919   5.372
 8335SOL     OW25903   5.886   3.270   7.014
 8335SOL    HW125904   5.851   3.352   0.039
 8335SOL    HW225905   5.823   3.243   6.941
 8336SOL     OW25906   0.732   4.455   3.793
 8336SOL    HW125907   0.797   4.499   3.731
 8336SOL    HW225908   0.668   4.399   3.741
 8337SOL     OW25909   6.279   6.841   4.254
 8337SOL    HW125910   6.280   6.939   4.278
 8337SOL    HW225911   6.294   6.787   4.337
 8338SOL     OW25912   2.743   4.962   1.020
 8338SOL    HW125913   2.709   4.923   1.106
 8338SOL    HW225914   2.777   5.055   1.037
 8339SOL     OW25915   6.951   0.208   1.479
 8339SOL    HW125916   6.999   0.121   1.470
 8339SOL    HW225917   7.016   0.281   1.496
 8340SOL     OW25918   5.948   2.353   6.042
 8340SOL    HW125919   6.021   2.286   6.034
 8340SOL    HW225920   5.878   2.320   6.106
 8341SOL     OW25921   3.268   0.020   1.047
 8341SOL    HW125922   3.188   0.054   1.096
 8341SOL    HW225923   3.243   0.001   0.952
 8342SOL     OW25924   3.824   0.871   1.400
 8342SOL    HW125925   3.864   0.882   1.308
 8342SOL    HW225926   3.896   0.847   1.465
 8343SOL     OW25927   4.662   6.239   2.793
 8343SOL    HW125928   4.566   6.245   2.766
 8343SOL    HW225929   4.672   6.264   2.889
 8344SOL     OW25930   2.138   4.359   4.787
 8344SOL    HW125931   2.115   4.377   4.883
 8344SOL    HW225932   2.122   4.262   4.766
 8345SOL     OW25933   6.695   0.076   4.288
 8345SOL    HW125934   6.657   0.044   4.375
 8345SOL    HW225935   6.640   0.152   4.253
 8346SOL     OW25936   5.528   4.530   2.986
 8346SOL    HW125937   5.543   4.463   2.913
 8346SOL    HW225938   5.546   4.486   3.074
 8347SOL     OW25939   1.102   0.810   6.661
 8347SOL    HW125940   1.140   0.848   6.577
 8347SOL    HW225941   1.049   0.728   6.640
 8348SOL     OW25942   3.092   6.352   0.550
 8348SOL    HW125943   3.078   6.450   0.564
 8348SOL    HW225944   3.004   6.307   0.535
 8349SOL     OW25945   4.647   5.680   1.230
 8349SOL    HW125946   4.612   5.763   1.188
 8349SOL    HW225947   4.634   5.684   1.329
 8350SOL     OW25948   1.954   0.439   6.502
 8350SOL    HW125949   2.000   0.354   6.527
 8350SOL    HW225950   1.960   0.504   6.578
 8351SOL     OW25951   6.917   3.830   2.993
 8351SOL    HW125952   6.918   3.740   3.038
 8351SOL    HW225953   6.980   3.828   2.915
 8352SOL     OW25954   2.126   0.168   6.258
 8352SOL    HW125955   2.049   0.198   6.202
 8352SOL    HW225956   2.127   0.068   6.263
 8353SOL     OW25957   0.749   5.876   2.391
 8353SOL    HW125958   0.835   5.927   2.388
 8353SOL    HW225959   0.698   5.901   2.474
 8354SOL     OW25960   5.017   2.840   3.965
 8354SOL    HW125961   5.069   2.761   3.933
 8354SOL    HW225962   4.986   2.893   3.886
 8355SOL     OW25963   3.664   4.708   5.707
 8355SOL    HW125964   3.678   4.699   5.806
 8355SOL    HW225965   3.597   4.780   5.689
 8356SOL     OW25966   3.537   3.006   2.283
 8356SOL    HW125967   3.513   3.095   2.322
 8356SOL    HW225968   3.500   3.000   2.190
 8357SOL     OW25969   2.848   6.568   5.065
 8357SOL    HW125970   2.755   6.605   5.071
 8357SOL    HW225971   2.908   6.617   5.127
 8358SOL     OW25972   0.406   0.512   4.482
 8358SOL    HW125973   0.319   0.555   4.455
 8358SOL    HW225974   0.389   0.418   4.511
 8359SOL     OW25975   4.872   2.304   5.019
 8359SOL    HW125976   4.818   2.289   4.936
 8359SOL    HW225977   4.868   2.222   5.076
 8360SOL     OW25978   2.906   0.214   2.413
 8360SOL    HW125979   2.946   0.288   2.358
 8360SOL    HW225980   2.820   0.245   2.453
 8361SOL     OW25981   4.449   1.186   6.933
 8361SOL    HW125982   4.525   1.237   6.973
 8361SOL    HW225983   4.472   1.089   6.931
 8362SOL     OW25984   0.881   4.574   1.766
 8362SOL    HW125985   0.894   4.482   1.730
 8362SOL    HW225986   0.876   4.571   1.866
 8363SOL     OW25987   3.099   1.995   0.997
 8363SOL    HW125988   3.164   1.975   1.071
 8363SOL    HW225989   3.028   1.925   0.995
 8364SOL     OW25990   0.697   1.209   3.540
 8364SOL    HW125991   0.751   1.285   3.576
 8364SOL    HW225992   0.660   1.233   3.450
 8365SOL     OW25993   1.861   2.546   1.028
 8365SOL    HW125994   1.822   2.532   1.119
 8365SOL    HW225995   1.960   2.555   1.035
 8366SOL     OW25996   4.678   6.064   1.654
 8366SOL    HW125997   4.729   5.986   1.618
 8366SOL    HW225998   4.735   6.114   1.720
 8367SOL     OW25999   1.727   4.988   3.603
 8367SOL    HW126000   1.699   4.893   3.615
 8367SOL    HW226001   1.827   4.994   3.611
 8368SOL     OW26002   0.727   3.300   6.587
 8368SOL    HW126003   0.665   3.328   6.660
 8368SOL    HW226004   0.680   3.236   6.527
 8369SOL     OW26005   0.823   0.549   0.391
 8369SOL    HW126006   0.918   0.538   0.363
 8369SOL    HW226007   0.819   0.602   0.476
 8370SOL     OW26008   2.447   3.068   1.099
 8370SOL    HW126009   2.530   3.077   1.044
 8370SOL    HW226010   2.472   3.070   1.196
 8371SOL     OW26011   3.032   4.068   5.561
 8371SOL    HW126012   3.013   4.072   5.462
 8371SOL    HW226013   2.945   4.064   5.611
 8372SOL     OW26014   2.050   6.823   3.017
 8372SOL    HW126015   2.041   6.817   2.918
 8372SOL    HW226016   2.104   6.904   3.041
 8373SOL     OW26017   5.776   0.393   4.148
 8373SOL    HW126018   5.732   0.308   4.178
 8373SOL    HW226019   5.707   0.453   4.105
 8374SOL     OW26020   0.928   2.167   3.922
 8374SOL    HW126021   0.941   2.202   3.829
 8374SOL    HW226022   1.016   2.142   3.961
 8375SOL     OW26023   2.180   2.955   5.768
 8375SOL    HW126024   2.152   2.864   5.798
 8375SOL    HW226025   2.153   2.969   5.673
 8376SOL     OW26026   0.822   1.458   3.933
 8376SOL    HW126027   0.790   1.483   3.842
 8376SOL    HW226028   0.859   1.365   3.931
 8377SOL     OW26029   4.199   5.183   1.400
 8377SOL    HW126030   4.113   5.151   1.360
 8377SOL    HW226031   4.205   5.152   1.495
 8378SOL     OW26032   4.433   5.995   5.406
 8378SOL    HW126033   4.458   5.901   5.386
 8378SOL    HW226034   4.341   6.014   5.370
 8379SOL     OW26035   5.681   2.793   1.930
 8379SOL    HW126036   5.600   2.756   1.974
 8379SOL    HW226037   5.739   2.717   1.899
 8380SOL     OW26038   1.257   4.863   2.959
 8380SOL    HW126039   1.277   4.915   3.042
 8380SOL    HW226040   1.218   4.774   2.983
 8381SOL     OW26041   0.905   2.380   2.714
 8381SOL    HW126042   0.986   2.439   2.715
 8381SOL    HW226043   0.880   2.356   2.807
 8382SOL     OW26044   1.347   0.028   1.647
 8382SOL    HW126045   1.372   0.008   1.742
 8382SOL    HW226046   1.423   0.004   1.587
 8383SOL     OW26047   2.029   6.694   4.952
 8383SOL    HW126048   2.079   6.676   4.867
 8383SOL    HW226049   1.966   6.618   4.970
 8384SOL     OW26050   0.282   4.328   3.645
 8384SOL    HW126051   0.345   4.261   3.683
 8384SOL    HW226052   0.229   4.370   3.718
 8385SOL     OW26053   4.358   2.396   2.320
 8385SOL    HW126054   4.317   2.480   2.284
 8385SOL    HW226055   4.307   2.317   2.288
 8386SOL     OW26056   6.712   5.406   2.202
 8386SOL    HW126057   6.674   5.394   2.293
 8386SOL    HW226058   6.660   5.475   2.152
 8387SOL     OW26059   0.487   2.069   3.523
 8387SOL    HW126060   0.410   2.053   3.461
 8387SOL    HW226061   0.463   2.141   3.588
 8388SOL     OW26062   3.538   6.168   1.859
 8388SOL    HW126063   3.472   6.163   1.935
 8388SOL    HW226064   3.600   6.244   1.874
 8389SOL     OW26065   1.730   2.545   4.330
 8389SOL    HW126066   1.737   2.477   4.257
 8389SOL    HW226067   1.776   2.511   4.412
 8390SOL     OW26068   1.216   6.327   6.267
 8390SOL    HW126069   1.236   6.255   6.200
 8390SOL    HW226070   1.155   6.395   6.227
 8391SOL     OW26071   4.879   6.337   0.714
 8391SOL    HW126072   4.933   6.383   0.644
 8391SOL    HW226073   4.909   6.368   0.804
 8392SOL     OW26074   3.512   5.935   0.553
 8392SOL    HW126075   3.568   5.984   0.486
 8392SOL    HW226076   3.534   5.838   0.549
 8393SOL     OW26077   1.611   6.343   1.601
 8393SOL    HW126078   1.701   6.355   1.642
 8393SOL    HW226079   1.548   6.412   1.637
 8394SOL     OW26080   1.797   1.273   3.612
 8394SOL    HW126081   1.803   1.357   3.666
 8394SOL    HW226082   1.702   1.243   3.606
 8395SOL     OW26083   2.019   5.904   6.300
 8395SOL    HW126084   1.998   5.821   6.352
 8395SOL    HW226085   1.943   5.924   6.238
 8396SOL     OW26086   4.662   1.888   0.956
 8396SOL    HW126087   4.680   1.974   0.908
 8396SOL    HW226088   4.714   1.814   0.912
 8397SOL     OW26089   0.560   4.397   3.352
 8397SOL    HW126090   0.523   4.304   3.362
 8397SOL    HW226091   0.500   4.461   3.400
 8398SOL     OW26092   5.203   1.329   6.922
 8398SOL    HW126093   5.291   1.375   6.928
 8398SOL    HW226094   5.131   1.390   6.957
 8399SOL     OW26095   5.633   6.242   5.560
 8399SOL    HW126096   5.708   6.256   5.496
 8399SOL    HW226097   5.577   6.165   5.531
 8400SOL     OW26098   5.978   6.249   3.408
 8400SOL    HW126099   5.980   6.177   3.338
 8400SOL    HW226100   6.061   6.304   3.402
 8401SOL     OW26101   2.779   3.764   5.283
 8401SOL    HW126102   2.804   3.752   5.379
 8401SOL    HW226103   2.681   3.783   5.277
 8402SOL     OW26104   4.970   1.182   4.845
 8402SOL    HW126105   4.900   1.170   4.915
 8402SOL    HW226106   5.055   1.141   4.876
 8403SOL     OW26107   0.625   1.688   6.205
 8403SOL    HW126108   0.613   1.766   6.266
 8403SOL    HW226109   0.721   1.684   6.175
 8404SOL     OW26110   5.002   5.208   5.311
 8404SOL    HW126111   4.974   5.304   5.315
 8404SOL    HW226112   4.940   5.158   5.251
 8405SOL     OW26113   0.686   2.577   6.055
 8405SOL    HW126114   0.714   2.673   6.046
 8405SOL    HW226115   0.767   2.520   6.068
 8406SOL     OW26116   5.768   4.328   1.487
 8406SOL    HW126117   5.812   4.378   1.562
 8406SOL    HW226118   5.680   4.370   1.466
 8407SOL     OW26119   5.780   3.791   2.381
 8407SOL    HW126120   5.754   3.849   2.458
 8407SOL    HW226121   5.768   3.695   2.406
 8408SOL     OW26122   4.701   4.261   4.112
 8408SOL    HW126123   4.681   4.204   4.032
 8408SOL    HW226124   4.649   4.346   4.107
 8409SOL     OW26125   1.547   2.141   3.848
 8409SOL    HW126126   1.572   2.045   3.849
 8409SOL    HW226127   1.487   2.160   3.770
 8410SOL     OW26128   1.977   4.982   2.601
 8410SOL    HW126129   1.881   5.005   2.613
 8410SOL    HW226130   2.007   4.924   2.678
 8411SOL     OW26131   1.654   3.398   3.065
 8411SOL    HW126132   1.558   3.417   3.045
 8411SOL    HW226133   1.697   3.480   3.103
 8412SOL     OW26134   5.643   2.602   2.484
 8412SOL    HW126135   5.627   2.699   2.469
 8412SOL    HW226136   5.729   2.590   2.535
 8413SOL     OW26137   1.805   5.698   1.862
 8413SOL    HW126138   1.904   5.711   1.872
 8413SOL    HW226139   1.759   5.787   1.863
 8414SOL     OW26140   6.327   0.207   4.381
 8414SOL    HW126141   6.308   0.295   4.423
 8414SOL    HW226142   6.257   0.187   4.312
 8415SOL     OW26143   0.724   5.087   0.943
 8415SOL    HW126144   0.808   5.044   0.910
 8415SOL    HW226145   0.647   5.057   0.888
 8416SOL     OW26146   4.426   4.797   3.109
 8416SOL    HW126147   4.374   4.749   3.038
 8416SOL    HW226148   4.524   4.787   3.090
 8417SOL     OW26149   0.986   5.637   0.270
 8417SOL    HW126150   0.938   5.718   0.303
 8417SOL    HW226151   0.922   5.562   0.260
 8418SOL     OW26152   5.374   5.781   2.789
 8418SOL    HW126153   5.289   5.791   2.737
 8418SOL    HW226154   5.446   5.832   2.743
 8419SOL     OW26155   3.238   1.452   3.356
 8419SOL    HW126156   3.300   1.443   3.278
 8419SOL    HW226157   3.285   1.501   3.429
 8420SOL     OW26158   5.130   1.587   5.375
 8420SOL    HW126159   5.117   1.525   5.297
 8420SOL    HW226160   5.167   1.674   5.342
 8421SOL     OW26161   0.170   1.099   0.520
 8421SOL    HW126162   0.132   1.007   0.529
 8421SOL    HW226163   0.248   1.109   0.582
 8422SOL     OW26164   2.902   1.169   1.356
 8422SOL    HW126165   2.855   1.183   1.269
 8422SOL    HW226166   2.843   1.198   1.431
 8423SOL     OW26167   2.000   4.639   0.972
 8423SOL    HW126168   2.086   4.690   0.964
 8423SOL    HW226169   1.973   4.635   1.068
 8424SOL     OW26170   2.803   2.110   1.909
 8424SOL    HW126171   2.830   2.202   1.940
 8424SOL    HW226172   2.878   2.070   1.857
 8425SOL     OW26173   0.511   4.869   5.822
 8425SOL    HW126174   0.572   4.936   5.865
 8425SOL    HW226175   0.447   4.834   5.890
 8426SOL     OW26176   3.784   3.610   2.311
 8426SOL    HW126177   3.791   3.523   2.360
 8426SOL    HW226178   3.871   3.630   2.267
 8427SOL     OW26179   2.315   1.269   0.024
 8427SOL    HW126180   2.342   1.183   7.001
 8427SOL    HW226181   2.255   1.249   0.101
 8428SOL     OW26182   6.207   3.847   1.127
 8428SOL    HW126183   6.146   3.791   1.071
 8428SOL    HW226184   6.297   3.804   1.132
 8429SOL     OW26185   1.401   6.562   2.940
 8429SOL    HW126186   1.410   6.653   2.901
 8429SOL    HW226187   1.311   6.554   2.984
 8430SOL     OW26188   3.966   6.284   2.790
 8430SOL    HW126189   3.870   6.261   2.801
 8430SOL    HW226190   4.023   6.215   2.833
 8431SOL     OW26191   3.064   3.178   2.372
 8431SOL    HW126192   3.019   3.251   2.321
 8431SOL    HW226193   3.105   3.113   2.308
 8432SOL     OW26194   4.887   5.526   0.089
 8432SOL    HW126195   4.814   5.568   0.036
 8432SOL    HW226196   4.961   5.593   0.103
 8433SOL     OW26197   0.066   1.637   4.006
 8433SOL    HW126198   0.034   1.573   3.936
 8433SOL    HW226199   0.160   1.665   3.986
 8434SOL     OW26200   5.122   6.541   6.988
 8434SOL    HW126201   5.190   6.556   0.038
 8434SOL    HW226202   5.030   6.540   0.008
 8435SOL     OW26203   4.453   3.600   0.954
 8435SOL    HW126204   4.533   3.650   0.920
 8435SOL    HW226205   4.483   3.513   0.994
 8436SOL     OW26206   3.062   4.188   1.748
 8436SOL    HW126207   3.133   4.255   1.725
 8436SOL    HW226208   3.099   4.124   1.817
 8437SOL     OW26209   0.045   2.529   0.543
 8437SOL    HW126210   0.020   2.555   0.636
 8437SOL    HW226211   0.129   2.475   0.544
 8438SOL     OW26212   2.117   5.588   1.662
 8438SOL    HW126213   2.070   5.523   1.602
 8438SOL    HW226214   2.109   5.558   1.757
 8439SOL     OW26215   5.373   0.299   1.926
 8439SOL    HW126216   5.434   0.361   1.878
 8439SOL    HW226217   5.304   0.264   1.862
 8440SOL     OW26218   1.149   3.836   3.926
 8440SOL    HW126219   1.128   3.792   3.839
 8440SOL    HW226220   1.067   3.882   3.961
 8441SOL     OW26221   3.825   5.980   1.210
 8441SOL    HW126222   3.893   5.908   1.197
 8441SOL    HW226223   3.842   6.025   1.298
 8442SOL     OW26224   2.516   2.964   0.738
 8442SOL    HW126225   2.581   2.969   0.813
 8442SOL    HW226226   2.484   2.869   0.727
 8443SOL     OW26227   0.115   2.443   1.223
 8443SOL    HW126228   0.017   2.424   1.218
 8443SOL    HW226229   0.150   2.467   1.132
 8444SOL     OW26230   5.057   2.341   3.433
 8444SOL    HW126231   5.049   2.276   3.509
 8444SOL    HW226232   5.034   2.294   3.347
 8445SOL     OW26233   3.896   5.871   2.220
 8445SOL    HW126234   3.992   5.879   2.192
 8445SOL    HW226235   3.891   5.835   2.313
 8446SOL     OW26236   6.232   3.992   3.066
 8446SOL    HW126237   6.148   3.974   3.118
 8446SOL    HW226238   6.302   4.030   3.127
 8447SOL     OW26239   5.026   4.339   1.106
 8447SOL    HW126240   5.080   4.308   1.185
 8447SOL    HW226241   4.951   4.397   1.138
 8448SOL     OW26242   1.680   4.699   5.882
 8448SOL    HW126243   1.595   4.738   5.849
 8448SOL    HW226244   1.733   4.770   5.929
 8449SOL     OW26245   1.426   0.409   5.549
 8449SOL    HW126246   1.521   0.400   5.577
 8449SOL    HW226247   1.418   0.394   5.451
 8450SOL     OW26248   1.780   5.577   0.856
 8450SOL    HW126249   1.810   5.487   0.823
 8450SOL    HW226250   1.755   5.634   0.778
 8451SOL     OW26251   2.717   4.126   1.420
 8451SOL    HW126252   2.770   4.144   1.337
 8451SOL    HW226253   2.663   4.043   1.407
 8452SOL     OW26254   6.686   5.935   2.583
 8452SOL    HW126255   6.619   5.895   2.521
 8452SOL    HW226256   6.650   5.932   2.677
 8453SOL     OW26257   0.372   4.761   5.286
 8453SOL    HW126258   0.423   4.690   5.335
 8453SOL    HW226259   0.348   4.728   5.195
 8454SOL     OW26260   1.958   6.766   5.278
 8454SOL    HW126261   1.912   6.837   5.224
 8454SOL    HW226262   1.895   6.689   5.292
 8455SOL     OW26263   6.092   2.326   0.497
 8455SOL    HW126264   6.075   2.375   0.583
 8455SOL    HW226265   6.161   2.255   0.512
 8456SOL     OW26266   6.280   4.784   3.779
 8456SOL    HW126267   6.291   4.791   3.680
 8456SOL    HW226268   6.367   4.806   3.823
 8457SOL     OW26269   5.821   6.090   6.320
 8457SOL    HW126270   5.853   6.025   6.251
 8457SOL    HW226271   5.856   6.063   6.410
 8458SOL     OW26272   0.980   1.715   1.174
 8458SOL    HW126273   0.951   1.773   1.098
 8458SOL    HW226274   0.902   1.699   1.235
 8459SOL     OW26275   2.732   5.207   3.074
 8459SOL    HW126276   2.786   5.218   3.158
 8459SOL    HW226277   2.756   5.120   3.031
 8460SOL     OW26278   3.614   1.408   1.063
 8460SOL    HW126279   3.696   1.356   1.038
 8460SOL    HW226280   3.606   1.410   1.163
 8461SOL     OW26281   5.690   4.764   2.991
 8461SOL    HW126282   5.717   4.770   2.895
 8461SOL    HW226283   5.622   4.693   3.002
 8462SOL     OW26284   2.025   4.032   0.713
 8462SOL    HW126285   2.004   4.115   0.765
 8462SOL    HW226286   2.123   4.013   0.718
 8463SOL     OW26287   0.146   6.419   1.154
 8463SOL    HW126288   0.112   6.480   1.082
 8463SOL    HW226289   0.213   6.468   1.210
 8464SOL     OW26290   0.338   3.566   6.661
 8464SOL    HW126291   0.348   3.553   6.563
 8464SOL    HW226292   0.398   3.640   6.692
 8465SOL     OW26293   5.944   4.580   0.340
 8465SOL    HW126294   5.977   4.558   0.432
 8465SOL    HW226295   5.864   4.524   0.318
 8466SOL     OW26296   0.419   1.624   4.900
 8466SOL    HW126297   0.453   1.718   4.889
 8466SOL    HW226298   0.492   1.560   4.876
 8467SOL     OW26299   3.156   1.405   0.817
 8467SOL    HW126300   3.214   1.481   0.847
 8467SOL    HW226301   3.142   1.342   0.893
 8468SOL     OW26302   6.496   3.737   1.022
 8468SOL    HW126303   6.566   3.712   1.089
 8468SOL    HW226304   6.446   3.656   0.994
 8469SOL     OW26305   3.506   3.003   5.299
 8469SOL    HW126306   3.515   2.994   5.398
 8469SOL    HW226307   3.467   2.919   5.261
 8470SOL     OW26308   2.074   5.443   1.402
 8470SOL    HW126309   2.129   5.362   1.422
 8470SOL    HW226310   2.126   5.504   1.342
 8471SOL     OW26311   4.017   2.049   3.878
 8471SOL    HW126312   3.997   1.982   3.806
 8471SOL    HW226313   4.105   2.094   3.859
 8472SOL     OW26314   5.840   1.541   6.832
 8472SOL    HW126315   5.791   1.590   6.904
 8472SOL    HW226316   5.916   1.490   6.872
 8473SOL     OW26317   4.726   5.098   5.679
 8473SOL    HW126318   4.777   5.022   5.639
 8473SOL    HW226319   4.774   5.184   5.661
 8474SOL     OW26320   3.551   3.399   6.050
 8474SOL    HW126321   3.587   3.328   5.990
 8474SOL    HW226322   3.451   3.397   6.048
 8475SOL     OW26323   0.343   1.933   2.683
 8475SOL    HW126324   0.330   1.969   2.590
 8475SOL    HW226325   0.303   1.842   2.690
 8476SOL     OW26326   6.695   1.028   2.405
 8476SOL    HW126327   6.777   1.013   2.350
 8476SOL    HW226328   6.618   0.981   2.362
 8477SOL     OW26329   5.381   6.730   0.963
 8477SOL    HW126330   5.473   6.700   0.987
 8477SOL    HW226331   5.321   6.650   0.953
 8478SOL     OW26332   1.723   6.575   6.689
 8478SOL    HW126333   1.709   6.485   6.729
 8478SOL    HW226334   1.674   6.643   6.744
 8479SOL     OW26335   1.053   2.394   6.988
 8479SOL    HW126336   1.121   2.349   0.025
 8479SOL    HW226337   0.973   2.419   0.022
 8480SOL     OW26338   3.207   4.411   1.667
 8480SOL    HW126339   3.292   4.459   1.688
 8480SOL    HW226340   3.132   4.477   1.660
 8481SOL     OW26341   4.971   3.521   2.216
 8481SOL    HW126342   4.938   3.456   2.284
 8481SOL    HW226343   4.942   3.492   2.125
 8482SOL     OW26344   4.751   0.435   5.725
 8482SOL    HW126345   4.789   0.373   5.656
 8482SOL    HW226346   4.809   0.516   5.733
 8483SOL     OW26347   4.736   5.292   3.648
 8483SOL    HW126348   4.709   5.388   3.651
 8483SOL    HW226349   4.678   5.238   3.710
 8484SOL     OW26350   6.120   6.960   5.355
 8484SOL    HW126351   6.116   6.902   5.436
 8484SOL    HW226352   6.027   6.980   5.323
 8485SOL     OW26353   3.913   0.498   5.509
 8485SOL    HW126354   3.996   0.536   5.468
 8485SOL    HW226355   3.924   0.493   5.608
 8486SOL     OW26356   4.763   2.898   4.888
 8486SOL    HW126357   4.706   2.817   4.898
 8486SOL    HW226358   4.761   2.929   4.793
 8487SOL     OW26359   6.937   1.558   5.481
 8487SOL    HW126360   6.962   1.576   5.576
 8487SOL    HW226361   6.961   1.637   5.424
 8488SOL     OW26362   4.667   5.265   3.085
 8488SOL    HW126363   4.645   5.290   2.990
 8488SOL    HW226364   4.735   5.329   3.121
 8489SOL     OW26365   6.650   2.303   2.037
 8489SOL    HW126366   6.637   2.278   2.133
 8489SOL    HW226367   6.586   2.376   2.012
 8490SOL     OW26368   3.981   6.771   0.372
 8490SOL    HW126369   4.028   6.706   0.433
 8490SOL    HW226370   4.006   6.864   0.398
 8491SOL     OW26371   3.171   6.197   1.811
 8491SOL    HW126372   3.182   6.296   1.821
 8491SOL    HW226373   3.074   6.174   1.813
 8492SOL     OW26374   5.859   6.919   4.110
 8492SOL    HW126375   5.912   6.849   4.158
 8492SOL    HW226376   5.912   6.954   4.033
 8493SOL     OW26377   4.968   0.256   5.600
 8493SOL    HW126378   5.038   0.228   5.535
 8493SOL    HW226379   4.886   0.199   5.588
 8494SOL     OW26380   0.430   3.772   2.347
 8494SOL    HW126381   0.484   3.710   2.291
 8494SOL    HW226382   0.391   3.722   2.424
 8495SOL     OW26383   4.961   5.960   4.950
 8495SOL    HW126384   4.950   5.915   5.038
 8495SOL    HW226385   5.018   5.904   4.890
 8496SOL     OW26386   3.927   1.883   2.373
 8496SOL    HW126387   3.975   1.816   2.317
 8496SOL    HW226388   3.847   1.917   2.323
 8497SOL     OW26389   6.872   0.714   3.322
 8497SOL    HW126390   6.821   0.779   3.266
 8497SOL    HW226391   6.811   0.674   3.390
 8498SOL     OW26392   5.050   6.455   4.941
 8498SOL    HW126393   5.075   6.359   4.954
 8498SOL    HW226394   5.056   6.503   5.029
 8499SOL     OW26395   6.182   0.147   5.989
 8499SOL    HW126396   6.131   0.089   6.053
 8499SOL    HW226397   6.265   0.180   6.033
 8500SOL     OW26398   1.140   0.822   6.174
 8500SOL    HW126399   1.072   0.753   6.197
 8500SOL    HW226400   1.197   0.788   6.099
 8501SOL     OW26401   3.492   0.596   5.172
 8501SOL    HW126402   3.579   0.573   5.129
 8501SOL    HW226403   3.425   0.622   5.102
 8502SOL     OW26404   6.309   2.963   0.496
 8502SOL    HW126405   6.255   2.882   0.470
 8502SOL    HW226406   6.398   2.933   0.532
 8503SOL     OW26407   4.668   2.195   5.940
 8503SOL    HW126408   4.606   2.117   5.945
 8503SOL    HW226409   4.640   2.254   5.864
 8504SOL     OW26410   1.546   0.780   3.174
 8504SOL    HW126411   1.584   0.860   3.221
 8504SOL    HW226412   1.513   0.807   3.084
 8505SOL     OW26413   5.824   2.236   2.899
 8505SOL    HW126414   5.839   2.210   2.995
 8505SOL    HW226415   5.890   2.306   2.873
 8506SOL     OW26416   1.777   0.858   4.692
 8506SOL    HW126417   1.744   0.940   4.739
 8506SOL    HW226418   1.862   0.879   4.643
 8507SOL     OW26419   4.725   4.820   6.710
 8507SOL    HW126420   4.689   4.727   6.713
 8507SOL    HW226421   4.654   4.885   6.737
 8508SOL     OW26422   4.038   0.851   6.536
 8508SOL    HW126423   3.975   0.791   6.486
 8508SOL    HW226424   3.986   0.918   6.588
 8509SOL     OW26425   4.325   1.842   2.251
 8509SOL    HW126426   4.269   1.899   2.311
 8509SOL    HW226427   4.277   1.827   2.165
 8510SOL     OW26428   0.804   2.191   5.028
 8510SOL    HW126429   0.722   2.182   4.972
 8510SOL    HW226430   0.857   2.270   4.997
 8511SOL     OW26431   5.500   2.218   4.074
 8511SOL    HW126432   5.442   2.253   4.147
 8511SOL    HW226433   5.528   2.293   4.015
 8512SOL     OW26434   2.145   6.575   6.421
 8512SOL    HW126435   2.196   6.620   6.494
 8512SOL    HW226436   2.208   6.524   6.363
 8513SOL     OW26437   4.100   5.824   6.954
 8513SOL    HW126438   4.132   5.742   7.000
 8513SOL    HW226439   4.022   5.802   6.895
 8514SOL     OW26440   4.335   5.570   4.583
 8514SOL    HW126441   4.277   5.492   4.609
 8514SOL    HW226442   4.325   5.587   4.485
 8515SOL     OW26443   5.360   3.305   1.940
 8515SOL    HW126444   5.346   3.206   1.932
 8515SOL    HW226445   5.407   3.339   1.859
 8516SOL     OW26446   6.642   2.473   1.690
 8516SOL    HW126447   6.702   2.511   1.761
 8516SOL    HW226448   6.665   2.513   1.602
 8517SOL     OW26449   0.960   3.867   4.563
 8517SOL    HW126450   0.905   3.818   4.631
 8517SOL    HW226451   1.056   3.842   4.575
 8518SOL     OW26452   4.039   5.807   0.875
 8518SOL    HW126453   3.956   5.760   0.846
 8518SOL    HW226454   4.026   5.906   0.867
 8519SOL     OW26455   2.837   5.479   3.409
 8519SOL    HW126456   2.843   5.531   3.324
 8519SOL    HW226457   2.768   5.407   3.399
 8520SOL     OW26458   3.806   5.340   0.138
 8520SOL    HW126459   3.841   5.434   0.144
 8520SOL    HW226460   3.711   5.337   0.166
 8521SOL     OW26461   1.225   1.012   2.921
 8521SOL    HW126462   1.188   1.092   2.969
 8521SOL    HW226463   1.165   0.934   2.936
 8522SOL     OW26464   2.531   5.930   4.165
 8522SOL    HW126465   2.614   5.882   4.136
 8522SOL    HW226466   2.543   5.963   4.258
 8523SOL     OW26467   1.908   5.685   6.657
 8523SOL    HW126468   1.908   5.699   6.558
 8523SOL    HW226469   1.983   5.737   6.698
 8524SOL     OW26470   1.748   1.553   6.855
 8524SOL    HW126471   1.773   1.601   6.772
 8524SOL    HW226472   1.803   1.470   6.864
 8525SOL     OW26473   5.412   4.258   4.165
 8525SOL    HW126474   5.501   4.271   4.209
 8525SOL    HW226475   5.375   4.168   4.190
 8526SOL     OW26476   0.023   2.961   1.935
 8526SOL    HW126477   0.059   3.045   1.974
 8526SOL    HW226478   6.945   2.957   1.948
 8527SOL     OW26479   4.895   0.583   5.082
 8527SOL    HW126480   4.817   0.632   5.120
 8527SOL    HW226481   4.966   0.649   5.057
 8528SOL     OW26482   5.045   0.236   0.117
 8528SOL    HW126483   5.030   0.326   0.160
 8528SOL    HW226484   5.074   0.171   0.188
 8529SOL     OW26485   0.022   0.416   4.475
 8529SOL    HW126486   6.950   0.380   4.478
 8529SOL    HW226487   0.047   0.434   4.380
 8530SOL     OW26488   2.018   5.124   5.934
 8530SOL    HW126489   2.057   5.134   5.843
 8530SOL    HW226490   2.084   5.078   5.994
 8531SOL     OW26491   3.608   5.919   3.180
 8531SOL    HW126492   3.692   5.973   3.189
 8531SOL    HW226493   3.593   5.898   3.083
 8532SOL     OW26494   1.235   3.961   6.897
 8532SOL    HW126495   1.176   3.969   6.817
 8532SOL    HW226496   1.181   3.927   6.975
 8533SOL     OW26497   3.376   0.221   5.993
 8533SOL    HW126498   3.347   0.251   6.084
 8533SOL    HW226499   3.456   0.274   5.965
 8534SOL     OW26500   2.747   2.433   0.893
 8534SOL    HW126501   2.684   2.497   0.848
 8534SOL    HW226502   2.742   2.344   0.849
 8535SOL     OW26503   0.398   2.343   6.119
 8535SOL    HW126504   0.437   2.256   6.146
 8535SOL    HW226505   0.419   2.412   6.189
 8536SOL     OW26506   6.562   0.560   6.467
 8536SOL    HW126507   6.593   0.598   6.554
 8536SOL    HW226508   6.616   0.600   6.392
 8537SOL     OW26509   3.924   5.916   3.163
 8537SOL    HW126510   3.925   5.907   3.064
 8537SOL    HW226511   4.014   5.891   3.200
 8538SOL     OW26512   4.044   1.267   5.071
 8538SOL    HW126513   4.069   1.244   5.165
 8538SOL    HW226514   4.099   1.344   5.040
 8539SOL     OW26515   0.413   3.251   2.581
 8539SOL    HW126516   0.315   3.274   2.585
 8539SOL    HW226517   0.426   3.156   2.610
 8540SOL     OW26518   4.544   6.129   6.070
 8540SOL    HW126519   4.478   6.156   6.141
 8540SOL    HW226520   4.608   6.062   6.108
 8541SOL     OW26521   3.262   5.712   5.791
 8541SOL    HW126522   3.299   5.733   5.701
 8541SOL    HW226523   3.336   5.686   5.852
 8542SOL     OW26524   1.726   5.088   5.714
 8542SOL    HW126525   1.749   5.073   5.811
 8542SOL    HW226526   1.794   5.150   5.674
 8543SOL     OW26527   3.440   1.792   5.665
 8543SOL    HW126528   3.519   1.733   5.677
 8543SOL    HW226529   3.362   1.738   5.635
 8544SOL     OW26530   5.005   3.773   5.490
 8544SOL    HW126531   5.101   3.745   5.484
 8544SOL    HW226532   5.000   3.868   5.520
 8545SOL     OW26533   2.211   0.375   6.059
 8545SOL    HW126534   2.132   0.315   6.065
 8545SOL    HW226535   2.242   0.381   5.964
 8546SOL     OW26536   2.617   1.289   4.186
 8546SOL    HW126537   2.575   1.241   4.109
 8546SOL    HW226538   2.706   1.250   4.207
 8547SOL     OW26539   5.821   5.088   5.505
 8547SOL    HW126540   5.884   5.090   5.583
 8547SOL    HW226541   5.871   5.059   5.424
 8548SOL     OW26542   1.701   4.380   4.134
 8548SOL    HW126543   1.641   4.393   4.213
 8548SOL    HW226544   1.745   4.291   4.140
 8549SOL     OW26545   3.401   0.375   3.741
 8549SOL    HW126546   3.444   0.461   3.765
 8549SOL    HW226547   3.384   0.321   3.823
 8550SOL     OW26548   0.644   3.543   4.985
 8550SOL    HW126549   0.547   3.553   4.961
 8550SOL    HW226550   0.656   3.462   5.042
 8551SOL     OW26551   3.523   1.836   3.526
 8551SOL    HW126552   3.619   1.845   3.551
 8551SOL    HW226553   3.494   1.917   3.474
 8552SOL     OW26554   4.145   1.036   2.135
 8552SOL    HW126555   4.100   1.124   2.120
 8552SOL    HW226556   4.129   1.006   2.230
 8553SOL     OW26557   5.534   3.452   0.837
 8553SOL    HW126558   5.628   3.423   0.819
 8553SOL    HW226559   5.502   3.509   0.761
 8554SOL     OW26560   0.687   1.100   6.839
 8554SOL    HW126561   0.618   1.073   6.906
 8554SOL    HW226562   0.776   1.105   6.884
 8555SOL     OW26563   3.423   1.895   3.805
 8555SOL    HW126564   3.367   1.978   3.808
 8555SOL    HW226565   3.442   1.872   3.710
 8556SOL     OW26566   0.737   3.935   5.329
 8556SOL    HW126567   0.667   3.864   5.332
 8556SOL    HW226568   0.699   4.020   5.365
 8557SOL     OW26569   5.956   0.655   0.697
 8557SOL    HW126570   6.013   0.646   0.778
 8557SOL    HW226571   5.962   0.748   0.662
 8558SOL     OW26572   2.714   5.805   3.169
 8558SOL    HW126573   2.765   5.719   3.182
 8558SOL    HW226574   2.618   5.791   3.193
 8559SOL     OW26575   1.543   2.993   3.611
 8559SOL    HW126576   1.472   3.057   3.584
 8559SOL    HW226577   1.562   2.930   3.535
 8560SOL     OW26578   3.398   4.292   1.472
 8560SOL    HW126579   3.487   4.262   1.508
 8560SOL    HW226580   3.344   4.332   1.547
 8561SOL     OW26581   3.634   0.694   1.990
 8561SOL    HW126582   3.590   0.702   1.900
 8561SOL    HW226583   3.597   0.613   2.037
 8562SOL     OW26584   5.357   3.612   5.999
 8562SOL    HW126585   5.297   3.669   6.055
 8562SOL    HW226586   5.415   3.556   6.058
 8563SOL     OW26587   0.467   4.353   3.065
 8563SOL    HW126588   0.506   4.394   3.148
 8563SOL    HW226589   0.367   4.362   3.068
 8564SOL     OW26590   4.377   6.180   6.999
 8564SOL    HW126591   4.322   6.166   0.061
 8564SOL    HW226592   4.460   6.230   0.002
 8565SOL     OW26593   1.004   5.036   0.840
 8565SOL    HW126594   1.067   4.999   0.771
 8565SOL    HW226595   1.035   5.009   0.931
 8566SOL     OW26596   2.336   0.835   3.199
 8566SOL    HW126597   2.329   0.931   3.225
 8566SOL    HW226598   2.311   0.823   3.103
 8567SOL     OW26599   1.535   3.617   0.439
 8567SOL    HW126600   1.459   3.560   0.411
 8567SOL    HW226601   1.600   3.562   0.492
 8568SOL     OW26602   6.070   6.638   6.485
 8568SOL    HW126603   6.004   6.693   6.535
 8568SOL    HW226604   6.061   6.656   6.387
 8569SOL     OW26605   4.221   1.801   5.868
 8569SOL    HW126606   4.297   1.753   5.825
 8569SOL    HW226607   4.227   1.790   5.967
 8570SOL     OW26608   2.053   2.377   4.226
 8570SOL    HW126609   2.044   2.377   4.326
 8570SOL    HW226610   2.111   2.301   4.198
 8571SOL     OW26611   1.387   0.862   3.804
 8571SOL    HW126612   1.471   0.843   3.754
 8571SOL    HW226613   1.310   0.817   3.760
 8572SOL     OW26614   2.650   2.951   6.168
 8572SOL    HW126615   2.591   2.926   6.245
 8572SOL    HW226616   2.665   3.050   6.168
 8573SOL     OW26617   1.807   5.935   6.083
 8573SOL    HW126618   1.873   6.010   6.073
 8573SOL    HW226619   1.797   5.888   5.996
 8574SOL     OW26620   5.978   2.317   5.511
 8574SOL    HW126621   5.901   2.369   5.547
 8574SOL    HW226622   6.049   2.379   5.479
 8575SOL     OW26623   2.658   6.548   4.100
 8575SOL    HW126624   2.558   6.544   4.099
 8575SOL    HW226625   2.692   6.501   4.181
 8576SOL     OW26626   1.327   3.693   4.806
 8576SOL    HW126627   1.337   3.596   4.830
 8576SOL    HW226628   1.397   3.746   4.854
 8577SOL     OW26629   1.960   1.042   0.602
 8577SOL    HW126630   1.875   1.079   0.566
 8577SOL    HW226631   2.038   1.088   0.558
 8578SOL     OW26632   1.595   0.473   5.957
 8578SOL    HW126633   1.673   0.414   5.939
 8578SOL    HW226634   1.628   0.562   5.991
 8579SOL     OW26635   2.604   0.033   2.358
 8579SOL    HW126636   2.585   6.958   2.338
 8579SOL    HW226637   2.703   0.045   2.371
 8580SOL     OW26638   1.332   0.555   1.933
 8580SOL    HW126639   1.426   0.552   1.967
 8580SOL    HW226640   1.293   0.646   1.951
 8581SOL     OW26641   4.155   3.448   3.831
 8581SOL    HW126642   4.104   3.377   3.783
 8581SOL    HW226643   4.114   3.463   3.921
 8582SOL     OW26644   5.050   5.647   5.772
 8582SOL    HW126645   5.064   5.550   5.792
 8582SOL    HW226646   5.132   5.698   5.798
 8583SOL     OW26647   3.382   0.528   2.673
 8583SOL    HW126648   3.470   0.486   2.650
 8583SOL    HW226649   3.332   0.469   2.735
 8584SOL     OW26650   5.348   2.535   5.586
 8584SOL    HW126651   5.354   2.498   5.493
 8584SOL    HW226652   5.252   2.536   5.615
 8585SOL     OW26653   4.536   2.552   3.076
 8585SOL    HW126654   4.594   2.499   3.014
 8585SOL    HW226655   4.459   2.495   3.105
 8586SOL     OW26656   6.276   0.111   5.732
 8586SOL    HW126657   6.302   0.018   5.708
 8586SOL    HW226658   6.234   0.111   5.823
 8587SOL     OW26659   6.526   6.983   0.962
 8587SOL    HW126660   6.452   0.021   0.931
 8587SOL    HW226661   6.529   6.981   1.062
 8588SOL     OW26662   1.774   2.111   5.515
 8588SOL    HW126663   1.823   2.028   5.487
 8588SOL    HW226664   1.839   2.183   5.537
 8589SOL     OW26665   6.225   3.285   6.685
 8589SOL    HW126666   6.167   3.335   6.748
 8589SOL    HW226667   6.177   3.204   6.651
 8590SOL     OW26668   0.978   1.412   2.981
 8590SOL    HW126669   0.917   1.445   2.908
 8590SOL    HW226670   0.925   1.356   3.045
 8591SOL     OW26671   0.643   4.128   5.871
 8591SOL    HW126672   0.568   4.073   5.836
 8591SOL    HW226673   0.615   4.224   5.877
 8592SOL     OW26674   0.182   2.337   4.521
 8592SOL    HW126675   0.127   2.335   4.604
 8592SOL    HW226676   0.138   2.397   4.453
 8593SOL     OW26677   6.657   1.137   0.589
 8593SOL    HW126678   6.655   1.143   0.689
 8593SOL    HW226679   6.631   1.225   0.550
 8594SOL     OW26680   6.149   2.800   6.340
 8594SOL    HW126681   6.197   2.726   6.387
 8594SOL    HW226682   6.120   2.769   6.250
 8595SOL     OW26683   5.877   6.471   2.505
 8595SOL    HW126684   5.843   6.383   2.537
 8595SOL    HW226685   5.949   6.456   2.437
 8596SOL     OW26686   0.413   2.864   5.312
 8596SOL    HW126687   0.431   2.774   5.351
 8596SOL    HW226688   0.469   2.932   5.358
 8597SOL     OW26689   6.399   2.329   5.489
 8597SOL    HW126690   6.488   2.298   5.523
 8597SOL    HW226691   6.327   2.299   5.552
 8598SOL     OW26692   6.427   0.529   5.939
 8598SOL    HW126693   6.505   0.476   5.971
 8598SOL    HW226694   6.439   0.552   5.842
 8599SOL     OW26695   5.401   4.399   4.974
 8599SOL    HW126696   5.475   4.333   4.987
 8599SOL    HW226697   5.315   4.351   4.958
 8600SOL     OW26698   3.853   2.996   1.880
 8600SOL    HW126699   3.763   3.037   1.867
 8600SOL    HW226700   3.853   2.904   1.841
 8601SOL     OW26701   4.860   5.105   1.731
 8601SOL    HW126702   4.783   5.113   1.667
 8601SOL    HW226703   4.829   5.129   1.823
 8602SOL     OW26704   1.707   6.123   5.121
 8602SOL    HW126705   1.650   6.189   5.171
 8602SOL    HW226706   1.725   6.156   5.029
 8603SOL     OW26707   0.888   1.176   0.022
 8603SOL    HW126708   0.890   1.141   0.115
 8603SOL    HW226709   0.941   1.115   6.984
 8604SOL     OW26710   1.914   5.439   5.956
 8604SOL    HW126711   1.962   5.524   5.933
 8604SOL    HW226712   1.978   5.378   6.003
 8605SOL     OW26713   6.518   4.600   3.948
 8605SOL    HW126714   6.543   4.689   3.911
 8605SOL    HW226715   6.459   4.553   3.882
 8606SOL     OW26716   0.800   0.170   6.209
 8606SOL    HW126717   0.863   0.214   6.144
 8606SOL    HW226718   0.824   0.073   6.218
 8607SOL     OW26719   2.992   2.856   1.638
 8607SOL    HW126720   3.008   2.759   1.660
 8607SOL    HW226721   2.897   2.880   1.658
 8608SOL     OW26722   1.920   5.231   2.359
 8608SOL    HW126723   1.856   5.173   2.308
 8608SOL    HW226724   2.014   5.205   2.333
 8609SOL     OW26725   4.984   2.391   4.020
 8609SOL    HW126726   4.977   2.401   4.119
 8609SOL    HW226727   4.946   2.302   3.993
 8610SOL     OW26728   0.061   5.373   2.577
 8610SOL    HW126729   7.018   5.427   2.632
 8610SOL    HW226730   0.009   5.305   2.524
 8611SOL     OW26731   2.192   1.701   5.446
 8611SOL    HW126732   2.230   1.780   5.398
 8611SOL    HW226733   2.214   1.708   5.543
 8612SOL     OW26734   3.226   3.030   5.746
 8612SOL    HW126735   3.315   3.022   5.790
 8612SOL    HW226736   3.163   2.963   5.785
 8613SOL     OW26737   3.027   3.346   3.335
 8613SOL    HW126738   3.033   3.305   3.427
 8613SOL    HW226739   3.040   3.274   3.267
 8614SOL     OW26740   0.097   3.236   3.828
 8614SOL    HW126741   0.052   3.259   3.915
 8614SOL    HW226742   0.147   3.316   3.795
 8615SOL     OW26743   3.931   0.809   5.211
 8615SOL    HW126744   3.844   0.818   5.258
 8615SOL    HW226745   3.916   0.811   5.112
 8616SOL     OW26746   5.821   3.779   5.192
 8616SOL    HW126747   5.855   3.686   5.181
 8616SOL    HW226748   5.833   3.830   5.107
 8617SOL     OW26749   0.745   0.005   4.129
 8617SOL    HW126750   0.792   0.064   4.194
 8617SOL    HW226751   0.657   0.046   4.104
 8618SOL     OW26752   6.816   5.348   0.128
 8618SOL    HW126753   6.726   5.369   0.167
 8618SOL    HW226754   6.814   5.256   0.088
 8619SOL     OW26755   5.778   5.161   6.440
 8619SOL    HW126756   5.692   5.204   6.414
 8619SOL    HW226757   5.852   5.197   6.382
 8620SOL     OW26758   1.412   6.088   4.166
 8620SOL    HW126759   1.412   6.124   4.073
 8620SOL    HW226760   1.498   6.041   4.184
 8621SOL     OW26761   6.537   3.721   1.574
 8621SOL    HW126762   6.511   3.634   1.534
 8621SOL    HW226763   6.462   3.786   1.565
 8622SOL     OW26764   0.855   6.381   1.635
 8622SOL    HW126765   0.836   6.299   1.688
 8622SOL    HW226766   0.911   6.358   1.556
 8623SOL     OW26767   1.896   1.842   3.292
 8623SOL    HW126768   1.944   1.897   3.224
 8623SOL    HW226769   1.935   1.859   3.382
 8624SOL     OW26770   2.982   3.670   5.965
 8624SOL    HW126771   3.040   3.748   5.940
 8624SOL    HW226772   2.986   3.602   5.891
 8625SOL     OW26773   4.497   3.393   6.234
 8625SOL    HW126774   4.577   3.367   6.179
 8625SOL    HW226775   4.526   3.451   6.310
 8626SOL     OW26776   4.820   1.461   0.246
 8626SOL    HW126777   4.891   1.525   0.216
 8626SOL    HW226778   4.795   1.402   0.169
 8627SOL     OW26779   0.015   0.233   2.164
 8627SOL    HW126780   0.106   0.258   2.198
 8627SOL    HW226781   0.018   0.223   2.064
 8628SOL     OW26782   1.227   6.584   0.661
 8628SOL    HW126783   1.128   6.593   0.669
 8628SOL    HW226784   1.250   6.518   0.590
 8629SOL     OW26785   0.172   1.029   4.579
 8629SOL    HW126786   0.147   1.073   4.493
 8629SOL    HW226787   0.246   0.963   4.563
 8630SOL     OW26788   5.131   3.073   1.632
 8630SOL    HW126789   5.166   3.161   1.664
 8630SOL    HW226790   5.035   3.083   1.606
 8631SOL     OW26791   1.498   6.073   0.235
 8631SOL    HW126792   1.431   6.001   0.218
 8631SOL    HW226793   1.466   6.159   0.195
 8632SOL     OW26794   6.157   6.073   3.692
 8632SOL    HW126795   6.173   6.107   3.599
 8632SOL    HW226796   6.113   5.984   3.688
 8633SOL     OW26797   6.677   3.899   5.776
 8633SOL    HW126798   6.751   3.864   5.719
 8633SOL    HW226799   6.611   3.948   5.719
 8634SOL     OW26800   4.713   4.558   6.871
 8634SOL    HW126801   4.803   4.524   6.899
 8634SOL    HW226802   4.691   4.524   6.780
 8635SOL     OW26803   5.499   2.157   6.590
 8635SOL    HW126804   5.402   2.183   6.585
 8635SOL    HW226805   5.529   2.122   6.501
 8636SOL     OW26806   4.738   5.913   0.163
 8636SOL    HW126807   4.798   5.992   0.174
 8636SOL    HW226808   4.743   5.855   0.244
 8637SOL     OW26809   3.072   2.641   0.767
 8637SOL    HW126810   3.021   2.623   0.851
 8637SOL    HW226811   3.145   2.707   0.785
 8638SOL     OW26812   4.708   2.058   4.448
 8638SOL    HW126813   4.732   2.143   4.495
 8638SOL    HW226814   4.756   1.981   4.491
 8639SOL     OW26815   3.851   4.060   0.353
 8639SOL    HW126816   3.899   4.067   0.266
 8639SOL    HW226817   3.838   4.152   0.391
 8640SOL     OW26818   3.059   2.501   6.325
 8640SOL    HW126819   3.144   2.451   6.337
 8640SOL    HW226820   3.059   2.582   6.384
 8641SOL     OW26821   3.348   5.246   3.117
 8641SOL    HW126822   3.384   5.153   3.115
 8641SOL    HW226823   3.337   5.276   3.212
 8642SOL     OW26824   2.428   6.234   3.200
 8642SOL    HW126825   2.344   6.246   3.146
 8642SOL    HW226826   2.434   6.306   3.269
 8643SOL     OW26827   3.621   6.075   1.046
 8643SOL    HW126828   3.704   6.036   1.085
 8643SOL    HW226829   3.645   6.145   0.979
 8644SOL     OW26830   5.232   2.548   6.732
 8644SOL    HW126831   5.264   2.546   6.827
 8644SOL    HW226832   5.243   2.457   6.692
 8645SOL     OW26833   5.198   5.660   2.579
 8645SOL    HW126834   5.272   5.593   2.569
 8645SOL    HW226835   5.143   5.661   2.496
 8646SOL     OW26836   6.797   1.978   3.993
 8646SOL    HW126837   6.717   1.953   4.048
 8646SOL    HW226838   6.771   1.983   3.896
 8647SOL     OW26839   1.950   4.451   2.015
 8647SOL    HW126840   1.919   4.533   2.062
 8647SOL    HW226841   2.036   4.419   2.056
 8648SOL     OW26842   6.052   5.680   6.218
 8648SOL    HW126843   6.035   5.659   6.315
 8648SOL    HW226844   5.977   5.736   6.183
 8649SOL     OW26845   5.428   2.760   2.036
 8649SOL    HW126846   5.396   2.753   1.941
 8649SOL    HW226847   5.352   2.787   2.095
 8650SOL     OW26848   1.134   1.045   5.038
 8650SOL    HW126849   1.143   1.131   4.989
 8650SOL    HW226850   1.218   0.991   5.026
 8651SOL     OW26851   4.821   1.357   1.500
 8651SOL    HW126852   4.832   1.455   1.514
 8651SOL    HW226853   4.903   1.309   1.534
 8652SOL     OW26854   6.411   2.998   4.930
 8652SOL    HW126855   6.483   2.949   4.979
 8652SOL    HW226856   6.426   2.990   4.831
 8653SOL     OW26857   4.575   0.781   0.023
 8653SOL    HW126858   4.598   0.757   6.950
 8653SOL    HW226859   4.478   0.803   0.029
 8654SOL     OW26860   0.123   4.205   3.102
 8654SOL    HW126861   0.153   4.255   3.183
 8654SOL    HW226862   0.122   4.266   3.023
 8655SOL     OW26863   1.302   6.939   5.071
 8655SOL    HW126864   1.303   6.902   5.164
 8655SOL    HW226865   1.283   6.865   5.006
 8656SOL     OW26866   3.550   6.124   0.306
 8656SOL    HW126867   3.542   6.041   0.251
 8656SOL    HW226868   3.481   6.190   0.277
 8657SOL     OW26869   3.251   2.003   2.396
 8657SOL    HW126870   3.172   1.955   2.434
 8657SOL    HW226871   3.237   2.016   2.297
 8658SOL     OW26872   6.229   4.028   0.897
 8658SOL    HW126873   6.220   3.982   0.985
 8658SOL    HW226874   6.186   3.971   0.826
 8659SOL     OW26875   3.520   0.208   3.560
 8659SOL    HW126876   3.510   0.268   3.639
 8659SOL    HW226877   3.540   0.115   3.591
 8660SOL     OW26878   6.960   4.640   1.051
 8660SOL    HW126879   0.013   4.593   1.004
 8660SOL    HW226880   6.890   4.573   1.078
 8661SOL     OW26881   5.729   3.267   1.545
 8661SOL    HW126882   5.684   3.314   1.469
 8661SOL    HW226883   5.680   3.182   1.566
 8662SOL     OW26884   1.682   2.895   2.498
 8662SOL    HW126885   1.583   2.906   2.507
 8662SOL    HW226886   1.715   2.827   2.564
 8663SOL     OW26887   3.095   5.346   2.020
 8663SOL    HW126888   3.055   5.403   2.092
 8663SOL    HW226889   3.148   5.403   1.958
 8664SOL     OW26890   3.242   5.912   4.293
 8664SOL    HW126891   3.229   5.884   4.198
 8664SOL    HW226892   3.337   5.898   4.320
 8665SOL     OW26893   0.878   3.586   6.567
 8665SOL    HW126894   0.807   3.516   6.556
 8665SOL    HW226895   0.924   3.574   6.655
 8666SOL     OW26896   5.027   0.024   2.673
 8666SOL    HW126897   5.087   0.054   2.747
 8666SOL    HW226898   5.063   0.058   2.586
 8667SOL     OW26899   4.186   2.019   2.392
 8667SOL    HW126900   4.178   2.077   2.311
 8667SOL    HW226901   4.095   1.983   2.417
 8668SOL     OW26902   3.723   2.041   3.168
 8668SOL    HW126903   3.738   1.946   3.142
 8668SOL    HW226904   3.633   2.071   3.137
 8669SOL     OW26905   0.331   5.831   5.837
 8669SOL    HW126906   0.364   5.742   5.867
 8669SOL    HW226907   0.387   5.863   5.761
 8670SOL     OW26908   0.021   5.206   4.741
 8670SOL    HW126909   6.963   5.236   4.795
 8670SOL    HW226910   0.063   5.126   4.784
 8671SOL     OW26911   0.159   3.894   3.499
 8671SOL    HW126912   0.247   3.855   3.471
 8671SOL    HW226913   0.159   3.992   3.480
 8672SOL     OW26914   6.350   1.333   2.435
 8672SOL    HW126915   6.351   1.433   2.429
 8672SOL    HW226916   6.289   1.305   2.510
 8673SOL     OW26917   0.062   1.340   1.616
 8673SOL    HW126918   0.098   1.426   1.577
 8673SOL    HW226919   0.122   1.309   1.689
 8674SOL     OW26920   0.269   3.080   4.102
 8674SOL    HW126921   0.174   3.102   4.127
 8674SOL    HW226922   0.293   2.991   4.140
 8675SOL     OW26923   5.623   2.279   5.103
 8675SOL    HW126924   5.706   2.334   5.099
 8675SOL    HW226925   5.543   2.338   5.096
 8676SOL     OW26926   5.047   3.013   0.879
 8676SOL    HW126927   5.092   2.928   0.848
 8676SOL    HW226928   5.116   3.075   0.916
 8677SOL     OW26929   3.083   0.894   0.220
 8677SOL    HW126930   3.039   0.933   0.139
 8677SOL    HW226931   3.053   0.799   0.231
 8678SOL     OW26932   2.834   1.525   6.904
 8678SOL    HW126933   2.744   1.483   6.917
 8678SOL    HW226934   2.861   1.516   6.808
 8679SOL     OW26935   1.755   2.052   6.886
 8679SOL    HW126936   1.810   1.972   6.909
 8679SOL    HW226937   1.711   2.039   6.797
 8680SOL     OW26938   0.537   0.270   1.564
 8680SOL    HW126939   0.606   0.212   1.607
 8680SOL    HW226940   0.477   0.307   1.634
 8681SOL     OW26941   5.358   5.457   0.674
 8681SOL    HW126942   5.312   5.424   0.756
 8681SOL    HW226943   5.443   5.503   0.699
 8682SOL     OW26944   1.662   1.593   1.842
 8682SOL    HW126945   1.762   1.584   1.845
 8682SOL    HW226946   1.623   1.557   1.927
 8683SOL     OW26947   2.621   4.623   4.359
 8683SOL    HW126948   2.559   4.675   4.300
 8683SOL    HW226949   2.624   4.528   4.329
 8684SOL     OW26950   2.157   3.903   3.615
 8684SOL    HW126951   2.203   3.989   3.596
 8684SOL    HW226952   2.150   3.849   3.531
 8685SOL     OW26953   4.892   3.282   5.708
 8685SOL    HW126954   4.866   3.373   5.741
 8685SOL    HW226955   4.989   3.284   5.681
 8686SOL     OW26956   1.206   4.684   2.496
 8686SOL    HW126957   1.234   4.659   2.403
 8686SOL    HW226958   1.277   4.739   2.538
 8687SOL     OW26959   6.273   3.801   5.399
 8687SOL    HW126960   6.186   3.753   5.409
 8687SOL    HW226961   6.282   3.834   5.305
 8688SOL     OW26962   1.390   3.130   4.562
 8688SOL    HW126963   1.415   3.113   4.657
 8688SOL    HW226964   1.472   3.123   4.505
 8689SOL     OW26965   5.514   3.478   1.421
 8689SOL    HW126966   5.451   3.547   1.387
 8689SOL    HW226967   5.596   3.477   1.364
 8690SOL     OW26968   1.449   2.357   2.180
 8690SOL    HW126969   1.492   2.307   2.105
 8690SOL    HW226970   1.505   2.437   2.203
 8691SOL     OW26971   3.219   1.017   6.931
 8691SOL    HW126972   3.161   0.940   6.955
 8691SOL    HW226973   3.261   1.002   6.841
 8692SOL     OW26974   5.694   2.247   4.306
 8692SOL    HW126975   5.641   2.238   4.222
 8692SOL    HW226976   5.648   2.310   4.368
 8693SOL     OW26977   0.528   0.092   5.016
 8693SOL    HW126978   0.605   0.121   5.072
 8693SOL    HW226979   0.525   0.147   4.932
 8694SOL     OW26980   3.923   3.558   5.829
 8694SOL    HW126981   3.955   3.472   5.789
 8694SOL    HW226982   4.001   3.620   5.841
 8695SOL     OW26983   4.058   4.204   1.541
 8695SOL    HW126984   4.095   4.159   1.460
 8695SOL    HW226985   4.083   4.152   1.622
 8696SOL     OW26986   2.914   5.006   6.655
 8696SOL    HW126987   2.823   5.043   6.671
 8696SOL    HW226988   2.916   4.910   6.682
 8697SOL     OW26989   0.654   2.912   4.417
 8697SOL    HW126990   0.665   2.898   4.318
 8697SOL    HW226991   0.599   2.838   4.455
 8698SOL     OW26992   5.929   4.214   6.235
 8698SOL    HW126993   5.972   4.213   6.145
 8698SOL    HW226994   5.862   4.140   6.241
 8699SOL     OW26995   2.139   1.884   1.248
 8699SOL    HW126996   2.093   1.955   1.302
 8699SOL    HW226997   2.217   1.849   1.300
 8700SOL     OW26998   0.576   2.186   4.858
 8700SOL    HW126999   0.618   2.212   4.771
 8700SOL    HW227000   0.543   2.268   4.905
 8701SOL     OW27001   2.673   2.972   6.962
 8701SOL    HW127002   2.739   2.916   7.013
 8701SOL    HW227003   2.660   3.059   7.010
 8702SOL     OW27004   5.682   4.484   0.752
 8702SOL    HW127005   5.586   4.497   0.779
 8702SOL    HW227006   5.730   4.432   0.823
 8703SOL     OW27007   2.489   5.162   0.983
 8703SOL    HW127008   2.535   5.238   0.937
 8703SOL    HW227009   2.557   5.105   1.031
 8704SOL     OW27010   6.679   1.322   3.328
 8704SOL    HW127011   6.756   1.380   3.301
 8704SOL    HW227012   6.708   1.262   3.403
 8705SOL     OW27013   3.535   2.127   0.203
 8705SOL    HW127014   3.587   2.043   0.184
 8705SOL    HW227015   3.446   2.103   0.242
 8706SOL     OW27016   4.644   2.935   5.163
 8706SOL    HW127017   4.689   2.932   5.073
 8706SOL    HW227018   4.577   2.861   5.169
 8707SOL     OW27019   1.657   0.767   4.328
 8707SOL    HW127020   1.703   0.835   4.386
 8707SOL    HW227021   1.720   0.737   4.256
 8708SOL     OW27022   5.399   2.372   1.047
 8708SOL    HW127023   5.363   2.279   1.045
 8708SOL    HW227024   5.498   2.370   1.032
 8709SOL     OW27025   6.421   6.436   4.285
 8709SOL    HW127026   6.477   6.384   4.221
 8709SOL    HW227027   6.479   6.475   4.356
 8710SOL     OW27028   2.160   2.687   3.540
 8710SOL    HW127029   2.157   2.697   3.640
 8710SOL    HW227030   2.082   2.632   3.511
 8711SOL     OW27031   0.996   2.048   2.331
 8711SOL    HW127032   0.959   2.140   2.316
 8711SOL    HW227033   0.921   1.982   2.333
 8712SOL     OW27034   1.599   3.611   4.259
 8712SOL    HW127035   1.511   3.589   4.301
 8712SOL    HW227036   1.588   3.685   4.193
 8713SOL     OW27037   6.993   4.680   3.744
 8713SOL    HW127038   6.921   4.630   3.793
 8713SOL    HW227039   0.024   4.735   3.809
 8714SOL     OW27040   1.025   4.499   6.279
 8714SOL    HW127041   0.951   4.433   6.287
 8714SOL    HW227042   0.996   4.587   6.316
 8715SOL     OW27043   2.001   4.947   1.546
 8715SOL    HW127044   2.045   5.037   1.549
 8715SOL    HW227045   2.054   4.886   1.487
 8716SOL     OW27046   5.311   6.982   2.967
 8716SOL    HW127047   5.307   6.894   2.921
 8716SOL    HW227048   5.261   0.030   2.914
 8717SOL     OW27049   4.005   2.105   6.817
 8717SOL    HW127050   3.985   2.198   6.846
 8717SOL    HW227051   3.996   2.042   6.894
 8718SOL     OW27052   3.135   5.193   5.942
 8718SOL    HW127053   3.039   5.220   5.941
 8718SOL    HW227054   3.179   5.231   6.024
 8719SOL     OW27055   3.024   2.191   4.457
 8719SOL    HW127056   3.060   2.203   4.549
 8719SOL    HW227057   3.003   2.094   4.442
 8720SOL     OW27058   0.103   6.796   5.147
 8720SOL    HW127059   0.176   6.864   5.134
 8720SOL    HW227060   0.028   6.838   5.198
 8721SOL     OW27061   0.359   0.450   1.755
 8721SOL    HW127062   0.417   0.400   1.820
 8721SOL    HW227063   0.334   0.539   1.795
 8722SOL     OW27064   3.860   1.100   0.371
 8722SOL    HW127065   3.940   1.126   0.424
 8722SOL    HW227066   3.800   1.044   0.427
 8723SOL     OW27067   3.529   0.038   2.488
 8723SOL    HW127068   3.493   0.117   2.538
 8723SOL    HW227069   3.492   0.038   2.395
 8724SOL     OW27070   4.837   0.539   5.405
 8724SOL    HW127071   4.836   0.445   5.370
 8724SOL    HW227072   4.778   0.596   5.348
 8725SOL     OW27073   6.591   1.278   2.320
 8725SOL    HW127074   6.507   1.312   2.361
 8725SOL    HW227075   6.613   1.187   2.356
 8726SOL     OW27076   6.958   1.112   0.749
 8726SOL    HW127077   0.010   1.070   0.803
 8726SOL    HW227078   6.938   1.055   0.669
 8727SOL     OW27079   4.810   5.473   5.916
 8727SOL    HW127080   4.727   5.477   5.860
 8727SOL    HW227081   4.875   5.543   5.885
 8728SOL     OW27082   5.769   6.590   4.453
 8728SOL    HW127083   5.733   6.616   4.543
 8728SOL    HW227084   5.693   6.584   4.388
 8729SOL     OW27085   5.593   6.342   6.574
 8729SOL    HW127086   5.538   6.263   6.600
 8729SOL    HW227087   5.684   6.334   6.617
 8730SOL     OW27088   4.184   5.253   1.759
 8730SOL    HW127089   4.103   5.251   1.700
 8730SOL    HW227090   4.156   5.243   1.855
 8731SOL     OW27091   6.932   2.519   4.217
 8731SOL    HW127092   7.004   2.450   4.211
 8731SOL    HW227093   6.850   2.484   4.173
 8732SOL     OW27094   5.464   6.438   5.410
 8732SOL    HW127095   5.532   6.382   5.458
 8732SOL    HW227096   5.452   6.402   5.317
 8733SOL     OW27097   5.949   4.416   2.286
 8733SOL    HW127098   5.915   4.359   2.361
 8733SOL    HW227099   5.968   4.508   2.320
 8734SOL     OW27100   0.177   6.135   1.566
 8734SOL    HW127101   0.165   6.177   1.476
 8734SOL    HW227102   0.099   6.159   1.625
 8735SOL     OW27103   1.577   2.123   0.057
 8735SOL    HW127104   1.632   2.079   7.007
 8735SOL    HW227105   1.561   2.219   0.033
 8736SOL     OW27106   1.139   5.629   3.922
 8736SOL    HW127107   1.199   5.641   3.843
 8736SOL    HW227108   1.044   5.643   3.894
 8737SOL     OW27109   0.630   5.577   6.830
 8737SOL    HW127110   0.606   5.672   6.852
 8737SOL    HW227111   0.730   5.569   6.823
 8738SOL     OW27112   1.773   2.326   2.437
 8738SOL    HW127113   1.811   2.324   2.344
 8738SOL    HW227114   1.799   2.411   2.482
 8739SOL     OW27115   4.362   4.580   3.473
 8739SOL    HW127116   4.381   4.550   3.566
 8739SOL    HW227117   4.433   4.545   3.411
 8740SOL     OW27118   1.843   0.886   3.740
 8740SOL    HW127119   1.934   0.924   3.723
 8740SOL    HW227120   1.809   0.919   3.827
 8741SOL     OW27121   2.001   1.997   3.110
 8741SOL    HW127122   2.097   2.021   3.096
 8741SOL    HW227123   1.943   2.068   3.070
 8742SOL     OW27124   1.492   3.182   0.894
 8742SOL    HW127125   1.474   3.203   0.798
 8742SOL    HW227126   1.432   3.106   0.923
 8743SOL     OW27127   1.977   3.026   0.526
 8743SOL    HW127128   1.997   3.109   0.577
 8743SOL    HW227129   1.977   2.947   0.588
 8744SOL     OW27130   2.439   3.834   5.597
 8744SOL    HW127131   2.444   3.925   5.639
 8744SOL    HW227132   2.510   3.775   5.636
 8745SOL     OW27133   5.636   1.331   6.927
 8745SOL    HW127134   5.599   1.247   6.887
 8745SOL    HW227135   5.728   1.314   6.961
 8746SOL     OW27136   4.519   5.151   4.342
 8746SOL    HW127137   4.467   5.075   4.301
 8746SOL    HW227138   4.483   5.171   4.433
 8747SOL     OW27139   0.139   6.593   1.379
 8747SOL    HW127140   0.042   6.574   1.365
 8747SOL    HW227141   0.179   6.520   1.434
 8748SOL     OW27142   6.145   1.608   4.757
 8748SOL    HW127143   6.160   1.625   4.855
 8748SOL    HW227144   6.222   1.642   4.705
 8749SOL     OW27145   2.278   1.154   4.169
 8749SOL    HW127146   2.348   1.169   4.238
 8749SOL    HW227147   2.320   1.146   4.078
 8750SOL     OW27148   4.082   3.865   2.273
 8750SOL    HW127149   4.071   3.770   2.245
 8750SOL    HW227150   4.176   3.895   2.254
 8751SOL     OW27151   1.766   6.186   6.973
 8751SOL    HW127152   1.706   6.155   6.899
 8751SOL    HW227153   1.763   6.121   0.027
 8752SOL     OW27154   1.247   3.028   6.877
 8752SOL    HW127155   1.258   3.041   6.975
 8752SOL    HW227156   1.226   3.115   6.834
 8753SOL     OW27157   1.950   2.049   0.982
 8753SOL    HW127158   2.022   2.107   1.021
 8753SOL    HW227159   1.916   2.091   0.897
 8754SOL     OW27160   1.807   6.015   6.605
 8754SOL    HW127161   1.751   6.079   6.658
 8754SOL    HW227162   1.747   5.957   6.550
 8755SOL     OW27163   0.188   1.750   1.780
 8755SOL    HW127164   0.125   1.781   1.851
 8755SOL    HW227165   0.137   1.707   1.706
 8756SOL     OW27166   1.856   1.489   2.165
 8756SOL    HW127167   1.938   1.454   2.211
 8756SOL    HW227168   1.872   1.495   2.067
 8757SOL     OW27169   5.178   5.775   4.850
 8757SOL    HW127170   5.264   5.815   4.882
 8757SOL    HW227171   5.162   5.801   4.754
 8758SOL     OW27172   3.650   4.930   6.761
 8758SOL    HW127173   3.641   4.956   6.857
 8758SOL    HW227174   3.621   4.835   6.750
 8759SOL     OW27175   6.799   0.903   1.559
 8759SOL    HW127176   6.703   0.884   1.537
 8759SOL    HW227177   6.858   0.843   1.505
 8760SOL     OW27178   1.485   2.672   4.623
 8760SOL    HW127179   1.515   2.749   4.679
 8760SOL    HW227180   1.455   2.705   4.533
 8761SOL     OW27181   5.228   3.014   3.698
 8761SOL    HW127182   5.141   2.972   3.672
 8761SOL    HW227183   5.233   3.106   3.659
 8762SOL     OW27184   3.989   6.266   2.220
 8762SOL    HW127185   3.929   6.345   2.224
 8762SOL    HW227186   3.981   6.222   2.130
 8763SOL     OW27187   0.019   1.802   5.372
 8763SOL    HW127188   0.036   1.804   5.470
 8763SOL    HW227189   0.106   1.799   5.322
 8764SOL     OW27190   2.446   5.370   6.055
 8764SOL    HW127191   2.544   5.367   6.073
 8764SOL    HW227192   2.401   5.294   6.103
 8765SOL     OW27193   4.374   6.887   3.574
 8765SOL    HW127194   4.275   6.886   3.562
 8765SOL    HW227195   4.407   6.981   3.568
 8766SOL     OW27196   6.258   0.073   4.962
 8766SOL    HW127197   6.272   0.015   5.042
 8766SOL    HW227198   6.312   0.157   4.972
 8767SOL     OW27199   2.182   1.173   5.066
 8767SOL    HW127200   2.168   1.254   5.123
 8767SOL    HW227201   2.263   1.185   5.009
 8768SOL     OW27202   6.530   2.109   0.951
 8768SOL    HW127203   6.481   2.194   0.971
 8768SOL    HW227204   6.532   2.094   0.852
 8769SOL     OW27205   6.544   0.051   0.457
 8769SOL    HW127206   6.487   0.078   0.534
 8769SOL    HW227207   6.601   6.994   0.484
 8770SOL     OW27208   4.485   2.156   0.780
 8770SOL    HW127209   4.455   2.061   0.782
 8770SOL    HW227210   4.431   2.207   0.714
 8771SOL     OW27211   0.947   2.888   6.505
 8771SOL    HW127212   0.988   2.835   6.580
 8771SOL    HW227213   0.852   2.862   6.493
 8772SOL     OW27214   0.569   6.698   3.689
 8772SOL    HW127215   0.489   6.684   3.748
 8772SOL    HW227216   0.539   6.735   3.601
 8773SOL     OW27217   6.267   1.462   4.158
 8773SOL    HW127218   6.300   1.385   4.212
 8773SOL    HW227219   6.317   1.467   4.072
 8774SOL     OW27220   0.997   2.554   6.666
 8774SOL    HW127221   1.029   2.647   6.650
 8774SOL    HW227222   1.076   2.493   6.674
 8775SOL     OW27223   4.499   1.656   2.336
 8775SOL    HW127224   4.442   1.726   2.292
 8775SOL    HW227225   4.502   1.671   2.434
 8776SOL     OW27226   5.626   3.022   1.592
 8776SOL    HW127227   5.690   2.954   1.555
 8776SOL    HW227228   5.533   2.988   1.585
 8777SOL     OW27229   6.122   2.172   3.836
 8777SOL    HW127230   6.195   2.202   3.897
 8777SOL    HW227231   6.160   2.152   3.746
 8778SOL     OW27232   1.929   4.193   6.125
 8778SOL    HW127233   1.923   4.165   6.221
 8778SOL    HW227234   1.984   4.276   6.118
 8779SOL     OW27235   3.753   6.660   3.451
 8779SOL    HW127236   3.654   6.668   3.462
 8779SOL    HW227237   3.775   6.647   3.354
 8780SOL     OW27238   0.716   3.161   4.547
 8780SOL    HW127239   0.670   3.084   4.503
 8780SOL    HW227240   0.777   3.205   4.481
 8781SOL     OW27241   3.947   1.205   2.326
 8781SOL    HW127242   3.889   1.196   2.245
 8781SOL    HW227243   3.987   1.117   2.349
 8782SOL     OW27244   6.540   2.404   6.943
 8782SOL    HW127245   6.624   2.415   6.890
 8782SOL    HW227246   6.477   2.479   6.923
 8783SOL     OW27247   3.506   3.858   6.382
 8783SOL    HW127248   3.575   3.847   6.453
 8783SOL    HW227249   3.497   3.773   6.331
 8784SOL     OW27250   4.112   1.582   5.687
 8784SOL    HW127251   4.198   1.623   5.719
 8784SOL    HW227252   4.074   1.638   5.614
 8785SOL     OW27253   6.757   0.131   5.879
 8785SOL    HW127254   6.764   0.114   5.780
 8785SOL    HW227255   6.702   0.059   5.921
 8786SOL     OW27256   5.245   2.428   3.088
 8786SOL    HW127257   5.167   2.386   3.135
 8786SOL    HW227258   5.281   2.363   3.021
 8787SOL     OW27259   3.251   5.480   2.424
 8787SOL    HW127260   3.330   5.542   2.428
 8787SOL    HW227261   3.283   5.386   2.434
 8788SOL     OW27262   0.254   7.015   3.882
 8788SOL    HW127263   0.170   0.001   3.829
 8788SOL    HW227264   0.242   0.042   3.969
 8789SOL     OW27265   2.469   3.656   0.090
 8789SOL    HW127266   2.493   3.720   0.162
 8789SOL    HW227267   2.396   3.694   0.034
 8790SOL     OW27268   4.704   3.165   5.309
 8790SOL    HW127269   4.799   3.133   5.304
 8790SOL    HW227270   4.643   3.097   5.269
 8791SOL     OW27271   3.864   6.480   5.422
 8791SOL    HW127272   3.843   6.565   5.372
 8791SOL    HW227273   3.852   6.402   5.361
 8792SOL     OW27274   5.215   4.692   0.975
 8792SOL    HW127275   5.134   4.640   0.948
 8792SOL    HW227276   5.257   4.731   0.893
 8793SOL     OW27277   6.492   0.548   5.651
 8793SOL    HW127278   6.590   0.557   5.633
 8793SOL    HW227279   6.441   0.552   5.565
 8794SOL     OW27280   0.658   2.787   2.959
 8794SOL    HW127281   0.628   2.788   3.054
 8794SOL    HW227282   0.583   2.761   2.900
 8795SOL     OW27283   1.783   0.196   6.619
 8795SOL    HW127284   1.878   0.191   6.589
 8795SOL    HW227285   1.736   0.267   6.566
 8796SOL     OW27286   5.851   5.127   4.304
 8796SOL    HW127287   5.890   5.212   4.268
 8796SOL    HW227288   5.923   5.057   4.307
 8797SOL     OW27289   5.620   5.595   5.521
 8797SOL    HW127290   5.634   5.654   5.600
 8797SOL    HW227291   5.671   5.510   5.533
 8798SOL     OW27292   1.626   5.196   0.208
 8798SOL    HW127293   1.628   5.097   0.194
 8798SOL    HW227294   1.589   5.241   0.126
 8799SOL     OW27295   1.361   6.123   2.168
 8799SOL    HW127296   1.426   6.163   2.103
 8799SOL    HW227297   1.332   6.033   2.134
 8800SOL     OW27298   6.942   6.066   4.816
 8800SOL    HW127299   6.931   5.987   4.875
 8800SOL    HW227300   7.006   6.044   4.742
 8801SOL     OW27301   5.331   3.273   6.966
 8801SOL    HW127302   5.376   3.187   6.987
 8801SOL    HW227303   5.351   3.301   6.872
 8802SOL     OW27304   1.153   6.784   6.811
 8802SOL    HW127305   1.147   6.801   6.909
 8802SOL    HW227306   1.068   6.813   6.766
 8803SOL     OW27307   4.752   4.869   5.359
 8803SOL    HW127308   4.785   4.905   5.272
 8803SOL    HW227309   4.806   4.909   5.434
 8804SOL     OW27310   2.174   6.287   1.514
 8804SOL    HW127311   2.233   6.346   1.569
 8804SOL    HW227312   2.095   6.340   1.482
 8805SOL     OW27313   5.215   5.014   0.779
 8805SOL    HW127314   5.193   5.109   0.801
 8805SOL    HW227315   5.315   5.004   0.777
 8806SOL     OW27316   1.542   1.231   1.939
 8806SOL    HW127317   1.515   1.242   2.034
 8806SOL    HW227318   1.514   1.312   1.887
 8807SOL     OW27319   5.590   2.153   1.983
 8807SOL    HW127320   5.688   2.159   2.003
 8807SOL    HW227321   5.538   2.194   2.058
 8808SOL     OW27322   1.848   1.236   0.909
 8808SOL    HW127323   1.844   1.309   0.841
 8808SOL    HW227324   1.768   1.241   0.968
 8809SOL     OW27325   1.018   3.256   3.077
 8809SOL    HW127326   1.018   3.301   3.167
 8809SOL    HW227327   0.926   3.223   3.056
 8810SOL     OW27328   6.022   2.809   3.859
 8810SOL    HW127329   6.047   2.905   3.846
 8810SOL    HW227330   5.923   2.803   3.871
 8811SOL     OW27331   3.561   5.812   2.910
 8811SOL    HW127332   3.464   5.812   2.932
 8811SOL    HW227333   3.596   5.718   2.913
 8812SOL     OW27334   5.237   0.685   0.381
 8812SOL    HW127335   5.311   0.740   0.342
 8812SOL    HW227336   5.149   0.720   0.349
 8813SOL     OW27337   1.517   2.727   1.240
 8813SOL    HW127338   1.491   2.640   1.197
 8813SOL    HW227339   1.605   2.715   1.286
 8814SOL     OW27340   5.870   0.134   5.049
 8814SOL    HW127341   5.922   0.116   4.965
 8814SOL    HW227342   5.837   0.228   5.048
 8815SOL     OW27343   4.592   0.212   1.369
 8815SOL    HW127344   4.618   0.282   1.302
 8815SOL    HW227345   4.494   0.217   1.386
 8816SOL     OW27346   0.408   0.874   2.573
 8816SOL    HW127347   0.428   0.873   2.671
 8816SOL    HW227348   0.397   0.968   2.542
 8817SOL     OW27349   0.985   2.522   4.395
 8817SOL    HW127350   0.955   2.615   4.419
 8817SOL    HW227351   0.918   2.480   4.335
 8818SOL     OW27352   1.347   5.674   6.116
 8818SOL    HW127353   1.347   5.694   6.018
 8818SOL    HW227354   1.290   5.594   6.134
 8819SOL     OW27355   5.553   6.614   6.595
 8819SOL    HW127356   5.577   6.517   6.606
 8819SOL    HW227357   5.454   6.624   6.598
 8820SOL     OW27358   3.052   6.653   5.870
 8820SOL    HW127359   2.971   6.601   5.845
 8820SOL    HW227360   3.129   6.622   5.815
 8821SOL     OW27361   1.457   5.063   5.298
 8821SOL    HW127362   1.364   5.038   5.272
 8821SOL    HW227363   1.519   5.044   5.222
 8822SOL     OW27364   0.495   0.928   5.347
 8822SOL    HW127365   0.408   0.891   5.380
 8822SOL    HW227366   0.518   1.011   5.397
 8823SOL     OW27367   4.358   2.355   3.156
 8823SOL    HW127368   4.340   2.305   3.071
 8823SOL    HW227369   4.441   2.321   3.198
 8824SOL     OW27370   1.384   6.972   4.067
 8824SOL    HW127371   1.338   0.029   4.024
 8824SOL    HW227372   1.397   6.900   3.999
 8825SOL     OW27373   1.519   6.864   0.250
 8825SOL    HW127374   1.585   6.939   0.252
 8825SOL    HW227375   1.524   6.818   0.162
 8826SOL     OW27376   0.439   3.416   7.019
 8826SOL    HW127377   0.507   3.349   6.989
 8826SOL    HW227378   0.354   3.402   6.969
 8827SOL     OW27379   5.508   5.759   4.013
 8827SOL    HW127380   5.465   5.677   4.051
 8827SOL    HW227381   5.444   5.804   3.951
 8828SOL     OW27382   4.930   2.995   5.809
 8828SOL    HW127383   4.891   2.962   5.895
 8828SOL    HW227384   4.917   3.094   5.803
 8829SOL     OW27385   6.347   0.886   2.927
 8829SOL    HW127386   6.353   0.787   2.940
 8829SOL    HW227387   6.305   0.905   2.838
 8830SOL     OW27388   2.588   1.414   2.634
 8830SOL    HW127389   2.670   1.457   2.672
 8830SOL    HW227390   2.613   1.328   2.590
 8831SOL     OW27391   0.911   2.309   2.258
 8831SOL    HW127392   0.875   2.387   2.309
 8831SOL    HW227393   0.989   2.339   2.203
 8832SOL     OW27394   6.086   6.880   4.874
 8832SOL    HW127395   6.004   6.923   4.835
 8832SOL    HW227396   6.128   6.943   4.940
 8833SOL     OW27397   4.762   2.668   0.866
 8833SOL    HW127398   4.757   2.649   0.768
 8833SOL    HW227399   4.775   2.766   0.881
 8834SOL     OW27400   6.415   4.201   5.999
 8834SOL    HW127401   6.445   4.272   6.063
 8834SOL    HW227402   6.438   4.230   5.906
 8835SOL     OW27403   6.159   0.963   5.336
 8835SOL    HW127404   6.092   0.964   5.261
 8835SOL    HW227405   6.251   0.976   5.299
 8836SOL     OW27406   4.383   1.895   0.716
 8836SOL    HW127407   4.338   1.919   0.630
 8836SOL    HW227408   4.436   1.812   0.704
 8837SOL     OW27409   5.901   4.859   0.416
 8837SOL    HW127410   5.959   4.786   0.381
 8837SOL    HW227411   5.848   4.825   0.494
 8838SOL     OW27412   1.353   3.187   1.911
 8838SOL    HW127413   1.369   3.135   1.995
 8838SOL    HW227414   1.258   3.178   1.884
 8839SOL     OW27415   4.592   4.532   1.802
 8839SOL    HW127416   4.542   4.486   1.876
 8839SOL    HW227417   4.583   4.631   1.813
 8840SOL     OW27418   0.245   6.857   1.646
 8840SOL    HW127419   0.290   6.900   1.568
 8840SOL    HW227420   0.308   6.794   1.691
 8841SOL     OW27421   4.524   1.795   0.365
 8841SOL    HW127422   4.559   1.743   0.443
 8841SOL    HW227423   4.506   1.889   0.394
 8842SOL     OW27424   3.886   3.042   3.763
 8842SOL    HW127425   3.898   2.995   3.850
 8842SOL    HW227426   3.792   3.029   3.731
 8843SOL     OW27427   2.285   6.109   4.888
 8843SOL    HW127428   2.256   6.016   4.866
 8843SOL    HW227429   2.382   6.120   4.866
 8844SOL     OW27430   3.876   2.772   5.269
 8844SOL    HW127431   3.959   2.721   5.247
 8844SOL    HW227432   3.839   2.813   5.186
 8845SOL     OW27433   0.792   3.748   2.466
 8845SOL    HW127434   0.821   3.803   2.544
 8845SOL    HW227435   0.857   3.674   2.451
 8846SOL     OW27436   5.871   5.314   4.529
 8846SOL    HW127437   5.875   5.256   4.611
 8846SOL    HW227438   5.798   5.282   4.469
 8847SOL     OW27439   0.884   2.534   3.836
 8847SOL    HW127440   0.970   2.584   3.842
 8847SOL    HW227441   0.825   2.560   3.913
 8848SOL     OW27442   5.616   2.473   1.325
 8848SOL    HW127443   5.615   2.406   1.251
 8848SOL    HW227444   5.529   2.521   1.328
 8849SOL     OW27445   3.414   5.148   4.715
 8849SOL    HW127446   3.511   5.173   4.707
 8849SOL    HW227447   3.378   5.183   4.801
 8850SOL     OW27448   4.359   2.091   1.251
 8850SOL    HW127449   4.367   2.057   1.157
 8850SOL    HW227450   4.440   2.065   1.303
 8851SOL     OW27451   6.836   5.416   3.323
 8851SOL    HW127452   6.891   5.418   3.239
 8851SOL    HW227453   6.830   5.323   3.357
 8852SOL     OW27454   5.795   4.152   4.765
 8852SOL    HW127455   5.717   4.097   4.735
 8852SOL    HW227456   5.802   4.234   4.708
 8853SOL     OW27457   4.608   1.694   4.264
 8853SOL    HW127458   4.587   1.603   4.299
 8853SOL    HW227459   4.525   1.735   4.226
 8854SOL     OW27460   3.306   0.149   6.393
 8854SOL    HW127461   3.282   0.165   6.489
 8854SOL    HW227462   3.258   0.215   6.335
 8855SOL     OW27463   6.523   4.870   6.038
 8855SOL    HW127464   6.561   4.780   6.017
 8855SOL    HW227465   6.441   4.886   5.984
 8856SOL     OW27466   5.332   1.884   5.779
 8856SOL    HW127467   5.371   1.959   5.831
 8856SOL    HW227468   5.239   1.908   5.750
 8857SOL     OW27469   1.550   2.778   4.326
 8857SOL    HW127470   1.454   2.752   4.331
 8857SOL    HW227471   1.607   2.698   4.308
 8858SOL     OW27472   0.813   3.633   5.472
 8858SOL    HW127473   0.811   3.616   5.374
 8858SOL    HW227474   0.800   3.730   5.490
 8859SOL     OW27475   2.631   5.844   4.968
 8859SOL    HW127476   2.547   5.791   4.961
 8859SOL    HW227477   2.632   5.893   5.055
 8860SOL     OW27478   2.287   1.067   1.563
 8860SOL    HW127479   2.205   1.029   1.518
 8860SOL    HW227480   2.262   1.151   1.612
 8861SOL     OW27481   2.083   1.588   6.888
 8861SOL    HW127482   2.163   1.529   6.875
 8861SOL    HW227483   2.003   1.545   6.845
 8862SOL     OW27484   0.379   2.988   3.647
 8862SOL    HW127485   0.446   3.045   3.696
 8862SOL    HW227486   0.295   2.981   3.700
 8863SOL     OW27487   1.542   5.649   5.038
 8863SOL    HW127488   1.448   5.673   5.017
 8863SOL    HW227489   1.598   5.732   5.043
 8864SOL     OW27490   1.959   4.549   5.344
 8864SOL    HW127491   1.867   4.525   5.376
 8864SOL    HW227492   2.025   4.484   5.381
 8865SOL     OW27493   2.840   1.953   5.988
 8865SOL    HW127494   2.762   1.890   5.984
 8865SOL    HW227495   2.828   2.025   5.920
 8866SOL     OW27496   5.298   0.209   5.662
 8866SOL    HW127497   5.396   0.230   5.667
 8866SOL    HW227498   5.285   0.110   5.663
 8867SOL     OW27499   5.562   0.727   2.891
 8867SOL    HW127500   5.534   0.817   2.856
 8867SOL    HW227501   5.532   0.717   2.986
 8868SOL     OW27502   5.807   2.824   0.496
 8868SOL    HW127503   5.846   2.898   0.442
 8868SOL    HW227504   5.707   2.829   0.492
 8869SOL     OW27505   2.072   1.942   3.860
 8869SOL    HW127506   2.014   1.872   3.901
 8869SOL    HW227507   2.139   1.899   3.800
 8870SOL     OW27508   3.769   6.596   1.760
 8870SOL    HW127509   3.794   6.676   1.814
 8870SOL    HW227510   3.834   6.585   1.685
 8871SOL     OW27511   1.414   2.198   4.255
 8871SOL    HW127512   1.390   2.235   4.345
 8871SOL    HW227513   1.357   2.240   4.185
 8872SOL     OW27514   1.161   1.298   2.505
 8872SOL    HW127515   1.193   1.246   2.584
 8872SOL    HW227516   1.094   1.366   2.534
 8873SOL     OW27517   0.341   5.592   4.911
 8873SOL    HW127518   0.375   5.639   4.830
 8873SOL    HW227519   0.328   5.495   4.891
 8874SOL     OW27520   1.326   1.359   5.867
 8874SOL    HW127521   1.318   1.459   5.873
 8874SOL    HW227522   1.399   1.336   5.803
 8875SOL     OW27523   1.649   1.142   4.450
 8875SOL    HW127524   1.727   1.160   4.510
 8875SOL    HW227525   1.572   1.200   4.477
 8876SOL     OW27526   2.764   1.337   4.824
 8876SOL    HW127527   2.775   1.274   4.748
 8876SOL    HW227528   2.848   1.340   4.877
 8877SOL     OW27529   2.777   6.341   4.782
 8877SOL    HW127530   2.814   6.305   4.868
 8877SOL    HW227531   2.849   6.388   4.732
 8878SOL     OW27532   5.204   4.336   5.853
 8878SOL    HW127533   5.108   4.343   5.826
 8878SOL    HW227534   5.210   4.302   5.946
 8879SOL     OW27535   6.225   5.712   4.626
 8879SOL    HW127536   6.145   5.748   4.578
 8879SOL    HW227537   6.198   5.675   4.715
 8880SOL     OW27538   1.153   6.925   4.699
 8880SOL    HW127539   1.181   7.016   4.668
 8880SOL    HW227540   1.080   6.935   4.767
 8881SOL     OW27541   0.096   2.073   2.469
 8881SOL    HW127542   0.166   2.141   2.489
 8881SOL    HW227543   0.093   2.005   2.543
 8882SOL     OW27544   5.337   2.154   0.759
 8882SOL    HW127545   5.407   2.093   0.723
 8882SOL    HW227546   5.318   2.130   0.854
 8883SOL     OW27547   6.092   1.246   5.533
 8883SOL    HW127548   6.047   1.272   5.619
 8883SOL    HW227549   6.173   1.191   5.554
 8884SOL     OW27550   0.241   1.379   6.495
 8884SOL    HW127551   0.299   1.299   6.485
 8884SOL    HW227552   0.298   1.461   6.506
 8885SOL     OW27553   6.030   4.060   1.185
 8885SOL    HW127554   6.069   4.132   1.243
 8885SOL    HW227555   6.105   4.005   1.147
 8886SOL     OW27556   3.327   6.024   6.128
 8886SOL    HW127557   3.387   5.946   6.146
 8886SOL    HW227558   3.235   5.990   6.107
 8887SOL     OW27559   1.377   0.871   0.645
 8887SOL    HW127560   1.457   0.853   0.587
 8887SOL    HW227561   1.375   0.968   0.669
 8888SOL     OW27562   2.166   2.328   3.180
 8888SOL    HW127563   2.144   2.239   3.140
 8888SOL    HW227564   2.247   2.319   3.237
 8889SOL     OW27565   3.369   1.056   5.255
 8889SOL    HW127566   3.342   0.965   5.285
 8889SOL    HW227567   3.461   1.054   5.216
 8890SOL     OW27568   0.055   5.213   4.040
 8890SOL    HW127569   0.051   5.296   4.095
 8890SOL    HW227570   6.986   5.170   4.039
 8891SOL     OW27571   3.691   1.855   5.982
 8891SOL    HW127572   3.729   1.891   6.067
 8891SOL    HW227573   3.688   1.755   5.986
 8892SOL     OW27574   0.927   6.946   2.962
 8892SOL    HW127575   0.936   6.970   3.059
 8892SOL    HW227576   1.017   6.947   2.918
 8893SOL     OW27577   6.728   0.637   0.499
 8893SOL    HW127578   6.719   0.617   0.401
 8893SOL    HW227579   6.668   0.714   0.522
 8894SOL     OW27580   4.710   2.656   5.676
 8894SOL    HW127581   4.685   2.753   5.666
 8894SOL    HW227582   4.751   2.623   5.591
 8895SOL     OW27583   1.317   1.115   3.511
 8895SOL    HW127584   1.344   1.176   3.436
 8895SOL    HW227585   1.233   1.149   3.553
 8896SOL     OW27586   1.427   3.934   4.941
 8896SOL    HW127587   1.458   3.897   5.028
 8896SOL    HW227588   1.424   4.034   4.947
 8897SOL     OW27589   0.745   2.225   1.601
 8897SOL    HW127590   0.764   2.161   1.527
 8897SOL    HW227591   0.751   2.319   1.566
 8898SOL     OW27592   0.051   2.606   5.331
 8898SOL    HW127593   6.975   2.626   5.323
 8898SOL    HW227594   0.103   2.668   5.272
 8899SOL     OW27595   3.662   6.195   2.525
 8899SOL    HW127596   3.696   6.280   2.565
 8899SOL    HW227597   3.728   6.121   2.541
 8900SOL     OW27598   6.782   2.166   3.524
 8900SOL    HW127599   6.782   2.163   3.624
 8900SOL    HW227600   6.840   2.241   3.492
 8901SOL     OW27601   1.856   0.315   2.349
 8901SOL    HW127602   1.798   0.393   2.375
 8901SOL    HW227603   1.832   0.285   2.257
 8902SOL     OW27604   3.699   6.502   6.073
 8902SOL    HW127605   3.774   6.451   6.031
 8902SOL    HW227606   3.706   6.598   6.048
 8903SOL     OW27607   6.816   1.327   3.025
 8903SOL    HW127608   6.870   1.310   3.108
 8903SOL    HW227609   6.748   1.398   3.044
 8904SOL     OW27610   1.875   3.727   3.955
 8904SOL    HW127611   1.783   3.708   3.990
 8904SOL    HW227612   1.904   3.652   3.895
 8905SOL     OW27613   1.935   4.598   4.564
 8905SOL    HW127614   1.975   4.684   4.595
 8905SOL    HW227615   1.989   4.521   4.599
 8906SOL     OW27616   1.973   5.157   4.527
 8906SOL    HW127617   1.983   5.221   4.604
 8906SOL    HW227618   2.059   5.109   4.512
 8907SOL     OW27619   3.826   2.834   6.675
 8907SOL    HW127620   3.770   2.814   6.594
 8907SOL    HW227621   3.782   2.905   6.730
 8908SOL     OW27622   0.668   3.365   2.673
 8908SOL    HW127623   0.667   3.464   2.656
 8908SOL    HW227624   0.576   3.328   2.661
 8909SOL     OW27625   3.169   6.974   5.390
 8909SOL    HW127626   3.081   6.967   5.438
 8909SOL    HW227627   3.157   6.942   5.296
 8910SOL     OW27628   4.312   2.671   0.243
 8910SOL    HW127629   4.309   2.765   0.208
 8910SOL    HW227630   4.247   2.615   0.192
 8911SOL     OW27631   5.086   2.793   4.622
 8911SOL    HW127632   5.121   2.779   4.530
 8911SOL    HW227633   5.073   2.705   4.667
 8912SOL     OW27634   4.106   0.732   0.269
 8912SOL    HW127635   4.075   0.716   0.363
 8912SOL    HW227636   4.065   0.817   0.236
 8913SOL     OW27637   4.182   4.044   1.356
 8913SOL    HW127638   4.260   3.996   1.315
 8913SOL    HW227639   4.114   3.977   1.386
 8914SOL     OW27640   5.449   3.687   3.529
 8914SOL    HW127641   5.415   3.739   3.451
 8914SOL    HW227642   5.518   3.622   3.499
 8915SOL     OW27643   0.797   5.562   2.135
 8915SOL    HW127644   0.766   5.651   2.166
 8915SOL    HW227645   0.793   5.497   2.211
 8916SOL     OW27646   5.718   3.336   1.855
 8916SOL    HW127647   5.710   3.241   1.885
 8916SOL    HW227648   5.770   3.340   1.769
 8917SOL     OW27649   5.776   4.271   5.478
 8917SOL    HW127650   5.857   4.268   5.537
 8917SOL    HW227651   5.773   4.189   5.422
 8918SOL     OW27652   4.765   4.230   5.834
 8918SOL    HW127653   4.677   4.255   5.874
 8918SOL    HW227654   4.834   4.298   5.858
 8919SOL     OW27655   1.990   3.253   1.321
 8919SOL    HW127656   1.977   3.352   1.322
 8919SOL    HW227657   1.900   3.209   1.311
 8920SOL     OW27658   6.278   5.737   5.692
 8920SOL    HW127659   6.194   5.683   5.701
 8920SOL    HW227660   6.355   5.677   5.674
 8921SOL     OW27661   1.181   5.546   3.341
 8921SOL    HW127662   1.180   5.631   3.288
 8921SOL    HW227663   1.143   5.563   3.432
 8922SOL     OW27664   0.436   2.403   6.792
 8922SOL    HW127665   0.449   2.404   6.693
 8922SOL    HW227666   0.515   2.357   6.835
 8923SOL     OW27667   2.404   4.725   4.159
 8923SOL    HW127668   2.326   4.763   4.110
 8923SOL    HW227669   2.372   4.658   4.226
 8924SOL     OW27670   2.398   6.586   4.513
 8924SOL    HW127671   2.418   6.488   4.523
 8924SOL    HW227672   2.405   6.631   4.602
 8925SOL     OW27673   4.618   5.729   0.864
 8925SOL    HW127674   4.570   5.643   0.881
 8925SOL    HW227675   4.613   5.787   0.945
 8926SOL     OW27676   5.651   6.704   6.889
 8926SOL    HW127677   5.612   6.683   6.800
 8926SOL    HW227678   5.714   6.782   6.880
 8927SOL     OW27679   2.924   2.120   5.022
 8927SOL    HW127680   2.848   2.182   5.001
 8927SOL    HW227681   3.011   2.167   5.007
 8928SOL     OW27682   1.949   0.684   5.441
 8928SOL    HW127683   1.877   0.753   5.448
 8928SOL    HW227684   2.009   0.689   5.521
 8929SOL     OW27685   4.708   4.798   3.102
 8929SOL    HW127686   4.727   4.794   3.004
 8929SOL    HW227687   4.770   4.864   3.145
 8930SOL     OW27688   0.034   5.472   5.534
 8930SOL    HW127689   0.066   5.389   5.488
 8930SOL    HW227690   0.072   5.476   5.626
 8931SOL     OW27691   5.086   1.276   1.592
 8931SOL    HW127692   5.112   1.313   1.681
 8931SOL    HW227693   5.123   1.334   1.519
 8932SOL     OW27694   4.323   0.844   0.078
 8932SOL    HW127695   4.291   0.803   0.164
 8932SOL    HW227696   4.268   0.811   0.002
 8933SOL     OW27697   1.780   6.701   5.675
 8933SOL    HW127698   1.835   6.770   5.721
 8933SOL    HW227699   1.747   6.736   5.588
 8934SOL     OW27700   3.475   6.746   3.844
 8934SOL    HW127701   3.400   6.811   3.854
 8934SOL    HW227702   3.444   6.654   3.870
 8935SOL     OW27703   5.793   1.899   2.304
 8935SOL    HW127704   5.795   1.992   2.343
 8935SOL    HW227705   5.840   1.899   2.216
 8936SOL     OW27706   0.986   3.817   1.951
 8936SOL    HW127707   0.996   3.733   1.899
 8936SOL    HW227708   1.064   3.877   1.933
 8937SOL     OW27709   3.136   6.291   4.830
 8937SOL    HW127710   3.157   6.204   4.784
 8937SOL    HW227711   3.094   6.354   4.765
 8938SOL     OW27712   5.008   6.788   2.127
 8938SOL    HW127713   5.086   6.850   2.133
 8938SOL    HW227714   4.956   6.807   2.043
 8939SOL     OW27715   6.723   2.918   4.785
 8939SOL    HW127716   6.776   2.834   4.794
 8939SOL    HW227717   6.746   2.980   4.859
 8940SOL     OW27718   6.304   3.824   2.701
 8940SOL    HW127719   6.265   3.737   2.732
 8940SOL    HW227720   6.262   3.850   2.614
 8941SOL     OW27721   5.552   2.359   3.674
 8941SOL    HW127722   5.467   2.413   3.675
 8941SOL    HW227723   5.586   2.349   3.767
 8942SOL     OW27724   5.086   6.091   4.540
 8942SOL    HW127725   5.141   6.148   4.602
 8942SOL    HW227726   4.989   6.116   4.550
 8943SOL     OW27727   4.601   3.716   0.353
 8943SOL    HW127728   4.682   3.746   0.302
 8943SOL    HW227729   4.630   3.660   0.430
 8944SOL     OW27730   4.772   6.058   5.511
 8944SOL    HW127731   4.697   6.098   5.459
 8944SOL    HW227732   4.859   6.084   5.470
 8945SOL     OW27733   6.598   4.781   2.103
 8945SOL    HW127734   6.512   4.746   2.141
 8945SOL    HW227735   6.631   4.856   2.160
 8946SOL     OW27736   3.687   2.047   3.794
 8946SOL    HW127737   3.685   2.100   3.878
 8946SOL    HW227738   3.627   1.968   3.802
 8947SOL     OW27739   2.996   5.344   0.426
 8947SOL    HW127740   2.952   5.359   0.338
 8947SOL    HW227741   2.928   5.314   0.493
 8948SOL     OW27742   6.175   0.492   2.654
 8948SOL    HW127743   6.228   0.424   2.705
 8948SOL    HW227744   6.080   0.463   2.648
 8949SOL     OW27745   3.875   6.319   1.086
 8949SOL    HW127746   3.907   6.272   1.168
 8949SOL    HW227747   3.935   6.297   1.009
 8950SOL     OW27748   3.362   3.590   3.911
 8950SOL    HW127749   3.372   3.661   3.842
 8950SOL    HW227750   3.449   3.541   3.923
 8951SOL     OW27751   1.147   0.776   3.721
 8951SOL    HW127752   1.065   0.833   3.716
 8951SOL    HW227753   1.158   0.741   3.814
 8952SOL     OW27754   1.625   3.685   5.021
 8952SOL    HW127755   1.559   3.738   5.074
 8952SOL    HW227756   1.658   3.740   4.945
 8953SOL     OW27757   1.310   5.860   1.060
 8953SOL    HW127758   1.236   5.820   1.006
 8953SOL    HW227759   1.397   5.846   1.013
 8954SOL     OW27760   2.359   4.215   5.466
 8954SOL    HW127761   2.320   4.149   5.401
 8954SOL    HW227762   2.393   4.295   5.417
 8955SOL     OW27763   6.371   2.568   5.698
 8955SOL    HW127764   6.275   2.586   5.676
 8955SOL    HW227765   6.382   2.562   5.798
 8956SOL     OW27766   0.876   6.639   1.269
 8956SOL    HW127767   0.818   6.561   1.246
 8956SOL    HW227768   0.941   6.655   1.195
 8957SOL     OW27769   0.667   0.049   3.633
 8957SOL    HW127770   0.699   7.010   3.559
 8957SOL    HW227771   0.693   0.009   3.721
 8958SOL     OW27772   6.767   3.054   4.544
 8958SOL    HW127773   6.734   2.995   4.617
 8958SOL    HW227774   6.863   3.035   4.526
 8959SOL     OW27775   5.076   1.182   3.672
 8959SOL    HW127776   5.101   1.117   3.744
 8959SOL    HW227777   5.030   1.133   3.598
 8960SOL     OW27778   3.742   6.359   1.865
 8960SOL    HW127779   3.750   6.447   1.818
 8960SOL    HW227780   3.830   6.313   1.862
 8961SOL     OW27781   2.532   2.299   5.863
 8961SOL    HW127782   2.555   2.330   5.771
 8961SOL    HW227783   2.494   2.376   5.915
 8962SOL     OW27784   6.534   6.202   1.219
 8962SOL    HW127785   6.599   6.137   1.259
 8962SOL    HW227786   6.559   6.218   1.123
 8963SOL     OW27787   2.457   5.029   5.834
 8963SOL    HW127788   2.468   4.931   5.847
 8963SOL    HW227789   2.546   5.071   5.818
 8964SOL     OW27790   0.893   3.318   4.381
 8964SOL    HW127791   0.977   3.275   4.349
 8964SOL    HW227792   0.915   3.398   4.436
 8965SOL     OW27793   3.336   5.980   6.799
 8965SOL    HW127794   3.296   5.902   6.846
 8965SOL    HW227795   3.377   6.042   6.866
 8966SOL     OW27796   4.944   6.639   5.120
 8966SOL    HW127797   4.844   6.640   5.123
 8966SOL    HW227798   4.979   6.730   5.138
 8967SOL     OW27799   2.117   0.511   3.299
 8967SOL    HW127800   2.027   0.552   3.318
 8967SOL    HW227801   2.146   0.458   3.379
 8968SOL     OW27802   2.929   6.078   2.370
 8968SOL    HW127803   2.991   6.027   2.429
 8968SOL    HW227804   2.844   6.097   2.419
 8969SOL     OW27805   6.618   1.215   1.664
 8969SOL    HW127806   6.625   1.260   1.574
 8969SOL    HW227807   6.694   1.246   1.722
 8970SOL     OW27808   2.699   1.883   4.457
 8970SOL    HW127809   2.679   1.834   4.542
 8970SOL    HW227810   2.621   1.943   4.435
 8971SOL     OW27811   3.208   5.320   1.343
 8971SOL    HW127812   3.176   5.299   1.251
 8971SOL    HW227813   3.292   5.375   1.338
 8972SOL     OW27814   6.347   3.520   6.039
 8972SOL    HW127815   6.311   3.558   5.954
 8972SOL    HW227816   6.363   3.422   6.027
 8973SOL     OW27817   2.397   1.530   3.383
 8973SOL    HW127818   2.455   1.606   3.412
 8973SOL    HW227819   2.324   1.516   3.450
 8974SOL     OW27820   1.189   4.695   5.566
 8974SOL    HW127821   1.263   4.756   5.536
 8974SOL    HW227822   1.107   4.714   5.511
 8975SOL     OW27823   0.781   3.995   6.091
 8975SOL    HW127824   0.789   3.897   6.074
 8975SOL    HW227825   0.714   4.034   6.028
 8976SOL     OW27826   5.562   0.262   1.475
 8976SOL    HW127827   5.522   0.171   1.467
 8976SOL    HW227828   5.652   0.264   1.431
 8977SOL     OW27829   0.834   5.222   5.816
 8977SOL    HW127830   0.791   5.307   5.784
 8977SOL    HW227831   0.933   5.236   5.825
 8978SOL     OW27832   6.472   4.811   5.012
 8978SOL    HW127833   6.489   4.825   5.110
 8978SOL    HW227834   6.559   4.814   4.962
 8979SOL     OW27835   1.984   4.328   3.118
 8979SOL    HW127836   2.040   4.324   3.035
 8979SOL    HW227837   1.896   4.282   3.102
 8980SOL     OW27838   4.911   0.972   0.538
 8980SOL    HW127839   4.963   1.056   0.520
 8980SOL    HW227840   4.879   0.934   0.451
 8981SOL     OW27841   3.718   2.241   6.993
 8981SOL    HW127842   3.672   2.203   0.052
 8981SOL    HW227843   3.817   2.241   7.008
 8982SOL     OW27844   0.847   0.548   3.072
 8982SOL    HW127845   0.869   0.474   3.008
 8982SOL    HW227846   0.875   0.522   3.164
 8983SOL     OW27847   1.633   6.392   2.366
 8983SOL    HW127848   1.699   6.321   2.389
 8983SOL    HW227849   1.661   6.437   2.281
 8984SOL     OW27850   6.038   1.122   3.600
 8984SOL    HW127851   6.054   1.024   3.601
 8984SOL    HW227852   6.067   1.160   3.512
 8985SOL     OW27853   4.652   1.178   0.947
 8985SOL    HW127854   4.567   1.129   0.967
 8985SOL    HW227855   4.710   1.122   0.888
 8986SOL     OW27856   0.876   6.939   6.334
 8986SOL    HW127857   0.858   6.987   6.420
 8986SOL    HW227858   0.974   6.941   6.315
 8987SOL     OW27859   3.188   6.828   2.677
 8987SOL    HW127860   3.132   6.907   2.652
 8987SOL    HW227861   3.208   6.831   2.775
 8988SOL     OW27862   2.236   6.893   0.708
 8988SOL    HW127863   2.267   6.877   0.802
 8988SOL    HW227864   2.211   6.989   0.698
 8989SOL     OW27865   6.581   1.923   2.553
 8989SOL    HW127866   6.624   1.833   2.552
 8989SOL    HW227867   6.572   1.958   2.460
 8990SOL     OW27868   3.628   1.325   2.976
 8990SOL    HW127869   3.643   1.263   2.898
 8990SOL    HW227870   3.627   1.272   3.061
 8991SOL     OW27871   1.470   1.611   0.794
 8991SOL    HW127872   1.472   1.679   0.868
 8991SOL    HW227873   1.512   1.650   0.712
 8992SOL     OW27874   1.159   5.584   5.217
 8992SOL    HW127875   1.095   5.574   5.293
 8992SOL    HW227876   1.200   5.495   5.197
 8993SOL     OW27877   5.379   4.353   3.629
 8993SOL    HW127878   5.396   4.341   3.727
 8993SOL    HW227879   5.309   4.424   3.616
 8994SOL     OW27880   1.414   6.231   2.435
 8994SOL    HW127881   1.401   6.180   2.350
 8994SOL    HW227882   1.490   6.296   2.424
 8995SOL     OW27883   1.987   4.489   3.788
 8995SOL    HW127884   2.022   4.399   3.815
 8995SOL    HW227885   1.996   4.500   3.689
 8996SOL     OW27886   2.798   3.624   1.709
 8996SOL    HW127887   2.813   3.723   1.719
 8996SOL    HW227888   2.818   3.579   1.796
 8997SOL     OW27889   3.907   1.732   4.417
 8997SOL    HW127890   3.972   1.800   4.382
 8997SOL    HW227891   3.814   1.759   4.395
 8998SOL     OW27892   1.385   1.602   6.551
 8998SOL    HW127893   1.340   1.599   6.640
 8998SOL    HW227894   1.348   1.530   6.492
 8999SOL     OW27895   6.042   2.803   5.485
 8999SOL    HW127896   6.131   2.758   5.494
 8999SOL    HW227897   5.973   2.750   5.535
 9000SOL     OW27898   4.698   5.082   1.319
 9000SOL    HW127899   4.794   5.108   1.334
 9000SOL    HW227900   4.647   5.095   1.404
 9001SOL     OW27901   0.340   3.288   4.267
 9001SOL    HW127902   0.327   3.207   4.209
 9001SOL    HW227903   0.257   3.305   4.320
 9002SOL     OW27904   4.594   3.205   6.055
 9002SOL    HW127905   4.561   3.225   5.963
 9002SOL    HW227906   4.517   3.184   6.114
 9003SOL     OW27907   0.637   3.592   6.893
 9003SOL    HW127908   0.559   3.547   6.936
 9003SOL    HW227909   0.717   3.532   6.898
 9004SOL     OW27910   5.068   5.733   0.155
 9004SOL    HW127911   5.161   5.731   0.191
 9004SOL    HW227912   5.014   5.799   0.207
 9005SOL     OW27913   4.869   3.888   4.148
 9005SOL    HW127914   4.813   3.957   4.194
 9005SOL    HW227915   4.960   3.887   4.188
 9006SOL     OW27916   3.336   6.323   2.258
 9006SOL    HW127917   3.434   6.336   2.249
 9006SOL    HW227918   3.289   6.412   2.255
 9007SOL     OW27919   2.140   6.640   5.482
 9007SOL    HW127920   2.087   6.633   5.566
 9007SOL    HW227921   2.078   6.663   5.406
 9008SOL     OW27922   0.594   4.595   1.395
 9008SOL    HW127923   0.637   4.614   1.307
 9008SOL    HW227924   0.564   4.681   1.437
 9009SOL     OW27925   3.383   6.797   6.798
 9009SOL    HW127926   3.391   6.861   6.721
 9009SOL    HW227927   3.474   6.781   6.838
 9010SOL     OW27928   0.191   6.116   5.005
 9010SOL    HW127929   0.140   6.030   5.012
 9010SOL    HW227930   0.189   6.163   5.094
 9011SOL     OW27931   4.713   2.747   2.434
 9011SOL    HW127932   4.729   2.845   2.420
 9011SOL    HW227933   4.730   2.698   2.349
 9012SOL     OW27934   4.304   5.338   2.861
 9012SOL    HW127935   4.313   5.253   2.912
 9012SOL    HW227936   4.273   5.317   2.768
 9013SOL     OW27937   3.261   6.276   1.375
 9013SOL    HW127938   3.225   6.193   1.418
 9013SOL    HW227939   3.359   6.285   1.397
 9014SOL     OW27940   2.208   1.488   2.042
 9014SOL    HW127941   2.139   1.427   2.080
 9014SOL    HW227942   2.239   1.552   2.113
 9015SOL     OW27943   6.238   2.265   4.540
 9015SOL    HW127944   6.176   2.203   4.587
 9015SOL    HW227945   6.206   2.359   4.549
 9016SOL     OW27946   0.227   4.712   6.616
 9016SOL    HW127947   0.279   4.797   6.623
 9016SOL    HW227948   0.284   4.642   6.573
 9017SOL     OW27949   5.889   2.776   2.831
 9017SOL    HW127950   5.879   2.727   2.918
 9017SOL    HW227951   5.890   2.874   2.847
 9018SOL     OW27952   5.256   1.577   6.740
 9018SOL    HW127953   5.167   1.571   6.786
 9018SOL    HW227954   5.329   1.569   6.808
 9019SOL     OW27955   1.741   5.784   0.699
 9019SOL    HW127956   1.653   5.795   0.653
 9019SOL    HW227957   1.789   5.872   0.700
 9020SOL     OW27958   0.518   5.028   4.304
 9020SOL    HW127959   0.490   5.041   4.400
 9020SOL    HW227960   0.609   5.066   4.290
 9021SOL     OW27961   6.440   5.118   5.046
 9021SOL    HW127962   6.487   5.044   5.093
 9021SOL    HW227963   6.478   5.130   4.955
 9022SOL     OW27964   0.997   6.539   5.903
 9022SOL    HW127965   1.032   6.456   5.861
 9022SOL    HW227966   1.065   6.612   5.894
 9023SOL     OW27967   3.599   3.591   4.372
 9023SOL    HW127968   3.573   3.687   4.360
 9023SOL    HW227969   3.694   3.579   4.346
 9024SOL     OW27970   1.510   0.215   0.045
 9024SOL    HW127971   1.568   0.286   0.006
 9024SOL    HW227972   1.480   0.153   6.993
 9025SOL     OW27973   0.514   2.795   0.586
 9025SOL    HW127974   0.441   2.863   0.587
 9025SOL    HW227975   0.506   2.735   0.666
 9026SOL     OW27976   2.724   4.033   5.595
 9026SOL    HW127977   2.652   4.048   5.663
 9026SOL    HW227978   2.692   4.064   5.506
 9027SOL     OW27979   1.115   3.053   1.813
 9027SOL    HW127980   1.131   3.022   1.719
 9027SOL    HW227981   1.054   2.989   1.859
 9028SOL     OW27982   1.546   4.397   5.195
 9028SOL    HW127983   1.590   4.312   5.165
 9028SOL    HW227984   1.616   4.463   5.221
 9029SOL     OW27985   5.580   5.297   2.741
 9029SOL    HW127986   5.504   5.332   2.795
 9029SOL    HW227987   5.597   5.201   2.767
 9030SOL     OW27988   4.792   2.397   3.094
 9030SOL    HW127989   4.771   2.398   2.996
 9030SOL    HW227990   4.838   2.483   3.119
 9031SOL     OW27991   3.023   1.090   2.424
 9031SOL    HW127992   3.114   1.072   2.387
 9031SOL    HW227993   2.989   1.009   2.472
 9032SOL     OW27994   0.699   3.959   2.206
 9032SOL    HW127995   0.683   3.874   2.257
 9032SOL    HW227996   0.776   4.008   2.245
 9033SOL     OW27997   1.210   3.301   2.209
 9033SOL    HW127998   1.112   3.313   2.199
 9033SOL    HW227999   1.258   3.351   2.137
 9034SOL     OW28000   1.203   6.684   0.303
 9034SOL    HW128001   1.145   6.639   0.371
 9034SOL    HW228002   1.210   6.782   0.325
 9035SOL     OW28003   6.020   1.128   4.346
 9035SOL    HW128004   6.007   1.071   4.264
 9035SOL    HW228005   5.997   1.223   4.324
 9036SOL     OW28006   0.491   1.407   4.568
 9036SOL    HW128007   0.565   1.452   4.618
 9036SOL    HW228008   0.403   1.433   4.606
 9037SOL     OW28009   2.419   4.564   6.348
 9037SOL    HW128010   2.473   4.498   6.401
 9037SOL    HW228011   2.353   4.609   6.408
 9038SOL     OW28012   3.902   5.602   5.471
 9038SOL    HW128013   3.889   5.641   5.562
 9038SOL    HW228014   3.857   5.512   5.467
 9039SOL     OW28015   2.617   4.975   0.199
 9039SOL    HW128016   2.576   4.895   0.243
 9039SOL    HW228017   2.634   4.954   0.103
 9040SOL     OW28018   3.755   1.549   2.268
 9040SOL    HW128019   3.822   1.546   2.342
 9040SOL    HW228020   3.803   1.554   2.180
 9041SOL     OW28021   2.326   2.588   4.969
 9041SOL    HW128022   2.282   2.677   4.958
 9041SOL    HW228023   2.278   2.536   5.040
 9042SOL     OW28024   1.815   5.055   2.189
 9042SOL    HW128025   1.875   4.980   2.216
 9042SOL    HW228026   1.739   5.020   2.135
 9043SOL     OW28027   0.475   1.200   0.283
 9043SOL    HW128028   0.528   1.223   0.201
 9043SOL    HW228029   0.378   1.213   0.265
 9044SOL     OW28030   0.807   3.842   0.549
 9044SOL    HW128031   0.766   3.757   0.514
 9044SOL    HW228032   0.793   3.847   0.648
 9045SOL     OW28033   1.971   4.716   5.090
 9045SOL    HW128034   2.004   4.804   5.123
 9045SOL    HW228035   1.981   4.647   5.161
 9046SOL     OW28036   3.527   4.281   5.831
 9046SOL    HW128037   3.456   4.235   5.777
 9046SOL    HW228038   3.490   4.307   5.920
 9047SOL     OW28039   1.042   4.535   4.443
 9047SOL    HW128040   1.126   4.562   4.490
 9047SOL    HW228041   1.055   4.445   4.401
 9048SOL     OW28042   1.417   2.482   5.542
 9048SOL    HW128043   1.485   2.446   5.478
 9048SOL    HW228044   1.449   2.467   5.636
 9049SOL     OW28045   4.463   5.967   5.814
 9049SOL    HW128046   4.464   5.973   5.914
 9049SOL    HW228047   4.528   6.033   5.776
 9050SOL     OW28048   0.224   4.086   6.912
 9050SOL    HW128049   0.141   4.076   6.967
 9050SOL    HW228050   0.293   4.136   6.964
 9051SOL     OW28051   0.020   6.240   6.363
 9051SOL    HW128052   6.998   6.151   6.380
 9051SOL    HW228053   6.974   6.313   6.382
 9052SOL     OW28054   2.136   4.653   4.909
 9052SOL    HW128055   2.071   4.680   4.979
 9052SOL    HW228056   2.205   4.725   4.898
 9053SOL     OW28057   1.666   0.045   2.487
 9053SOL    HW128058   1.595   0.067   2.420
 9053SOL    HW228059   1.744   0.107   2.473
 9054SOL     OW28060   1.643   6.996   1.955
 9054SOL    HW128061   1.672   6.903   1.931
 9054SOL    HW228062   1.720   0.026   1.993
 9055SOL     OW28063   1.626   2.589   5.084
 9055SOL    HW128064   1.645   2.651   5.008
 9055SOL    HW228065   1.637   2.639   5.170
 9056SOL     OW28066   5.173   2.151   1.467
 9056SOL    HW128067   5.132   2.173   1.379
 9056SOL    HW228068   5.266   2.186   1.471
 9057SOL     OW28069   3.323   6.719   6.160
 9057SOL    HW128070   3.370   6.633   6.180
 9057SOL    HW228071   3.390   6.792   6.153
 9058SOL     OW28072   2.185   3.080   3.834
 9058SOL    HW128073   2.172   3.126   3.747
 9058SOL    HW228074   2.272   3.029   3.832
 9059SOL     OW28075   0.024   0.528   2.294
 9059SOL    HW128076   0.100   0.465   2.280
 9059SOL    HW228077   0.049   0.618   2.258
 9060SOL     OW28078   0.517   5.223   6.747
 9060SOL    HW128079   0.475   5.263   6.666
 9060SOL    HW228080   0.457   5.235   6.826
 9061SOL     OW28081   3.770   4.917   2.430
 9061SOL    HW128082   3.720   4.891   2.512
 9061SOL    HW228083   3.710   4.914   2.351
 9062SOL     OW28084   0.336   5.758   2.600
 9062SOL    HW128085   0.314   5.753   2.698
 9062SOL    HW228086   0.303   5.844   2.562
 9063SOL     OW28087   6.339   6.717   0.967
 9063SOL    HW128088   6.282   6.792   0.933
 9063SOL    HW228089   6.315   6.633   0.919
 9064SOL     OW28090   1.336   5.565   2.923
 9064SOL    HW128091   1.385   5.646   2.891
 9064SOL    HW228092   1.381   5.529   3.005
 9065SOL     OW28093   3.178   3.987   6.863
 9065SOL    HW128094   3.094   4.029   6.828
 9065SOL    HW228095   3.182   3.998   6.962
 9066SOL     OW28096   5.324   4.933   2.883
 9066SOL    HW128097   5.406   4.971   2.842
 9066SOL    HW228098   5.332   4.833   2.887
 9067SOL     OW28099   1.884   7.001   4.450
 9067SOL    HW128100   1.934   6.942   4.513
 9067SOL    HW228101   1.866   6.952   4.365
 9068SOL     OW28102   5.220   0.503   5.607
 9068SOL    HW128103   5.229   0.405   5.624
 9068SOL    HW228104   5.302   0.550   5.641
 9069SOL     OW28105   4.627   2.213   2.044
 9069SOL    HW128106   4.661   2.176   2.130
 9069SOL    HW228107   4.611   2.311   2.054
 9070SOL     OW28108   1.123   0.398   6.778
 9070SOL    HW128109   1.139   0.409   6.876
 9070SOL    HW228110   1.116   0.301   6.756
 9071SOL     OW28111   5.496   2.675   0.238
 9071SOL    HW128112   5.404   2.706   0.216
 9071SOL    HW228113   5.495   2.627   0.326
 9072SOL     OW28114   6.453   1.040   2.033
 9072SOL    HW128115   6.458   1.007   1.939
 9072SOL    HW228116   6.497   1.129   2.041
 9073SOL     OW28117   5.038   2.756   6.129
 9073SOL    HW128118   4.978   2.743   6.051
 9073SOL    HW228119   5.049   2.670   6.178
 9074SOL     OW28120   2.114   0.749   3.646
 9074SOL    HW128121   2.024   0.715   3.619
 9074SOL    HW228122   2.173   0.757   3.566
 9075SOL     OW28123   5.068   5.739   1.125
 9075SOL    HW128124   5.121   5.665   1.167
 9075SOL    HW228125   5.098   5.752   1.030
 9076SOL     OW28126   1.364   6.552   2.514
 9076SOL    HW128127   1.283   6.515   2.558
 9076SOL    HW228128   1.439   6.486   2.519
 9077SOL     OW28129   6.755   1.125   6.586
 9077SOL    HW128130   6.688   1.054   6.564
 9077SOL    HW228131   6.846   1.084   6.592
 9078SOL     OW28132   5.121   6.776   6.426
 9078SOL    HW128133   5.158   6.866   6.403
 9078SOL    HW228134   5.021   6.780   6.425
 9079SOL     OW28135   2.094   1.663   6.525
 9079SOL    HW128136   2.122   1.649   6.430
 9079SOL    HW228137   2.171   1.697   6.578
 9080SOL     OW28138   6.455   4.639   0.878
 9080SOL    HW128139   6.377   4.692   0.912
 9080SOL    HW228140   6.492   4.684   0.797
 9081SOL     OW28141   4.573   1.134   6.611
 9081SOL    HW128142   4.500   1.197   6.635
 9081SOL    HW228143   4.577   1.122   6.512
 9082SOL     OW28144   3.073   4.655   6.450
 9082SOL    HW128145   3.081   4.668   6.351
 9082SOL    HW228146   3.160   4.678   6.494
 9083SOL     OW28147   3.890   0.193   1.004
 9083SOL    HW128148   3.882   0.183   1.103
 9083SOL    HW228149   3.986   0.187   0.977
 9084SOL     OW28150   6.721   4.777   4.505
 9084SOL    HW128151   6.812   4.809   4.478
 9084SOL    HW228152   6.721   4.678   4.509
 9085SOL     OW28153   3.303   4.886   1.591
 9085SOL    HW128154   3.356   4.897   1.506
 9085SOL    HW228155   3.206   4.874   1.569
 9086SOL     OW28156   6.965   1.672   0.335
 9086SOL    HW128157   0.002   1.637   0.409
 9086SOL    HW228158   6.879   1.706   0.374
 9087SOL     OW28159   4.489   1.338   0.706
 9087SOL    HW128160   4.562   1.391   0.749
 9087SOL    HW228161   4.518   1.244   0.693
 9088SOL     OW28162   5.035   6.738   0.382
 9088SOL    HW128163   5.107   6.766   0.318
 9088SOL    HW228164   5.046   6.641   0.404
 9089SOL     OW28165   5.386   5.636   3.012
 9089SOL    HW128166   5.369   5.706   2.942
 9089SOL    HW228167   5.320   5.648   3.086
 9090SOL     OW28168   5.955   5.255   5.250
 9090SOL    HW128169   6.053   5.266   5.232
 9090SOL    HW228170   5.924   5.324   5.314
 9091SOL     OW28171   2.004   1.987   1.831
 9091SOL    HW128172   2.015   1.897   1.790
 9091SOL    HW228173   2.092   2.022   1.861
 9092SOL     OW28174   3.082   1.725   5.382
 9092SOL    HW128175   3.062   1.695   5.288
 9092SOL    HW228176   2.999   1.719   5.437
 9093SOL     OW28177   1.939   3.499   0.601
 9093SOL    HW128178   1.931   3.401   0.615
 9093SOL    HW228179   1.858   3.545   0.638
 9094SOL     OW28180   6.770   2.373   6.790
 9094SOL    HW128181   6.838   2.323   6.844
 9094SOL    HW228182   6.801   2.380   6.695
 9095SOL     OW28183   2.253   2.611   0.586
 9095SOL    HW128184   2.329   2.556   0.621
 9095SOL    HW228185   2.267   2.629   0.488
 9096SOL     OW28186   7.012   4.300   2.520
 9096SOL    HW128187   6.988   4.398   2.517
 9096SOL    HW228188   0.089   4.290   2.537
 9097SOL     OW28189   6.838   6.033   6.356
 9097SOL    HW128190   6.792   6.092   6.289
 9097SOL    HW228191   6.794   5.943   6.357
 9098SOL     OW28192   3.766   3.414   5.479
 9098SOL    HW128193   3.847   3.467   5.452
 9098SOL    HW228194   3.787   3.317   5.475
 9099SOL     OW28195   1.918   2.752   0.029
 9099SOL    HW128196   1.956   2.801   6.971
 9099SOL    HW228197   1.993   2.717   0.085
 9100SOL     OW28198   1.425   2.656   0.731
 9100SOL    HW128199   1.495   2.644   0.801
 9100SOL    HW228200   1.452   2.605   0.649
 9101SOL     OW28201   2.414   2.208   0.168
 9101SOL    HW128202   2.344   2.137   0.174
 9101SOL    HW228203   2.504   2.166   0.160
 9102SOL     OW28204   4.475   6.464   2.573
 9102SOL    HW128205   4.431   6.448   2.661
 9102SOL    HW228206   4.553   6.525   2.585
 9103SOL     OW28207   1.226   4.348   6.190
 9103SOL    HW128208   1.205   4.271   6.250
 9103SOL    HW228209   1.148   4.411   6.188
 9104SOL     OW28210   4.540   6.797   2.781
 9104SOL    HW128211   4.545   6.897   2.777
 9104SOL    HW228212   4.458   6.769   2.831
 9105SOL     OW28213   3.507   2.543   6.205
 9105SOL    HW128214   3.604   2.569   6.201
 9105SOL    HW228215   3.452   2.613   6.158
 9106SOL     OW28216   6.519   5.600   1.108
 9106SOL    HW128217   6.618   5.591   1.101
 9106SOL    HW228218   6.497   5.671   1.175
 9107SOL     OW28219   4.972   6.347   6.316
 9107SOL    HW128220   5.022   6.263   6.340
 9107SOL    HW228221   4.968   6.407   6.396
 9108SOL     OW28222   3.783   5.677   0.862
 9108SOL    HW128223   3.796   5.605   0.929
 9108SOL    HW228224   3.703   5.732   0.887
 9109SOL     OW28225   3.488   2.089   4.088
 9109SOL    HW128226   3.471   2.184   4.062
 9109SOL    HW228227   3.423   2.062   4.160
 9110SOL     OW28228   0.750   3.755   4.052
 9110SOL    HW128229   0.729   3.814   4.130
 9110SOL    HW228230   0.760   3.660   4.083
 9111SOL     OW28231   3.609   4.135   1.600
 9111SOL    HW128232   3.557   4.163   1.680
 9111SOL    HW228233   3.677   4.067   1.625
 9112SOL     OW28234   1.054   6.544   2.328
 9112SOL    HW128235   0.997   6.612   2.282
 9112SOL    HW228236   1.092   6.481   2.260
 9113SOL     OW28237   2.323   5.670   0.130
 9113SOL    HW128238   2.279   5.679   0.219
 9113SOL    HW228239   2.411   5.717   0.131
 9114SOL     OW28240   2.521   3.526   1.642
 9114SOL    HW128241   2.607   3.567   1.671
 9114SOL    HW228242   2.476   3.484   1.720
 9115SOL     OW28243   1.547   4.195   4.568
 9115SOL    HW128244   1.491   4.176   4.487
 9115SOL    HW228245   1.508   4.272   4.618
 9116SOL     OW28246   3.229   2.597   6.768
 9116SOL    HW128247   3.321   2.636   6.780
 9116SOL    HW228248   3.236   2.499   6.752
 9117SOL     OW28249   0.588   2.688   0.041
 9117SOL    HW128250   0.577   2.601   7.013
 9117SOL    HW228251   0.519   2.753   0.010
 9118SOL     OW28252   0.455   6.697   1.704
 9118SOL    HW128253   0.525   6.740   1.647
 9118SOL    HW228254   0.442   6.602   1.676
 9119SOL     OW28255   5.865   6.882   1.033
 9119SOL    HW128256   5.819   6.940   0.965
 9119SOL    HW228257   5.815   6.886   1.119
 9120SOL     OW28258   6.140   0.307   0.582
 9120SOL    HW128259   6.115   0.339   0.490
 9120SOL    HW228260   6.069   0.245   0.615
 9121SOL     OW28261   1.524   1.079   6.574
 9121SOL    HW128262   1.552   1.175   6.573
 9121SOL    HW228263   1.566   1.032   6.651
 9122SOL     OW28264   0.465   3.302   1.059
 9122SOL    HW128265   0.422   3.290   1.149
 9122SOL    HW228266   0.474   3.214   1.014
 9123SOL     OW28267   1.056   6.289   5.834
 9123SOL    HW128268   0.998   6.253   5.908
 9123SOL    HW228269   1.131   6.226   5.817
 9124SOL     OW28270   0.327   4.316   4.586
 9124SOL    HW128271   0.287   4.373   4.514
 9124SOL    HW228272   0.402   4.262   4.548
 9125SOL     OW28273   4.941   5.913   1.364
 9125SOL    HW128274   4.876   5.988   1.352
 9125SOL    HW228275   4.938   5.853   1.283
 9126SOL     OW28276   5.604   0.672   3.185
 9126SOL    HW128277   5.620   0.675   3.283
 9126SOL    HW228278   5.689   0.648   3.138
 9127SOL     OW28279   6.013   5.110   5.693
 9127SOL    HW128280   6.113   5.110   5.696
 9127SOL    HW228281   5.978   5.189   5.743
 9128SOL     OW28282   4.781   2.843   5.413
 9128SOL    HW128283   4.774   2.854   5.314
 9128SOL    HW228284   4.697   2.874   5.456
 9129SOL     OW28285   2.813   1.261   0.528
 9129SOL    HW128286   2.764   1.232   0.611
 9129SOL    HW228287   2.834   1.181   0.473
 9130SOL     OW28288   5.646   5.374   0.635
 9130SOL    HW128289   5.579   5.402   0.566
 9130SOL    HW228290   5.737   5.405   0.608
 9131SOL     OW28291   1.135   4.629   4.163
 9131SOL    HW128292   1.066   4.695   4.190
 9131SOL    HW228293   1.225   4.662   4.190
 9132SOL     OW28294   1.341   2.822   4.085
 9132SOL    HW128295   1.345   2.892   4.157
 9132SOL    HW228296   1.377   2.860   4.000
 9133SOL     OW28297   1.478   5.338   0.790
 9133SOL    HW128298   1.436   5.414   0.838
 9133SOL    HW228299   1.466   5.349   0.691
 9134SOL     OW28300   3.099   5.143   6.266
 9134SOL    HW128301   3.166   5.197   6.214
 9134SOL    HW228302   3.144   5.063   6.305
 9135SOL     OW28303   1.123   6.318   3.232
 9135SOL    HW128304   1.132   6.410   3.196
 9135SOL    HW228305   1.186   6.306   3.310
 9136SOL     OW28306   3.357   5.255   5.325
 9136SOL    HW128307   3.411   5.188   5.376
 9136SOL    HW228308   3.413   5.335   5.304
 9137SOL     OW28309   3.955   0.571   2.250
 9137SOL    HW128310   3.995   0.552   2.339
 9137SOL    HW228311   4.023   0.614   2.191
 9138SOL     OW28312   3.265   4.811   1.221
 9138SOL    HW128313   3.280   4.904   1.255
 9138SOL    HW228314   3.270   4.746   1.297
 9139SOL     OW28315   3.686   0.858   5.847
 9139SOL    HW128316   3.625   0.841   5.770
 9139SOL    HW228317   3.759   0.789   5.848
 9140SOL     OW28318   6.189   2.624   3.471
 9140SOL    HW128319   6.161   2.707   3.424
 9140SOL    HW228320   6.287   2.627   3.490
 9141SOL     OW28321   5.431   0.623   5.698
 9141SOL    HW128322   5.524   0.589   5.681
 9141SOL    HW228323   5.436   0.712   5.744
 9142SOL     OW28324   1.655   3.746   6.683
 9142SOL    HW128325   1.580   3.800   6.644
 9142SOL    HW228326   1.676   3.780   6.775
 9143SOL     OW28327   6.175   4.312   6.949
 9143SOL    HW128328   6.275   4.312   6.960
 9143SOL    HW228329   6.151   4.372   6.873
 9144SOL     OW28330   1.007   5.306   4.283
 9144SOL    HW128331   1.068   5.255   4.223
 9144SOL    HW228332   1.050   5.392   4.310
 9145SOL     OW28333   1.406   3.576   6.741
 9145SOL    HW128334   1.427   3.672   6.757
 9145SOL    HW228335   1.460   3.520   6.805
 9146SOL     OW28336   0.952   1.499   1.017
 9146SOL    HW128337   0.923   1.548   0.935
 9146SOL    HW228338   0.924   1.550   1.098
 9147SOL     OW28339   4.023   5.606   6.411
 9147SOL    HW128340   4.081   5.614   6.330
 9147SOL    HW228341   3.981   5.515   6.413
 9148SOL     OW28342   3.330   4.925   2.808
 9148SOL    HW128343   3.319   5.019   2.775
 9148SOL    HW228344   3.240   4.880   2.809
 9149SOL     OW28345   6.210   3.039   5.298
 9149SOL    HW128346   6.163   2.971   5.354
 9149SOL    HW228347   6.194   3.020   5.202
 9150SOL     OW28348   3.933   1.279   3.070
 9150SOL    HW128349   4.024   1.237   3.064
 9150SOL    HW228350   3.942   1.378   3.060
 9151SOL     OW28351   6.071   3.042   2.427
 9151SOL    HW128352   6.038   3.045   2.333
 9151SOL    HW228353   6.069   2.948   2.460
 9152SOL     OW28354   2.216   4.873   3.089
 9152SOL    HW128355   2.299   4.863   3.143
 9152SOL    HW228356   2.216   4.961   3.042
 9153SOL     OW28357   2.260   3.008   0.397
 9153SOL    HW128358   2.241   3.078   0.329
 9153SOL    HW228359   2.181   2.948   0.407
 9154SOL     OW28360   1.004   5.579   0.755
 9154SOL    HW128361   0.968   5.488   0.774
 9154SOL    HW228362   1.056   5.577   0.670
 9155SOL     OW28363   1.649   4.682   0.294
 9155SOL    HW128364   1.666   4.725   0.382
 9155SOL    HW228365   1.618   4.588   0.308
 9156SOL     OW28366   4.999   2.740   1.458
 9156SOL    HW128367   4.961   2.768   1.546
 9156SOL    HW228368   4.932   2.757   1.385
 9157SOL     OW28369   5.597   3.502   5.349
 9157SOL    HW128370   5.644   3.500   5.260
 9157SOL    HW228371   5.665   3.505   5.422
 9158SOL     OW28372   1.157   4.417   4.002
 9158SOL    HW128373   1.255   4.426   3.984
 9158SOL    HW228374   1.133   4.475   4.080
 9159SOL     OW28375   0.135   5.148   1.845
 9159SOL    HW128376   0.210   5.178   1.786
 9159SOL    HW228377   0.172   5.099   1.924
 9160SOL     OW28378   0.477   0.111   1.123
 9160SOL    HW128379   0.526   0.135   1.039
 9160SOL    HW228380   0.543   0.086   1.194
 9161SOL     OW28381   5.336   3.818   2.367
 9161SOL    HW128382   5.342   3.777   2.276
 9161SOL    HW228383   5.418   3.873   2.384
 9162SOL     OW28384   5.038   2.620   3.642
 9162SOL    HW128385   5.036   2.702   3.585
 9162SOL    HW228386   5.064   2.541   3.587
 9163SOL     OW28387   3.882   0.790   4.913
 9163SOL    HW128388   3.867   0.807   4.816
 9163SOL    HW228389   3.980   0.775   4.930
 9164SOL     OW28390   2.572   0.624   0.964
 9164SOL    HW128391   2.498   0.676   1.006
 9164SOL    HW228392   2.576   0.644   0.867
 9165SOL     OW28393   5.118   6.072   0.901
 9165SOL    HW128394   5.177   5.990   0.904
 9165SOL    HW228395   5.027   6.046   0.869
 9166SOL     OW28396   2.916   5.481   0.771
 9166SOL    HW128397   2.961   5.463   0.684
 9166SOL    HW228398   2.960   5.557   0.817
 9167SOL     OW28399   0.339   3.621   4.501
 9167SOL    HW128400   0.256   3.618   4.557
 9167SOL    HW228401   0.386   3.533   4.507
 9168SOL     OW28402   3.448   0.434   0.730
 9168SOL    HW128403   3.417   0.469   0.641
 9168SOL    HW228404   3.382   0.368   0.764
 9169SOL     OW28405   0.324   6.724   3.840
 9169SOL    HW128406   0.246   6.669   3.812
 9169SOL    HW228407   0.301   6.821   3.832
 9170SOL     OW28408   6.265   5.822   6.888
 9170SOL    HW128409   6.227   5.770   6.811
 9170SOL    HW228410   6.364   5.833   6.875
 9171SOL     OW28411   3.560   5.646   5.115
 9171SOL    HW128412   3.656   5.643   5.142
 9171SOL    HW228413   3.540   5.734   5.072
 9172SOL     OW28414   2.419   2.303   3.990
 9172SOL    HW128415   2.359   2.290   4.069
 9172SOL    HW228416   2.372   2.357   3.920
 9173SOL     OW28417   0.152   5.139   5.494
 9173SOL    HW128418   0.058   5.154   5.461
 9173SOL    HW228419   0.154   5.154   5.593
 9174SOL     OW28420   0.272   5.621   6.326
 9174SOL    HW128421   0.256   5.594   6.421
 9174SOL    HW228422   0.370   5.614   6.305
 9175SOL     OW28423   2.496   6.284   5.647
 9175SOL    HW128424   2.445   6.206   5.608
 9175SOL    HW228425   2.441   6.367   5.637
 9176SOL     OW28426   1.493   2.470   5.810
 9176SOL    HW128427   1.496   2.386   5.863
 9176SOL    HW228428   1.519   2.547   5.869
 9177SOL     OW28429   1.435   4.206   3.078
 9177SOL    HW128430   1.376   4.236   3.153
 9177SOL    HW228431   1.392   4.231   2.991
 9178SOL     OW28432   2.208   4.021   0.402
 9178SOL    HW128433   2.150   4.096   0.370
 9178SOL    HW228434   2.295   4.058   0.435
 9179SOL     OW28435   2.717   4.676   5.633
 9179SOL    HW128436   2.718   4.576   5.637
 9179SOL    HW228437   2.751   4.706   5.544
 9180SOL     OW28438   5.038   2.016   2.340
 9180SOL    HW128439   4.977   1.939   2.320
 9180SOL    HW228440   5.004   2.065   2.421
 9181SOL     OW28441   4.094   1.105   2.625
 9181SOL    HW128442   4.183   1.076   2.661
 9181SOL    HW228443   4.075   1.054   2.541
 9182SOL     OW28444   2.153   6.630   1.713
 9182SOL    HW128445   2.096   6.647   1.632
 9182SOL    HW228446   2.246   6.607   1.683
 9183SOL     OW28447   5.150   5.316   5.606
 9183SOL    HW128448   5.193   5.243   5.552
 9183SOL    HW228449   5.200   5.326   5.692
 9184SOL     OW28450   4.635   6.976   0.111
 9184SOL    HW128451   4.619   0.024   0.182
 9184SOL    HW228452   4.733   6.960   0.102
 9185SOL     OW28453   5.184   1.396   4.540
 9185SOL    HW128454   5.266   1.344   4.566
 9185SOL    HW228455   5.208   1.493   4.534
 9186SOL     OW28456   5.181   0.651   5.968
 9186SOL    HW128457   5.107   0.704   5.926
 9186SOL    HW228458   5.268   0.677   5.927
 9187SOL     OW28459   2.620   6.114   3.394
 9187SOL    HW128460   2.601   6.035   3.453
 9187SOL    HW228461   2.534   6.160   3.372
 9188SOL     OW28462   2.765   5.304   0.568
 9188SOL    HW128463   2.697   5.240   0.532
 9188SOL    HW228464   2.732   5.343   0.654
 9189SOL     OW28465   5.162   4.828   1.925
 9189SOL    HW128466   5.228   4.880   1.871
 9189SOL    HW228467   5.084   4.802   1.867
 9190SOL     OW28468   1.401   6.309   6.492
 9190SOL    HW128469   1.334   6.314   6.418
 9190SOL    HW228470   1.485   6.266   6.457
 9191SOL     OW28471   0.219   0.991   5.709
 9191SOL    HW128472   0.222   0.924   5.783
 9191SOL    HW228473   0.132   1.040   5.711
 9192SOL     OW28474   1.114   3.481   5.574
 9192SOL    HW128475   1.196   3.533   5.599
 9192SOL    HW228476   1.040   3.502   5.637
 9193SOL     OW28477   3.314   3.814   0.472
 9193SOL    HW128478   3.295   3.839   0.377
 9193SOL    HW228479   3.282   3.721   0.490
 9194SOL     OW28480   3.088   0.978   4.181
 9194SOL    HW128481   3.063   0.882   4.169
 9194SOL    HW228482   3.185   0.985   4.206
 9195SOL     OW28483   1.664   1.212   4.007
 9195SOL    HW128484   1.725   1.208   3.927
 9195SOL    HW228485   1.571   1.191   3.978
 9196SOL     OW28486   5.130   1.245   6.147
 9196SOL    HW128487   5.178   1.180   6.204
 9196SOL    HW228488   5.040   1.208   6.121
 9197SOL     OW28489   2.602   3.602   0.511
 9197SOL    HW128490   2.680   3.540   0.515
 9197SOL    HW228491   2.623   3.677   0.448
 9198SOL     OW28492   0.926   4.731   4.850
 9198SOL    HW128493   0.862   4.714   4.926
 9198SOL    HW228494   0.950   4.644   4.807
 9199SOL     OW28495   5.813   4.710   4.779
 9199SOL    HW128496   5.731   4.716   4.835
 9199SOL    HW228497   5.805   4.770   4.699
 9200SOL     OW28498   2.836   6.820   0.208
 9200SOL    HW128499   2.857   6.831   0.305
 9200SOL    HW228500   2.755   6.874   0.185
 9201SOL     OW28501   2.344   4.401   0.875
 9201SOL    HW128502   2.367   4.415   0.971
 9201SOL    HW228503   2.258   4.448   0.854
 9202SOL     OW28504   2.643   0.951   3.487
 9202SOL    HW128505   2.708   0.938   3.562
 9202SOL    HW228506   2.685   0.918   3.402
 9203SOL     OW28507   6.855   6.519   1.088
 9203SOL    HW128508   6.777   6.577   1.066
 9203SOL    HW228509   6.921   6.521   1.013
 9204SOL     OW28510   5.894   0.901   5.497
 9204SOL    HW128511   5.837   0.853   5.430
 9204SOL    HW228512   5.988   0.907   5.464
 9205SOL     OW28513   0.258   5.718   2.225
 9205SOL    HW128514   0.187   5.757   2.285
 9205SOL    HW228515   0.269   5.621   2.244
 9206SOL     OW28516   3.719   0.174   7.000
 9206SOL    HW128517   3.806   0.180   0.028
 9206SOL    HW228518   3.652   0.126   0.036
 9207SOL     OW28519   5.626   5.869   6.016
 9207SOL    HW128520   5.615   5.952   5.961
 9207SOL    HW228521   5.581   5.792   5.970
 9208SOL     OW28522   1.255   3.582   2.646
 9208SOL    HW128523   1.219   3.675   2.643
 9208SOL    HW228524   1.246   3.539   2.556
 9209SOL     OW28525   2.306   6.103   6.860
 9209SOL    HW128526   2.290   6.017   6.909
 9209SOL    HW228527   2.237   6.113   6.788
 9210SOL     OW28528   6.497   0.850   3.932
 9210SOL    HW128529   6.587   0.814   3.905
 9210SOL    HW228530   6.457   0.900   3.855
 9211SOL     OW28531   1.029   1.611   3.234
 9211SOL    HW128532   1.078   1.569   3.311
 9211SOL    HW228533   0.975   1.542   3.186
 9212SOL     OW28534   3.877   5.352   4.536
 9212SOL    HW128535   3.934   5.311   4.465
 9212SOL    HW228536   3.914   5.441   4.562
 9213SOL     OW28537   6.102   3.638   0.008
 9213SOL    HW128538   6.157   3.621   0.090
 9213SOL    HW228539   6.036   3.711   0.026
 9214SOL     OW28540   0.323   5.279   0.305
 9214SOL    HW128541   0.311   5.247   0.400
 9214SOL    HW228542   0.376   5.211   0.254
 9215SOL     OW28543   0.943   1.281   0.795
 9215SOL    HW128544   0.886   1.316   0.721
 9215SOL    HW228545   0.890   1.279   0.880
 9216SOL     OW28546   2.097   0.131   3.744
 9216SOL    HW128547   2.172   0.164   3.801
 9216SOL    HW228548   2.013   0.180   3.769
 9217SOL     OW28549   0.361   2.205   0.437
 9217SOL    HW128550   0.371   2.147   0.356
 9217SOL    HW228551   0.274   2.185   0.481
 9218SOL     OW28552   2.514   1.260   0.857
 9218SOL    HW128553   2.488   1.311   0.774
 9218SOL    HW228554   2.609   1.230   0.849
 9219SOL     OW28555   6.016   1.619   0.471
 9219SOL    HW128556   5.925   1.592   0.502
 9219SOL    HW228557   6.079   1.618   0.548
 9220SOL     OW28558   2.754   6.623   0.490
 9220SOL    HW128559   2.844   6.611   0.532
 9220SOL    HW228560   2.740   6.718   0.465
 9221SOL     OW28561   2.866   4.789   4.744
 9221SOL    HW128562   2.866   4.725   4.821
 9221SOL    HW228563   2.777   4.784   4.697
 9222SOL     OW28564   3.177   2.187   6.933
 9222SOL    HW128565   3.111   2.258   6.909
 9222SOL    HW228566   3.145   2.099   6.897
 9223SOL     OW28567   2.674   3.222   5.289
 9223SOL    HW128568   2.633   3.172   5.212
 9223SOL    HW228569   2.713   3.157   5.354
 9224SOL     OW28570   2.295   4.730   5.190
 9224SOL    HW128571   2.283   4.800   5.120
 9224SOL    HW228572   2.339   4.650   5.150
 9225SOL     OW28573   1.576   6.114   6.802
 9225SOL    HW128574   1.506   6.170   6.846
 9225SOL    HW228575   1.538   6.024   6.782
 9226SOL     OW28576   4.713   6.075   1.306
 9226SOL    HW128577   4.632   6.017   1.297
 9226SOL    HW228578   4.712   6.145   1.234
 9227SOL     OW28579   1.233   6.286   1.274
 9227SOL    HW128580   1.263   6.377   1.246
 9227SOL    HW228581   1.312   6.225   1.279
 9228SOL     OW28582   0.584   6.361   6.282
 9228SOL    HW128583   0.603   6.390   6.188
 9228SOL    HW228584   0.503   6.409   6.316
 9229SOL     OW28585   1.070   5.997   5.062
 9229SOL    HW128586   0.996   5.980   4.998
 9229SOL    HW228587   1.046   5.960   5.152
 9230SOL     OW28588   4.755   1.757   3.258
 9230SOL    HW128589   4.843   1.784   3.219
 9230SOL    HW228590   4.761   1.757   3.358
 9231SOL     OW28591   2.135   3.497   3.485
 9231SOL    HW128592   2.178   3.583   3.458
 9231SOL    HW228593   2.089   3.456   3.406
 9232SOL     OW28594   4.579   5.304   1.154
 9232SOL    HW128595   4.650   5.374   1.149
 9232SOL    HW228596   4.609   5.232   1.217
 9233SOL     OW28597   5.709   4.474   6.982
 9233SOL    HW128598   5.770   4.503   6.909
 9233SOL    HW228599   5.702   4.546   0.029
 9234SOL     OW28600   1.696   5.983   4.105
 9234SOL    HW128601   1.645   5.977   4.019
 9234SOL    HW228602   1.787   6.019   4.087
 9235SOL     OW28603   0.941   2.438   3.348
 9235SOL    HW128604   0.927   2.424   3.250
 9235SOL    HW228605   1.038   2.428   3.369
 9236SOL     OW28606   3.689   2.680   6.500
 9236SOL    HW128607   3.604   2.636   6.529
 9236SOL    HW228608   3.687   2.692   6.400
 9237SOL     OW28609   1.658   3.850   3.081
 9237SOL    HW128610   1.569   3.882   3.114
 9237SOL    HW228611   1.649   3.822   2.985
 9238SOL     OW28612   4.434   3.392   6.793
 9238SOL    HW128613   4.391   3.362   6.878
 9238SOL    HW228614   4.522   3.434   6.813
 9239SOL     OW28615   2.242   2.957   6.583
 9239SOL    HW128616   2.265   2.866   6.548
 9239SOL    HW228617   2.281   3.027   6.523
 9240SOL     OW28618   4.734   0.851   2.265
 9240SOL    HW128619   4.790   0.858   2.347
 9240SOL    HW228620   4.793   0.855   2.184
 9241SOL     OW28621   0.439   5.568   5.898
 9241SOL    HW128622   0.404   5.500   5.963
 9241SOL    HW228623   0.532   5.542   5.870
 9242SOL     OW28624   5.455   6.358   1.929
 9242SOL    HW128625   5.515   6.305   1.869
 9242SOL    HW228626   5.485   6.348   2.024
 9243SOL     OW28627   5.754   0.150   4.461
 9243SOL    HW128628   5.831   0.096   4.495
 9243SOL    HW228629   5.747   0.142   4.362
 9244SOL     OW28630   3.908   5.969   0.430
 9244SOL    HW128631   3.871   5.876   0.428
 9244SOL    HW228632   3.836   6.034   0.455
 9245SOL     OW28633   0.346   6.758   1.961
 9245SOL    HW128634   0.286   6.678   1.952
 9245SOL    HW228635   0.429   6.743   1.906
 9246SOL     OW28636   0.171   5.091   3.828
 9246SOL    HW128637   0.155   5.157   3.901
 9246SOL    HW228638   0.117   5.008   3.845
 9247SOL     OW28639   1.263   0.560   3.106
 9247SOL    HW128640   1.274   0.624   3.030
 9247SOL    HW228641   1.198   0.597   3.172
 9248SOL     OW28642   4.246   1.720   6.142
 9248SOL    HW128643   4.286   1.812   6.146
 9248SOL    HW228644   4.303   1.656   6.193
 9249SOL     OW28645   4.180   6.572   3.777
 9249SOL    HW128646   4.218   6.645   3.834
 9249SOL    HW228647   4.112   6.521   3.829
 9250SOL     OW28648   4.894   3.705   3.001
 9250SOL    HW128649   4.955   3.697   3.079
 9250SOL    HW228650   4.824   3.775   3.020
 9251SOL     OW28651   3.722   1.734   1.973
 9251SOL    HW128652   3.677   1.808   2.023
 9251SOL    HW228653   3.661   1.655   1.969
 9252SOL     OW28654   1.882   6.720   4.488
 9252SOL    HW128655   1.800   6.721   4.430
 9252SOL    HW228656   1.959   6.683   4.437
 9253SOL     OW28657   1.203   6.706   6.170
 9253SOL    HW128658   1.150   6.789   6.186
 9253SOL    HW228659   1.141   6.631   6.147
 9254SOL     OW28660   4.931   2.101   1.064
 9254SOL    HW128661   4.870   2.127   0.989
 9254SOL    HW228662   4.968   2.183   1.107
 9255SOL     OW28663   7.011   5.174   0.367
 9255SOL    HW128664   0.034   5.163   0.457
 9255SOL    HW228665   6.931   5.234   0.377
 9256SOL     OW28666   4.052   5.247   3.074
 9256SOL    HW128667   4.115   5.323   3.061
 9256SOL    HW228668   4.099   5.173   3.123
 9257SOL     OW28669   0.348   3.463   0.884
 9257SOL    HW128670   0.273   3.414   0.839
 9257SOL    HW228671   0.381   3.410   0.962
 9258SOL     OW28672   3.469   2.924   4.772
 9258SOL    HW128673   3.380   2.911   4.817
 9258SOL    HW228674   3.460   2.902   4.675
 9259SOL     OW28675   1.494   2.541   0.494
 9259SOL    HW128676   1.461   2.459   0.448
 9259SOL    HW228677   1.567   2.583   0.439
 9260SOL     OW28678   6.945   3.811   6.998
 9260SOL    HW128679   7.018   3.761   6.952
 9260SOL    HW228680   6.981   3.856   0.058
 9261SOL     OW28681   2.612   6.561   5.615
 9261SOL    HW128682   2.517   6.546   5.588
 9261SOL    HW228683   2.670   6.492   5.573
 9262SOL     OW28684   5.877   0.367   6.203
 9262SOL    HW128685   5.887   0.441   6.136
 9262SOL    HW228686   5.967   0.326   6.221
 9263SOL     OW28687   6.081   4.200   2.130
 9263SOL    HW128688   6.020   4.180   2.053
 9263SOL    HW228689   6.027   4.238   2.205
 9264SOL     OW28690   5.623   2.346   0.175
 9264SOL    HW128691   5.527   2.320   0.184
 9264SOL    HW228692   5.672   2.324   0.259
 9265SOL     OW28693   1.883   2.425   5.191
 9265SOL    HW128694   1.807   2.489   5.183
 9265SOL    HW228695   1.849   2.332   5.179
 9266SOL     OW28696   2.941   6.407   2.456
 9266SOL    HW128697   2.874   6.340   2.489
 9266SOL    HW228698   2.938   6.410   2.356
 9267SOL     OW28699   3.018   4.931   6.033
 9267SOL    HW128700   3.058   5.023   6.039
 9267SOL    HW228701   2.964   4.924   5.949
 9268SOL     OW28702   1.514   1.073   3.115
 9268SOL    HW128703   1.592   1.091   3.055
 9268SOL    HW228704   1.442   1.026   3.062
 9269SOL     OW28705   4.107   1.272   5.333
 9269SOL    HW128706   4.197   1.315   5.347
 9269SOL    HW228707   4.046   1.299   5.407
 9270SOL     OW28708   1.695   0.435   5.653
 9270SOL    HW128709   1.732   0.469   5.567
 9270SOL    HW228710   1.763   0.446   5.726
 9271SOL     OW28711   0.387   4.919   5.588
 9271SOL    HW128712   0.449   4.887   5.660
 9271SOL    HW228713   0.397   5.018   5.578
 9272SOL     OW28714   2.225   5.270   6.580
 9272SOL    HW128715   2.205   5.355   6.530
 9272SOL    HW228716   2.196   5.280   6.675
 9273SOL     OW28717   3.675   6.122   6.224
 9273SOL    HW128718   3.742   6.067   6.175
 9273SOL    HW228719   3.619   6.172   6.158
 9274SOL     OW28720   5.146   2.227   2.185
 9274SOL    HW128721   5.108   2.304   2.237
 9274SOL    HW228722   5.118   2.141   2.227
 9275SOL     OW28723   0.050   0.427   5.948
 9275SOL    HW128724   0.012   0.361   6.013
 9275SOL    HW228725   0.148   0.412   5.939
 9276SOL     OW28726   4.396   6.827   4.343
 9276SOL    HW128727   4.428   6.739   4.379
 9276SOL    HW228728   4.456   6.900   4.376
 9277SOL     OW28729   4.691   2.746   6.876
 9277SOL    HW128730   4.718   2.652   6.854
 9277SOL    HW228731   4.605   2.746   6.927
 9278SOL     OW28732   1.397   2.473   1.078
 9278SOL    HW128733   1.395   2.423   0.991
 9278SOL    HW228734   1.417   2.409   1.152
 9279SOL     OW28735   2.203   6.141   0.348
 9279SOL    HW128736   2.210   6.048   0.383
 9279SOL    HW228737   2.293   6.172   0.319
 9280SOL     OW28738   1.589   0.517   2.863
 9280SOL    HW128739   1.490   0.523   2.850
 9280SOL    HW228740   1.610   0.507   2.960
 9281SOL     OW28741   1.989   2.552   0.324
 9281SOL    HW128742   2.071   2.608   0.312
 9281SOL    HW228743   2.014   2.455   0.318
 9282SOL     OW28744   3.819   1.425   6.703
 9282SOL    HW128745   3.823   1.325   6.692
 9282SOL    HW228746   3.723   1.454   6.711
 9283SOL     OW28747   5.068   2.221   2.781
 9283SOL    HW128748   5.030   2.313   2.775
 9283SOL    HW228749   5.005   2.163   2.833
 9284SOL     OW28750   3.678   3.899   1.970
 9284SOL    HW128751   3.626   3.813   1.974
 9284SOL    HW228752   3.736   3.905   2.051
 9285SOL     OW28753   6.356   2.986   6.383
 9285SOL    HW128754   6.441   2.957   6.428
 9285SOL    HW228755   6.298   2.906   6.370
 9286SOL     OW28756   5.616   5.304   4.088
 9286SOL    HW128757   5.561   5.322   4.169
 9286SOL    HW228758   5.712   5.321   4.109
 9287SOL     OW28759   3.109   0.038   2.530
 9287SOL    HW128760   3.040   0.083   2.474
 9287SOL    HW228761   3.156   0.105   2.587
 9288SOL     OW28762   4.419   2.310   6.566
 9288SOL    HW128763   4.371   2.283   6.649
 9288SOL    HW228764   4.353   2.341   6.498
 9289SOL     OW28765   5.595   3.957   2.549
 9289SOL    HW128766   5.546   4.004   2.476
 9289SOL    HW228767   5.669   4.015   2.583
 9290SOL     OW28768   4.400   2.170   4.136
 9290SOL    HW128769   4.386   2.268   4.153
 9290SOL    HW228770   4.468   2.158   4.064
 9291SOL     OW28771   1.061   2.590   5.226
 9291SOL    HW128772   1.034   2.574   5.131
 9291SOL    HW228773   1.076   2.503   5.272
 9292SOL     OW28774   0.618   3.956   0.347
 9292SOL    HW128775   0.664   3.936   0.434
 9292SOL    HW228776   0.678   4.012   0.290
 9293SOL     OW28777   5.922   3.874   6.118
 9293SOL    HW128778   5.989   3.936   6.079
 9293SOL    HW228779   5.941   3.780   6.088
 9294SOL     OW28780   5.355   5.976   6.473
 9294SOL    HW128781   5.410   6.059   6.465
 9294SOL    HW228782   5.406   5.898   6.436
 9295SOL     OW28783   4.685   2.664   3.387
 9295SOL    HW128784   4.663   2.567   3.383
 9295SOL    HW228785   4.673   2.705   3.297
 9296SOL     OW28786   5.937   0.501   4.989
 9296SOL    HW128787   6.001   0.558   5.040
 9296SOL    HW228788   5.982   0.468   4.905
 9297SOL     OW28789   0.530   0.365   1.977
 9297SOL    HW128790   0.609   0.330   2.027
 9297SOL    HW228791   0.461   0.293   1.969
 9298SOL     OW28792   0.843   6.577   4.725
 9298SOL    HW128793   0.875   6.649   4.788
 9298SOL    HW228794   0.904   6.498   4.733
 9299SOL     OW28795   1.852   2.785   4.235
 9299SOL    HW128796   1.796   2.703   4.250
 9299SOL    HW228797   1.899   2.809   4.320
 9300SOL     OW28798   5.986   4.866   3.477
 9300SOL    HW128799   5.978   4.767   3.483
 9300SOL    HW228800   6.083   4.891   3.467
 9301SOL     OW28801   6.785   4.756   1.359
 9301SOL    HW128802   6.815   4.662   1.373
 9301SOL    HW228803   6.695   4.756   1.315
 9302SOL     OW28804   1.452   1.976   2.323
 9302SOL    HW128805   1.382   1.998   2.391
 9302SOL    HW228806   1.408   1.951   2.237
 9303SOL     OW28807   4.774   3.933   0.615
 9303SOL    HW128808   4.700   3.989   0.650
 9303SOL    HW228809   4.788   3.951   0.517
 9304SOL     OW28810   4.638   3.859   1.003
 9304SOL    HW128811   4.610   3.952   1.027
 9304SOL    HW228812   4.599   3.794   1.069
 9305SOL     OW28813   4.915   3.732   1.842
 9305SOL    HW128814   4.833   3.782   1.815
 9305SOL    HW228815   4.963   3.701   1.759
 9306SOL     OW28816   6.687   5.770   3.702
 9306SOL    HW128817   6.736   5.851   3.671
 9306SOL    HW228818   6.720   5.690   3.653
 9307SOL     OW28819   2.022   0.833   5.881
 9307SOL    HW128820   1.947   0.897   5.859
 9307SOL    HW228821   2.046   0.781   5.799
 9308SOL     OW28822   6.877   2.472   0.354
 9308SOL    HW128823   6.947   2.488   0.424
 9308SOL    HW228824   6.788   2.502   0.390
 9309SOL     OW28825   5.167   3.129   6.527
 9309SOL    HW128826   5.145   3.129   6.624
 9309SOL    HW228827   5.097   3.078   6.476
 9310SOL     OW28828   3.631   6.942   1.600
 9310SOL    HW128829   3.667   6.863   1.549
 9310SOL    HW228830   3.581   6.910   1.680
 9311SOL     OW28831   6.986   3.565   1.726
 9311SOL    HW128832   0.017   3.558   1.641
 9311SOL    HW228833   6.904   3.621   1.710
 9312SOL     OW28834   1.914   3.906   4.965
 9312SOL    HW128835   1.908   3.819   4.915
 9312SOL    HW228836   1.854   3.973   4.921
 9313SOL     OW28837   6.331   6.814   2.587
 9313SOL    HW128838   6.253   6.837   2.528
 9313SOL    HW228839   6.395   6.757   2.536
 9314SOL     OW28840   6.788   4.200   0.147
 9314SOL    HW128841   6.879   4.235   0.123
 9314SOL    HW228842   6.798   4.119   0.205
 9315SOL     OW28843   0.305   6.061   6.211
 9315SOL    HW128844   0.255   5.977   6.192
 9315SOL    HW228845   0.266   6.105   6.292
 9316SOL     OW28846   3.164   5.165   4.495
 9316SOL    HW128847   3.080   5.159   4.442
 9316SOL    HW228848   3.159   5.102   4.573
 9317SOL     OW28849   4.517   4.060   5.704
 9317SOL    HW128850   4.499   3.963   5.717
 9317SOL    HW228851   4.581   4.092   5.774
 9318SOL     OW28852   6.737   6.910   6.122
 9318SOL    HW128853   6.638   6.913   6.137
 9318SOL    HW228854   6.763   6.818   6.093
 9319SOL     OW28855   6.065   3.910   4.534
 9319SOL    HW128856   6.015   3.855   4.467
 9319SOL    HW228857   6.036   3.885   4.626
 9320SOL     OW28858   3.949   2.908   5.878
 9320SOL    HW128859   3.972   2.891   5.783
 9320SOL    HW228860   3.875   2.846   5.906
 9321SOL     OW28861   5.798   6.334   4.453
 9321SOL    HW128862   5.786   6.293   4.543
 9321SOL    HW228863   5.791   6.433   4.459
 9322SOL     OW28864   1.132   6.052   0.779
 9322SOL    HW128865   1.106   5.971   0.832
 9322SOL    HW228866   1.226   6.078   0.801
 9323SOL     OW28867   0.739   1.248   6.420
 9323SOL    HW128868   0.693   1.194   6.490
 9323SOL    HW228869   0.686   1.247   6.336
 9324SOL     OW28870   1.197   5.176   6.746
 9324SOL    HW128871   1.150   5.248   6.798
 9324SOL    HW228872   1.257   5.125   6.807
 9325SOL     OW28873   0.306   2.729   6.655
 9325SOL    HW128874   0.280   2.665   6.727
 9325SOL    HW228875   0.404   2.747   6.660
 9326SOL     OW28876   2.275   5.818   1.694
 9326SOL    HW128877   2.220   5.741   1.662
 9326SOL    HW228878   2.356   5.784   1.742
 9327SOL     OW28879   2.437   1.796   3.896
 9327SOL    HW128880   2.482   1.881   3.922
 9327SOL    HW228881   2.485   1.718   3.936
 9328SOL     OW28882   2.644   1.025   2.588
 9328SOL    HW128883   2.701   1.090   2.538
 9328SOL    HW228884   2.554   1.019   2.545
 9329SOL     OW28885   0.767   4.062   1.908
 9329SOL    HW128886   0.835   4.123   1.949
 9329SOL    HW228887   0.779   3.969   1.945
 9330SOL     OW28888   5.194   6.295   6.847
 9330SOL    HW128889   5.195   6.382   6.897
 9330SOL    HW228890   5.224   6.310   6.753
 9331SOL     OW28891   0.847   1.514   0.324
 9331SOL    HW128892   0.750   1.527   0.305
 9331SOL    HW228893   0.871   1.418   0.308
 9332SOL     OW28894   3.671   4.130   5.526
 9332SOL    HW128895   3.697   4.033   5.526
 9332SOL    HW228896   3.724   4.179   5.595
 9333SOL     OW28897   5.161   6.270   1.101
 9333SOL    HW128898   5.171   6.193   1.037
 9333SOL    HW228899   5.147   6.235   1.193
 9334SOL     OW28900   2.423   6.966   4.193
 9334SOL    HW128901   2.521   6.986   4.193
 9334SOL    HW228902   2.372   0.022   4.232
 9335SOL     OW28903   0.241   1.563   1.967
 9335SOL    HW128904   0.227   1.641   1.908
 9335SOL    HW228905   0.338   1.537   1.966
 9336SOL     OW28906   2.840   0.062   5.210
 9336SOL    HW128907   2.897   0.066   5.127
 9336SOL    HW228908   2.885   0.112   5.284
 9337SOL     OW28909   4.714   6.778   3.005
 9337SOL    HW128910   4.671   6.782   2.914
 9337SOL    HW228911   4.673   6.847   3.064
 9338SOL     OW28912   2.286   6.774   2.286
 9338SOL    HW128913   2.338   6.721   2.353
 9338SOL    HW228914   2.219   6.715   2.242
 9339SOL     OW28915   3.715   5.481   1.585
 9339SOL    HW128916   3.623   5.509   1.611
 9339SOL    HW228917   3.731   5.504   1.489
 9340SOL     OW28918   6.806   2.983   0.475
 9340SOL    HW128919   6.848   2.913   0.418
 9340SOL    HW228920   6.741   3.035   0.421
 9341SOL     OW28921   0.852   4.139   5.687
 9341SOL    HW128922   0.795   4.114   5.608
 9341SOL    HW228923   0.793   4.177   5.758
 9342SOL     OW28924   1.621   0.711   7.020
 9342SOL    HW128925   1.688   0.756   0.059
 9342SOL    HW228926   1.616   0.761   6.933
 9343SOL     OW28927   5.853   6.439   3.738
 9343SOL    HW128928   5.948   6.441   3.706
 9343SOL    HW228929   5.842   6.503   3.813
 9344SOL     OW28930   5.102   6.568   0.704
 9344SOL    HW128931   5.029   6.582   0.637
 9344SOL    HW228932   5.188   6.549   0.656
 9345SOL     OW28933   0.546   2.260   0.659
 9345SOL    HW128934   0.517   2.230   0.568
 9345SOL    HW228935   0.584   2.352   0.654
 9346SOL     OW28936   5.690   0.980   0.658
 9346SOL    HW128937   5.604   1.017   0.620
 9346SOL    HW228938   5.711   1.028   0.743
 9347SOL     OW28939   1.817   6.440   2.174
 9347SOL    HW128940   1.800   6.528   2.129
 9347SOL    HW228941   1.912   6.437   2.206
 9348SOL     OW28942   2.958   5.038   0.623
 9348SOL    HW128943   2.935   5.094   0.543
 9348SOL    HW228944   2.876   4.991   0.656
 9349SOL     OW28945   1.337   6.211   2.692
 9349SOL    HW128946   1.272   6.284   2.713
 9349SOL    HW228947   1.366   6.218   2.596
 9350SOL     OW28948   0.288   3.195   5.593
 9350SOL    HW128949   0.302   3.097   5.610
 9350SOL    HW228950   0.286   3.212   5.494
 9351SOL     OW28951   2.941   6.535   6.594
 9351SOL    HW128952   3.010   6.607   6.591
 9351SOL    HW228953   2.978   6.452   6.552
 9352SOL     OW28954   2.728   4.948   6.164
 9352SOL    HW128955   2.801   4.928   6.098
 9352SOL    HW228956   2.744   4.893   6.247
 9353SOL     OW28957   6.019   0.935   1.142
 9353SOL    HW128958   5.992   0.904   1.051
 9353SOL    HW228959   6.044   0.856   1.198
 9354SOL     OW28960   1.135   1.262   5.722
 9354SOL    HW128961   1.123   1.163   5.715
 9354SOL    HW228962   1.209   1.283   5.785
 9355SOL     OW28963   1.248   1.703   5.170
 9355SOL    HW128964   1.292   1.670   5.087
 9355SOL    HW228965   1.198   1.788   5.149
 9356SOL     OW28966   3.643   0.197   3.869
 9356SOL    HW128967   3.588   0.278   3.891
 9356SOL    HW228968   3.664   0.148   3.953
 9357SOL     OW28969   1.813   2.334   0.383
 9357SOL    HW128970   1.817   2.432   0.366
 9357SOL    HW228971   1.874   2.287   0.319
 9358SOL     OW28972   0.868   1.914   1.003
 9358SOL    HW128973   0.770   1.897   1.010
 9358SOL    HW228974   0.891   1.941   0.909
 9359SOL     OW28975   1.062   0.705   5.292
 9359SOL    HW128976   1.029   0.798   5.274
 9359SOL    HW228977   1.039   0.647   5.214
 9360SOL     OW28978   0.177   0.606   5.593
 9360SOL    HW128979   0.222   0.520   5.614
 9360SOL    HW228980   0.162   0.658   5.678
 9361SOL     OW28981   2.055   5.806   4.141
 9361SOL    HW128982   2.150   5.775   4.152
 9361SOL    HW228983   2.008   5.800   4.229
 9362SOL     OW28984   1.765   0.431   2.660
 9362SOL    HW128985   1.750   0.473   2.571
 9362SOL    HW228986   1.686   0.448   2.719
 9363SOL     OW28987   1.933   2.551   2.637
 9363SOL    HW128988   1.982   2.549   2.550
 9363SOL    HW228989   1.962   2.475   2.694
 9364SOL     OW28990   0.331   2.008   6.505
 9364SOL    HW128991   0.292   1.917   6.491
 9364SOL    HW228992   0.424   1.998   6.541
 9365SOL     OW28993   2.643   1.238   5.489
 9365SOL    HW128994   2.645   1.227   5.389
 9365SOL    HW228995   2.587   1.165   5.529
 9366SOL     OW28996   3.312   6.964   2.088
 9366SOL    HW128997   3.235   0.003   2.109
 9366SOL    HW228998   3.279   6.883   2.039
 9367SOL     OW28999   6.881   0.066   1.231
 9367SOL    HW129000   6.853   0.161   1.243
 9367SOL    HW229001   6.903   0.027   1.320
 9368SOL     OW29002   2.352   0.567   3.156
 9368SOL    HW129003   2.285   0.524   3.216
 9368SOL    HW229004   2.347   0.666   3.165
 9369SOL     OW29005   4.118   5.376   1.059
 9369SOL    HW129006   4.173   5.325   1.125
 9369SOL    HW229007   4.147   5.353   0.966
 9370SOL     OW29008   4.534   2.538   5.435
 9370SOL    HW129009   4.462   2.592   5.391
 9370SOL    HW229010   4.613   2.532   5.375
 9371SOL     OW29011   4.233   4.719   0.809
 9371SOL    HW129012   4.280   4.790   0.757
 9371SOL    HW229013   4.289   4.694   0.888
 9372SOL     OW29014   4.918   6.939   0.965
 9372SOL    HW129015   4.934   6.841   0.954
 9372SOL    HW229016   4.972   6.972   1.043
 9373SOL     OW29017   0.342   2.229   1.495
 9373SOL    HW129018   0.304   2.152   1.443
 9373SOL    HW229019   0.424   2.199   1.543
 9374SOL     OW29020   6.928   5.035   6.201
 9374SOL    HW129021   6.940   4.955   6.142
 9374SOL    HW229022   6.993   5.031   6.277
 9375SOL     OW29023   1.911   1.354   6.821
 9375SOL    HW129024   1.956   1.346   6.733
 9375SOL    HW229025   1.918   1.267   6.870
 9376SOL     OW29026   3.151   3.696   0.252
 9376SOL    HW129027   3.183   3.790   0.241
 9376SOL    HW229028   3.212   3.634   0.201
 9377SOL     OW29029   1.087   0.732   3.243
 9377SOL    HW129030   1.030   0.670   3.297
 9377SOL    HW229031   1.127   0.801   3.302
 9378SOL     OW29032   3.858   1.562   5.270
 9378SOL    HW129033   3.873   1.504   5.351
 9378SOL    HW229034   3.849   1.504   5.189
 9379SOL     OW29035   4.009   0.237   4.903
 9379SOL    HW129036   4.047   0.276   4.819
 9379SOL    HW229037   4.021   0.303   4.978
 9380SOL     OW29038   5.187   6.528   1.025
 9380SOL    HW129039   5.183   6.428   1.033
 9380SOL    HW229040   5.222   6.567   1.110
 9381SOL     OW29041   5.072   0.825   4.950
 9381SOL    HW129042   5.052   0.760   4.877
 9381SOL    HW229043   5.171   0.838   4.957
 9382SOL     OW29044   3.095   5.478   6.535
 9382SOL    HW129045   3.195   5.478   6.544
 9382SOL    HW229046   3.062   5.384   6.526
 9383SOL     OW29047   6.366   3.920   1.540
 9383SOL    HW129048   6.279   3.965   1.518
 9383SOL    HW229049   6.438   3.989   1.547
 9384SOL     OW29050   3.851   0.042   0.555
 9384SOL    HW129051   3.826   0.133   0.587
 9384SOL    HW229052   3.771   7.004   0.556
 9385SOL     OW29053   3.846   2.190   4.046
 9385SOL    HW129054   3.877   2.280   4.077
 9385SOL    HW229055   3.913   2.151   3.983
 9386SOL     OW29056   5.592   0.318   1.067
 9386SOL    HW129057   5.650   0.267   1.130
 9386SOL    HW229058   5.623   0.304   0.973
 9387SOL     OW29059   2.359   1.967   6.547
 9387SOL    HW129060   2.326   1.877   6.575
 9387SOL    HW229061   2.370   2.026   6.627
 9388SOL     OW29062   2.574   6.908   4.702
 9388SOL    HW129063   2.653   6.868   4.749
 9388SOL    HW229064   2.490   6.861   4.732
 9389SOL     OW29065   2.240   3.830   1.912
 9389SOL    HW129066   2.205   3.738   1.891
 9389SOL    HW229067   2.230   3.847   2.010
 9390SOL     OW29068   5.972   5.350   3.894
 9390SOL    HW129069   5.908   5.291   3.845
 9390SOL    HW229070   5.935   5.371   3.985
 9391SOL     OW29071   0.550   4.747   3.932
 9391SOL    HW129072   0.605   4.818   3.888
 9391SOL    HW229073   0.572   4.745   4.030
 9392SOL     OW29074   3.666   5.226   2.657
 9392SOL    HW129075   3.759   5.228   2.696
 9392SOL    HW229076   3.632   5.132   2.658
 9393SOL     OW29077   2.020   5.064   6.933
 9393SOL    HW129078   2.004   5.067   0.011
 9393SOL    HW229079   2.110   5.026   6.915
 9394SOL     OW29080   4.518   0.434   6.847
 9394SOL    HW129081   4.420   0.434   6.871
 9394SOL    HW229082   4.555   0.526   6.856
 9395SOL     OW29083   0.647   1.250   1.630
 9395SOL    HW129084   0.707   1.208   1.562
 9395SOL    HW229085   0.699   1.269   1.713
 9396SOL     OW29086   1.268   1.012   6.513
 9396SOL    HW129087   1.356   1.050   6.541
 9396SOL    HW229088   1.277   0.966   6.425
 9397SOL     OW29089   3.235   1.643   5.600
 9397SOL    HW129090   3.195   1.563   5.646
 9397SOL    HW229091   3.181   1.664   5.518
 9398SOL     OW29092   6.671   2.229   6.423
 9398SOL    HW129093   6.647   2.222   6.326
 9398SOL    HW229094   6.677   2.138   6.463
 9399SOL     OW29095   1.300   2.303   4.690
 9399SOL    HW129096   1.302   2.370   4.764
 9399SOL    HW229097   1.364   2.331   4.618
 9400SOL     OW29098   6.229   1.112   1.288
 9400SOL    HW129099   6.180   1.195   1.316
 9400SOL    HW229100   6.170   1.059   1.227
 9401SOL     OW29101   6.942   1.954   3.360
 9401SOL    HW129102   6.856   2.006   3.356
 9401SOL    HW229103   6.940   1.881   3.291
 9402SOL     OW29104   3.533   6.300   5.363
 9402SOL    HW129105   3.595   6.319   5.287
 9402SOL    HW229106   3.495   6.208   5.354
 9403SOL     OW29107   5.500   2.018   1.205
 9403SOL    HW129108   5.592   2.033   1.170
 9403SOL    HW229109   5.502   1.949   1.277
 9404SOL     OW29110   2.602   2.646   0.784
 9404SOL    HW129111   2.665   2.693   0.723
 9404SOL    HW229112   2.517   2.699   0.792
 9405SOL     OW29113   6.072   5.752   5.228
 9405SOL    HW129114   6.086   5.769   5.326
 9405SOL    HW229115   6.080   5.654   5.210
 9406SOL     OW29116   1.524   0.932   0.988
 9406SOL    HW129117   1.542   0.955   0.892
 9406SOL    HW229118   1.426   0.921   1.002
 9407SOL     OW29119   1.658   4.692   4.555
 9407SOL    HW129120   1.734   4.628   4.564
 9407SOL    HW229121   1.692   4.786   4.563
 9408SOL     OW29122   5.844   5.007   3.664
 9408SOL    HW129123   5.905   4.964   3.597
 9408SOL    HW229124   5.749   4.986   3.641
 9409SOL     OW29125   6.079   5.542   1.486
 9409SOL    HW129126   6.164   5.512   1.529
 9409SOL    HW229127   6.095   5.629   1.439
 9410SOL     OW29128   4.316   0.001   0.670
 9410SOL    HW129129   4.245   7.004   0.603
 9410SOL    HW229130   4.346   0.096   0.664
 9411SOL     OW29131   3.183   3.803   4.250
 9411SOL    HW129132   3.282   3.809   4.268
 9411SOL    HW229133   3.141   3.892   4.266
 9412SOL     OW29134   4.144   6.841   1.663
 9412SOL    HW129135   4.222   6.840   1.725
 9412SOL    HW229136   4.143   6.757   1.609
 9413SOL     OW29137   3.962   4.812   3.366
 9413SOL    HW129138   4.058   4.819   3.336
 9413SOL    HW229139   3.902   4.819   3.286
 9414SOL     OW29140   2.116   0.872   2.515
 9414SOL    HW129141   2.039   0.852   2.454
 9414SOL    HW229142   2.084   0.928   2.591
 9415SOL     OW29143   4.816   0.674   0.972
 9415SOL    HW129144   4.908   0.641   0.951
 9415SOL    HW229145   4.822   0.762   1.019
 9416SOL     OW29146   6.422   4.598   5.368
 9416SOL    HW129147   6.442   4.513   5.415
 9416SOL    HW229148   6.347   4.645   5.414
 9417SOL     OW29149   3.853   6.268   3.135
 9417SOL    HW129150   3.754   6.257   3.126
 9417SOL    HW229151   3.882   6.236   3.225
 9418SOL     OW29152   2.795   2.085   4.662
 9418SOL    HW129153   2.823   2.179   4.642
 9418SOL    HW229154   2.794   2.032   4.577
 9419SOL     OW29155   2.545   2.380   6.189
 9419SOL    HW129156   2.501   2.422   6.109
 9419SOL    HW229157   2.644   2.380   6.176
 9420SOL     OW29158   5.262   3.130   5.894
 9420SOL    HW129159   5.344   3.079   5.868
 9420SOL    HW229160   5.220   3.169   5.812
 9421SOL     OW29161   3.766   6.912   0.232
 9421SOL    HW129162   3.774   6.905   0.132
 9421SOL    HW229163   3.832   6.851   0.275
 9422SOL     OW29164   2.009   6.118   6.048
 9422SOL    HW129165   2.095   6.138   6.097
 9422SOL    HW229166   2.029   6.104   5.951
 9423SOL     OW29167   4.820   4.793   0.736
 9423SOL    HW129168   4.857   4.799   0.643
 9423SOL    HW229169   4.729   4.751   0.733
 9424SOL     OW29170   6.327   0.200   3.609
 9424SOL    HW129171   6.388   0.136   3.562
 9424SOL    HW229172   6.333   0.186   3.708
 9425SOL     OW29173   6.834   5.666   1.379
 9425SOL    HW129174   6.892   5.729   1.432
 9425SOL    HW229175   6.867   5.572   1.392
 9426SOL     OW29176   4.219   2.013   6.109
 9426SOL    HW129177   4.213   2.063   6.196
 9426SOL    HW229178   4.129   2.012   6.066
 9427SOL     OW29179   3.656   5.527   2.263
 9427SOL    HW129180   3.589   5.476   2.316
 9427SOL    HW229181   3.646   5.504   2.166
 9428SOL     OW29182   0.394   6.307   4.993
 9428SOL    HW129183   0.338   6.225   4.994
 9428SOL    HW229184   0.461   6.302   4.919
 9429SOL     OW29185   2.849   2.241   4.149
 9429SOL    HW129186   2.813   2.156   4.186
 9429SOL    HW229187   2.866   2.306   4.224
 9430SOL     OW29188   1.420   6.721   3.939
 9430SOL    HW129189   1.495   6.656   3.951
 9430SOL    HW229190   1.440   6.780   3.860
 9431SOL     OW29191   1.323   4.964   4.938
 9431SOL    HW129192   1.324   4.885   4.999
 9431SOL    HW229193   1.369   4.941   4.852
 9432SOL     OW29194   6.769   1.600   2.790
 9432SOL    HW129195   6.749   1.682   2.843
 9432SOL    HW229196   6.846   1.551   2.831
 9433SOL     OW29197   3.897   5.426   1.821
 9433SOL    HW129198   3.870   5.434   1.725
 9433SOL    HW229199   3.975   5.484   1.839
 9434SOL     OW29200   4.891   5.844   5.204
 9434SOL    HW129201   4.833   5.770   5.170
 9434SOL    HW229202   4.835   5.910   5.253
 9435SOL     OW29203   6.581   3.863   6.433
 9435SOL    HW129204   6.514   3.806   6.480
 9435SOL    HW229205   6.542   3.897   6.347
 9436SOL     OW29206   2.575   2.033   2.684
 9436SOL    HW129207   2.626   2.094   2.623
 9436SOL    HW229208   2.622   1.945   2.692
 9437SOL     OW29209   4.684   1.233   3.722
 9437SOL    HW129210   4.703   1.168   3.796
 9437SOL    HW229211   4.681   1.325   3.760
 9438SOL     OW29212   5.233   0.186   2.860
 9438SOL    HW129213   5.200   0.233   2.778
 9438SOL    HW229214   5.265   0.254   2.927
 9439SOL     OW29215   1.940   4.612   1.253
 9439SOL    HW129216   1.963   4.550   1.328
 9439SOL    HW229217   1.992   4.697   1.264
 9440SOL     OW29218   1.917   5.332   4.724
 9440SOL    HW129219   1.893   5.426   4.703
 9440SOL    HW229220   1.844   5.290   4.778
 9441SOL     OW29221   6.593   6.295   4.126
 9441SOL    HW129222   6.691   6.316   4.115
 9441SOL    HW229223   6.574   6.205   4.087
 9442SOL     OW29224   6.514   2.534   0.926
 9442SOL    HW129225   6.511   2.614   0.867
 9442SOL    HW229226   6.610   2.514   0.950
 9443SOL     OW29227   2.112   4.502   1.650
 9443SOL    HW129228   2.190   4.448   1.616
 9443SOL    HW229229   2.031   4.444   1.655
 9444SOL     OW29230   2.093   5.646   5.861
 9444SOL    HW129231   2.178   5.677   5.903
 9444SOL    HW229232   2.100   5.655   5.762
 9445SOL     OW29233   0.935   1.174   3.985
 9445SOL    HW129234   0.856   1.185   4.045
 9445SOL    HW229235   0.991   1.097   4.018
 9446SOL     OW29236   5.557   5.345   3.653
 9446SOL    HW129237   5.574   5.390   3.565
 9446SOL    HW229238   5.468   5.301   3.651
 9447SOL     OW29239   5.658   5.315   2.035
 9447SOL    HW129240   5.705   5.243   1.983
 9447SOL    HW229241   5.571   5.279   2.069
 9448SOL     OW29242   4.764   2.625   6.337
 9448SOL    HW129243   4.752   2.526   6.347
 9448SOL    HW229244   4.860   2.648   6.351
 9449SOL     OW29245   4.603   6.658   3.334
 9449SOL    HW129246   4.700   6.637   3.343
 9449SOL    HW229247   4.590   6.719   3.255
 9450SOL     OW29248   0.580   0.295   2.487
 9450SOL    HW129249   0.584   0.226   2.415
 9450SOL    HW229250   0.485   0.313   2.511
 9451SOL     OW29251   4.296   5.679   0.552
 9451SOL    HW129252   4.283   5.679   0.651
 9451SOL    HW229253   4.330   5.589   0.523
 9452SOL     OW29254   6.297   2.596   5.969
 9452SOL    HW129255   6.281   2.687   5.930
 9452SOL    HW229256   6.236   2.582   6.047
 9453SOL     OW29257   6.750   4.803   2.354
 9453SOL    HW129258   6.700   4.718   2.372
 9453SOL    HW229259   6.848   4.783   2.350
 9454SOL     OW29260   5.445   5.284   0.231
 9454SOL    HW129261   5.381   5.340   0.283
 9454SOL    HW229262   5.529   5.272   0.284
 9455SOL     OW29263   4.336   0.784   1.356
 9455SOL    HW129264   4.300   0.791   1.449
 9455SOL    HW229265   4.295   0.705   1.311
 9456SOL     OW29266   6.392   2.873   2.303
 9456SOL    HW129267   6.413   2.816   2.224
 9456SOL    HW229268   6.395   2.970   2.277
 9457SOL     OW29269   6.646   6.527   4.401
 9457SOL    HW129270   6.641   6.581   4.485
 9457SOL    HW229271   6.731   6.475   4.400
 9458SOL     OW29272   0.270   4.464   0.113
 9458SOL    HW129273   0.327   4.526   0.166
 9458SOL    HW229274   0.262   4.497   0.019
 9459SOL     OW29275   5.024   4.331   5.030
 9459SOL    HW129276   5.077   4.339   4.946
 9459SOL    HW229277   4.929   4.309   5.009
 9460SOL     OW29278   1.877   3.080   3.285
 9460SOL    HW129279   1.917   3.034   3.206
 9460SOL    HW229280   1.916   3.044   3.369
 9461SOL     OW29281   1.640   1.788   1.229
 9461SOL    HW129282   1.624   1.842   1.311
 9461SOL    HW229283   1.737   1.791   1.205
 9462SOL     OW29284   6.988   1.366   5.286
 9462SOL    HW129285   0.047   1.326   5.331
 9462SOL    HW229286   6.955   1.443   5.341
 9463SOL     OW29287   7.003   5.296   0.671
 9463SOL    HW129288   6.923   5.315   0.614
 9463SOL    HW229289   6.973   5.264   0.761
 9464SOL     OW29290   1.038   0.360   2.095
 9464SOL    HW129291   1.003   0.452   2.083
 9464SOL    HW229292   1.119   0.347   2.038
 9465SOL     OW29293   0.760   5.954   6.879
 9465SOL    HW129294   0.696   5.928   6.951
 9465SOL    HW229295   0.763   6.054   6.872
 9466SOL     OW29296   4.071   4.199   5.757
 9466SOL    HW129297   4.028   4.251   5.683
 9466SOL    HW229298   4.072   4.255   5.840
 9467SOL     OW29299   1.227   3.750   1.487
 9467SOL    HW129300   1.306   3.769   1.546
 9467SOL    HW229301   1.144   3.787   1.530
 9468SOL     OW29302   6.377   1.840   1.326
 9468SOL    HW129303   6.452   1.804   1.270
 9468SOL    HW229304   6.346   1.768   1.388
 9469SOL     OW29305   6.163   6.903   2.035
 9469SOL    HW129306   6.089   6.961   2.072
 9469SOL    HW229307   6.125   6.814   2.009
 9470SOL     OW29308   3.842   3.629   0.906
 9470SOL    HW129309   3.816   3.717   0.867
 9470SOL    HW229310   3.926   3.597   0.862
 9471SOL     OW29311   6.504   2.724   4.739
 9471SOL    HW129312   6.574   2.794   4.751
 9471SOL    HW229313   6.544   2.643   4.696
 9472SOL     OW29314   2.112   4.099   5.814
 9472SOL    HW129315   2.105   4.073   5.718
 9472SOL    HW229316   2.061   4.034   5.870
 9473SOL     OW29317   2.714   3.179   1.681
 9473SOL    HW129318   2.753   3.243   1.615
 9473SOL    HW229319   2.740   3.085   1.656
 9474SOL     OW29320   6.198   4.284   0.897
 9474SOL    HW129321   6.245   4.196   0.904
 9474SOL    HW229322   6.104   4.269   0.867
 9475SOL     OW29323   6.099   3.402   6.900
 9475SOL    HW129324   6.086   3.500   6.915
 9475SOL    HW229325   6.042   3.350   6.964
 9476SOL     OW29326   3.975   4.197   1.060
 9476SOL    HW129327   3.962   4.169   1.155
 9476SOL    HW229328   3.981   4.297   1.055
 9477SOL     OW29329   1.292   5.718   0.771
 9477SOL    HW129330   1.207   5.743   0.817
 9477SOL    HW229331   1.352   5.670   0.835
 9478SOL     OW29332   6.814   3.215   5.375
 9478SOL    HW129333   6.725   3.201   5.419
 9478SOL    HW229334   6.806   3.286   5.305
 9479SOL     OW29335   4.383   1.117   2.030
 9479SOL    HW129336   4.444   1.097   2.106
 9479SOL    HW229337   4.288   1.116   2.062
 9480SOL     OW29338   5.220   0.658   0.665
 9480SOL    HW129339   5.228   0.558   0.673
 9480SOL    HW229340   5.225   0.684   0.569
 9481SOL     OW29341   4.552   0.095   3.753
 9481SOL    HW129342   4.644   0.132   3.745
 9481SOL    HW229343   4.513   0.119   3.842
 9482SOL     OW29344   6.044   4.210   5.593
 9482SOL    HW129345   6.081   4.118   5.604
 9482SOL    HW229346   6.025   4.249   5.684
 9483SOL     OW29347   5.960   5.083   6.624
 9483SOL    HW129348   6.033   5.110   6.561
 9483SOL    HW229349   5.872   5.105   6.584
 9484SOL     OW29350   1.638   5.302   4.042
 9484SOL    HW129351   1.732   5.268   4.052
 9484SOL    HW229352   1.636   5.377   3.976
 9485SOL     OW29353   0.183   1.246   5.424
 9485SOL    HW129354   0.201   1.170   5.361
 9485SOL    HW229355   0.220   1.224   5.515
 9486SOL     OW29356   6.852   5.716   6.331
 9486SOL    HW129357   6.880   5.622   6.350
 9486SOL    HW229358   6.802   5.753   6.409
 9487SOL     OW29359   3.357   3.191   3.931
 9487SOL    HW129360   3.340   3.094   3.913
 9487SOL    HW229361   3.288   3.247   3.885
 9488SOL     OW29362   1.195   0.677   2.506
 9488SOL    HW129363   1.175   0.775   2.498
 9488SOL    HW229364   1.209   0.639   2.415
 9489SOL     OW29365   6.836   4.193   6.759
 9489SOL    HW129366   6.887   4.202   6.845
 9489SOL    HW229367   6.883   4.243   6.687
 9490SOL     OW29368   5.606   3.594   4.953
 9490SOL    HW129369   5.623   3.572   5.049
 9490SOL    HW229370   5.667   3.669   4.925
 9491SOL     OW29371   4.712   0.123   2.129
 9491SOL    HW129372   4.769   0.054   2.085
 9491SOL    HW229373   4.650   0.164   2.062
 9492SOL     OW29374   4.847   3.222   3.797
 9492SOL    HW129375   4.923   3.240   3.860
 9492SOL    HW229376   4.765   3.269   3.831
 9493SOL     OW29377   2.974   6.466   2.803
 9493SOL    HW129378   3.051   6.439   2.861
 9493SOL    HW229379   3.008   6.515   2.723
 9494SOL     OW29380   4.962   2.731   2.780
 9494SOL    HW129381   4.974   2.774   2.691
 9494SOL    HW229382   4.956   2.632   2.768
 9495SOL     OW29383   5.279   2.665   1.132
 9495SOL    HW129384   5.312   2.582   1.176
 9495SOL    HW229385   5.245   2.643   1.040
 9496SOL     OW29386   6.366   3.081   0.996
 9496SOL    HW129387   6.342   3.086   0.899
 9496SOL    HW229388   6.403   3.169   1.026
 9497SOL     OW29389   5.053   4.250   4.595
 9497SOL    HW129390   4.964   4.217   4.625
 9497SOL    HW229391   5.040   4.332   4.538
 9498SOL     OW29392   0.714   5.982   5.783
 9498SOL    HW129393   0.797   6.007   5.733
 9498SOL    HW229394   0.735   5.909   5.847
 9499SOL     OW29395   5.892   6.814   3.587
 9499SOL    HW129396   5.799   6.782   3.602
 9499SOL    HW229397   5.893   6.883   3.515
 9500SOL     OW29398   2.980   1.822   0.697
 9500SOL    HW129399   2.908   1.773   0.647
 9500SOL    HW229400   2.973   1.920   0.677
 9501SOL     OW29401   1.658   3.284   5.421
 9501SOL    HW129402   1.588   3.352   5.402
 9501SOL    HW229403   1.629   3.195   5.384
 9502SOL     OW29404   5.995   4.363   3.739
 9502SOL    HW129405   6.079   4.413   3.762
 9502SOL    HW229406   5.944   4.343   3.822
 9503SOL     OW29407   6.262   0.776   0.145
 9503SOL    HW129408   6.192   0.772   0.217
 9503SOL    HW229409   6.250   0.860   0.092
 9504SOL     OW29410   6.582   4.887   2.854
 9504SOL    HW129411   6.665   4.843   2.888
 9504SOL    HW229412   6.591   4.986   2.861
 9505SOL     OW29413   4.941   3.138   0.297
 9505SOL    HW129414   4.926   3.215   0.360
 9505SOL    HW229415   4.975   3.172   0.210
 9506SOL     OW29416   3.735   1.332   1.615
 9506SOL    HW129417   3.799   1.295   1.683
 9506SOL    HW229418   3.752   1.430   1.603
 9507SOL     OW29419   6.854   6.036   1.910
 9507SOL    HW129420   6.870   6.117   1.853
 9507SOL    HW229421   6.879   5.954   1.859
 9508SOL     OW29422   5.272   1.287   2.076
 9508SOL    HW129423   5.199   1.353   2.094
 9508SOL    HW229424   5.337   1.288   2.152
 9509SOL     OW29425   6.004   1.414   3.933
 9509SOL    HW129426   5.932   1.344   3.934
 9509SOL    HW229427   5.992   1.475   4.011
 9510SOL     OW29428   1.591   3.655   2.018
 9510SOL    HW129429   1.531   3.581   1.990
 9510SOL    HW229430   1.537   3.740   2.025
 9511SOL     OW29431   0.645   1.579   0.598
 9511SOL    HW129432   0.628   1.671   0.633
 9511SOL    HW229433   0.625   1.576   0.500
 9512SOL     OW29434   6.086   2.702   1.440
 9512SOL    HW129435   5.987   2.697   1.428
 9512SOL    HW229436   6.113   2.798   1.445
 9513SOL     OW29437   4.934   3.861   4.662
 9513SOL    HW129438   4.887   3.947   4.680
 9513SOL    HW229439   4.895   3.819   4.580
 9514SOL     OW29440   3.527   3.308   1.124
 9514SOL    HW129441   3.564   3.225   1.166
 9514SOL    HW229442   3.429   3.297   1.112
 9515SOL     OW29443   6.775   6.071   3.209
 9515SOL    HW129444   6.684   6.047   3.173
 9515SOL    HW229445   6.843   6.008   3.172
 9516SOL     OW29446   0.913   3.202   6.761
 9516SOL    HW129447   1.006   3.237   6.776
 9516SOL    HW229448   0.875   3.243   6.678
 9517SOL     OW29449   0.961   6.762   2.198
 9517SOL    HW129450   0.929   6.774   2.104
 9517SOL    HW229451   1.060   6.777   2.201
 9518SOL     OW29452   0.062   0.506   1.327
 9518SOL    HW129453   0.062   0.522   1.229
 9518SOL    HW229454   0.113   0.423   1.348
 9519SOL     OW29455   1.641   2.901   5.861
 9519SOL    HW129456   1.695   2.821   5.886
 9519SOL    HW229457   1.654   2.921   5.763
 9520SOL     OW29458   4.230   6.809   1.979
 9520SOL    HW129459   4.200   6.903   1.997
 9520SOL    HW229460   4.163   6.745   2.018
 9521SOL     OW29461   5.601   4.968   3.158
 9521SOL    HW129462   5.638   5.060   3.154
 9521SOL    HW229463   5.657   4.907   3.102
 9522SOL     OW29464   3.243   5.017   5.728
 9522SOL    HW129465   3.151   4.978   5.737
 9522SOL    HW229466   3.240   5.115   5.750
 9523SOL     OW29467   1.601   6.999   5.058
 9523SOL    HW129468   1.656   6.934   5.005
 9523SOL    HW229469   1.504   6.987   5.035
 9524SOL     OW29470   6.246   3.613   0.283
 9524SOL    HW129471   6.266   3.518   0.261
 9524SOL    HW229472   6.264   3.630   0.380
 9525SOL     OW29473   4.159   6.915   4.559
 9525SOL    HW129474   4.117   6.829   4.529
 9525SOL    HW229475   4.219   6.950   4.486
 9526SOL     OW29476   4.785   5.263   0.390
 9526SOL    HW129477   4.725   5.223   0.459
 9526SOL    HW229478   4.791   5.201   0.312
 9527SOL     OW29479   6.708   1.386   0.507
 9527SOL    HW129480   6.664   1.435   0.583
 9527SOL    HW229481   6.793   1.344   0.540
 9528SOL     OW29482   5.514   1.255   1.395
 9528SOL    HW129483   5.527   1.156   1.385
 9528SOL    HW229484   5.498   1.277   1.491
 9529SOL     OW29485   1.965   2.777   5.772
 9529SOL    HW129486   1.950   2.864   5.725
 9529SOL    HW229487   1.999   2.709   5.708
 9530SOL     OW29488   2.244   1.418   4.093
 9530SOL    HW129489   2.177   1.387   4.025
 9530SOL    HW229490   2.278   1.340   4.144
 9531SOL     OW29491   2.606   6.178   3.852
 9531SOL    HW129492   2.694   6.153   3.811
 9531SOL    HW229493   2.621   6.213   3.944
 9532SOL     OW29494   3.487   1.123   1.351
 9532SOL    HW129495   3.509   1.092   1.259
 9532SOL    HW229496   3.415   1.064   1.390
 9533SOL     OW29497   0.405   1.809   4.316
 9533SOL    HW129498   0.390   1.718   4.278
 9533SOL    HW229499   0.444   1.800   4.408
 9534SOL     OW29500   5.044   0.751   4.275
 9534SOL    HW129501   5.014   0.750   4.180
 9534SOL    HW229502   5.074   0.843   4.299
 9535SOL     OW29503   3.001   1.544   4.719
 9535SOL    HW129504   2.982   1.507   4.628
 9535SOL    HW229505   2.959   1.634   4.728
 9536SOL     OW29506   1.685   5.274   6.790
 9536SOL    HW129507   1.694   5.344   6.719
 9536SOL    HW229508   1.740   5.195   6.766
 9537SOL     OW29509   2.087   0.382   0.147
 9537SOL    HW129510   2.173   0.371   0.096
 9537SOL    HW229511   2.041   0.293   0.153
 9538SOL     OW29512   5.956   4.354   3.204
 9538SOL    HW129513   6.008   4.316   3.280
 9538SOL    HW229514   6.015   4.366   3.125
 9539SOL     OW29515   0.862   3.428   6.927
 9539SOL    HW129516   0.884   3.381   7.012
 9539SOL    HW229517   0.944   3.471   6.889
 9540SOL     OW29518   5.866   2.992   5.368
 9540SOL    HW129519   5.927   2.929   5.416
 9540SOL    HW229520   5.802   3.033   5.433
 9541SOL     OW29521   6.371   1.924   3.410
 9541SOL    HW129522   6.398   1.963   3.498
 9541SOL    HW229523   6.271   1.923   3.403
 9542SOL     OW29524   4.931   3.438   4.640
 9542SOL    HW129525   4.961   3.344   4.621
 9542SOL    HW229526   4.943   3.458   4.737
 9543SOL     OW29527   4.190   2.006   0.491
 9543SOL    HW129528   4.153   2.014   0.399
 9543SOL    HW229529   4.251   2.084   0.510
 9544SOL     OW29530   5.182   0.250   1.765
 9544SOL    HW129531   5.133   0.263   1.679
 9544SOL    HW229532   5.129   0.189   1.825
 9545SOL     OW29533   1.263   6.772   4.231
 9545SOL    HW129534   1.265   6.839   4.156
 9545SOL    HW229535   1.243   6.681   4.194
 9546SOL     OW29536   3.118   3.824   1.950
 9546SOL    HW129537   3.023   3.841   1.922
 9546SOL    HW229538   3.118   3.779   2.040
 9547SOL     OW29539   5.568   6.302   2.707
 9547SOL    HW129540   5.661   6.286   2.674
 9547SOL    HW229541   5.543   6.397   2.692
 9548SOL     OW29542   6.179   6.622   1.992
 9548SOL    HW129543   6.269   6.610   1.950
 9548SOL    HW229544   6.149   6.536   2.032
 9549SOL     OW29545   2.044   5.986   0.131
 9549SOL    HW129546   1.946   5.972   0.143
 9549SOL    HW229547   2.093   5.939   0.205
 9550SOL     OW29548   1.541   0.561   0.352
 9550SOL    HW129549   1.550   0.498   0.428
 9550SOL    HW229550   1.445   0.570   0.326
 9551SOL     OW29551   1.125   5.748   4.594
 9551SOL    HW129552   1.144   5.652   4.612
 9551SOL    HW229553   1.050   5.755   4.528
 9552SOL     OW29554   7.008   5.464   3.138
 9552SOL    HW129555   0.069   5.446   3.085
 9552SOL    HW229556   6.964   5.548   3.106
 9553SOL     OW29557   5.498   4.477   6.604
 9553SOL    HW129558   5.438   4.539   6.655
 9553SOL    HW229559   5.519   4.398   6.660
 9554SOL     OW29560   1.368   2.480   1.528
 9554SOL    HW129561   1.398   2.574   1.545
 9554SOL    HW229562   1.337   2.440   1.614
 9555SOL     OW29563   0.175   2.278   6.817
 9555SOL    HW129564   0.163   2.336   6.736
 9555SOL    HW229565   0.270   2.280   6.846
 9556SOL     OW29566   6.023   0.120   1.296
 9556SOL    HW129567   6.007   0.174   1.378
 9556SOL    HW229568   6.071   0.036   1.321
 9557SOL     OW29569   5.052   1.853   1.865
 9557SOL    HW129570   5.120   1.792   1.824
 9557SOL    HW229571   5.043   1.935   1.808
 9558SOL     OW29572   6.969   3.856   1.539
 9558SOL    HW129573   6.941   3.864   1.443
 9558SOL    HW229574   6.893   3.819   1.593
 9559SOL     OW29575   0.733   4.801   3.493
 9559SOL    HW129576   0.775   4.876   3.442
 9559SOL    HW229577   0.713   4.725   3.431
 9560SOL     OW29578   3.386   1.946   6.055
 9560SOL    HW129579   3.388   2.044   6.073
 9560SOL    HW229580   3.454   1.923   5.985
 9561SOL     OW29581   3.749   5.275   6.678
 9561SOL    HW129582   3.708   5.185   6.663
 9561SOL    HW229583   3.804   5.273   6.761
 9562SOL     OW29584   6.546   5.289   3.776
 9562SOL    HW129585   6.644   5.293   3.754
 9562SOL    HW229586   6.503   5.375   3.753
 9563SOL     OW29587   0.937   0.651   6.268
 9563SOL    HW129588   0.951   0.556   6.293
 9563SOL    HW229589   0.853   0.660   6.215
 9564SOL     OW29590   0.342   0.368   5.931
 9564SOL    HW129591   0.349   0.396   5.835
 9564SOL    HW229592   0.302   0.277   5.936
 9565SOL     OW29593   2.708   5.271   5.162
 9565SOL    HW129594   2.729   5.191   5.106
 9565SOL    HW229595   2.709   5.245   5.259
 9566SOL     OW29596   2.256   5.480   5.037
 9566SOL    HW129597   2.258   5.485   4.938
 9566SOL    HW229598   2.266   5.385   5.066
 9567SOL     OW29599   6.144   5.452   4.215
 9567SOL    HW129600   6.243   5.441   4.218
 9567SOL    HW229601   6.122   5.550   4.208
 9568SOL     OW29602   6.186   3.283   5.398
 9568SOL    HW129603   6.151   3.358   5.342
 9568SOL    HW229604   6.185   3.199   5.344
 9569SOL     OW29605   5.333   0.314   1.160
 9569SOL    HW129606   5.427   0.344   1.140
 9569SOL    HW229607   5.298   0.365   1.238
 9570SOL     OW29608   0.132   3.190   6.512
 9570SOL    HW129609   0.207   3.174   6.577
 9570SOL    HW229610   0.047   3.205   6.563
 9571SOL     OW29611   3.357   1.737   0.550
 9571SOL    HW129612   3.295   1.753   0.627
 9571SOL    HW229613   3.404   1.823   0.528
 9572SOL     OW29614   0.556   3.124   0.673
 9572SOL    HW129615   0.531   3.030   0.694
 9572SOL    HW229616   0.516   3.150   0.585
 9573SOL     OW29617   4.673   1.658   2.023
 9573SOL    HW129618   4.658   1.751   2.057
 9573SOL    HW229619   4.658   1.593   2.098
 9574SOL     OW29620   1.600   1.500   3.991
 9574SOL    HW129621   1.552   1.581   4.024
 9574SOL    HW229622   1.612   1.436   4.067
 9575SOL     OW29623   3.267   1.571   2.652
 9575SOL    HW129624   3.272   1.555   2.553
 9575SOL    HW229625   3.171   1.582   2.679
 9576SOL     OW29626   4.195   3.092   6.260
 9576SOL    HW129627   4.134   3.084   6.338
 9576SOL    HW229628   4.171   3.173   6.207
 9577SOL     OW29629   0.437   5.497   3.430
 9577SOL    HW129630   0.523   5.547   3.429
 9577SOL    HW229631   0.408   5.478   3.336
 9578SOL     OW29632   6.864   4.474   1.305
 9578SOL    HW129633   6.794   4.462   1.235
 9578SOL    HW229634   6.873   4.390   1.358
 9579SOL     OW29635   1.345   4.885   2.576
 9579SOL    HW129636   1.361   4.936   2.491
 9579SOL    HW229637   1.260   4.918   2.618
 9580SOL     OW29638   3.914   4.097   5.198
 9580SOL    HW129639   3.819   4.077   5.221
 9580SOL    HW229640   3.947   4.028   5.133
 9581SOL     OW29641   0.589   7.020   6.463
 9581SOL    HW129642   0.643   0.069   6.415
 9581SOL    HW229643   0.525   6.978   6.398
 9582SOL     OW29644   4.156   5.839   3.251
 9582SOL    HW129645   4.195   5.905   3.315
 9582SOL    HW229646   4.156   5.748   3.294
 9583SOL     OW29647   1.191   4.573   3.011
 9583SOL    HW129648   1.233   4.491   2.971
 9583SOL    HW229649   1.140   4.549   3.093
 9584SOL     OW29650   5.295   4.359   6.827
 9584SOL    HW129651   5.208   4.324   6.792
 9584SOL    HW229652   5.369   4.296   6.801
 9585SOL     OW29653   6.170   1.002   2.729
 9585SOL    HW129654   6.107   0.925   2.737
 9585SOL    HW229655   6.222   0.994   2.645
 9586SOL     OW29656   4.244   4.670   2.657
 9586SOL    HW129657   4.310   4.616   2.605
 9586SOL    HW229658   4.163   4.688   2.600
 9587SOL     OW29659   4.625   6.467   1.598
 9587SOL    HW129660   4.638   6.419   1.511
 9587SOL    HW229661   4.581   6.406   1.663
 9588SOL     OW29662   6.351   1.294   3.653
 9588SOL    HW129663   6.310   1.382   3.676
 9588SOL    HW229664   6.371   1.291   3.555
 9589SOL     OW29665   4.171   1.743   5.044
 9589SOL    HW129666   4.079   1.730   5.008
 9589SOL    HW229667   4.203   1.835   5.021
 9590SOL     OW29668   0.196   4.977   4.871
 9590SOL    HW129669   0.291   4.951   4.891
 9590SOL    HW229670   0.153   4.905   4.816
 9591SOL     OW29671   0.144   4.797   2.122
 9591SOL    HW129672   0.125   4.746   2.206
 9591SOL    HW229673   0.172   4.734   2.050
 9592SOL     OW29674   4.360   5.348   0.795
 9592SOL    HW129675   4.330   5.397   0.713
 9592SOL    HW229676   4.459   5.353   0.802
 9593SOL     OW29677   2.167   2.325   3.624
 9593SOL    HW129678   2.149   2.269   3.704
 9593SOL    HW229679   2.081   2.351   3.580
 9594SOL     OW29680   5.580   6.981   0.552
 9594SOL    HW129681   5.568   6.949   0.458
 9594SOL    HW229682   5.657   0.024   0.555
 9595SOL     OW29683   2.293   4.875   5.412
 9595SOL    HW129684   2.210   4.853   5.464
 9595SOL    HW229685   2.303   4.810   5.337
 9596SOL     OW29686   5.586   4.901   2.484
 9596SOL    HW129687   5.639   4.896   2.569
 9596SOL    HW229688   5.524   4.979   2.488
 9597SOL     OW29689   1.349   4.063   1.472
 9597SOL    HW129690   1.435   4.096   1.509
 9597SOL    HW229691   1.312   3.991   1.531
 9598SOL     OW29692   0.399   5.905   5.068
 9598SOL    HW129693   0.497   5.891   5.050
 9598SOL    HW229694   0.354   5.935   4.985
 9599SOL     OW29695   3.511   2.100   5.364
 9599SOL    HW129696   3.462   2.023   5.403
 9599SOL    HW229697   3.538   2.162   5.438
 9600SOL     OW29698   1.541   5.611   6.833
 9600SOL    HW129699   1.625   5.568   6.865
 9600SOL    HW229700   1.502   5.557   6.758
 9601SOL     OW29701   1.329   0.115   4.580
 9601SOL    HW129702   1.288   0.199   4.546
 9601SOL    HW229703   1.416   0.136   4.626
 9602SOL     OW29704   0.934   5.486   6.102
 9602SOL    HW129705   0.971   5.578   6.090
 9602SOL    HW229706   0.963   5.429   6.024
 9603SOL     OW29707   1.521   5.245   2.139
 9603SOL    HW129708   1.572   5.194   2.208
 9603SOL    HW229709   1.457   5.308   2.185
 9604SOL     OW29710   6.656   0.374   5.996
 9604SOL    HW129711   6.696   0.333   5.914
 9604SOL    HW229712   6.725   0.382   6.067
 9605SOL     OW29713   3.605   4.330   0.500
 9605SOL    HW129714   3.526   4.374   0.543
 9605SOL    HW229715   3.585   4.310   0.404
 9606SOL     OW29716   6.841   1.720   4.444
 9606SOL    HW129717   6.864   1.811   4.409
 9606SOL    HW229718   6.822   1.659   4.368
 9607SOL     OW29719   7.009   3.289   3.041
 9607SOL    HW129720   6.969   3.356   2.980
 9607SOL    HW229721   6.998   3.197   3.003
 9608SOL     OW29722   5.573   0.988   1.398
 9608SOL    HW129723   5.662   0.943   1.404
 9608SOL    HW229724   5.527   0.960   1.313
 9609SOL     OW29725   0.919   1.980   4.306
 9609SOL    HW129726   1.002   1.978   4.250
 9609SOL    HW229727   0.931   1.919   4.384
 9610SOL     OW29728   4.802   1.341   6.403
 9610SOL    HW129729   4.861   1.357   6.482
 9610SOL    HW229730   4.830   1.400   6.327
 9611SOL     OW29731   5.051   5.710   1.480
 9611SOL    HW129732   5.018   5.796   1.441
 9611SOL    HW229733   5.119   5.669   1.419
 9612SOL     OW29734   4.869   3.959   3.578
 9612SOL    HW129735   4.883   3.991   3.672
 9612SOL    HW229736   4.809   4.023   3.529
 9613SOL     OW29737   5.327   0.873   4.986
 9613SOL    HW129738   5.317   0.968   5.017
 9613SOL    HW229739   5.387   0.870   4.906
 9614SOL     OW29740   3.506   2.769   0.110
 9614SOL    HW129741   3.432   2.807   0.166
 9614SOL    HW229742   3.550   2.844   0.060
 9615SOL     OW29743   6.613   6.418   3.735
 9615SOL    HW129744   6.584   6.482   3.806
 9615SOL    HW229745   6.601   6.324   3.768
 9616SOL     OW29746   0.089   2.001   1.072
 9616SOL    HW129747   0.005   2.028   1.025
 9616SOL    HW229748   0.110   2.069   1.143
 9617SOL     OW29749   0.681   3.711   3.608
 9617SOL    HW129750   0.651   3.735   3.701
 9617SOL    HW229751   0.695   3.613   3.602
 9618SOL     OW29752   5.670   4.131   2.052
 9618SOL    HW129753   5.652   4.033   2.042
 9618SOL    HW229754   5.750   4.156   1.998
 9619SOL     OW29755   1.265   0.851   1.129
 9619SOL    HW129756   1.237   0.775   1.188
 9619SOL    HW229757   1.245   0.938   1.175
 9620SOL     OW29758   3.616   1.377   6.159
 9620SOL    HW129759   3.667   1.339   6.236
 9620SOL    HW229760   3.653   1.467   6.136
 9621SOL     OW29761   6.578   0.844   0.681
 9621SOL    HW129762   6.577   0.826   0.779
 9621SOL    HW229763   6.487   0.827   0.642
 9622SOL     OW29764   6.611   0.143   4.870
 9622SOL    HW129765   6.704   0.176   4.883
 9622SOL    HW229766   6.547   0.210   4.909
 9623SOL     OW29767   2.256   5.788   6.261
 9623SOL    HW129768   2.170   5.836   6.277
 9623SOL    HW229769   2.256   5.701   6.310
 9624SOL     OW29770   3.950   4.824   6.560
 9624SOL    HW129771   3.946   4.741   6.617
 9624SOL    HW229772   3.989   4.899   6.614
 9625SOL     OW29773   5.371   4.553   5.989
 9625SOL    HW129774   5.348   4.465   5.947
 9625SOL    HW229775   5.382   4.622   5.918
 9626SOL     OW29776   2.584   2.729   6.605
 9626SOL    HW129777   2.612   2.682   6.521
 9626SOL    HW229778   2.631   2.687   6.683
 9627SOL     OW29779   6.532   5.887   6.884
 9627SOL    HW129780   6.565   5.979   6.908
 9627SOL    HW229781   6.586   5.818   6.932
 9628SOL     OW29782   6.199   1.512   5.460
 9628SOL    HW129783   6.161   1.420   5.469
 9628SOL    HW229784   6.189   1.561   5.547
 9629SOL     OW29785   0.887   5.665   3.819
 9629SOL    HW129786   0.832   5.604   3.876
 9629SOL    HW229787   0.830   5.741   3.787
 9630SOL     OW29788   6.493   0.274   5.696
 9630SOL    HW129789   6.419   0.235   5.752
 9630SOL    HW229790   6.497   0.373   5.711
 9631SOL     OW29791   4.508   6.079   0.467
 9631SOL    HW129792   4.438   6.025   0.421
 9631SOL    HW229793   4.534   6.033   0.552
 9632SOL     OW29794   2.937   6.055   2.800
 9632SOL    HW129795   2.962   6.041   2.704
 9632SOL    HW229796   2.875   6.133   2.807
 9633SOL     OW29797   2.903   3.057   5.489
 9633SOL    HW129798   2.869   3.013   5.572
 9633SOL    HW229799   3.000   3.080   5.501
 9634SOL     OW29800   6.278   4.564   3.258
 9634SOL    HW129801   6.229   4.557   3.345
 9634SOL    HW229802   6.215   4.546   3.183
 9635SOL     OW29803   0.752   5.207   4.277
 9635SOL    HW129804   0.687   5.275   4.311
 9635SOL    HW229805   0.838   5.252   4.252
 9636SOL     OW29806   4.827   3.810   3.842
 9636SOL    HW129807   4.830   3.713   3.819
 9636SOL    HW229808   4.836   3.821   3.941
 9637SOL     OW29809   3.411   2.693   6.503
 9637SOL    HW129810   3.356   2.678   6.585
 9637SOL    HW229811   3.364   2.758   6.443
 9638SOL     OW29812   0.718   4.628   6.076
 9638SOL    HW129813   0.721   4.673   6.166
 9638SOL    HW229814   0.623   4.615   6.048
 9639SOL     OW29815   5.769   3.009   1.806
 9639SOL    HW129816   5.731   2.940   1.867
 9639SOL    HW229817   5.707   3.022   1.728
 9640SOL     OW29818   3.799   0.193   3.419
 9640SOL    HW129819   3.725   0.226   3.478
 9640SOL    HW229820   3.887   0.219   3.458
 9641SOL     OW29821   0.968   2.312   4.594
 9641SOL    HW129822   0.972   2.341   4.689
 9641SOL    HW229823   1.014   2.379   4.536
 9642SOL     OW29824   0.504   2.742   4.572
 9642SOL    HW129825   0.429   2.745   4.638
 9642SOL    HW229826   0.589   2.723   4.620
 9643SOL     OW29827   6.416   5.375   4.645
 9643SOL    HW129828   6.405   5.319   4.563
 9643SOL    HW229829   6.423   5.471   4.619
 9644SOL     OW29830   0.692   4.617   3.265
 9644SOL    HW129831   0.668   4.525   3.296
 9644SOL    HW229832   0.610   4.667   3.240
 9645SOL     OW29833   0.478   5.071   0.210
 9645SOL    HW129834   0.472   5.055   0.112
 9645SOL    HW229835   0.573   5.087   0.236
 9646SOL     OW29836   2.728   4.937   0.732
 9646SOL    HW129837   2.683   4.930   0.821
 9646SOL    HW229838   2.660   4.959   0.662
 9647SOL     OW29839   5.428   6.830   2.790
 9647SOL    HW129840   5.441   6.921   2.829
 9647SOL    HW229841   5.480   6.823   2.705
 9648SOL     OW29842   3.705   2.284   0.925
 9648SOL    HW129843   3.692   2.375   0.886
 9648SOL    HW229844   3.782   2.286   0.989
 9649SOL     OW29845   0.308   5.907   0.407
 9649SOL    HW129846   0.372   5.833   0.427
 9649SOL    HW229847   0.325   5.942   0.315
 9650SOL     OW29848   7.015   5.268   5.304
 9650SOL    HW129849   6.928   5.306   5.274
 9650SOL    HW229850   0.034   5.214   5.231
 9651SOL     OW29851   3.406   1.198   0.088
 9651SOL    HW129852   3.433   1.260   0.162
 9651SOL    HW229853   3.309   1.210   0.068
 9652SOL     OW29854   0.082   4.042   0.138
 9652SOL    HW129855   0.103   3.974   0.208
 9652SOL    HW229856   0.057   4.128   0.182
 9653SOL     OW29857   5.750   3.829   4.842
 9653SOL    HW129858   5.834   3.820   4.788
 9653SOL    HW229859   5.677   3.864   4.785
 9654SOL     OW29860   4.001   3.300   4.954
 9654SOL    HW129861   4.048   3.352   4.883
 9654SOL    HW229862   3.962   3.217   4.915
 9655SOL     OW29863   4.671   0.345   0.612
 9655SOL    HW129864   4.711   0.429   0.650
 9655SOL    HW229865   4.661   0.356   0.513
 9656SOL     OW29866   5.277   4.641   5.485
 9656SOL    HW129867   5.190   4.689   5.490
 9656SOL    HW229868   5.277   4.579   5.407
 9657SOL     OW29869   5.260   5.356   2.321
 9657SOL    HW129870   5.252   5.309   2.409
 9657SOL    HW229871   5.354   5.388   2.310
 9658SOL     OW29872   5.346   1.366   2.698
 9658SOL    HW129873   5.395   1.451   2.719
 9658SOL    HW229874   5.336   1.312   2.781
 9659SOL     OW29875   3.985   3.248   0.534
 9659SOL    HW129876   3.905   3.290   0.577
 9659SOL    HW229877   4.066   3.304   0.553
 9660SOL     OW29878   2.530   6.759   1.757
 9660SOL    HW129879   2.536   6.838   1.818
 9660SOL    HW229880   2.450   6.703   1.783
 9661SOL     OW29881   3.632   4.026   2.414
 9661SOL    HW129882   3.720   3.998   2.453
 9661SOL    HW229883   3.565   4.036   2.487
 9662SOL     OW29884   4.231   0.667   4.784
 9662SOL    HW129885   4.141   0.623   4.784
 9662SOL    HW229886   4.263   0.676   4.878
 9663SOL     OW29887   1.272   5.778   2.332
 9663SOL    HW129888   1.336   5.830   2.388
 9663SOL    HW229889   1.324   5.712   2.276
 9664SOL     OW29890   2.025   4.552   2.859
 9664SOL    HW129891   2.109   4.547   2.912
 9664SOL    HW229892   1.966   4.624   2.896
 9665SOL     OW29893   5.946   3.887   6.662
 9665SOL    HW129894   5.849   3.884   6.685
 9665SOL    HW229895   5.960   3.839   6.575
 9666SOL     OW29896   5.322   4.267   1.064
 9666SOL    HW129897   5.227   4.297   1.053
 9666SOL    HW229898   5.381   4.346   1.079
 9667SOL     OW29899   5.856   6.325   0.278
 9667SOL    HW129900   5.864   6.374   0.365
 9667SOL    HW229901   5.851   6.227   0.295
 9668SOL     OW29902   2.148   0.159   0.721
 9668SOL    HW129903   2.173   0.230   0.656
 9668SOL    HW229904   2.055   0.128   0.703
 9669SOL     OW29905   3.058   0.468   0.701
 9669SOL    HW129906   3.092   0.560   0.685
 9669SOL    HW229907   2.961   0.463   0.679
 9670SOL     OW29908   0.753   0.247   2.727
 9670SOL    HW129909   0.689   0.182   2.769
 9670SOL    HW229910   0.710   0.291   2.649
 9671SOL     OW29911   1.003   5.978   6.234
 9671SOL    HW129912   1.025   6.047   6.303
 9671SOL    HW229913   0.920   5.930   6.261
 9672SOL     OW29914   0.122   4.439   5.087
 9672SOL    HW129915   0.118   4.512   5.155
 9672SOL    HW229916   0.031   4.425   5.048
 9673SOL     OW29917   2.119   3.200   5.841
 9673SOL    HW129918   2.135   3.113   5.796
 9673SOL    HW229919   2.206   3.238   5.873
 9674SOL     OW29920   1.763   7.006   3.698
 9674SOL    HW129921   1.765   0.069   3.752
 9674SOL    HW229922   1.839   7.007   3.633
 9675SOL     OW29923   6.451   3.964   6.173
 9675SOL    HW129924   6.529   3.948   6.113
 9675SOL    HW229925   6.428   4.061   6.174
 9676SOL     OW29926   0.782   3.118   6.359
 9676SOL    HW129927   0.877   3.144   6.376
 9676SOL    HW229928   0.761   3.130   6.262
 9677SOL     OW29929   0.734   4.955   2.712
 9677SOL    HW129930   0.710   4.858   2.718
 9677SOL    HW229931   0.831   4.967   2.735
 9678SOL     OW29932   4.957   3.444   6.676
 9678SOL    HW129933   4.895   3.405   6.608
 9678SOL    HW229934   5.045   3.463   6.633
 9679SOL     OW29935   1.713   1.103   4.821
 9679SOL    HW129936   1.747   1.197   4.821
 9679SOL    HW229937   1.628   1.099   4.874
 9680SOL     OW29938   4.505   6.897   2.314
 9680SOL    HW129939   4.514   6.798   2.312
 9680SOL    HW229940   4.596   6.939   2.309
 9681SOL     OW29941   0.516   2.631   0.858
 9681SOL    HW129942   0.514   2.547   0.913
 9681SOL    HW229943   0.562   2.703   0.910
 9682SOL     OW29944   3.894   6.215   5.236
 9682SOL    HW129945   3.795   6.214   5.230
 9682SOL    HW229946   3.927   6.124   5.262
 9683SOL     OW29947   3.558   5.783   3.674
 9683SOL    HW129948   3.605   5.695   3.664
 9683SOL    HW229949   3.541   5.822   3.584
 9684SOL     OW29950   1.383   2.449   6.362
 9684SOL    HW129951   1.472   2.415   6.333
 9684SOL    HW229952   1.393   2.499   6.448
 9685SOL     OW29953   3.803   4.605   1.662
 9685SOL    HW129954   3.756   4.639   1.744
 9685SOL    HW229955   3.750   4.531   1.621
 9686SOL     OW29956   0.727   1.677   5.735
 9686SOL    HW129957   0.749   1.661   5.832
 9686SOL    HW229958   0.773   1.607   5.680
 9687SOL     OW29959   5.775   0.613   3.760
 9687SOL    HW129960   5.813   0.548   3.695
 9687SOL    HW229961   5.843   0.683   3.781
 9688SOL     OW29962   0.479   5.175   2.221
 9688SOL    HW129963   0.472   5.275   2.222
 9688SOL    HW229964   0.573   5.149   2.199
 9689SOL     OW29965   1.840   5.185   1.322
 9689SOL    HW129966   1.828   5.282   1.344
 9689SOL    HW229967   1.755   5.135   1.340
 9690SOL     OW29968   5.988   4.782   4.128
 9690SOL    HW129969   6.084   4.785   4.099
 9690SOL    HW229970   5.936   4.850   4.077
 9691SOL     OW29971   3.823   3.942   2.189
 9691SOL    HW129972   3.913   3.907   2.214
 9691SOL    HW229973   3.799   4.018   2.249
 9692SOL     OW29974   6.330   5.380   0.251
 9692SOL    HW129975   6.233   5.402   0.243
 9692SOL    HW229976   6.342   5.281   0.246
 9693SOL     OW29977   4.330   3.222   6.606
 9693SOL    HW129978   4.304   3.156   6.676
 9693SOL    HW229979   4.351   3.310   6.650
 9694SOL     OW29980   2.773   6.341   0.859
 9694SOL    HW129981   2.869   6.313   0.860
 9694SOL    HW229982   2.737   6.332   0.766
 9695SOL     OW29983   1.763   2.741   3.587
 9695SOL    HW129984   1.790   2.834   3.562
 9695SOL    HW229985   1.834   2.677   3.559
 9696SOL     OW29986   4.949   4.080   3.184
 9696SOL    HW129987   4.987   3.990   3.162
 9696SOL    HW229988   5.013   4.130   3.242
 9697SOL     OW29989   6.401   0.171   2.520
 9697SOL    HW129990   6.439   0.164   2.612
 9697SOL    HW229991   6.471   0.145   2.453
 9698SOL     OW29992   6.985   2.634   0.808
 9698SOL    HW129993   0.025   2.659   0.884
 9698SOL    HW229994   6.977   2.712   0.746
 9699SOL     OW29995   1.575   6.645   2.248
 9699SOL    HW129996   1.525   6.588   2.183
 9699SOL    HW229997   1.568   6.607   2.339
 9700SOL     OW29998   6.127   0.656   5.801
 9700SOL    HW129999   6.200   0.723   5.790
 9700SOL    HW230000   6.167   0.564   5.803
 9701SOL     OW30001   6.089   4.117   6.597
 9701SOL    HW130002   6.178   4.086   6.629
 9701SOL    HW230003   6.020   4.047   6.617
 9702SOL     OW30004   2.853   3.536   1.989
 9702SOL    HW130005   2.936   3.502   2.033
 9702SOL    HW230006   2.781   3.547   2.058
 9703SOL     OW30007   6.967   4.735   2.621
 9703SOL    HW130008   6.980   4.682   2.705
 9703SOL    HW230009   6.930   4.825   2.644
 9704SOL     OW30010   0.728   4.969   2.148
 9704SOL    HW130011   0.776   5.047   2.188
 9704SOL    HW230012   0.706   4.902   2.220
 9705SOL     OW30013   0.102   4.041   5.394
 9705SOL    HW130014   0.096   4.103   5.473
 9705SOL    HW230015   0.195   4.005   5.387
 9706SOL     OW30016   0.391   6.922   2.610
 9706SOL    HW130017   0.356   6.851   2.670
 9706SOL    HW230018   0.481   6.895   2.574
 9707SOL     OW30019   1.122   4.896   1.814
 9707SOL    HW130020   1.042   4.944   1.850
 9707SOL    HW230021   1.194   4.895   1.884
 9708SOL     OW30022   2.812   0.973   1.962
 9708SOL    HW130023   2.788   0.903   2.030
 9708SOL    HW230024   2.800   1.064   2.002
 9709SOL     OW30025   4.272   1.291   2.493
 9709SOL    HW130026   4.190   1.244   2.527
 9709SOL    HW230027   4.349   1.228   2.491
 9710SOL     OW30028   4.942   4.398   4.150
 9710SOL    HW130029   4.866   4.333   4.149
 9710SOL    HW230030   4.911   4.486   4.116
 9711SOL     OW30031   3.047   0.224   6.991
 9711SOL    HW130032   3.128   0.165   6.986
 9711SOL    HW230033   3.039   0.277   6.906
 9712SOL     OW30034   4.560   6.883   5.662
 9712SOL    HW130035   4.619   6.804   5.644
 9712SOL    HW230036   4.468   6.864   5.625
 9713SOL     OW30037   1.053   0.826   2.964
 9713SOL    HW130038   1.032   0.733   2.934
 9713SOL    HW230039   1.045   0.832   3.063
 9714SOL     OW30040   2.312   2.465   3.819
 9714SOL    HW130041   2.272   2.539   3.873
 9714SOL    HW230042   2.248   2.438   3.747
 9715SOL     OW30043   0.019   1.427   6.339
 9715SOL    HW130044   0.022   1.496   6.267
 9715SOL    HW230045   0.112   1.395   6.358
 9716SOL     OW30046   1.635   6.335   0.479
 9716SOL    HW130047   1.728   6.362   0.452
 9716SOL    HW230048   1.634   6.238   0.502
 9717SOL     OW30049   4.483   1.968   5.964
 9717SOL    HW130050   4.438   1.986   6.051
 9717SOL    HW230051   4.415   1.944   5.895
 9718SOL     OW30052   2.811   2.129   6.324
 9718SOL    HW130053   2.885   2.082   6.275
 9718SOL    HW230054   2.759   2.063   6.378
 9719SOL     OW30055   4.008   6.545   5.654
 9719SOL    HW130056   4.071   6.469   5.669
 9719SOL    HW230057   3.954   6.528   5.572
 9720SOL     OW30058   2.160   2.478   1.762
 9720SOL    HW130059   2.084   2.458   1.823
 9720SOL    HW230060   2.244   2.437   1.798
 9721SOL     OW30061   0.460   1.874   1.477
 9721SOL    HW130062   0.370   1.876   1.433
 9721SOL    HW230063   0.532   1.866   1.408
 9722SOL     OW30064   3.616   2.917   5.594
 9722SOL    HW130065   3.641   2.820   5.594
 9722SOL    HW230066   3.600   2.948   5.688
 9723SOL     OW30067   5.717   1.340   4.886
 9723SOL    HW130068   5.714   1.290   4.972
 9723SOL    HW230069   5.812   1.350   4.857
 9724SOL     OW30070   1.684   4.720   1.296
 9724SOL    HW130071   1.772   4.684   1.266
 9724SOL    HW230072   1.698   4.783   1.373
 9725SOL     OW30073   5.566   5.405   4.367
 9725SOL    HW130074   5.502   5.467   4.322
 9725SOL    HW230075   5.633   5.459   4.419
 9726SOL     OW30076   6.898   6.909   3.555
 9726SOL    HW130077   6.821   6.867   3.603
 9726SOL    HW230078   6.937   6.843   3.490
 9727SOL     OW30079   6.409   3.039   1.375
 9727SOL    HW130080   6.442   3.121   1.421
 9727SOL    HW230081   6.362   3.066   1.290
 9728SOL     OW30082   5.543   1.894   5.232
 9728SOL    HW130083   5.514   1.933   5.320
 9728SOL    HW230084   5.621   1.946   5.197
 9729SOL     OW30085   0.327   3.982   2.168
 9729SOL    HW130086   0.380   3.932   2.237
 9729SOL    HW230087   0.355   3.952   2.077
 9730SOL     OW30088   1.207   5.790   3.568
 9730SOL    HW130089   1.211   5.872   3.510
 9730SOL    HW230090   1.122   5.741   3.549
 9731SOL     OW30091   6.324   1.610   1.467
 9731SOL    HW130092   6.277   1.572   1.388
 9731SOL    HW230093   6.259   1.625   1.541
 9732SOL     OW30094   0.145   2.628   3.123
 9732SOL    HW130095   0.093   2.550   3.089
 9732SOL    HW230096   0.181   2.608   3.214
 9733SOL     OW30097   5.372   5.853   6.813
 9733SOL    HW130098   5.344   5.927   6.875
 9733SOL    HW230099   5.450   5.805   6.852
 9734SOL     OW30100   3.926   3.600   0.019
 9734SOL    HW130101   3.850   3.540   7.016
 9734SOL    HW230102   3.993   3.601   6.965
 9735SOL     OW30103   1.294   1.635   0.379
 9735SOL    HW130104   1.202   1.675   0.370
 9735SOL    HW230105   1.358   1.706   0.408
 9736SOL     OW30106   5.164   2.789   6.435
 9736SOL    HW130107   5.236   2.827   6.493
 9736SOL    HW230108   5.102   2.734   6.491
 9737SOL     OW30109   5.238   3.406   5.407
 9737SOL    HW130110   5.262   3.496   5.371
 9737SOL    HW230111   5.274   3.336   5.345
 9738SOL     OW30112   2.427   6.124   1.437
 9738SOL    HW130113   2.372   6.204   1.459
 9738SOL    HW230114   2.466   6.086   1.521
 9739SOL     OW30115   5.819   6.449   0.747
 9739SOL    HW130116   5.865   6.514   0.807
 9739SOL    HW230117   5.737   6.414   0.791
 9740SOL     OW30118   6.457   0.825   1.005
 9740SOL    HW130119   6.554   0.847   1.007
 9740SOL    HW230120   6.445   0.726   1.015
 9741SOL     OW30121   2.359   2.719   2.851
 9741SOL    HW130122   2.400   2.736   2.761
 9741SOL    HW230123   2.359   2.621   2.870
 9742SOL     OW30124   4.320   0.140   6.954
 9742SOL    HW130125   4.254   0.192   6.899
 9742SOL    HW230126   4.364   0.202   7.019
 9743SOL     OW30127   5.983   3.831   4.290
 9743SOL    HW130128   6.018   3.749   4.243
 9743SOL    HW230129   5.884   3.825   4.296
 9744SOL     OW30130   1.603   2.863   1.920
 9744SOL    HW130131   1.590   2.944   1.863
 9744SOL    HW230132   1.519   2.845   1.971
 9745SOL     OW30133   1.227   6.678   5.847
 9745SOL    HW130134   1.309   6.650   5.796
 9745SOL    HW230135   1.240   6.770   5.884
 9746SOL     OW30136   3.291   6.173   5.872
 9746SOL    HW130137   3.307   6.105   5.944
 9746SOL    HW230138   3.262   6.259   5.914
 9747SOL     OW30139   4.320   1.611   3.290
 9747SOL    HW130140   4.414   1.627   3.260
 9747SOL    HW230141   4.319   1.594   3.389
 9748SOL     OW30142   0.589   2.368   2.322
 9748SOL    HW130143   0.534   2.396   2.401
 9748SOL    HW230144   0.535   2.382   2.239
 9749SOL     OW30145   6.717   0.271   1.353
 9749SOL    HW130146   6.631   0.306   1.392
 9749SOL    HW230147   6.788   0.273   1.423
 9750SOL     OW30148   6.118   2.040   4.646
 9750SOL    HW130149   6.095   1.966   4.583
 9750SOL    HW230150   6.061   2.033   4.728
 9751SOL     OW30151   2.664   5.395   0.868
 9751SOL    HW130152   2.747   5.436   0.831
 9751SOL    HW230153   2.587   5.415   0.807
 9752SOL     OW30154   4.323   4.012   0.860
 9752SOL    HW130155   4.236   3.988   0.815
 9752SOL    HW230156   4.304   4.046   0.952
 9753SOL     OW30157   6.352   6.750   3.164
 9753SOL    HW130158   6.372   6.656   3.190
 9753SOL    HW230159   6.269   6.781   3.212
 9754SOL     OW30160   3.339   0.287   1.592
 9754SOL    HW130161   3.299   0.378   1.584
 9754SOL    HW230162   3.436   0.290   1.568
 9755SOL     OW30163   3.112   4.176   1.216
 9755SOL    HW130164   3.018   4.152   1.189
 9755SOL    HW230165   3.155   4.097   1.260
 9756SOL     OW30166   4.518   6.769   0.007
 9756SOL    HW130167   4.472   6.725   0.084
 9756SOL    HW230168   4.565   6.852   0.038
 9757SOL     OW30169   5.130   3.971   4.150
 9757SOL    HW130170   5.188   4.027   4.209
 9757SOL    HW230171   5.107   4.022   4.068
 9758SOL     OW30172   3.285   0.942   1.420
 9758SOL    HW130173   3.361   0.889   1.457
 9758SOL    HW230174   3.202   0.923   1.473
 9759SOL     OW30175   6.344   1.692   0.975
 9759SOL    HW130176   6.294   1.777   0.992
 9759SOL    HW230177   6.379   1.692   0.881
 9760SOL     OW30178   4.888   0.962   6.534
 9760SOL    HW130179   4.899   1.025   6.611
 9760SOL    HW230180   4.801   0.982   6.488
 9761SOL     OW30181   0.979   2.335   1.846
 9761SOL    HW130182   0.953   2.312   1.939
 9761SOL    HW230183   0.988   2.252   1.792
 9762SOL     OW30184   3.767   1.130   5.944
 9762SOL    HW130185   3.748   1.043   5.899
 9762SOL    HW230186   3.798   1.113   6.037
 9763SOL     OW30187   5.739   2.058   1.067
 9763SOL    HW130188   5.729   1.992   0.993
 9763SOL    HW230189   5.822   2.039   1.118
 9764SOL     OW30190   0.637   2.476   3.594
 9764SOL    HW130191   0.579   2.425   3.531
 9764SOL    HW230192   0.733   2.461   3.570
 9765SOL     OW30193   6.043   2.298   0.869
 9765SOL    HW130194   5.960   2.297   0.814
 9765SOL    HW230195   6.102   2.222   0.842
 9766SOL     OW30196   0.428   2.563   3.088
 9766SOL    HW130197   0.459   2.643   3.138
 9766SOL    HW230198   0.331   2.547   3.108
 9767SOL     OW30199   3.862   1.646   4.694
 9767SOL    HW130200   3.889   1.721   4.755
 9767SOL    HW230201   3.888   1.668   4.600
 9768SOL     OW30202   4.881   3.023   6.617
 9768SOL    HW130203   4.872   3.122   6.606
 9768SOL    HW230204   4.873   2.979   6.527
 9769SOL     OW30205   3.550   1.119   5.510
 9769SOL    HW130206   3.566   1.026   5.542
 9769SOL    HW230207   3.512   1.117   5.418
 9770SOL     OW30208   1.921   3.340   5.301
 9770SOL    HW130209   1.978   3.321   5.381
 9770SOL    HW230210   1.825   3.319   5.323
 9771SOL     OW30211   3.254   0.791   1.818
 9771SOL    HW130212   3.219   0.837   1.736
 9771SOL    HW230213   3.209   0.828   1.899
 9772SOL     OW30214   0.205   0.690   1.812
 9772SOL    HW130215   0.194   0.774   1.865
 9772SOL    HW230216   0.165   0.703   1.721
 9773SOL     OW30217   4.704   6.456   2.073
 9773SOL    HW130218   4.779   6.478   2.010
 9773SOL    HW230219   4.685   6.534   2.132
 9774SOL     OW30220   1.390   5.235   4.981
 9774SOL    HW130221   1.366   5.143   5.011
 9774SOL    HW230222   1.373   5.244   4.883
 9775SOL     OW30223   1.629   1.033   3.379
 9775SOL    HW130224   1.571   1.067   3.304
 9775SOL    HW230225   1.574   1.022   3.461
 9776SOL     OW30226   1.455   5.971   1.718
 9776SOL    HW130227   1.391   6.047   1.725
 9776SOL    HW230228   1.409   5.886   1.747
 9777SOL     OW30229   4.582   1.968   5.316
 9777SOL    HW130230   4.541   2.029   5.384
 9777SOL    HW230231   4.572   1.873   5.346
 9778SOL     OW30232   1.568   3.326   2.764
 9778SOL    HW130233   1.561   3.394   2.837
 9778SOL    HW230234   1.629   3.252   2.794
 9779SOL     OW30235   2.233   1.259   2.598
 9779SOL    HW130236   2.206   1.354   2.616
 9779SOL    HW230237   2.157   1.198   2.619
 9780SOL     OW30238   1.446   1.769   1.020
 9780SOL    HW130239   1.351   1.755   1.046
 9780SOL    HW230240   1.503   1.766   1.102
 9781SOL     OW30241   1.792   1.079   2.138
 9781SOL    HW130242   1.884   1.052   2.112
 9781SOL    HW230243   1.791   1.175   2.164
 9782SOL     OW30244   6.958   2.218   6.938
 9782SOL    HW130245   0.029   2.220   6.899
 9782SOL    HW230246   6.954   2.279   7.017
 9783SOL     OW30247   4.887   1.384   2.287
 9783SOL    HW130248   4.791   1.397   2.265
 9783SOL    HW230249   4.918   1.296   2.248
 9784SOL     OW30250   2.013   1.591   0.309
 9784SOL    HW130251   2.017   1.543   0.397
 9784SOL    HW230252   1.985   1.527   0.238
 9785SOL     OW30253   1.577   3.371   4.798
 9785SOL    HW130254   1.652   3.435   4.813
 9785SOL    HW230255   1.490   3.414   4.822
 9786SOL     OW30256   3.217   4.269   0.015
 9786SOL    HW130257   3.286   4.283   6.964
 9786SOL    HW230258   3.259   4.282   0.105
 9787SOL     OW30259   2.712   3.293   0.894
 9787SOL    HW130260   2.729   3.376   0.948
 9787SOL    HW230261   2.659   3.317   0.813
 9788SOL     OW30262   2.552   7.016   3.106
 9788SOL    HW130263   2.561   0.086   3.067
 9788SOL    HW230264   2.460   6.980   3.086
 9789SOL     OW30265   4.293   1.612   0.090
 9789SOL    HW130266   4.232   1.664   0.149
 9789SOL    HW230267   4.340   1.542   0.144
 9790SOL     OW30268   4.575   5.958   5.104
 9790SOL    HW130269   4.487   6.003   5.085
 9790SOL    HW230270   4.559   5.877   5.161
 9791SOL     OW30271   0.131   0.959   1.011
 9791SOL    HW130272   0.111   0.878   0.956
 9791SOL    HW230273   0.068   0.963   1.088
 9792SOL     OW30274   3.438   3.574   0.687
 9792SOL    HW130275   3.345   3.538   0.689
 9792SOL    HW230276   3.484   3.554   0.773
 9793SOL     OW30277   5.711   1.071   1.695
 9793SOL    HW130278   5.704   1.028   1.785
 9793SOL    HW230279   5.644   1.144   1.687
 9794SOL     OW30280   4.207   5.788   4.999
 9794SOL    HW130281   4.158   5.869   4.967
 9794SOL    HW230282   4.277   5.763   4.932
 9795SOL     OW30283   1.743   4.084   2.874
 9795SOL    HW130284   1.811   4.011   2.877
 9795SOL    HW230285   1.761   4.149   2.948
 9796SOL     OW30286   3.794   3.474   5.071
 9796SOL    HW130287   3.875   3.527   5.099
 9796SOL    HW230288   3.823   3.393   5.021
 9797SOL     OW30289   3.566   5.273   0.236
 9797SOL    HW130290   3.484   5.248   0.184
 9797SOL    HW230291   3.566   5.226   0.324
 9798SOL     OW30292   0.188   4.159   6.370
 9798SOL    HW130293   0.142   4.086   6.420
 9798SOL    HW230294   0.276   4.125   6.335
 9799SOL     OW30295   3.458   6.594   6.497
 9799SOL    HW130296   3.365   6.591   6.533
 9799SOL    HW230297   3.460   6.551   6.407
 9800SOL     OW30298   6.942   4.458   4.587
 9800SOL    HW130299   6.944   4.360   4.607
 9800SOL    HW230300   6.918   4.508   4.670
 9801SOL     OW30301   3.804   6.791   0.722
 9801SOL    HW130302   3.791   6.780   0.821
 9801SOL    HW230303   3.884   6.739   0.693
 9802SOL     OW30304   3.875   2.684   0.544
 9802SOL    HW130305   3.971   2.697   0.520
 9802SOL    HW230306   3.818   2.705   0.464
 9803SOL     OW30307   2.803   3.759   0.372
 9803SOL    HW130308   2.848   3.756   0.283
 9803SOL    HW230309   2.780   3.853   0.395
 9804SOL     OW30310   1.088   4.096   2.604
 9804SOL    HW130311   1.041   4.144   2.678
 9804SOL    HW230312   1.177   4.138   2.588
 9805SOL     OW30313   6.835   4.997   5.105
 9805SOL    HW130314   6.881   5.082   5.078
 9805SOL    HW230315   6.884   4.956   5.182
 9806SOL     OW30316   3.399   0.810   6.825
 9806SOL    HW130317   3.347   0.840   6.745
 9806SOL    HW230318   3.420   0.889   6.883
 9807SOL     OW30319   3.678   3.220   4.862
 9807SOL    HW130320   3.745   3.148   4.879
 9807SOL    HW230321   3.586   3.182   4.871
 9808SOL     OW30322   2.465   5.855   2.799
 9808SOL    HW130323   2.564   5.835   2.799
 9808SOL    HW230324   2.450   5.949   2.827
 9809SOL     OW30325   6.447   3.510   1.418
 9809SOL    HW130326   6.450   3.412   1.400
 9809SOL    HW230327   6.353   3.537   1.440
 9810SOL     OW30328   4.152   2.986   1.052
 9810SOL    HW130329   4.143   2.916   0.981
 9810SOL    HW230330   4.241   3.032   1.043
 9811SOL     OW30331   5.143   3.600   4.084
 9811SOL    HW130332   5.167   3.547   4.003
 9811SOL    HW230333   5.047   3.628   4.078
 9812SOL     OW30334   3.270   5.107   6.640
 9812SOL    HW130335   3.186   5.160   6.651
 9812SOL    HW230336   3.286   5.053   6.723
 9813SOL     OW30337   4.275   0.640   1.896
 9813SOL    HW130338   4.292   0.586   1.978
 9813SOL    HW230339   4.327   0.726   1.900
 9814SOL     OW30340   6.696   1.392   6.202
 9814SOL    HW130341   6.733   1.485   6.200
 9814SOL    HW230342   6.661   1.372   6.293
 9815SOL     OW30343   5.606   2.442   4.721
 9815SOL    HW130344   5.578   2.359   4.770
 9815SOL    HW230345   5.598   2.427   4.623
 9816SOL     OW30346   3.335   0.752   0.310
 9816SOL    HW130347   3.331   0.729   0.213
 9816SOL    HW230348   3.285   0.838   0.326
 9817SOL     OW30349   6.483   0.523   1.167
 9817SOL    HW130350   6.445   0.430   1.158
 9817SOL    HW230351   6.541   0.542   1.088
 9818SOL     OW30352   3.779   2.350   5.318
 9818SOL    HW130353   3.757   2.444   5.343
 9818SOL    HW230354   3.737   2.287   5.383
 9819SOL     OW30355   2.490   0.610   2.007
 9819SOL    HW130356   2.561   0.540   2.017
 9819SOL    HW230357   2.521   0.695   2.049
 9820SOL     OW30358   3.814   2.602   0.029
 9820SOL    HW130359   3.721   2.573   0.054
 9820SOL    HW230360   3.823   2.601   6.950
 9821SOL     OW30361   0.624   6.258   6.611
 9821SOL    HW130362   0.525   6.256   6.595
 9821SOL    HW230363   0.672   6.228   6.528
 9822SOL     OW30364   0.166   0.990   2.378
 9822SOL    HW130365   0.231   1.037   2.436
 9822SOL    HW230366   0.194   0.894   2.366
 9823SOL     OW30367   3.233   6.718   1.982
 9823SOL    HW130368   3.295   6.639   1.980
 9823SOL    HW230369   3.139   6.685   1.990
 9824SOL     OW30370   2.247   3.961   5.371
 9824SOL    HW130371   2.225   3.874   5.415
 9824SOL    HW230372   2.298   3.944   5.287
 9825SOL     OW30373   4.010   4.846   5.184
 9825SOL    HW130374   3.947   4.768   5.184
 9825SOL    HW230375   4.047   4.859   5.276
 9826SOL     OW30376   5.573   6.882   5.384
 9826SOL    HW130377   5.539   6.974   5.364
 9826SOL    HW230378   5.497   6.816   5.379
 9827SOL     OW30379   0.827   5.607   4.596
 9827SOL    HW130380   0.805   5.509   4.596
 9827SOL    HW230381   0.870   5.631   4.509
 9828SOL     OW30382   2.540   1.455   0.106
 9828SOL    HW130383   2.628   1.427   0.067
 9828SOL    HW230384   2.467   1.397   0.069
 9829SOL     OW30385   2.871   3.913   1.738
 9829SOL    HW130386   2.840   3.970   1.814
 9829SOL    HW230387   2.928   3.967   1.676
 9830SOL     OW30388   5.988   1.691   1.133
 9830SOL    HW130389   6.035   1.656   1.214
 9830SOL    HW230390   5.891   1.668   1.138
 9831SOL     OW30391   6.203   6.630   1.538
 9831SOL    HW130392   6.115   6.619   1.493
 9831SOL    HW230393   6.276   6.631   1.470
 9832SOL     OW30394   3.181   3.576   0.539
 9832SOL    HW130395   3.156   3.536   0.451
 9832SOL    HW230396   3.098   3.593   0.593
 9833SOL     OW30397   4.974   4.468   6.954
 9833SOL    HW130398   5.044   4.539   6.963
 9833SOL    HW230399   4.923   4.460   0.018
 9834SOL     OW30400   1.906   2.511   3.522
 9834SOL    HW130401   1.939   2.450   3.449
 9834SOL    HW230402   1.841   2.462   3.580
 9835SOL     OW30403   5.212   1.886   4.200
 9835SOL    HW130404   5.310   1.871   4.205
 9835SOL    HW230405   5.168   1.852   4.284
 9836SOL     OW30406   5.525   5.373   1.552
 9836SOL    HW130407   5.523   5.459   1.500
 9836SOL    HW230408   5.573   5.387   1.638
 9837SOL     OW30409   2.696   5.656   5.950
 9837SOL    HW130410   2.777   5.598   5.958
 9837SOL    HW230411   2.722   5.744   5.909
 9838SOL     OW30412   6.882   6.388   5.074
 9838SOL    HW130413   6.895   6.309   5.134
 9838SOL    HW230414   6.798   6.436   5.099
 9839SOL     OW30415   5.672   3.034   3.001
 9839SOL    HW130416   5.613   3.113   3.016
 9839SOL    HW230417   5.756   3.063   2.957
 9840SOL     OW30418   5.718   0.187   0.256
 9840SOL    HW130419   5.626   0.212   0.286
 9840SOL    HW230420   5.751   0.254   0.190
 9841SOL     OW30421   2.188   2.965   4.705
 9841SOL    HW130422   2.275   2.939   4.663
 9841SOL    HW230423   2.190   3.063   4.728
 9842SOL     OW30424   3.291   3.232   4.267
 9842SOL    HW130425   3.326   3.326   4.270
 9842SOL    HW230426   3.211   3.228   4.207
 9843SOL     OW30427   6.120   4.538   3.022
 9843SOL    HW130428   6.065   4.601   2.967
 9843SOL    HW230429   6.194   4.500   2.965
 9844SOL     OW30430   4.868   0.218   1.813
 9844SOL    HW130431   4.796   0.188   1.751
 9844SOL    HW230432   4.886   0.315   1.799
 9845SOL     OW30433   1.492   1.700   4.120
 9845SOL    HW130434   1.538   1.755   4.189
 9845SOL    HW230435   1.393   1.713   4.127
 9846SOL     OW30436   3.002   3.329   4.257
 9846SOL    HW130437   2.973   3.317   4.352
 9846SOL    HW230438   2.954   3.406   4.217
 9847SOL     OW30439   2.255   4.407   4.546
 9847SOL    HW130440   2.246   4.441   4.640
 9847SOL    HW230441   2.240   4.308   4.546
 9848SOL     OW30442   6.717   4.403   6.990
 9848SOL    HW130443   6.741   4.325   0.027
 9848SOL    HW230444   6.642   4.377   6.929
 9849SOL     OW30445   6.895   6.187   5.264
 9849SOL    HW130446   6.901   6.207   5.361
 9849SOL    HW230447   6.838   6.106   5.249
 9850SOL     OW30448   5.188   0.465   3.435
 9850SOL    HW130449   5.273   0.413   3.427
 9850SOL    HW230450   5.188   0.541   3.370
 9851SOL     OW30451   5.080   2.520   5.662
 9851SOL    HW130452   5.034   2.436   5.634
 9851SOL    HW230453   5.071   2.531   5.761
 9852SOL     OW30454   5.269   1.532   3.984
 9852SOL    HW130455   5.359   1.515   4.024
 9852SOL    HW230456   5.276   1.602   3.914
 9853SOL     OW30457   0.827   5.307   1.078
 9853SOL    HW130458   0.749   5.245   1.064
 9853SOL    HW230459   0.873   5.284   1.163
 9854SOL     OW30460   3.573   6.978   3.721
 9854SOL    HW130461   3.539   6.920   3.795
 9854SOL    HW230462   3.633   0.028   3.759
 9855SOL     OW30463   2.136   4.356   0.625
 9855SOL    HW130464   2.117   4.324   0.717
 9855SOL    HW230465   2.058   4.408   0.591
 9856SOL     OW30466   3.937   3.680   1.185
 9856SOL    HW130467   3.920   3.697   1.088
 9856SOL    HW230468   3.949   3.582   1.200
 9857SOL     OW30469   6.219   4.445   2.694
 9857SOL    HW130470   6.123   4.469   2.676
 9857SOL    HW230471   6.224   4.352   2.729
 9858SOL     OW30472   2.902   1.252   1.742
 9858SOL    HW130473   2.955   1.169   1.758
 9858SOL    HW230474   2.964   1.328   1.721
 9859SOL     OW30475   0.541   6.644   1.333
 9859SOL    HW130476   0.509   6.718   1.274
 9859SOL    HW230477   0.596   6.579   1.279
 9860SOL     OW30478   1.266   1.091   2.660
 9860SOL    HW130479   1.278   1.053   2.752
 9860SOL    HW230480   1.196   1.039   2.612
 9861SOL     OW30481   3.090   6.479   3.834
 9861SOL    HW130482   3.100   6.555   3.898
 9861SOL    HW230483   3.005   6.490   3.782
 9862SOL     OW30484   0.240   1.786   0.967
 9862SOL    HW130485   0.196   1.862   1.016
 9862SOL    HW230486   0.325   1.819   0.926
 9863SOL     OW30487   3.825   0.393   0.487
 9863SOL    HW130488   3.808   0.360   0.579
 9863SOL    HW230489   3.753   0.361   0.425
 9864SOL     OW30490   4.242   6.012   3.464
 9864SOL    HW130491   4.262   6.015   3.562
 9864SOL    HW230492   4.268   6.099   3.421
 9865SOL     OW30493   1.830   3.285   4.086
 9865SOL    HW130494   1.926   3.285   4.056
 9865SOL    HW230495   1.799   3.191   4.099
 9866SOL     OW30496   3.088   4.839   3.503
 9866SOL    HW130497   3.169   4.894   3.480
 9866SOL    HW230498   3.066   4.779   3.426
 9867SOL     OW30499   3.640   6.793   6.392
 9867SOL    HW130500   3.578   6.728   6.435
 9867SOL    HW230501   3.726   6.747   6.368
 9868SOL     OW30502   1.183   5.054   5.580
 9868SOL    HW130503   1.128   5.031   5.660
 9868SOL    HW230504   1.279   5.063   5.607
 9869SOL     OW30505   1.530   4.484   2.743
 9869SOL    HW130506   1.582   4.508   2.825
 9869SOL    HW230507   1.593   4.448   2.673
 9870SOL     OW30508   4.291   5.651   1.686
 9870SOL    HW130509   4.280   5.554   1.706
 9870SOL    HW230510   4.265   5.705   1.766
 9871SOL     OW30511   1.852   2.553   5.905
 9871SOL    HW130512   1.866   2.594   5.995
 9871SOL    HW230513   1.866   2.622   5.834
 9872SOL     OW30514   1.425   3.947   3.222
 9872SOL    HW130515   1.423   4.042   3.190
 9872SOL    HW230516   1.342   3.900   3.193
 9873SOL     OW30517   1.649   1.740   0.613
 9873SOL    HW130518   1.704   1.727   0.531
 9873SOL    HW230519   1.700   1.709   0.693
 9874SOL     OW30520   1.343   3.449   4.935
 9874SOL    HW130521   1.314   3.354   4.934
 9874SOL    HW230522   1.344   3.482   5.030
 9875SOL     OW30523   1.399   1.258   3.274
 9875SOL    HW130524   1.459   1.336   3.254
 9875SOL    HW230525   1.420   1.184   3.210
 9876SOL     OW30526   6.951   5.796   2.597
 9876SOL    HW130527   6.932   5.722   2.661
 9876SOL    HW230528   6.887   5.871   2.612
 9877SOL     OW30529   4.309   0.193   1.411
 9877SOL    HW130530   4.215   0.157   1.412
 9877SOL    HW230531   4.337   0.216   1.504
 9878SOL     OW30532   0.049   1.129   5.026
 9878SOL    HW130533   0.001   1.215   5.008
 9878SOL    HW230534   0.108   1.140   5.105
 9879SOL     OW30535   5.141   5.351   4.961
 9879SOL    HW130536   5.172   5.347   5.056
 9879SOL    HW230537   5.217   5.377   4.902
 9880SOL     OW30538   1.231   2.315   4.062
 9880SOL    HW130539   1.138   2.350   4.075
 9880SOL    HW230540   1.251   2.310   3.964
 9881SOL     OW30541   0.739   1.326   5.915
 9881SOL    HW130542   0.789   1.294   5.835
 9881SOL    HW230543   0.652   1.365   5.887
 9882SOL     OW30544   2.324   2.297   3.379
 9882SOL    HW130545   2.412   2.343   3.369
 9882SOL    HW230546   2.292   2.306   3.474
 9883SOL     OW30547   2.897   1.454   2.503
 9883SOL    HW130548   2.954   1.395   2.447
 9883SOL    HW230549   2.898   1.547   2.465
 9884SOL     OW30550   3.400   0.661   3.978
 9884SOL    HW130551   3.409   0.739   3.916
 9884SOL    HW230552   3.483   0.606   3.975
 9885SOL     OW30553   6.564   3.504   4.494
 9885SOL    HW130554   6.627   3.578   4.473
 9885SOL    HW230555   6.604   3.444   4.564
 9886SOL     OW30556   0.114   3.047   1.440
 9886SOL    HW130557   0.059   3.006   1.367
 9886SOL    HW230558   0.104   2.993   1.524
 9887SOL     OW30559   4.661   6.459   5.853
 9887SOL    HW130560   4.569   6.494   5.837
 9887SOL    HW230561   4.728   6.531   5.834
 9888SOL     OW30562   6.469   4.592   5.716
 9888SOL    HW130563   6.528   4.672   5.708
 9888SOL    HW230564   6.373   4.620   5.705
 9889SOL     OW30565   0.470   5.970   0.767
 9889SOL    HW130566   0.563   5.933   0.763
 9889SOL    HW230567   0.409   5.903   0.811
 9890SOL     OW30568   0.684   2.610   0.395
 9890SOL    HW130569   0.763   2.652   0.350
 9890SOL    HW230570   0.616   2.681   0.416
 9891SOL     OW30571   5.270   1.271   1.794
 9891SOL    HW130572   5.336   1.306   1.861
 9891SOL    HW230573   5.320   1.229   1.718
 9892SOL     OW30574   0.919   0.081   6.572
 9892SOL    HW130575   0.838   0.140   6.577
 9892SOL    HW230576   0.964   0.079   6.661
 9893SOL     OW30577   2.132   0.891   0.240
 9893SOL    HW130578   2.119   0.843   0.326
 9893SOL    HW230579   2.154   0.826   0.168
 9894SOL     OW30580   2.060   0.920   1.492
 9894SOL    HW130581   1.987   0.857   1.518
 9894SOL    HW230582   2.078   0.911   1.394
 9895SOL     OW30583   4.376   2.941   5.406
 9895SOL    HW130584   4.387   2.923   5.504
 9895SOL    HW230585   4.329   3.028   5.393
 9896SOL     OW30586   6.436   6.647   5.681
 9896SOL    HW130587   6.364   6.638   5.749
 9896SOL    HW230588   6.518   6.600   5.714
 9897SOL     OW30589   4.906   4.811   4.848
 9897SOL    HW130590   4.980   4.835   4.784
 9897SOL    HW230591   4.935   4.833   4.942
 9898SOL     OW30592   2.519   0.072   6.166
 9898SOL    HW130593   2.610   0.109   6.147
 9898SOL    HW230594   2.518   0.031   6.257
 9899SOL     OW30595   0.372   4.707   0.254
 9899SOL    HW130596   0.301   4.735   0.319
 9899SOL    HW230597   0.379   4.775   0.181
 9900SOL     OW30598   2.181   4.194   3.269
 9900SOL    HW130599   2.117   4.253   3.220
 9900SOL    HW230600   2.161   4.098   3.247
 9901SOL     OW30601   2.063   3.235   5.527
 9901SOL    HW130602   2.143   3.191   5.485
 9901SOL    HW230603   2.082   3.256   5.623
 9902SOL     OW30604   2.736   4.429   0.797
 9902SOL    HW130605   2.651   4.455   0.751
 9902SOL    HW230606   2.745   4.329   0.795
 9903SOL     OW30607   5.348   1.396   4.889
 9903SOL    HW130608   5.425   1.451   4.921
 9903SOL    HW230609   5.380   1.331   4.820
 9904SOL     OW30610   6.131   1.870   0.445
 9904SOL    HW130611   6.101   1.778   0.419
 9904SOL    HW230612   6.229   1.879   0.428
 9905SOL     OW30613   4.706   0.224   0.164
 9905SOL    HW130614   4.682   0.304   0.219
 9905SOL    HW230615   4.729   0.254   0.071
 9906SOL     OW30616   2.928   3.258   4.820
 9906SOL    HW130617   2.864   3.187   4.849
 9906SOL    HW230618   2.934   3.329   4.891
 9907SOL     OW30619   1.393   6.533   1.644
 9907SOL    HW130620   1.302   6.493   1.655
 9907SOL    HW230621   1.417   6.537   1.547
 9908SOL     OW30622   5.298   3.887   1.790
 9908SOL    HW130623   5.314   3.968   1.846
 9908SOL    HW230624   5.241   3.910   1.712
 9909SOL     OW30625   2.028   0.368   5.071
 9909SOL    HW130626   1.944   0.408   5.036
 9909SOL    HW230627   2.098   0.370   5.000
 9910SOL     OW30628   6.665   4.522   3.602
 9910SOL    HW130629   6.640   4.611   3.563
 9910SOL    HW230630   6.704   4.464   3.530
 9911SOL     OW30631   2.425   6.345   2.297
 9911SOL    HW130632   2.408   6.322   2.201
 9911SOL    HW230633   2.425   6.261   2.351
 9912SOL     OW30634   4.455   0.761   6.272
 9912SOL    HW130635   4.427   0.746   6.178
 9912SOL    HW230636   4.553   0.780   6.275
 9913SOL     OW30637   5.385   3.551   0.581
 9913SOL    HW130638   5.313   3.483   0.567
 9913SOL    HW230639   5.344   3.643   0.586
 9914SOL     OW30640   6.890   3.515   4.574
 9914SOL    HW130641   6.873   3.613   4.577
 9914SOL    HW230642   6.880   3.482   4.480
 9915SOL     OW30643   4.498   1.455   3.574
 9915SOL    HW130644   4.535   1.429   3.485
 9915SOL    HW230645   4.458   1.375   3.619
 9916SOL     OW30646   1.293   2.853   1.285
 9916SOL    HW130647   1.372   2.799   1.258
 9916SOL    HW230648   1.296   2.871   1.383
 9917SOL     OW30649   6.005   4.243   5.103
 9917SOL    HW130650   6.084   4.211   5.156
 9917SOL    HW230651   6.034   4.315   5.040
 9918SOL     OW30652   4.876   3.129   2.277
 9918SOL    HW130653   4.973   3.121   2.255
 9918SOL    HW230654   4.822   3.104   2.197
 9919SOL     OW30655   5.267   5.745   0.360
 9919SOL    HW130656   5.275   5.793   0.447
 9919SOL    HW230657   5.236   5.652   0.375
 9920SOL     OW30658   4.908   1.532   2.517
 9920SOL    HW130659   4.892   1.481   2.432
 9920SOL    HW230660   4.969   1.479   2.576
 9921SOL     OW30661   4.038   4.935   6.323
 9921SOL    HW130662   4.119   4.892   6.283
 9921SOL    HW230663   4.003   4.878   6.398
 9922SOL     OW30664   6.937   6.088   1.362
 9922SOL    HW130665   6.892   6.175   1.341
 9922SOL    HW230666   0.015   6.102   1.366
 9923SOL     OW30667   5.751   4.715   0.626
 9923SOL    HW130668   5.759   4.761   0.714
 9923SOL    HW230669   5.740   4.616   0.641
 9924SOL     OW30670   1.616   3.930   4.560
 9924SOL    HW130671   1.552   3.893   4.492
 9924SOL    HW230672   1.607   4.030   4.563
 9925SOL     OW30673   4.930   2.307   4.340
 9925SOL    HW130674   5.002   2.317   4.408
 9925SOL    HW230675   4.850   2.264   4.383
 9926SOL     OW30676   3.320   5.055   1.304
 9926SOL    HW130677   3.393   5.122   1.300
 9926SOL    HW230678   3.231   5.101   1.300
 9927SOL     OW30679   5.177   6.969   4.201
 9927SOL    HW130680   5.079   6.970   4.182
 9927SOL    HW230681   5.217   0.035   4.174
 9928SOL     OW30682   5.009   4.222   2.310
 9928SOL    HW130683   5.058   4.137   2.323
 9928SOL    HW230684   5.072   4.299   2.321
 9929SOL     OW30685   1.008   4.098   3.323
 9929SOL    HW130686   1.030   4.183   3.372
 9929SOL    HW230687   1.070   4.088   3.245
 9930SOL     OW30688   5.692   1.071   2.930
 9930SOL    HW130689   5.783   1.109   2.945
 9930SOL    HW230690   5.664   1.084   2.835
 9931SOL     OW30691   1.256   5.466   5.548
 9931SOL    HW130692   1.291   5.408   5.622
 9931SOL    HW230693   1.312   5.453   5.467
 9932SOL     OW30694   0.826   5.953   4.627
 9932SOL    HW130695   0.883   5.900   4.564
 9932SOL    HW230696   0.748   5.991   4.577
 9933SOL     OW30697   6.714   6.706   2.984
 9933SOL    HW130698   6.703   6.698   3.083
 9933SOL    HW230699   6.688   6.620   2.941
 9934SOL     OW30700   0.044   2.169   5.055
 9934SOL    HW130701   7.005   2.125   5.122
 9934SOL    HW230702   0.111   2.227   5.102
 9935SOL     OW30703   2.259   0.563   6.276
 9935SOL    HW130704   2.187   0.530   6.338
 9935SOL    HW230705   2.272   0.498   6.201
 9936SOL     OW30706   1.639   3.859   3.693
 9936SOL    HW130707   1.727   3.844   3.648
 9936SOL    HW230708   1.654   3.906   3.780
 9937SOL     OW30709   6.418   2.220   5.961
 9937SOL    HW130710   6.477   2.142   5.980
 9937SOL    HW230711   6.473   2.302   5.951
 9938SOL     OW30712   6.591   6.456   2.935
 9938SOL    HW130713   6.527   6.492   2.867
 9938SOL    HW230714   6.544   6.445   3.022
 9939SOL     OW30715   3.384   3.381   3.524
 9939SOL    HW130716   3.304   3.425   3.565
 9939SOL    HW230717   3.445   3.348   3.596
 9940SOL     OW30718   0.499   1.271   1.124
 9940SOL    HW130719   0.507   1.332   1.045
 9940SOL    HW230720   0.478   1.179   1.093
 9941SOL     OW30721   3.111   5.797   4.492
 9941SOL    HW130722   3.142   5.826   4.401
 9941SOL    HW230723   3.166   5.720   4.523
 9942SOL     OW30724   2.661   5.575   4.210
 9942SOL    HW130725   2.756   5.595   4.233
 9942SOL    HW230726   2.657   5.493   4.153
 9943SOL     OW30727   0.546   6.880   4.696
 9943SOL    HW130728   0.596   6.965   4.709
 9943SOL    HW230729   0.594   6.822   4.630
 9944SOL     OW30730   1.883   4.713   6.400
 9944SOL    HW130731   1.919   4.620   6.401
 9944SOL    HW230732   1.806   4.718   6.336
 9945SOL     OW30733   0.115   5.947   6.757
 9945SOL    HW130734   0.023   5.965   6.792
 9945SOL    HW230735   0.175   6.024   6.780
 9946SOL     OW30736   5.599   0.513   3.965
 9946SOL    HW130737   5.663   0.547   3.897
 9946SOL    HW230738   5.526   0.463   3.919
 9947SOL     OW30739   6.040   4.462   4.079
 9947SOL    HW130740   6.108   4.487   4.010
 9947SOL    HW230741   5.998   4.545   4.116
 9948SOL     OW30742   5.246   4.025   3.727
 9948SOL    HW130743   5.339   4.060   3.717
 9948SOL    HW230744   5.203   4.016   3.638
 9949SOL     OW30745   6.362   5.361   2.021
 9949SOL    HW130746   6.409   5.433   1.970
 9949SOL    HW230747   6.409   5.274   2.007
 9950SOL     OW30748   3.831   6.160   0.087
 9950SOL    HW130749   3.835   6.207   0.175
 9950SOL    HW230750   3.791   6.069   0.099
 9951SOL     OW30751   6.300   2.862   3.030
 9951SOL    HW130752   6.250   2.829   2.951
 9951SOL    HW230753   6.397   2.874   3.006
 9952SOL     OW30754   0.432   4.058   6.293
 9952SOL    HW130755   0.507   3.997   6.318
 9952SOL    HW230756   0.434   4.075   6.194
 9953SOL     OW30757   5.225   3.190   3.971
 9953SOL    HW130758   5.187   3.142   3.891
 9953SOL    HW230759   5.285   3.128   4.022
 9954SOL     OW30760   4.568   0.390   4.998
 9954SOL    HW130761   4.558   0.435   5.087
 9954SOL    HW230762   4.506   0.312   4.993
 9955SOL     OW30763   0.266   4.765   4.166
 9955SOL    HW130764   0.328   4.688   4.150
 9955SOL    HW230765   0.291   4.810   4.252
 9956SOL     OW30766   1.246   6.373   0.492
 9956SOL    HW130767   1.251   6.280   0.528
 9956SOL    HW230768   1.221   6.371   0.395
 9957SOL     OW30769   5.768   5.446   2.286
 9957SOL    HW130770   5.861   5.482   2.298
 9957SOL    HW230771   5.746   5.445   2.188
 9958SOL     OW30772   3.131   4.436   1.058
 9958SOL    HW130773   3.153   4.355   1.112
 9958SOL    HW230774   3.033   4.439   1.040
 9959SOL     OW30775   3.298   4.049   1.017
 9959SOL    HW130776   3.254   4.135   1.042
 9959SOL    HW230777   3.334   4.056   0.924
 9960SOL     OW30778   0.728   0.874   2.473
 9960SOL    HW130779   0.656   0.817   2.510
 9960SOL    HW230780   0.766   0.932   2.545
 9961SOL     OW30781   2.151   3.754   4.745
 9961SOL    HW130782   2.059   3.714   4.745
 9961SOL    HW230783   2.185   3.757   4.839
 9962SOL     OW30784   5.638   5.987   4.536
 9962SOL    HW130785   5.719   6.046   4.535
 9962SOL    HW230786   5.635   5.933   4.452
 9963SOL     OW30787   3.132   1.881   0.332
 9963SOL    HW130788   3.192   1.949   0.290
 9963SOL    HW230789   3.186   1.802   0.360
 9964SOL     OW30790   5.939   6.463   4.763
 9964SOL    HW130791   6.022   6.515   4.743
 9964SOL    HW230792   5.860   6.525   4.758
 9965SOL     OW30793   5.334   6.976   0.852
 9965SOL    HW130794   5.253   6.942   0.804
 9965SOL    HW230795   5.387   6.899   0.886
 9966SOL     OW30796   6.459   1.154   2.741
 9966SOL    HW130797   6.527   1.227   2.742
 9966SOL    HW230798   6.448   1.117   2.833
 9967SOL     OW30799   1.115   5.633   0.508
 9967SOL    HW130800   1.097   5.611   0.412
 9967SOL    HW230801   1.163   5.721   0.513
 9968SOL     OW30802   3.914   3.496   3.323
 9968SOL    HW130803   3.876   3.501   3.416
 9968SOL    HW230804   4.001   3.546   3.321
 9969SOL     OW30805   1.439   3.450   1.051
 9969SOL    HW130806   1.367   3.454   1.120
 9969SOL    HW230807   1.465   3.355   1.035
 9970SOL     OW30808   6.388   4.651   2.236
 9970SOL    HW130809   6.369   4.615   2.327
 9970SOL    HW230810   6.336   4.600   2.168
 9971SOL     OW30811   2.799   6.679   6.835
 9971SOL    HW130812   2.767   6.596   6.789
 9971SOL    HW230813   2.847   6.654   6.919
 9972SOL     OW30814   0.062   5.110   1.519
 9972SOL    HW130815   6.994   5.075   1.490
 9972SOL    HW230816   0.049   5.172   1.597
 9973SOL     OW30817   5.458   6.401   3.524
 9973SOL    HW130818   5.380   6.422   3.465
 9973SOL    HW230819   5.530   6.356   3.471
 9974SOL     OW30820   2.347   0.669   4.302
 9974SOL    HW130821   2.290   0.749   4.284
 9974SOL    HW230822   2.347   0.610   4.221
 9975SOL     OW30823   6.825   4.285   0.656
 9975SOL    HW130824   6.871   4.199   0.678
 9975SOL    HW230825   6.754   4.304   0.725
 9976SOL     OW30826   3.549   6.676   4.224
 9976SOL    HW130827   3.559   6.577   4.227
 9976SOL    HW230828   3.586   6.711   4.138
 9977SOL     OW30829   6.827   5.091   4.029
 9977SOL    HW130830   6.786   5.051   3.947
 9977SOL    HW230831   6.756   5.106   4.098
 9978SOL     OW30832   6.758   3.042   4.180
 9978SOL    HW130833   6.833   3.002   4.233
 9978SOL    HW230834   6.764   3.142   4.183
 9979SOL     OW30835   1.071   3.746   4.905
 9979SOL    HW130836   1.152   3.720   4.852
 9979SOL    HW230837   0.991   3.700   4.867
 9980SOL     OW30838   2.914   6.260   5.017
 9980SOL    HW130839   2.877   6.350   5.043
 9980SOL    HW230840   3.010   6.270   4.993
 9981SOL     OW30841   3.973   2.167   3.052
 9981SOL    HW130842   4.035   2.192   3.127
 9981SOL    HW230843   3.881   2.152   3.088
 9982SOL     OW30844   6.256   0.007   2.750
 9982SOL    HW130845   6.287   7.001   2.841
 9982SOL    HW230846   6.293   6.965   2.682
 9983SOL     OW30847   6.930   0.695   1.442
 9983SOL    HW130848   6.992   0.622   1.415
 9983SOL    HW230849   6.836   0.667   1.424
 9984SOL     OW30850   3.414   0.626   6.271
 9984SOL    HW130851   3.433   0.691   6.344
 9984SOL    HW230852   3.353   0.555   6.305
 9985SOL     OW30853   1.507   1.482   1.371
 9985SOL    HW130854   1.585   1.425   1.347
 9985SOL    HW230855   1.527   1.578   1.351
 9986SOL     OW30856   5.030   4.034   4.425
 9986SOL    HW130857   5.040   4.071   4.517
 9986SOL    HW230858   5.063   4.101   4.358
 9987SOL     OW30859   6.953   4.140   5.217
 9987SOL    HW130860   6.990   4.100   5.133
 9987SOL    HW230861   7.017   4.126   5.292
 9988SOL     OW30862   6.731   1.040   4.015
 9988SOL    HW130863   6.815   1.088   4.038
 9988SOL    HW230864   6.653   1.099   4.035
 9989SOL     OW30865   2.097   2.293   4.849
 9989SOL    HW130866   2.175   2.232   4.831
 9989SOL    HW230867   2.126   2.388   4.837
 9990SOL     OW30868   1.318   4.868   1.617
 9990SOL    HW130869   1.278   4.808   1.548
 9990SOL    HW230870   1.245   4.914   1.667
 9991SOL     OW30871   3.803   1.955   3.509
 9991SOL    HW130872   3.752   2.007   3.578
 9991SOL    HW230873   3.838   2.018   3.439
 9992SOL     OW30874   5.880   5.337   6.219
 9992SOL    HW130875   5.852   5.265   6.156
 9992SOL    HW230876   5.975   5.321   6.247
 9993SOL     OW30877   1.477   0.550   2.266
 9993SOL    HW130878   1.404   0.616   2.252
 9993SOL    HW230879   1.519   0.526   2.178
 9994SOL     OW30880   6.144   4.160   3.641
 9994SOL    HW130881   6.233   4.169   3.684
 9994SOL    HW230882   6.085   4.236   3.668
 9995SOL     OW30883   5.660   1.777   4.363
 9995SOL    HW130884   5.596   1.750   4.435
 9995SOL    HW230885   5.754   1.760   4.395
 9996SOL     OW30886   3.009   3.221   0.474
 9996SOL    HW130887   3.106   3.245   0.468
 9996SOL    HW230888   2.998   3.141   0.533
 9997SOL     OW30889   2.575   0.963   4.509
 9997SOL    HW130890   2.478   0.940   4.518
 9997SOL    HW230891   2.618   0.899   4.444
 9998SOL     OW30892   6.188   6.015   4.919
 9998SOL    HW130893   6.153   6.029   4.827
 9998SOL    HW230894   6.264   5.949   4.916
 9999SOL     OW30895   0.334   1.080   4.949
 9999SOL    HW130896   0.393   0.999   4.950
 9999SOL    HW230897   0.239   1.053   4.963
10000SOL     OW30898   6.610   4.855   1.003
10000SOL    HW130899   6.542   4.814   1.064
10000SOL    HW230900   6.631   4.791   0.929
10001SOL     OW30901   3.628   0.519   3.769
10001SOL    HW130902   3.648   0.519   3.671
10001SOL    HW230903   3.649   0.608   3.809
10002SOL     OW30904   0.795   2.037   1.394
10002SOL    HW130905   0.771   1.941   1.380
10002SOL    HW230906   0.863   2.064   1.325
10003SOL     OW30907   5.533   4.326   2.208
10003SOL    HW130908   5.569   4.260   2.141
10003SOL    HW230909   5.545   4.419   2.172
10004SOL     OW30910   6.603   4.005   4.028
10004SOL    HW130911   6.691   3.992   4.074
10004SOL    HW230912   6.609   3.971   3.935
10005SOL     OW30913   4.665   0.525   3.493
10005SOL    HW130914   4.679   0.464   3.572
10005SOL    HW230915   4.684   0.475   3.409
10006SOL     OW30916   4.876   2.573   4.315
10006SOL    HW130917   4.919   2.608   4.398
10006SOL    HW230918   4.873   2.474   4.318
10007SOL     OW30919   5.161   5.266   4.007
10007SOL    HW130920   5.094   5.256   3.933
10007SOL    HW230921   5.253   5.252   3.970
10008SOL     OW30922   2.739   6.806   4.025
10008SOL    HW130923   2.710   6.850   3.940
10008SOL    HW230924   2.686   6.723   4.041
10009SOL     OW30925   2.220   4.141   1.505
10009SOL    HW130926   2.132   4.113   1.543
10009SOL    HW230927   2.206   4.199   1.425
10010SOL     OW30928   5.602   0.799   6.361
10010SOL    HW130929   5.681   0.778   6.419
10010SOL    HW230930   5.608   0.744   6.277
10011SOL     OW30931   0.115   6.639   3.691
10011SOL    HW130932   0.041   6.659   3.626
10011SOL    HW230933   0.138   6.541   3.686
10012SOL     OW30934   4.897   1.090   5.312
10012SOL    HW130935   4.949   1.153   5.369
10012SOL    HW230936   4.868   1.011   5.366
10013SOL     OW30937   1.243   0.538   1.169
10013SOL    HW130938   1.284   0.496   1.250
10013SOL    HW230939   1.182   0.472   1.125
10014SOL     OW30940   1.450   4.803   5.766
10014SOL    HW130941   1.413   4.878   5.819
10014SOL    HW230942   1.450   4.827   5.669
10015SOL     OW30943   2.542   6.094   6.017
10015SOL    HW130944   2.456   6.102   5.967
10015SOL    HW230945   2.604   6.032   5.967
10016SOL     OW30946   2.312   1.296   5.521
10016SOL    HW130947   2.372   1.374   5.539
10016SOL    HW230948   2.248   1.285   5.597
10017SOL     OW30949   6.633   2.363   3.242
10017SOL    HW130950   6.627   2.447   3.295
10017SOL    HW230951   6.562   2.362   3.172
10018SOL     OW30952   4.677   6.657   6.368
10018SOL    HW130953   4.730   6.735   6.402
10018SOL    HW230954   4.676   6.660   6.268
10019SOL     OW30955   0.785   0.573   3.682
10019SOL    HW130956   0.707   0.608   3.733
10019SOL    HW230957   0.859   0.640   3.685
10020SOL     OW30958   0.911   3.863   0.207
10020SOL    HW130959   0.949   3.851   0.298
10020SOL    HW230960   0.834   3.927   0.211
10021SOL     OW30961   4.884   3.351   1.052
10021SOL    HW130962   4.893   3.341   0.953
10021SOL    HW230963   4.881   3.260   1.094
10022SOL     OW30964   2.215   1.114   6.218
10022SOL    HW130965   2.258   1.132   6.129
10022SOL    HW230966   2.215   1.015   6.234
10023SOL     OW30967   0.079   3.178   0.182
10023SOL    HW130968   0.148   3.163   0.113
10023SOL    HW230969   0.038   3.269   0.170
10024SOL     OW30970   1.124   3.824   2.647
10024SOL    HW130971   1.062   3.793   2.719
10024SOL    HW230972   1.121   3.923   2.641
10025SOL     OW30973   1.174   1.660   0.757
10025SOL    HW130974   1.197   1.607   0.676
10025SOL    HW230975   1.240   1.641   0.830
10026SOL     OW30976   6.073   0.718   4.466
10026SOL    HW130977   6.054   0.802   4.516
10026SOL    HW230978   6.006   0.708   4.392
10027SOL     OW30979   5.677   2.830   6.063
10027SOL    HW130980   5.584   2.820   6.099
10027SOL    HW230981   5.717   2.914   6.098
10028SOL     OW30982   1.798   1.733   1.494
10028SOL    HW130983   1.716   1.790   1.500
10028SOL    HW230984   1.866   1.766   1.558
10029SOL     OW30985   3.786   1.391   4.196
10029SOL    HW130986   3.764   1.422   4.104
10029SOL    HW230987   3.731   1.441   4.262
10030SOL     OW30988   0.443   1.005   2.046
10030SOL    HW130989   0.490   1.061   1.978
10030SOL    HW230990   0.503   0.992   2.125
10031SOL     OW30991   0.192   5.271   3.025
10031SOL    HW130992   0.219   5.195   3.083
10031SOL    HW230993   0.188   5.241   2.929
10032SOL     OW30994   3.546   2.112   5.095
10032SOL    HW130995   3.534   2.109   5.194
10032SOL    HW230996   3.629   2.164   5.073
10033SOL     OW30997   5.748   2.769   3.913
10033SOL    HW130998   5.714   2.708   3.842
10033SOL    HW230999   5.684   2.844   3.927
10034SOL     OW31000   3.944   6.492   5.932
10034SOL    HW131001   3.938   6.523   5.837
10034SOL    HW231002   3.953   6.571   5.992
10035SOL     OW31003   0.379   6.569   4.215
10035SOL    HW131004   0.361   6.560   4.313
10035SOL    HW231005   0.477   6.566   4.198
10036SOL     OW31006   6.047   0.364   0.307
10036SOL    HW131007   5.964   0.346   0.254
10036SOL    HW231008   6.070   0.461   0.302
10037SOL     OW31009   0.206   6.849   1.279
10037SOL    HW131010   0.299   6.862   1.245
10037SOL    HW231011   0.191   6.753   1.301
10038SOL     OW31012   6.181   6.933   1.058
10038SOL    HW131013   6.211   6.917   1.152
10038SOL    HW231014   6.084   6.913   1.050
10039SOL     OW31015   3.988   0.901   3.017
10039SOL    HW131016   4.030   0.992   3.020
10039SOL    HW231017   4.060   0.831   3.020
10040SOL     OW31018   0.939   1.963   0.453
10040SOL    HW131019   0.939   2.002   0.544
10040SOL    HW231020   0.851   1.980   0.409
10041SOL     OW31021   1.136   6.797   0.066
10041SOL    HW131022   1.154   6.728   0.136
10041SOL    HW231023   1.056   6.851   0.093
10042SOL     OW31024   6.517   2.006   3.636
10042SOL    HW131025   6.609   1.972   3.658
10042SOL    HW231026   6.517   2.106   3.639
10043SOL     OW31027   2.475   3.020   5.663
10043SOL    HW131028   2.382   3.009   5.698
10043SOL    HW231029   2.541   2.992   5.733
10044SOL     OW31030   4.160   0.833   6.841
10044SOL    HW131031   4.213   0.785   6.771
10044SOL    HW231032   4.080   0.778   6.866
10045SOL     OW31033   2.331   0.646   1.505
10045SOL    HW131034   2.306   0.568   1.449
10045SOL    HW231035   2.250   0.702   1.524
10046SOL     OW31036   0.808   5.879   6.612
10046SOL    HW131037   0.803   5.966   6.564
10046SOL    HW231038   0.815   5.895   6.710
10047SOL     OW31039   1.467   4.162   1.143
10047SOL    HW131040   1.546   4.125   1.190
10047SOL    HW231041   1.398   4.191   1.210
10048SOL     OW31042   6.338   3.458   0.964
10048SOL    HW131043   6.291   3.460   1.052
10048SOL    HW231044   6.272   3.434   0.892
10049SOL     OW31045   6.694   2.013   4.342
10049SOL    HW131046   6.787   2.048   4.346
10049SOL    HW231047   6.633   2.074   4.393
10050SOL     OW31048   0.167   2.239   6.087
10050SOL    HW131049   0.194   2.143   6.097
10050SOL    HW231050   0.248   2.296   6.081
10051SOL     OW31051   1.840   0.440   3.199
10051SOL    HW131052   1.782   0.396   3.268
10051SOL    HW231053   1.899   0.371   3.157
10052SOL     OW31054   1.045   6.905   4.319
10052SOL    HW131055   0.997   6.921   4.233
10052SOL    HW231056   1.139   6.876   4.300
10053SOL     OW31057   6.029   5.592   2.302
10053SOL    HW131058   6.086   5.563   2.379
10053SOL    HW231059   6.083   5.586   2.218
10054SOL     OW31060   5.144   4.166   3.379
10054SOL    HW131061   5.097   4.245   3.418
10054SOL    HW231062   5.230   4.150   3.428
10055SOL     OW31063   1.832   1.789   7.006
10055SOL    HW131064   1.797   1.712   6.953
10055SOL    HW231065   1.930   1.798   6.991
10056SOL     OW31066   5.014   2.541   4.706
10056SOL    HW131067   5.020   2.451   4.662
10056SOL    HW231068   4.921   2.576   4.698
10057SOL     OW31069   5.769   4.400   4.638
10057SOL    HW131070   5.738   4.492   4.662
10057SOL    HW231071   5.716   4.366   4.560
10058SOL     OW31072   6.341   4.037   3.991
10058SOL    HW131073   6.311   3.978   4.066
10058SOL    HW231074   6.439   4.053   3.998
10059SOL     OW31075   5.484   6.076   5.896
10059SOL    HW131076   5.444   6.114   5.980
10059SOL    HW231077   5.456   6.131   5.818
10060SOL     OW31078   3.079   1.473   1.751
10060SOL    HW131079   3.001   1.509   1.802
10060SOL    HW231080   3.150   1.543   1.744
10061SOL     OW31081   4.074   6.895   3.468
10061SOL    HW131082   3.995   6.906   3.528
10061SOL    HW231083   4.073   6.967   3.398
10062SOL     OW31084   6.775   0.352   4.473
10062SOL    HW131085   6.700   0.339   4.408
10062SOL    HW231086   6.739   0.362   4.565
10063SOL     OW31087   4.138   2.205   3.271
10063SOL    HW131088   4.223   2.254   3.255
10063SOL    HW231089   4.122   2.197   3.370
10064SOL     OW31090   2.398   6.303   2.657
10064SOL    HW131091   2.404   6.248   2.574
10064SOL    HW231092   2.407   6.244   2.737
10065SOL     OW31093   6.386   2.069   1.447
10065SOL    HW131094   6.410   2.038   1.539
10065SOL    HW231095   6.379   1.989   1.387
10066SOL     OW31096   5.702   4.157   3.421
10066SOL    HW131097   5.733   4.169   3.327
10066SOL    HW231098   5.716   4.242   3.472
10067SOL     OW31099   5.459   3.204   5.001
10067SOL    HW131100   5.448   3.106   4.984
10067SOL    HW231101   5.509   3.246   4.925
10068SOL     OW31102   2.155   3.772   2.943
10068SOL    HW131103   2.113   3.683   2.924
10068SOL    HW231104   2.254   3.761   2.948
10069SOL     OW31105   2.974   5.351   1.544
10069SOL    HW131106   3.042   5.369   1.474
10069SOL    HW231107   3.012   5.287   1.611
10070SOL     OW31108   4.907   0.624   6.944
10070SOL    HW131109   4.841   0.669   7.005
10070SOL    HW231110   4.892   0.656   6.850
10071SOL     OW31111   5.342   1.162   5.043
10071SOL    HW131112   5.324   1.240   4.983
10071SOL    HW231113   5.413   1.186   5.109
10072SOL     OW31114   5.774   3.203   2.246
10072SOL    HW131115   5.818   3.119   2.217
10072SOL    HW231116   5.678   3.186   2.268
10073SOL     OW31117   5.699   5.917   5.171
10073SOL    HW131118   5.691   5.849   5.099
10073SOL    HW231119   5.663   5.880   5.257
10074SOL     OW31120   2.022   4.383   0.877
10074SOL    HW131121   1.953   4.312   0.893
10074SOL    HW231122   1.997   4.466   0.926
10075SOL     OW31123   0.837   3.281   1.190
10075SOL    HW131124   0.873   3.191   1.214
10075SOL    HW231125   0.784   3.274   1.105
10076SOL     OW31126   6.120   4.979   3.911
10076SOL    HW131127   6.027   4.951   3.886
10076SOL    HW231128   6.186   4.918   3.867
10077SOL     OW31129   4.118   3.632   6.821
10077SOL    HW131130   4.203   3.674   6.853
10077SOL    HW231131   4.130   3.596   6.729
10078SOL     OW31132   5.944   6.070   4.067
10078SOL    HW131133   5.860   6.025   4.039
10078SOL    HW231134   5.984   6.119   3.990
10079SOL     OW31135   6.062   4.927   2.993
10079SOL    HW131136   6.031   4.874   3.072
10079SOL    HW231137   6.159   4.950   3.004
10080SOL     OW31138   5.172   2.863   5.229
10080SOL    HW131139   5.136   2.807   5.154
10080SOL    HW231140   5.121   2.844   5.313
10081SOL     OW31141   1.538   5.113   0.939
10081SOL    HW131142   1.633   5.094   0.959
10081SOL    HW231143   1.531   5.200   0.889
10082SOL     OW31144   0.287   4.601   1.919
10082SOL    HW131145   0.217   4.535   1.945
10082SOL    HW231146   0.274   4.628   1.823
10083SOL     OW31147   3.387   6.074   3.014
10083SOL    HW131148   3.441   6.046   3.093
10083SOL    HW231149   3.298   6.109   3.045
10084SOL     OW31150   1.676   3.133   4.738
10084SOL    HW131151   1.776   3.133   4.740
10084SOL    HW231152   1.643   3.226   4.754
10085SOL     OW31153   3.559   6.821   1.894
10085SOL    HW131154   3.474   6.814   1.946
10085SOL    HW231155   3.627   6.869   1.950
10086SOL     OW31156   2.758   1.088   3.153
10086SOL    HW131157   2.678   1.146   3.136
10086SOL    HW231158   2.728   0.993   3.166
10087SOL     OW31159   1.568   5.531   6.067
10087SOL    HW131160   1.631   5.573   6.132
10087SOL    HW231161   1.484   5.586   6.062
10088SOL     OW31162   5.654   1.685   0.870
10088SOL    HW131163   5.697   1.630   0.942
10088SOL    HW231164   5.614   1.625   0.802
10089SOL     OW31165   3.617   6.671   3.008
10089SOL    HW131166   3.568   6.626   2.932
10089SOL    HW231167   3.574   6.759   3.026
10090SOL     OW31168   3.610   6.252   2.275
10090SOL    HW131169   3.616   6.227   2.371
10090SOL    HW231170   3.689   6.308   2.250
10091SOL     OW31171   5.175   5.896   3.010
10091SOL    HW131172   5.143   5.972   3.067
10091SOL    HW231173   5.270   5.913   2.983
10092SOL     OW31174   6.764   1.471   2.355
10092SOL    HW131175   6.853   1.429   2.371
10092SOL    HW231176   6.695   1.400   2.342
10093SOL     OW31177   4.708   4.219   6.220
10093SOL    HW131178   4.637   4.243   6.155
10093SOL    HW231179   4.757   4.302   6.248
10094SOL     OW31180   4.133   2.660   0.466
10094SOL    HW131181   4.204   2.663   0.395
10094SOL    HW231182   4.162   2.600   0.540
10095SOL     OW31183   4.325   2.677   5.341
10095SOL    HW131184   4.234   2.658   5.304
10095SOL    HW231185   4.341   2.776   5.339
10096SOL     OW31186   6.950   4.893   1.805
10096SOL    HW131187   7.003   4.973   1.835
10096SOL    HW231188   6.906   4.851   1.885
10097SOL     OW31189   0.913   0.869   1.433
10097SOL    HW131190   0.877   0.802   1.498
10097SOL    HW231191   0.983   0.825   1.376
10098SOL     OW31192   3.858   4.969   0.525
10098SOL    HW131193   3.855   5.060   0.565
10098SOL    HW231194   3.836   4.900   0.594
10099SOL     OW31195   6.643   6.298   3.338
10099SOL    HW131196   6.716   6.243   3.299
10099SOL    HW231197   6.680   6.356   3.411
10100SOL     OW31198   5.388   5.214   3.903
10100SOL    HW131199   5.461   5.258   3.956
10100SOL    HW231200   5.426   5.140   3.848
10101SOL     OW31201   6.954   2.262   6.190
10101SOL    HW131202   6.925   2.180   6.240
10101SOL    HW231203   0.028   2.252   6.162
10102SOL     OW31204   0.474   5.054   2.974
10102SOL    HW131205   0.539   5.059   3.051
10102SOL    HW231206   0.410   4.979   2.990
10103SOL     OW31207   0.224   0.604   6.918
10103SOL    HW131208   0.197   0.650   7.003
10103SOL    HW231209   0.160   0.529   6.899
10104SOL     OW31210   2.481   1.458   4.611
10104SOL    HW131211   2.438   1.503   4.533
10104SOL    HW231212   2.445   1.365   4.620
10105SOL     OW31213   3.497   1.660   3.914
10105SOL    HW131214   3.488   1.745   3.863
10105SOL    HW231215   3.426   1.656   3.984
10106SOL     OW31216   6.860   3.507   1.021
10106SOL    HW131217   6.871   3.603   0.996
10106SOL    HW231218   6.817   3.501   1.111
10107SOL     OW31219   4.550   5.288   5.380
10107SOL    HW131220   4.532   5.251   5.471
10107SOL    HW231221   4.646   5.317   5.374
10108SOL     OW31222   3.219   1.786   4.820
10108SOL    HW131223   3.138   1.801   4.763
10108SOL    HW231224   3.239   1.868   4.873
10109SOL     OW31225   1.034   3.127   0.632
10109SOL    HW131226   1.078   3.128   0.721
10109SOL    HW231227   1.063   3.046   0.581
10110SOL     OW31228   6.109   6.334   1.617
10110SOL    HW131229   6.152   6.309   1.531
10110SOL    HW231230   6.179   6.343   1.688
10111SOL     OW31231   6.312   2.190   2.073
10111SOL    HW131232   6.358   2.253   2.011
10111SOL    HW231233   6.247   2.134   2.021
10112SOL     OW31234   0.493   2.757   3.890
10112SOL    HW131235   0.510   2.662   3.915
10112SOL    HW231236   0.530   2.775   3.798
10113SOL     OW31237   6.954   0.017   6.263
10113SOL    HW131238   6.966   6.977   6.342
10113SOL    HW231239   6.875   7.009   6.210
10114SOL     OW31240   6.146   4.522   1.064
10114SOL    HW131241   6.048   4.520   1.082
10114SOL    HW231242   6.173   4.439   1.014
10115SOL     OW31243   3.171   1.733   6.688
10115SOL    HW131244   3.154   1.785   6.604
10115SOL    HW231245   3.224   1.651   6.665
10116SOL     OW31246   1.045   6.501   6.157
10116SOL    HW131247   0.969   6.502   6.221
10116SOL    HW231248   1.012   6.517   6.064
10117SOL     OW31249   0.914   4.247   1.329
10117SOL    HW131250   0.816   4.267   1.334
10117SOL    HW231251   0.957   4.310   1.265
10118SOL     OW31252   3.968   5.157   3.699
10118SOL    HW131253   3.937   5.062   3.701
10118SOL    HW231254   3.925   5.205   3.622
10119SOL     OW31255   5.596   5.983   6.936
10119SOL    HW131256   5.630   5.928   6.861
10119SOL    HW231257   5.669   6.041   6.971
10120SOL     OW31258   2.514   2.356   2.684
10120SOL    HW131259   2.464   2.415   2.620
10120SOL    HW231260   2.595   2.318   2.638
10121SOL     OW31261   6.573   6.001   2.037
10121SOL    HW131262   6.664   6.043   2.026
10121SOL    HW231263   6.521   6.052   2.106
10122SOL     OW31264   2.016   0.121   3.409
10122SOL    HW131265   2.034   0.023   3.400
10122SOL    HW231266   2.095   0.173   3.376
10123SOL     OW31267   6.251   6.818   6.560
10123SOL    HW131268   6.344   6.802   6.526
10123SOL    HW231269   6.195   6.736   6.544
10124SOL     OW31270   0.454   4.820   3.308
10124SOL    HW131271   0.490   4.907   3.274
10124SOL    HW231272   0.401   4.836   3.391
10125SOL     OW31273   1.928   2.716   3.980
10125SOL    HW131274   1.935   2.616   3.976
10125SOL    HW231275   1.917   2.744   4.076
10126SOL     OW31276   0.043   6.016   4.543
10126SOL    HW131277   0.060   5.931   4.494
10126SOL    HW231278   0.127   6.045   4.589
10127SOL     OW31279   2.582   0.844   4.888
10127SOL    HW131280   2.589   0.764   4.948
10127SOL    HW231281   2.532   0.820   4.805
10128SOL     OW31282   2.767   1.170   0.819
10128SOL    HW131283   2.754   1.078   0.782
10128SOL    HW231284   2.865   1.193   0.816
10129SOL     OW31285   6.473   1.602   5.683
10129SOL    HW131286   6.426   1.522   5.721
10129SOL    HW231287   6.561   1.573   5.644
10130SOL     OW31288   1.253   2.904   3.299
10130SOL    HW131289   1.192   2.878   3.224
10130SOL    HW231290   1.346   2.915   3.264
10131SOL     OW31291   2.739   0.821   5.184
10131SOL    HW131292   2.694   0.801   5.271
10131SOL    HW231293   2.797   0.902   5.195
10132SOL     OW31294   6.125   0.483   2.046
10132SOL    HW131295   6.070   0.531   1.977
10132SOL    HW231296   6.067   0.419   2.096
10133SOL     OW31297   4.822   5.801   1.634
10133SOL    HW131298   4.904   5.779   1.581
10133SOL    HW231299   4.741   5.766   1.588
10134SOL     OW31300   6.318   1.515   2.771
10134SOL    HW131301   6.280   1.442   2.714
10134SOL    HW231302   6.308   1.602   2.723
10135SOL     OW31303   6.534   6.968   3.192
10135SOL    HW131304   6.478   6.885   3.196
10135SOL    HW231305   6.624   6.950   3.232
10136SOL     OW31306   5.056   0.329   2.699
10136SOL    HW131307   4.992   0.318   2.624
10136SOL    HW231308   5.025   0.403   2.759
10137SOL     OW31309   6.095   6.008   2.684
10137SOL    HW131310   6.045   5.933   2.640
10137SOL    HW231311   6.192   5.999   2.663
10138SOL     OW31312   0.016   1.857   1.967
10138SOL    HW131313   0.045   1.892   2.056
10138SOL    HW231314   6.952   1.902   1.940
10139SOL     OW31315   4.093   2.532   1.195
10139SOL    HW131316   4.148   2.493   1.269
10139SOL    HW231317   4.098   2.632   1.199
10140SOL     OW31318   6.090   6.237   3.904
10140SOL    HW131319   6.046   6.325   3.886
10140SOL    HW231320   6.108   6.190   3.818
10141SOL     OW31321   0.934   1.966   4.773
10141SOL    HW131322   1.016   1.978   4.718
10141SOL    HW231323   0.937   2.027   4.852
10142SOL     OW31324   4.604   6.690   1.758
10142SOL    HW131325   4.548   6.666   1.837
10142SOL    HW231326   4.631   6.607   1.710
10143SOL     OW31327   6.993   3.433   0.154
10143SOL    HW131328   6.951   3.484   0.079
10143SOL    HW231329   0.037   3.493   0.201
10144SOL     OW31330   4.692   0.336   2.310
10144SOL    HW131331   4.674   0.416   2.254
10144SOL    HW231332   4.690   0.254   2.253
10145SOL     OW31333   6.495   0.642   5.329
10145SOL    HW131334   6.574   0.689   5.290
10145SOL    HW231335   6.411   0.686   5.297
10146SOL     OW31336   1.715   1.677   5.454
10146SOL    HW131337   1.661   1.638   5.379
10146SOL    HW231338   1.656   1.695   5.532
10147SOL     OW31339   3.728   4.705   0.358
10147SOL    HW131340   3.824   4.703   0.329
10147SOL    HW231341   3.677   4.769   0.300
10148SOL     OW31342   6.768   5.684   6.642
10148SOL    HW131343   6.731   5.633   6.719
10148SOL    HW231344   6.868   5.686   6.647
10149SOL     OW31345   3.812   3.042   4.364
10149SOL    HW131346   3.850   3.024   4.454
10149SOL    HW231347   3.733   3.102   4.373
10150SOL     OW31348   6.297   4.042   6.744
10150SOL    HW131349   6.375   4.050   6.681
10150SOL    HW231350   6.270   3.946   6.751
10151SOL     OW31351   0.406   0.204   0.075
10151SOL    HW131352   0.405   0.300   0.047
10151SOL    HW231353   0.391   0.146   7.016
10152SOL     OW31354   3.680   6.749   4.017
10152SOL    HW131355   3.734   6.833   4.014
10152SOL    HW231356   3.617   6.748   3.939
10153SOL     OW31357   4.691   4.164   0.987
10153SOL    HW131358   4.727   4.257   0.981
10153SOL    HW231359   4.683   4.126   0.895
10154SOL     OW31360   5.081   5.198   6.174
10154SOL    HW131361   5.013   5.215   6.102
10154SOL    HW231362   5.101   5.100   6.177
10155SOL     OW31363   4.703   2.494   5.196
10155SOL    HW131364   4.610   2.498   5.159
10155SOL    HW231365   4.767   2.473   5.123
10156SOL     OW31366   3.135   1.918   6.897
10156SOL    HW131367   3.177   1.876   6.978
10156SOL    HW231368   3.135   1.853   6.822
10157SOL     OW31369   0.016   6.081   2.376
10157SOL    HW131370   0.014   6.053   2.280
10157SOL    HW231371   6.955   6.134   2.397
10158SOL     OW31372   0.382   4.811   6.279
10158SOL    HW131373   0.389   4.881   6.350
10158SOL    HW231374   0.368   4.854   6.190
10159SOL     OW31375   3.967   3.160   1.707
10159SOL    HW131376   3.918   3.092   1.762
10159SOL    HW231377   4.044   3.195   1.760
10160SOL     OW31378   0.225   4.566   2.356
10160SOL    HW131379   0.127   4.578   2.370
10160SOL    HW231380   0.242   4.481   2.307
10161SOL     OW31381   6.589   2.333   0.463
10161SOL    HW131382   6.610   2.320   0.366
10161SOL    HW231383   6.491   2.318   0.478
10162SOL     OW31384   1.953   1.931   2.099
10162SOL    HW131385   1.859   1.940   2.132
10162SOL    HW231386   1.953   1.937   1.999
10163SOL     OW31387   3.766   5.387   5.133
10163SOL    HW131388   3.696   5.378   5.062
10163SOL    HW231389   3.825   5.306   5.132
10164SOL     OW31390   0.776   1.537   3.669
10164SOL    HW131391   0.871   1.568   3.672
10164SOL    HW231392   0.739   1.553   3.578
10165SOL     OW31393   2.120   3.190   3.576
10165SOL    HW131394   2.131   3.126   3.499
10165SOL    HW231395   2.142   3.282   3.545
10166SOL     OW31396   3.324   6.088   3.635
10166SOL    HW131397   3.297   6.011   3.693
10166SOL    HW231398   3.293   6.173   3.676
10167SOL     OW31399   3.755   1.334   0.267
10167SOL    HW131400   3.792   1.335   0.174
10167SOL    HW231401   3.781   1.248   0.312
10168SOL     OW31402   0.395   1.005   6.900
10168SOL    HW131403   0.451   0.950   6.961
10168SOL    HW231404   0.302   1.011   6.937
10169SOL     OW31405   4.563   4.988   2.841
10169SOL    HW131406   4.570   4.888   2.834
10169SOL    HW231407   4.527   5.024   2.755
10170SOL     OW31408   4.697   6.573   6.880
10170SOL    HW131409   4.746   6.618   6.804
10170SOL    HW231410   4.633   6.638   6.921
10171SOL     OW31411   1.729   4.478   2.924
10171SOL    HW131412   1.710   4.409   2.995
10171SOL    HW231413   1.828   4.488   2.913
10172SOL     OW31414   0.569   0.490   3.528
10172SOL    HW131415   0.616   0.532   3.606
10172SOL    HW231416   0.637   0.466   3.458
10173SOL     OW31417   4.365   2.388   4.587
10173SOL    HW131418   4.270   2.368   4.563
10173SOL    HW231419   4.406   2.443   4.515
10174SOL     OW31420   4.316   5.205   1.168
10174SOL    HW131421   4.287   5.190   1.262
10174SOL    HW231422   4.409   5.241   1.167
10175SOL     OW31423   6.820   6.844   4.252
10175SOL    HW131424   6.772   6.924   4.216
10175SOL    HW231425   6.915   6.868   4.272
10176SOL     OW31426   6.957   1.597   4.882
10176SOL    HW131427   6.888   1.649   4.933
10176SOL    HW231428   6.976   1.643   4.796
10177SOL     OW31429   3.107   0.850   5.120
10177SOL    HW131430   3.056   0.934   5.138
10177SOL    HW231431   3.136   0.848   5.025
10178SOL     OW31432   6.228   1.649   1.964
10178SOL    HW131433   6.291   1.620   1.892
10178SOL    HW231434   6.135   1.621   1.939
10179SOL     OW31435   0.119   6.023   1.037
10179SOL    HW131436   0.031   6.054   1.002
10179SOL    HW231437   0.128   5.924   1.023
10180SOL     OW31438   1.758   0.138   5.902
10180SOL    HW131439   1.674   0.121   5.851
10180SOL    HW231440   1.757   0.085   5.987
10181SOL     OW31441   0.541   3.825   2.032
10181SOL    HW131442   0.599   3.883   2.090
10181SOL    HW231443   0.592   3.742   2.006
10182SOL     OW31444   2.764   6.681   6.275
10182SOL    HW131445   2.705   6.683   6.194
10182SOL    HW231446   2.846   6.628   6.255
10183SOL     OW31447   3.981   6.084   6.526
10183SOL    HW131448   4.013   6.160   6.582
10183SOL    HW231449   3.918   6.027   6.580
10184SOL     OW31450   4.786   2.784   4.092
10184SOL    HW131451   4.820   2.715   4.156
10184SOL    HW231452   4.863   2.822   4.040
10185SOL     OW31453   2.969   4.537   1.664
10185SOL    HW131454   2.921   4.553   1.750
10185SOL    HW231455   2.913   4.477   1.606
10186SOL     OW31456   3.606   3.076   1.779
10186SOL    HW131457   3.627   3.160   1.729
10186SOL    HW231458   3.534   3.025   1.731
10187SOL     OW31459   1.295   3.092   5.259
10187SOL    HW131460   1.284   3.158   5.334
10187SOL    HW231461   1.348   3.014   5.291
10188SOL     OW31462   2.208   6.370   6.658
10188SOL    HW131463   2.236   6.378   6.754
10188SOL    HW231464   2.116   6.408   6.647
10189SOL     OW31465   2.363   1.851   5.273
10189SOL    HW131466   2.458   1.857   5.243
10189SOL    HW231467   2.335   1.939   5.312
10190SOL     OW31468   2.823   4.183   1.183
10190SOL    HW131469   2.738   4.156   1.138
10190SOL    HW231470   2.852   4.272   1.149
10191SOL     OW31471   6.087   0.577   0.015
10191SOL    HW131472   6.128   0.519   6.965
10191SOL    HW231473   6.157   0.633   0.057
10192SOL     OW31474   2.970   0.593   4.370
10192SOL    HW131475   2.965   0.678   4.423
10192SOL    HW231476   3.064   0.579   4.338
10193SOL     OW31477   3.674   3.751   3.679
10193SOL    HW131478   3.614   3.726   3.603
10193SOL    HW231479   3.702   3.669   3.728
10194SOL     OW31480   2.993   5.824   3.107
10194SOL    HW131481   2.894   5.813   3.114
10194SOL    HW231482   3.036   5.798   3.194
10195SOL     OW31483   5.319   0.003   2.403
10195SOL    HW131484   5.222   0.019   2.383
10195SOL    HW231485   5.374   0.069   2.352
10196SOL     OW31486   4.843   4.624   4.021
10196SOL    HW131487   4.861   4.589   3.930
10196SOL    HW231488   4.750   4.600   4.049
10197SOL     OW31489   5.772   1.833   2.670
10197SOL    HW131490   5.773   1.767   2.595
10197SOL    HW231491   5.750   1.786   2.756
10198SOL     OW31492   3.660   1.283   2.088
10198SOL    HW131493   3.574   1.239   2.116
10198SOL    HW231494   3.700   1.232   2.012
10199SOL     OW31495   1.379   1.938   0.114
10199SOL    HW131496   1.452   1.997   0.081
10199SOL    HW231497   1.417   1.870   0.176
10200SOL     OW31498   4.774   6.892   3.959
10200SOL    HW131499   4.777   6.858   3.865
10200SOL    HW231500   4.679   6.904   3.988
10201SOL     OW31501   0.608   5.355   3.199
10201SOL    HW131502   0.543   5.427   3.178
10201SOL    HW231503   0.672   5.387   3.269
10202SOL     OW31504   1.280   2.576   3.668
10202SOL    HW131505   1.367   2.607   3.707
10202SOL    HW231506   1.237   2.652   3.618
10203SOL     OW31507   6.167   2.583   1.195
10203SOL    HW131508   6.159   2.670   1.146
10203SOL    HW231509   6.130   2.593   1.287
10204SOL     OW31510   1.709   6.140   4.329
10204SOL    HW131511   1.699   6.092   4.242
10204SOL    HW231512   1.667   6.230   4.323
10205SOL     OW31513   3.734   6.856   0.988
10205SOL    HW131514   3.673   6.927   1.022
10205SOL    HW231515   3.794   6.826   1.062
10206SOL     OW31516   5.882   6.090   6.841
10206SOL    HW131517   5.919   6.030   6.770
10206SOL    HW231518   5.929   6.071   6.927
10207SOL     OW31519   3.560   1.523   1.980
10207SOL    HW131520   3.621   1.456   2.022
10207SOL    HW231521   3.536   1.493   1.887
10208SOL     OW31522   0.460   2.080   6.150
10208SOL    HW131523   0.503   2.054   6.236
10208SOL    HW231524   0.371   2.035   6.142
10209SOL     OW31525   4.130   6.325   0.392
10209SOL    HW131526   4.193   6.271   0.336
10209SOL    HW231527   4.057   6.362   0.335
10210SOL     OW31528   4.552   6.423   6.702
10210SOL    HW131529   4.464   6.464   6.726
10210SOL    HW231530   4.619   6.446   6.773
10211SOL     OW31531   4.042   5.091   4.631
10211SOL    HW131532   4.052   5.113   4.534
10211SOL    HW231533   4.113   5.027   4.659
10212SOL     OW31534   6.830   5.935   5.752
10212SOL    HW131535   6.915   5.899   5.714
10212SOL    HW231536   6.851   6.007   5.818
10213SOL     OW31537   3.709   6.968   4.540
10213SOL    HW131538   3.765   0.024   4.573
10213SOL    HW231539   3.629   6.958   4.599
10214SOL     OW31540   6.807   0.264   0.288
10214SOL    HW131541   6.739   0.217   0.345
10214SOL    HW231542   6.788   0.244   0.191
10215SOL     OW31543   4.821   2.543   0.312
10215SOL    HW131544   4.808   2.627   0.260
10215SOL    HW231545   4.771   2.469   0.268
10216SOL     OW31546   5.238   0.572   2.354
10216SOL    HW131547   5.164   0.638   2.366
10216SOL    HW231548   5.260   0.565   2.257
10217SOL     OW31549   2.919   1.901   6.592
10217SOL    HW131550   2.865   1.912   6.508
10217SOL    HW231551   3.017   1.904   6.569
10218SOL     OW31552   3.862   0.727   6.327
10218SOL    HW131553   3.922   0.757   6.253
10218SOL    HW231554   3.851   0.627   6.324
10219SOL     OW31555   0.301   5.279   1.070
10219SOL    HW131556   0.253   5.198   1.102
10219SOL    HW231557   0.349   5.322   1.147
10220SOL     OW31558   4.280   2.790   6.482
10220SOL    HW131559   4.183   2.768   6.475
10220SOL    HW231560   4.321   2.789   6.390
10221SOL     OW31561   1.982   0.133   5.209
10221SOL    HW131562   1.920   0.075   5.156
10221SOL    HW231563   1.992   0.221   5.164
10222SOL     OW31564   2.557   4.878   5.331
10222SOL    HW131565   2.579   4.797   5.276
10222SOL    HW231566   2.474   4.861   5.384
10223SOL     OW31567   2.332   5.665   5.999
10223SOL    HW131568   2.320   5.713   6.086
10223SOL    HW231569   2.373   5.576   6.015
10224SOL     OW31570   3.774   5.887   5.619
10224SOL    HW131571   3.817   5.921   5.703
10224SOL    HW231572   3.741   5.794   5.634
10225SOL     OW31573   4.974   0.160   4.842
10225SOL    HW131574   4.912   0.192   4.913
10225SOL    HW231575   5.064   0.142   4.882
10226SOL     OW31576   6.608   2.436   6.203
10226SOL    HW131577   6.591   2.450   6.106
10226SOL    HW231578   6.686   2.375   6.215
10227SOL     OW31579   4.493   4.835   5.216
10227SOL    HW131580   4.585   4.862   5.243
10227SOL    HW231581   4.442   4.916   5.187
10228SOL     OW31582   1.194   2.600   1.199
10228SOL    HW131583   1.227   2.695   1.201
10228SOL    HW231584   1.260   2.543   1.150
10229SOL     OW31585   2.832   0.508   1.754
10229SOL    HW131586   2.748   0.549   1.717
10229SOL    HW231587   2.875   0.571   1.818
10230SOL     OW31588   5.307   0.289   3.123
10230SOL    HW131589   5.323   0.388   3.118
10230SOL    HW231590   5.377   0.247   3.181
10231SOL     OW31591   4.976   6.748   4.760
10231SOL    HW131592   4.931   6.663   4.786
10231SOL    HW231593   4.909   6.821   4.752
10232SOL     OW31594   4.410   2.311   2.893
10232SOL    HW131595   4.460   2.396   2.877
10232SOL    HW231596   4.353   2.290   2.814
10233SOL     OW31597   5.366   6.687   5.400
10233SOL    HW131598   5.396   6.592   5.403
10233SOL    HW231599   5.294   6.701   5.467
10234SOL     OW31600   4.018   4.497   1.046
10234SOL    HW131601   4.065   4.532   1.127
10234SOL    HW231602   4.084   4.490   0.971
10235SOL     OW31603   5.206   0.259   6.919
10235SOL    HW131604   5.162   0.251   6.829
10235SOL    HW231605   5.139   0.238   6.991
10236SOL     OW31606   1.457   4.597   1.370
10236SOL    HW131607   1.522   4.657   1.322
10236SOL    HW231608   1.468   4.503   1.337
10237SOL     OW31609   5.982   2.464   2.882
10237SOL    HW131610   5.934   2.457   2.969
10237SOL    HW231611   5.927   2.518   2.818
10238SOL     OW31612   5.318   5.100   5.500
10238SOL    HW131613   5.313   5.036   5.423
10238SOL    HW231614   5.413   5.107   5.531
10239SOL     OW31615   5.521   3.851   4.203
10239SOL    HW131616   5.489   3.757   4.216
10239SOL    HW231617   5.499   3.881   4.110
10240SOL     OW31618   4.894   3.616   2.559
10240SOL    HW131619   4.882   3.523   2.525
10240SOL    HW231620   4.888   3.681   2.483
10241SOL     OW31621   1.429   2.596   2.462
10241SOL    HW131622   1.471   2.635   2.544
10241SOL    HW231623   1.406   2.500   2.479
10242SOL     OW31624   0.871   5.304   6.702
10242SOL    HW131625   0.771   5.314   6.701
10242SOL    HW231626   0.902   5.270   6.613
10243SOL     OW31627   6.970   5.491   3.830
10243SOL    HW131628   0.011   5.553   3.880
10243SOL    HW231629   6.879   5.497   3.870
10244SOL     OW31630   3.103   5.853   0.358
10244SOL    HW131631   3.055   5.874   0.273
10244SOL    HW231632   3.102   5.934   0.417
10245SOL     OW31633   3.892   4.084   1.277
10245SOL    HW131634   3.928   4.001   1.320
10245SOL    HW231635   3.792   4.083   1.282
10246SOL     OW31636   3.022   3.547   4.751
10246SOL    HW131637   2.970   3.633   4.756
10246SOL    HW231638   2.982   3.480   4.813
10247SOL     OW31639   1.285   5.290   6.488
10247SOL    HW131640   1.273   5.268   6.584
10247SOL    HW231641   1.301   5.388   6.477
10248SOL     OW31642   6.436   6.901   3.776
10248SOL    HW131643   6.504   6.943   3.716
10248SOL    HW231644   6.479   6.828   3.830
10249SOL     OW31645   4.676   1.436   5.813
10249SOL    HW131646   4.675   1.472   5.906
10249SOL    HW231647   4.582   1.412   5.787
10250SOL     OW31648   4.292   5.695   0.815
10250SOL    HW131649   4.208   5.746   0.832
10250SOL    HW231650   4.328   5.660   0.902
10251SOL     OW31651   3.817   4.555   1.224
10251SOL    HW131652   3.873   4.542   1.305
10251SOL    HW231653   3.862   4.515   1.144
10252SOL     OW31654   0.207   4.759   0.475
10252SOL    HW131655   0.125   4.791   0.427
10252SOL    HW231656   0.180   4.713   0.560
10253SOL     OW31657   5.327   4.253   0.247
10253SOL    HW131658   5.339   4.318   0.172
10253SOL    HW231659   5.387   4.279   0.323
10254SOL     OW31660   3.326   2.201   5.724
10254SOL    HW131661   3.243   2.145   5.715
10254SOL    HW231662   3.334   2.233   5.818
10255SOL     OW31663   3.039   4.891   4.017
10255SOL    HW131664   2.965   4.851   4.071
10255SOL    HW231665   3.014   4.985   3.992
10256SOL     OW31666   5.263   5.329   0.005
10256SOL    HW131667   5.328   5.379   0.062
10256SOL    HW231668   5.171   5.337   0.044
10257SOL     OW31669   1.679   4.103   4.903
10257SOL    HW131670   1.599   4.143   4.947
10257SOL    HW231671   1.721   4.171   4.842
10258SOL     OW31672   4.372   1.034   2.557
10258SOL    HW131673   4.379   0.962   2.488
10258SOL    HW231674   4.441   1.104   2.538
10259SOL     OW31675   5.529   3.593   3.902
10259SOL    HW131676   5.461   3.645   3.850
10259SOL    HW231677   5.484   3.545   3.977
10260SOL     OW31678   0.004   5.910   2.928
10260SOL    HW131679   0.062   5.987   2.902
10260SOL    HW231680   0.062   5.831   2.951
10261SOL     OW31681   2.118   0.269   2.330
10261SOL    HW131682   2.135   0.180   2.288
10261SOL    HW231683   2.024   0.273   2.364
10262SOL     OW31684   6.817   6.277   3.938
10262SOL    HW131685   6.826   6.370   3.904
10262SOL    HW231686   6.724   6.244   3.920
10263SOL     OW31687   6.772   3.873   5.156
10263SOL    HW131688   6.752   3.960   5.111
10263SOL    HW231689   6.690   3.815   5.155
10264SOL     OW31690   0.511   0.625   0.697
10264SOL    HW131691   0.538   0.604   0.603
10264SOL    HW231692   0.412   0.618   0.706
10265SOL     OW31693   5.287   2.246   4.726
10265SOL    HW131694   5.231   2.232   4.807
10265SOL    HW231695   5.384   2.240   4.751
10266SOL     OW31696   3.371   3.604   0.042
10266SOL    HW131697   3.297   3.649   7.014
10266SOL    HW231698   3.339   3.518   0.081
10267SOL     OW31699   0.027   0.825   6.296
10267SOL    HW131700   7.019   0.752   6.357
10267SOL    HW231701   6.998   0.817   6.209
10268SOL     OW31702   6.637   4.770   0.690
10268SOL    HW131703   6.609   4.863   0.668
10268SOL    HW231704   6.736   4.762   0.682
10269SOL     OW31705   4.708   1.805   5.963
10269SOL    HW131706   4.788   1.860   5.985
10269SOL    HW231707   4.629   1.864   5.946
10270SOL     OW31708   3.413   6.187   3.259
10270SOL    HW131709   3.334   6.168   3.317
10270SOL    HW231710   3.496   6.191   3.315
10271SOL     OW31711   1.779   4.366   1.140
10271SOL    HW131712   1.826   4.451   1.114
10271SOL    HW231713   1.684   4.385   1.162
10272SOL     OW31714   1.813   3.450   4.306
10272SOL    HW131715   1.817   3.398   4.220
10272SOL    HW231716   1.727   3.499   4.311
10273SOL     OW31717   4.696   6.918   3.613
10273SOL    HW131718   4.656   6.981   3.680
10273SOL    HW231719   4.626   6.853   3.583
10274SOL     OW31720   1.665   4.365   6.925
10274SOL    HW131721   1.567   4.361   6.906
10274SOL    HW231722   1.714   4.311   6.856
10275SOL     OW31723   0.158   5.747   1.797
10275SOL    HW131724   0.087   5.692   1.839
10275SOL    HW231725   0.192   5.701   1.715
10276SOL     OW31726   2.593   6.968   0.581
10276SOL    HW131727   2.517   6.904   0.568
10276SOL    HW231728   2.571   0.011   0.655
10277SOL     OW31729   6.630   5.590   2.023
10277SOL    HW131730   6.609   5.668   1.965
10277SOL    HW231731   6.722   5.556   2.001
10278SOL     OW31732   6.359   1.029   5.141
10278SOL    HW131733   6.395   1.040   5.049
10278SOL    HW231734   6.432   1.043   5.208
10279SOL     OW31735   4.096   6.393   4.039
10279SOL    HW131736   4.058   6.304   4.062
10279SOL    HW231737   4.021   6.458   4.022
10280SOL     OW31738   2.975   2.366   0.014
10280SOL    HW131739   2.886   2.403   7.009
10280SOL    HW231740   2.963   2.277   0.059
10281SOL     OW31741   4.439   1.135   4.411
10281SOL    HW131742   4.389   1.211   4.451
10281SOL    HW231743   4.531   1.132   4.450
10282SOL     OW31744   1.599   3.063   4.406
10282SOL    HW131745   1.596   2.963   4.407
10282SOL    HW231746   1.688   3.093   4.372
10283SOL     OW31747   1.442   5.503   6.587
10283SOL    HW131748   1.530   5.549   6.580
10283SOL    HW231749   1.456   5.404   6.589
10284SOL     OW31750   5.540   2.842   0.515
10284SOL    HW131751   5.464   2.786   0.549
10284SOL    HW231752   5.516   2.938   0.521
10285SOL     OW31753   4.719   1.521   0.483
10285SOL    HW131754   4.774   1.459   0.538
10285SOL    HW231755   4.759   1.529   0.392
10286SOL     OW31756   3.375   0.322   4.019
10286SOL    HW131757   3.384   0.225   4.043
10286SOL    HW231758   3.429   0.377   4.082
10287SOL     OW31759   2.134   3.840   2.146
10287SOL    HW131760   2.123   3.742   2.161
10287SOL    HW231761   2.073   3.890   2.206
10288SOL     OW31762   4.646   6.600   4.370
10288SOL    HW131763   4.665   6.517   4.422
10288SOL    HW231764   4.725   6.623   4.314
10289SOL     OW31765   2.592   1.604   2.072
10289SOL    HW131766   2.641   1.630   2.155
10289SOL    HW231767   2.620   1.665   1.997
10290SOL     OW31768   3.239   2.939   3.918
10290SOL    HW131769   3.264   2.883   3.998
10290SOL    HW231770   3.180   3.015   3.948
10291SOL     OW31771   4.152   0.063   3.889
10291SOL    HW131772   4.067   0.060   3.836
10291SOL    HW231773   4.131   0.076   3.986
10292SOL     OW31774   6.523   2.996   4.385
10292SOL    HW131775   6.519   2.942   4.301
10292SOL    HW231776   6.617   3.022   4.404
10293SOL     OW31777   1.610   4.551   3.177
10293SOL    HW131778   1.601   4.585   3.083
10293SOL    HW231779   1.706   4.554   3.204
10294SOL     OW31780   6.334   0.632   2.962
10294SOL    HW131781   6.385   0.604   2.880
10294SOL    HW231782   6.317   0.551   3.019
10295SOL     OW31783   1.714   4.267   3.098
10295SOL    HW131784   1.722   4.297   3.194
10295SOL    HW231785   1.621   4.237   3.080
10296SOL     OW31786   6.761   3.761   1.706
10296SOL    HW131787   6.756   3.856   1.738
10296SOL    HW231788   6.680   3.742   1.649
10297SOL     OW31789   3.550   4.486   5.594
10297SOL    HW131790   3.505   4.429   5.663
10297SOL    HW231791   3.581   4.571   5.637
10298SOL     OW31792   6.049   3.405   3.139
10298SOL    HW131793   6.008   3.455   3.063
10298SOL    HW231794   6.078   3.470   3.209
10299SOL     OW31795   4.229   5.422   2.479
10299SOL    HW131796   4.148   5.426   2.421
10299SOL    HW231797   4.219   5.348   2.545
10300SOL     OW31798   0.193   6.131   2.583
10300SOL    HW131799   0.133   6.079   2.523
10300SOL    HW231800   0.193   6.227   2.556
10301SOL     OW31801   4.431   0.883   1.892
10301SOL    HW131802   4.512   0.897   1.836
10301SOL    HW231803   4.401   0.970   1.931
10302SOL     OW31804   0.165   4.177   3.424
10302SOL    HW131805   0.264   4.168   3.433
10302SOL    HW231806   0.134   4.263   3.464
10303SOL     OW31807   4.838   3.736   1.424
10303SOL    HW131808   4.830   3.835   1.411
10303SOL    HW231809   4.905   3.717   1.496
10304SOL     OW31810   6.129   5.939   4.236
10304SOL    HW131811   6.202   6.006   4.249
10304SOL    HW231812   6.064   5.974   4.168
10305SOL     OW31813   2.123   4.807   1.329
10305SOL    HW131814   2.081   4.896   1.309
10305SOL    HW231815   2.219   4.809   1.303
10306SOL     OW31816   4.802   3.732   6.970
10306SOL    HW131817   4.794   3.763   0.044
10306SOL    HW231818   4.896   3.707   6.951
10307SOL     OW31819   3.151   2.239   6.156
10307SOL    HW131820   3.188   2.285   6.237
10307SOL    HW231821   3.090   2.165   6.185
10308SOL     OW31822   2.943   5.172   4.043
10308SOL    HW131823   3.026   5.221   4.017
10308SOL    HW231824   2.937   5.168   4.143
10309SOL     OW31825   7.000   6.282   3.611
10309SOL    HW131826   0.002   6.186   3.602
10309SOL    HW231827   0.037   6.324   3.681
10310SOL     OW31828   3.487   4.122   4.258
10310SOL    HW131829   3.575   4.135   4.303
10310SOL    HW231830   3.497   4.141   4.160
10311SOL     OW31831   1.262   6.855   0.703
10311SOL    HW131832   1.360   6.864   0.722
10311SOL    HW231833   1.243   6.764   0.665
10312SOL     OW31834   3.112   4.420   0.446
10312SOL    HW131835   3.133   4.461   0.358
10312SOL    HW231836   3.102   4.321   0.436
10313SOL     OW31837   6.501   5.532   3.662
10313SOL    HW131838   6.419   5.584   3.638
10313SOL    HW231839   6.573   5.595   3.690
10314SOL     OW31840   6.847   5.271   4.931
10314SOL    HW131841   6.751   5.267   4.958
10314SOL    HW231842   6.879   5.366   4.933
10315SOL     OW31843   4.351   5.560   5.591
10315SOL    HW131844   4.444   5.553   5.628
10315SOL    HW231845   4.286   5.520   5.656
10316SOL     OW31846   6.911   2.651   3.928
10316SOL    HW131847   6.926   2.643   4.027
10316SOL    HW231848   6.998   2.639   3.880
10317SOL     OW31849   6.010   4.306   5.854
10317SOL    HW131850   6.036   4.219   5.895
10317SOL    HW231851   6.060   4.380   5.899
10318SOL     OW31852   4.974   4.987   2.465
10318SOL    HW131853   5.039   5.003   2.539
10318SOL    HW231854   4.945   4.892   2.465
10319SOL     OW31855   5.639   6.718   3.339
10319SOL    HW131856   5.579   6.783   3.291
10319SOL    HW231857   5.597   6.693   3.427
10320SOL     OW31858   3.163   6.491   1.739
10320SOL    HW131859   3.095   6.553   1.778
10320SOL    HW231860   3.147   6.482   1.640
10321SOL     OW31861   4.475   6.371   4.996
10321SOL    HW131862   4.431   6.353   5.083
10321SOL    HW231863   4.418   6.434   4.943
10322SOL     OW31864   0.025   1.564   6.081
10322SOL    HW131865   0.088   1.637   6.107
10322SOL    HW231866   0.016   1.562   5.981
10323SOL     OW31867   0.425   1.987   5.232
10323SOL    HW131868   0.399   1.900   5.273
10323SOL    HW231869   0.443   1.974   5.134
10324SOL     OW31870   3.286   3.663   4.813
10324SOL    HW131871   3.358   3.635   4.749
10324SOL    HW231872   3.197   3.662   4.766
10325SOL     OW31873   0.757   3.049   3.920
10325SOL    HW131874   0.657   3.046   3.911
10325SOL    HW231875   0.782   3.119   3.987
10326SOL     OW31876   6.137   1.531   1.282
10326SOL    HW131877   6.134   1.475   1.365
10326SOL    HW231878   6.184   1.480   1.210
10327SOL     OW31879   5.942   1.886   3.841
10327SOL    HW131880   5.978   1.979   3.849
10327SOL    HW231881   5.846   1.889   3.815
10328SOL     OW31882   6.837   3.402   1.894
10328SOL    HW131883   6.846   3.317   1.844
10328SOL    HW231884   6.920   3.457   1.882
10329SOL     OW31885   2.741   5.649   2.604
10329SOL    HW131886   2.756   5.679   2.698
10329SOL    HW231887   2.825   5.663   2.551
10330SOL     OW31888   4.048   3.436   0.811
10330SOL    HW131889   4.066   3.357   0.870
10330SOL    HW231890   4.134   3.479   0.785
10331SOL     OW31891   5.103   1.877   4.460
10331SOL    HW131892   5.019   1.855   4.410
10331SOL    HW231893   5.114   1.811   4.535
10332SOL     OW31894   1.509   2.883   6.702
10332SOL    HW131895   1.436   2.932   6.750
10332SOL    HW231896   1.589   2.942   6.695
10333SOL     OW31897   0.041   4.473   5.531
10333SOL    HW131898   0.114   4.494   5.465
10333SOL    HW231899   0.057   4.383   5.571
10334SOL     OW31900   1.013   5.014   5.820
10334SOL    HW131901   0.924   5.047   5.788
10334SOL    HW231902   1.007   4.916   5.839
10335SOL     OW31903   2.794   4.942   2.457
10335SOL    HW131904   2.808   4.872   2.387
10335SOL    HW231905   2.699   4.971   2.458
10336SOL     OW31906   4.428   6.912   3.247
10336SOL    HW131907   4.504   6.974   3.229
10336SOL    HW231908   4.423   6.892   3.345
10337SOL     OW31909   1.437   3.548   5.920
10337SOL    HW131910   1.362   3.595   5.967
10337SOL    HW231911   1.524   3.580   5.956
10338SOL     OW31912   1.979   3.922   2.838
10338SOL    HW131913   2.052   3.859   2.865
10338SOL    HW231914   1.932   3.886   2.758
10339SOL     OW31915   3.200   6.221   6.729
10339SOL    HW131916   3.204   6.281   6.810
10339SOL    HW231917   3.216   6.127   6.757
10340SOL     OW31918   2.294   5.940   0.948
10340SOL    HW131919   2.254   5.987   0.869
10340SOL    HW231920   2.248   5.970   1.032
10341SOL     OW31921   6.765   2.892   1.419
10341SOL    HW131922   6.703   2.858   1.348
10341SOL    HW231923   6.854   2.911   1.379
10342SOL     OW31924   3.555   5.258   3.704
10342SOL    HW131925   3.457   5.237   3.699
10342SOL    HW231926   3.606   5.174   3.723
10343SOL     OW31927   2.790   2.322   4.407
10343SOL    HW131928   2.874   2.291   4.451
10343SOL    HW231929   2.721   2.343   4.476
10344SOL     OW31930   4.939   4.029   1.313
10344SOL    HW131931   4.982   4.119   1.324
10344SOL    HW231932   4.843   4.035   1.341
10345SOL     OW31933   2.896   1.738   6.277
10345SOL    HW131934   2.913   1.653   6.228
10345SOL    HW231935   2.982   1.775   6.311
10346SOL     OW31936   6.695   5.234   6.790
10346SOL    HW131937   6.613   5.208   6.739
10346SOL    HW231938   6.688   5.202   6.884
10347SOL     OW31939   3.830   6.965   2.477
10347SOL    HW131940   3.757   7.014   2.524
10347SOL    HW231941   3.895   6.929   2.545
10348SOL     OW31942   0.034   3.193   4.192
10348SOL    HW131943   0.016   3.107   4.239
10348SOL    HW231944   0.047   3.266   4.259
10349SOL     OW31945   6.303   1.996   0.141
10349SOL    HW131946   6.299   1.914   0.085
10349SOL    HW231947   6.211   2.035   0.150
10350SOL     OW31948   2.044   5.526   4.312
10350SOL    HW131949   2.006   5.440   4.277
10350SOL    HW231950   2.135   5.540   4.274
10351SOL     OW31951   3.824   5.648   5.185
10351SOL    HW131952   3.791   5.553   5.182
10351SOL    HW231953   3.889   5.657   5.260
10352SOL     OW31954   0.472   1.553   1.545
10352SOL    HW131955   0.433   1.464   1.568
10352SOL    HW231956   0.556   1.568   1.598
10353SOL     OW31957   5.325   2.783   3.314
10353SOL    HW131958   5.296   2.705   3.369
10353SOL    HW231959   5.316   2.760   3.217
10354SOL     OW31960   0.061   2.651   1.669
10354SOL    HW131961   0.056   2.616   1.576
10354SOL    HW231962   0.098   2.580   1.729
10355SOL     OW31963   6.413   1.890   0.498
10355SOL    HW131964   6.407   1.864   0.595
10355SOL    HW231965   6.455   1.816   0.446
10356SOL     OW31966   6.310   2.517   6.252
10356SOL    HW131967   6.320   2.557   6.343
10356SOL    HW231968   6.400   2.511   6.208
10357SOL     OW31969   0.139   6.562   6.679
10357SOL    HW131970   0.123   6.464   6.668
10357SOL    HW231971   0.149   6.583   6.776
10358SOL     OW31972   0.415   3.744   4.247
10358SOL    HW131973   0.425   3.668   4.183
10358SOL    HW231974   0.357   3.716   4.323
10359SOL     OW31975   0.921   2.797   2.178
10359SOL    HW131976   0.957   2.847   2.256
10359SOL    HW231977   0.978   2.717   2.160
10360SOL     OW31978   5.923   4.756   0.832
10360SOL    HW131979   5.904   4.726   0.925
10360SOL    HW231980   5.925   4.676   0.771
10361SOL     OW31981   5.673   2.029   3.770
10361SOL    HW131982   5.734   2.108   3.768
10361SOL    HW231983   5.601   2.040   3.702
10362SOL     OW31984   0.063   6.791   2.112
10362SOL    HW131985   0.128   6.824   2.043
10362SOL    HW231986   0.050   6.862   2.181
10363SOL     OW31987   5.420   5.004   6.442
10363SOL    HW131988   5.497   4.961   6.395
10363SOL    HW231989   5.425   4.984   6.540
10364SOL     OW31990   6.251   5.563   0.926
10364SOL    HW131991   6.337   5.564   0.976
10364SOL    HW231992   6.175   5.581   0.988
10365SOL     OW31993   6.162   6.104   6.506
10365SOL    HW131994   6.130   6.199   6.510
10365SOL    HW231995   6.243   6.093   6.563
10366SOL     OW31996   2.497   0.156   3.544
10366SOL    HW131997   2.516   0.070   3.592
10366SOL    HW231998   2.444   0.216   3.603
10367SOL     OW31999   4.038   6.132   2.474
10367SOL    HW132000   4.000   6.040   2.481
10367SOL    HW232001   4.021   6.168   2.382
10368SOL     OW32002   1.290   5.467   1.840
10368SOL    HW132003   1.230   5.399   1.882
10368SOL    HW232004   1.373   5.423   1.809
10369SOL     OW32005   2.655   0.875   5.484
10369SOL    HW132006   2.715   0.868   5.563
10369SOL    HW232007   2.591   0.951   5.497
10370SOL     OW32008   2.383   1.936   6.858
10370SOL    HW132009   2.388   2.034   6.839
10370SOL    HW232010   2.344   1.922   6.950
10371SOL     OW32011   3.811   5.542   2.672
10371SOL    HW132012   3.745   5.518   2.743
10371SOL    HW232013   3.903   5.542   2.711
10372SOL     OW32014   1.021   6.277   1.430
10372SOL    HW132015   0.936   6.253   1.383
10372SOL    HW232016   1.093   6.293   1.363
10373SOL     OW32017   6.756   0.561   5.602
10373SOL    HW132018   6.802   0.524   5.683
10373SOL    HW232019   6.765   0.497   5.526
10374SOL     OW32020   2.152   5.071   2.419
10374SOL    HW132021   2.204   5.147   2.458
10374SOL    HW232022   2.086   5.038   2.487
10375SOL     OW32023   2.647   5.694   6.530
10375SOL    HW132024   2.743   5.702   6.554
10375SOL    HW232025   2.633   5.725   6.436
10376SOL     OW32026   2.189   4.571   4.049
10376SOL    HW132027   2.238   4.559   3.963
10376SOL    HW232028   2.226   4.508   4.118
10377SOL     OW32029   3.025   1.068   3.870
10377SOL    HW132030   3.080   1.007   3.814
10377SOL    HW232031   3.084   1.138   3.911
10378SOL     OW32032   6.870   6.839   5.273
10378SOL    HW132033   6.819   6.780   5.212
10378SOL    HW232034   6.823   6.845   5.362
10379SOL     OW32035   1.115   5.309   3.238
10379SOL    HW132036   1.153   5.396   3.270
10379SOL    HW232037   1.036   5.326   3.179
10380SOL     OW32038   3.076   1.409   4.141
10380SOL    HW132039   3.062   1.328   4.198
10380SOL    HW232040   2.988   1.451   4.119
10381SOL     OW32041   2.558   6.887   3.614
10381SOL    HW132042   2.553   6.923   3.707
10381SOL    HW232043   2.637   6.827   3.605
10382SOL     OW32044   4.072   5.815   2.501
10382SOL    HW132045   4.087   5.841   2.597
10382SOL    HW232046   3.978   5.784   2.490
10383SOL     OW32047   0.502   6.773   0.063
10383SOL    HW132048   0.476   6.833   7.008
10383SOL    HW232049   0.492   6.822   0.149
10384SOL     OW32050   5.450   5.413   1.134
10384SOL    HW132051   5.536   5.365   1.152
10384SOL    HW232052   5.450   5.449   1.041
10385SOL     OW32053   3.698   4.225   6.268
10385SOL    HW132054   3.675   4.227   6.366
10385SOL    HW232055   3.738   4.136   6.245
10386SOL     OW32056   0.259   0.384   2.184
10386SOL    HW132057   0.285   0.291   2.160
10386SOL    HW232058   0.341   0.442   2.187
10387SOL     OW32059   5.586   1.217   1.973
10387SOL    HW132060   5.632   1.258   2.051
10387SOL    HW232061   5.582   1.118   1.984
10388SOL     OW32062   1.013   0.121   4.499
10388SOL    HW132063   1.031   0.037   4.448
10388SOL    HW232064   1.088   0.186   4.484
10389SOL     OW32065   0.445   3.843   0.788
10389SOL    HW132066   0.409   3.771   0.728
10389SOL    HW232067   0.428   3.932   0.747
10390SOL     OW32068   1.797   1.988   2.316
10390SOL    HW132069   1.703   2.023   2.311
10390SOL    HW232070   1.850   2.043   2.380
10391SOL     OW32071   6.434   0.216   3.168
10391SOL    HW132072   6.456   0.282   3.240
10391SOL    HW232073   6.463   0.125   3.196
10392SOL     OW32074   5.982   3.576   3.787
10392SOL    HW132075   5.926   3.614   3.861
10392SOL    HW232076   6.065   3.535   3.825
10393SOL     OW32077   1.791   2.395   1.537
10393SOL    HW132078   1.743   2.351   1.461
10393SOL    HW232079   1.808   2.329   1.609
10394SOL     OW32080   2.977   5.912   3.873
10394SOL    HW132081   3.049   5.890   3.938
10394SOL    HW232082   2.984   6.007   3.845
10395SOL     OW32083   0.379   1.307   1.598
10395SOL    HW132084   0.474   1.277   1.587
10395SOL    HW232085   0.328   1.289   1.514
10396SOL     OW32086   3.023   1.643   5.136
10396SOL    HW132087   3.078   1.608   5.060
10396SOL    HW232088   2.962   1.715   5.103
10397SOL     OW32089   5.036   1.806   3.997
10397SOL    HW132090   5.093   1.856   4.062
10397SOL    HW232091   5.044   1.708   4.016
10398SOL     OW32092   4.849   3.147   2.890
10398SOL    HW132093   4.864   3.237   2.848
10398SOL    HW232094   4.835   3.158   2.988
10399SOL     OW32095   1.015   3.310   1.920
10399SOL    HW132096   1.049   3.255   1.843
10399SOL    HW232097   0.953   3.254   1.975
10400SOL     OW32098   2.239   6.454   0.512
10400SOL    HW132099   2.208   6.424   0.422
10400SOL    HW232100   2.331   6.492   0.505
10401SOL     OW32101   6.696   0.943   5.266
10401SOL    HW132102   6.662   0.894   5.346
10401SOL    HW232103   6.650   1.031   5.259
10402SOL     OW32104   6.505   4.378   5.486
10402SOL    HW132105   6.596   4.338   5.489
10402SOL    HW232106   6.437   4.309   5.509
10403SOL     OW32107   3.541   0.021   1.061
10403SOL    HW132108   3.441   0.021   1.055
10403SOL    HW232109   3.574   0.113   1.082
10404SOL     OW32110   0.434   5.216   5.520
10404SOL    HW132111   0.381   5.259   5.446
10404SOL    HW232112   0.529   5.249   5.516
10405SOL     OW32113   0.389   1.262   6.809
10405SOL    HW132114   0.395   1.166   6.835
10405SOL    HW232115   0.471   1.289   6.760
10406SOL     OW32116   1.438   5.558   0.963
10406SOL    HW132117   1.370   5.583   1.031
10406SOL    HW232118   1.529   5.583   0.996
10407SOL     OW32119   1.980   5.427   0.051
10407SOL    HW132120   2.013   5.504   7.017
10407SOL    HW232121   2.056   5.387   0.101
10408SOL     OW32122   4.231   0.408   6.961
10408SOL    HW132123   4.215   0.444   0.032
10408SOL    HW232124   4.151   0.426   6.904
10409SOL     OW32125   6.791   3.985   0.289
10409SOL    HW132126   6.847   3.951   0.365
10409SOL    HW232127   6.732   3.912   0.256
10410SOL     OW32128   4.066   6.266   0.889
10410SOL    HW132129   4.145   6.229   0.937
10410SOL    HW232130   4.002   6.191   0.867
10411SOL     OW32131   1.291   4.996   4.310
10411SOL    HW132132   1.327   5.078   4.266
10411SOL    HW232133   1.275   5.014   4.407
10412SOL     OW32134   5.055   0.508   1.651
10412SOL    HW132135   5.053   0.430   1.588
10412SOL    HW232136   5.013   0.481   1.738
10413SOL     OW32137   6.175   3.326   1.673
10413SOL    HW132138   6.109   3.255   1.649
10413SOL    HW232139   6.264   3.283   1.692
10414SOL     OW32140   5.426   3.421   4.143
10414SOL    HW132141   5.340   3.383   4.111
10414SOL    HW232142   5.409   3.481   4.221
10415SOL     OW32143   0.798   0.491   6.900
10415SOL    HW132144   0.877   0.549   6.919
10415SOL    HW232145   0.788   0.424   6.974
10416SOL     OW32146   5.480   3.226   3.390
10416SOL    HW132147   5.425   3.302   3.354
10416SOL    HW232148   5.525   3.179   3.314
10417SOL     OW32149   1.777   4.048   2.182
10417SOL    HW132150   1.701   4.095   2.227
10417SOL    HW232151   1.846   4.024   2.250
10418SOL     OW32152   1.734   5.690   5.897
10418SOL    HW132153   1.815   5.633   5.912
10418SOL    HW232154   1.652   5.639   5.923
10419SOL     OW32155   1.358   0.426   6.485
10419SOL    HW132156   1.292   0.377   6.429
10419SOL    HW232157   1.310   0.488   6.547
10420SOL     OW32158   0.626   2.623   2.144
10420SOL    HW132159   0.714   2.626   2.191
10420SOL    HW232160   0.570   2.701   2.173
10421SOL     OW32161   0.878   1.851   2.678
10421SOL    HW132162   0.789   1.866   2.636
10421SOL    HW232163   0.932   1.936   2.672
10422SOL     OW32164   5.612   2.080   0.444
10422SOL    HW132165   5.644   1.988   0.422
10422SOL    HW232166   5.687   2.145   0.432
10423SOL     OW32167   4.654   5.683   2.932
10423SOL    HW132168   4.683   5.592   2.901
10423SOL    HW232169   4.713   5.752   2.890
10424SOL     OW32170   4.345   1.491   6.269
10424SOL    HW132171   4.316   1.438   6.190
10424SOL    HW232172   4.297   1.459   6.350
10425SOL     OW32173   1.803   6.605   1.846
10425SOL    HW132174   1.824   6.524   1.793
10425SOL    HW232175   1.712   6.638   1.822
10426SOL     OW32176   6.265   3.795   6.255
10426SOL    HW132177   6.274   3.716   6.194
10426SOL    HW232178   6.337   3.861   6.234
10427SOL     OW32179   4.738   1.146   1.241
10427SOL    HW132180   4.715   1.116   1.149
10427SOL    HW232181   4.683   1.226   1.265
10428SOL     OW32182   4.523   2.149   3.620
10428SOL    HW132183   4.483   2.119   3.534
10428SOL    HW232184   4.452   2.191   3.678
10429SOL     OW32185   5.477   5.581   2.637
10429SOL    HW132186   5.446   5.491   2.666
10429SOL    HW232187   5.439   5.651   2.698
10430SOL     OW32188   4.150   6.147   2.963
10430SOL    HW132189   4.088   6.188   3.031
10430SOL    HW232190   4.238   6.127   3.007
10431SOL     OW32191   2.791   1.844   5.671
10431SOL    HW132192   2.870   1.828   5.731
10431SOL    HW232193   2.784   1.769   5.605
10432SOL     OW32194   4.359   0.358   4.523
10432SOL    HW132195   4.336   0.340   4.428
10432SOL    HW232196   4.389   0.453   4.533
10433SOL     OW32197   2.520   6.027   1.687
10433SOL    HW132198   2.565   5.938   1.679
10433SOL    HW232199   2.459   6.026   1.767
10434SOL     OW32200   3.344   2.350   5.340
10434SOL    HW132201   3.399   2.266   5.334
10434SOL    HW232202   3.272   2.347   5.271
10435SOL     OW32203   5.537   5.405   5.985
10435SOL    HW132204   5.520   5.364   6.074
10435SOL    HW232205   5.526   5.336   5.913
10436SOL     OW32206   0.149   1.786   2.525
10436SOL    HW132207   0.082   1.738   2.468
10436SOL    HW232208   0.233   1.733   2.530
10437SOL     OW32209   0.858   3.240   0.105
10437SOL    HW132210   0.920   3.251   0.182
10437SOL    HW232211   0.807   3.155   0.114
10438SOL     OW32212   3.307   6.837   5.863
10438SOL    HW132213   3.239   6.892   5.814
10438SOL    HW232214   3.317   6.873   5.956
10439SOL     OW32215   3.628   0.154   5.557
10439SOL    HW132216   3.595   0.060   5.552
10439SOL    HW232217   3.659   0.173   5.650
10440SOL     OW32218   1.083   5.749   0.967
10440SOL    HW132219   1.022   5.764   1.045
10440SOL    HW232220   1.030   5.714   0.889
10441SOL     OW32221   4.038   6.575   1.199
10441SOL    HW132222   4.092   6.539   1.122
10441SOL    HW232223   4.018   6.501   1.263
10442SOL     OW32224   3.946   6.190   5.916
10442SOL    HW132225   3.956   6.195   6.016
10442SOL    HW232226   3.930   6.282   5.880
10443SOL     OW32227   6.452   2.751   5.186
10443SOL    HW132228   6.496   2.841   5.191
10443SOL    HW232229   6.371   2.757   5.128
10444SOL     OW32230   3.974   5.026   4.891
10444SOL    HW132231   3.987   5.070   4.802
10444SOL    HW232232   4.030   4.944   4.896
10445SOL     OW32233   6.375   6.327   2.041
10445SOL    HW132234   6.370   6.327   1.942
10445SOL    HW232235   6.457   6.375   2.071
10446SOL     OW32236   1.205   6.388   5.618
10446SOL    HW132237   1.130   6.379   5.683
10446SOL    HW232238   1.193   6.322   5.544
10447SOL     OW32239   5.079   2.061   6.978
10447SOL    HW132240   5.028   1.986   6.937
10447SOL    HW232241   5.131   2.027   0.035
10448SOL     OW32242   3.347   3.672   2.470
10448SOL    HW132243   3.318   3.723   2.551
10448SOL    HW232244   3.432   3.711   2.434
10449SOL     OW32245   1.304   5.245   4.718
10449SOL    HW132246   1.383   5.305   4.703
10449SOL    HW232247   1.220   5.297   4.705
10450SOL     OW32248   0.388   3.616   0.653
10450SOL    HW132249   0.385   3.554   0.732
10450SOL    HW232250   0.400   3.564   0.569
10451SOL     OW32251   2.388   4.331   2.281
10451SOL    HW132252   2.374   4.378   2.194
10451SOL    HW232253   2.360   4.235   2.272
10452SOL     OW32254   2.307   3.060   6.128
10452SOL    HW132255   2.316   3.106   6.040
10452SOL    HW232256   2.235   2.991   6.122
10453SOL     OW32257   5.307   0.868   1.809
10453SOL    HW132258   5.208   0.861   1.812
10453SOL    HW232259   5.334   0.933   1.737
10454SOL     OW32260   4.096   4.936   2.732
10454SOL    HW132261   4.087   4.887   2.645
10454SOL    HW232262   4.145   4.879   2.798
10455SOL     OW32263   1.176   4.842   3.252
10455SOL    HW132264   1.257   4.783   3.252
10455SOL    HW232265   1.100   4.794   3.207
10456SOL     OW32266   3.733   6.780   1.406
10456SOL    HW132267   3.661   6.729   1.359
10456SOL    HW232268   3.812   6.789   1.346
10457SOL     OW32269   3.752   2.939   4.658
10457SOL    HW132270   3.661   2.954   4.695
10457SOL    HW232271   3.745   2.892   4.569
10458SOL     OW32272   6.792   6.158   2.444
10458SOL    HW132273   6.762   6.069   2.479
10458SOL    HW232274   6.717   6.200   2.392
10459SOL     OW32275   0.101   5.231   1.283
10459SOL    HW132276   0.127   5.183   1.366
10459SOL    HW232277   0.081   5.165   1.211
10460SOL     OW32278   0.933   3.990   1.438
10460SOL    HW132279   0.892   3.907   1.400
10460SOL    HW232280   0.922   4.065   1.374
10461SOL     OW32281   3.651   0.309   6.457
10461SOL    HW132282   3.674   0.238   6.524
10461SOL    HW232283   3.594   0.378   6.502
10462SOL     OW32284   5.167   6.750   1.447
10462SOL    HW132285   5.163   6.702   1.535
10462SOL    HW232286   5.103   6.708   1.384
10463SOL     OW32287   4.306   3.126   0.490
10463SOL    HW132288   4.239   3.089   0.425
10463SOL    HW232289   4.279   3.220   0.515
10464SOL     OW32290   6.028   6.421   2.122
10464SOL    HW132291   5.929   6.432   2.131
10464SOL    HW232292   6.061   6.362   2.195
10465SOL     OW32293   0.157   5.153   5.101
10465SOL    HW132294   0.219   5.119   5.172
10465SOL    HW232295   0.166   5.097   5.019
10466SOL     OW32296   4.156   5.515   5.768
10466SOL    HW132297   4.061   5.547   5.764
10466SOL    HW232298   4.159   5.424   5.811
10467SOL     OW32299   4.036   1.461   4.383
10467SOL    HW132300   3.982   1.545   4.382
10467SOL    HW232301   3.994   1.395   4.446
10468SOL     OW32302   2.821   4.910   3.362
10468SOL    HW132303   2.876   4.868   3.434
10468SOL    HW232304   2.877   4.977   3.312
10469SOL     OW32305   1.267   4.717   6.057
10469SOL    HW132306   1.224   4.648   5.999
10469SOL    HW232307   1.283   4.800   6.003
10470SOL     OW32308   2.655   1.710   4.654
10470SOL    HW132309   2.672   1.612   4.643
10470SOL    HW232310   2.609   1.726   4.742
10471SOL     OW32311   4.668   4.074   6.897
10471SOL    HW132312   4.699   4.012   6.825
10471SOL    HW232313   4.588   4.124   6.865
10472SOL     OW32314   3.933   1.238   3.610
10472SOL    HW132315   3.845   1.281   3.591
10472SOL    HW232316   3.921   1.164   3.677
10473SOL     OW32317   5.030   4.606   6.319
10473SOL    HW132318   4.999   4.674   6.386
10473SOL    HW232319   5.118   4.634   6.282
10474SOL     OW32320   4.912   0.707   4.048
10474SOL    HW132321   4.902   0.698   3.949
10474SOL    HW232322   4.822   0.702   4.091
10475SOL     OW32323   3.914   6.594   1.499
10475SOL    HW132324   3.850   6.670   1.486
10475SOL    HW232325   4.007   6.624   1.476
10476SOL     OW32326   0.458   4.963   6.684
10476SOL    HW132327   0.451   4.893   6.755
10476SOL    HW232328   0.515   5.038   6.716
10477SOL     OW32329   4.755   4.588   5.398
10477SOL    HW132330   4.714   4.551   5.315
10477SOL    HW232331   4.724   4.683   5.411
10478SOL     OW32332   1.001   6.683   3.131
10478SOL    HW132333   0.980   6.623   3.209
10478SOL    HW232334   0.934   6.757   3.127
10479SOL     OW32335   0.758   3.917   2.683
10479SOL    HW132336   0.723   4.011   2.686
10479SOL    HW232337   0.756   3.878   2.775
10480SOL     OW32338   4.625   1.052   0.081
10480SOL    HW132339   4.611   0.956   0.056
10480SOL    HW232340   4.641   1.060   0.179
10481SOL     OW32341   3.180   1.813   3.729
10481SOL    HW132342   3.116   1.780   3.798
10481SOL    HW232343   3.273   1.807   3.765
10482SOL     OW32344   0.818   6.520   6.349
10482SOL    HW132345   0.752   6.447   6.329
10482SOL    HW232346   0.771   6.595   6.396
10483SOL     OW32347   0.841   6.102   1.003
10483SOL    HW132348   0.935   6.088   1.036
10483SOL    HW232349   0.843   6.159   0.921
10484SOL     OW32350   6.533   1.709   1.823
10484SOL    HW132351   6.590   1.717   1.905
10484SOL    HW232352   6.496   1.616   1.818
10485SOL     OW32353   3.704   4.149   4.424
10485SOL    HW132354   3.784   4.174   4.479
10485SOL    HW232355   3.621   4.159   4.480
10486SOL     OW32356   6.137   4.648   5.402
10486SOL    HW132357   6.060   4.710   5.417
10486SOL    HW232358   6.103   4.563   5.361
10487SOL     OW32359   5.488   3.857   2.808
10487SOL    HW132360   5.520   3.890   2.720
10487SOL    HW232361   5.513   3.760   2.819
10488SOL     OW32362   0.559   2.327   5.606
10488SOL    HW132363   0.528   2.234   5.584
10488SOL    HW232364   0.548   2.343   5.704
10489SOL     OW32365   6.006   4.770   2.759
10489SOL    HW132366   6.011   4.815   2.849
10489SOL    HW232367   6.022   4.838   2.687
10490SOL     OW32368   4.871   6.505   6.106
10490SOL    HW132369   4.939   6.472   6.041
10490SOL    HW232370   4.889   6.466   6.197
10491SOL     OW32371   2.365   1.754   5.675
10491SOL    HW132372   2.403   1.730   5.764
10491SOL    HW232373   2.402   1.842   5.645
10492SOL     OW32374   2.994   6.448   6.953
10492SOL    HW132375   3.049   6.531   6.939
10492SOL    HW232376   2.972   6.439   0.030
10493SOL     OW32377   3.731   6.158   0.511
10493SOL    HW132378   3.757   6.251   0.537
10493SOL    HW232379   3.660   6.162   0.440
10494SOL     OW32380   0.121   5.176   3.305
10494SOL    HW132381   0.059   5.243   3.345
10494SOL    HW232382   0.212   5.186   3.346
10495SOL     OW32383   6.553   6.137   7.006
10495SOL    HW132384   6.485   6.202   6.971
10495SOL    HW232385   6.550   6.136   0.085
10496SOL     OW32386   0.805   4.401   5.899
10496SOL    HW132387   0.878   4.343   5.935
10496SOL    HW232388   0.768   4.457   5.973
10497SOL     OW32389   4.023   6.389   6.995
10497SOL    HW132390   4.115   6.403   0.012
10497SOL    HW232391   4.022   6.305   6.941
10498SOL     OW32392   3.252   3.952   0.229
10498SOL    HW132393   3.348   3.927   0.211
10498SOL    HW232394   3.249   4.040   0.276
10499SOL     OW32395   4.283   4.772   3.322
10499SOL    HW132396   4.316   4.700   3.383
10499SOL    HW232397   4.334   4.770   3.236
10500SOL     OW32398   1.835   2.903   5.309
10500SOL    HW132399   1.867   2.890   5.215
10500SOL    HW232400   1.911   2.935   5.365
10501SOL     OW32401   3.772   4.842   3.168
10501SOL    HW132402   3.733   4.880   3.084
10501SOL    HW232403   3.700   4.798   3.221
10502SOL     OW32404   2.934   3.392   2.778
10502SOL    HW132405   3.033   3.383   2.790
10502SOL    HW232406   2.915   3.434   2.689
10503SOL     OW32407   6.686   6.791   0.857
10503SOL    HW132408   6.633   6.717   0.815
10503SOL    HW232409   6.624   6.854   0.904
10504SOL     OW32410   1.504   2.606   6.112
10504SOL    HW132411   1.408   2.610   6.137
10504SOL    HW232412   1.546   2.696   6.121
10505SOL     OW32413   5.633   6.588   1.674
10505SOL    HW132414   5.669   6.588   1.767
10505SOL    HW232415   5.574   6.668   1.661
10506SOL     OW32416   0.940   4.752   5.452
10506SOL    HW132417   0.900   4.735   5.542
10506SOL    HW232418   0.885   4.820   5.404
10507SOL     OW32419   1.789   6.262   5.983
10507SOL    HW132420   1.884   6.240   6.006
10507SOL    HW232421   1.746   6.308   6.061
10508SOL     OW32422   1.794   6.126   1.210
10508SOL    HW132423   1.770   6.219   1.182
10508SOL    HW232424   1.785   6.118   1.310
10509SOL     OW32425   4.905   3.477   1.934
10509SOL    HW132426   4.919   3.576   1.931
10509SOL    HW232427   4.910   3.440   1.841
10510SOL     OW32428   5.597   6.220   2.167
10510SOL    HW132429   5.562   6.216   2.261
10510SOL    HW232430   5.649   6.137   2.147
10511SOL     OW32431   4.205   1.747   0.883
10511SOL    HW132432   4.226   1.738   0.980
10511SOL    HW232433   4.270   1.809   0.840
10512SOL     OW32434   3.533   0.317   5.032
10512SOL    HW132435   3.534   0.374   5.114
10512SOL    HW232436   3.623   0.275   5.019
10513SOL     OW32437   3.618   3.783   0.685
10513SOL    HW132438   3.579   3.807   0.774
10513SOL    HW232439   3.559   3.717   0.639
10514SOL     OW32440   1.645   5.132   1.855
10514SOL    HW132441   1.565   5.146   1.797
10514SOL    HW232442   1.637   5.044   1.902
10515SOL     OW32443   2.154   3.805   5.007
10515SOL    HW132444   2.064   3.849   5.011
10515SOL    HW232445   2.224   3.868   5.039
10516SOL     OW32446   5.649   2.189   1.684
10516SOL    HW132447   5.744   2.186   1.652
10516SOL    HW232448   5.646   2.218   1.779
10517SOL     OW32449   6.912   2.212   2.382
10517SOL    HW132450   6.966   2.259   2.313
10517SOL    HW232451   6.970   2.146   2.431
10518SOL     OW32452   0.886   5.619   2.771
10518SOL    HW132453   0.957   5.576   2.827
10518SOL    HW232454   0.796   5.595   2.806
10519SOL     OW32455   1.963   6.903   0.520
10519SOL    HW132456   2.010   6.815   0.535
10519SOL    HW232457   1.994   6.942   0.433
10520SOL     OW32458   3.193   2.542   6.043
10520SOL    HW132459   3.121   2.610   6.043
10520SOL    HW232460   3.165   2.463   6.098
10521SOL     OW32461   6.089   2.018   2.482
10521SOL    HW132462   6.054   1.935   2.439
10521SOL    HW232463   6.065   2.017   2.580
10522SOL     OW32464   5.076   1.472   2.864
10522SOL    HW132465   4.998   1.490   2.924
10522SOL    HW232466   5.051   1.404   2.795
10523SOL     OW32467   0.407   4.078   1.503
10523SOL    HW132468   0.476   4.073   1.574
10523SOL    HW232469   0.341   4.004   1.515
10524SOL     OW32470   6.162   6.612   4.758
10524SOL    HW132471   6.159   6.628   4.659
10524SOL    HW232472   6.150   6.699   4.806
10525SOL     OW32473   4.990   2.232   3.187
10525SOL    HW132474   4.966   2.137   3.167
10525SOL    HW232475   4.931   2.293   3.135
10526SOL     OW32476   1.626   5.883   5.745
10526SOL    HW132477   1.693   5.818   5.780
10526SOL    HW232478   1.624   5.964   5.804
10527SOL     OW32479   0.365   6.241   5.979
10527SOL    HW132480   0.439   6.202   5.924
10527SOL    HW232481   0.400   6.313   6.038
10528SOL     OW32482   2.479   6.354   5.199
10528SOL    HW132483   2.464   6.401   5.112
10528SOL    HW232484   2.391   6.337   5.243
10529SOL     OW32485   6.926   4.984   6.733
10529SOL    HW132486   6.926   5.074   6.777
10529SOL    HW232487   6.932   4.996   6.633
10530SOL     OW32488   5.842   0.398   1.304
10530SOL    HW132489   5.832   0.354   1.215
10530SOL    HW232490   5.900   0.342   1.363
10531SOL     OW32491   3.286   1.086   6.450
10531SOL    HW132492   3.325   1.063   6.361
10531SOL    HW232493   3.347   1.149   6.498
10532SOL     OW32494   4.399   5.415   5.999
10532SOL    HW132495   4.310   5.459   6.016
10532SOL    HW232496   4.397   5.323   6.037
10533SOL     OW32497   4.580   6.645   3.620
10533SOL    HW132498   4.491   6.686   3.643
10533SOL    HW232499   4.574   6.605   3.529
10534SOL     OW32500   0.606   6.513   4.613
10534SOL    HW132501   0.642   6.456   4.539
10534SOL    HW232502   0.682   6.555   4.662
10535SOL     OW32503   4.174   1.508   2.328
10535SOL    HW132504   4.121   1.585   2.363
10535SOL    HW232505   4.196   1.446   2.404
10536SOL     OW32506   5.922   3.450   4.315
10536SOL    HW132507   5.907   3.527   4.377
10536SOL    HW232508   5.836   3.431   4.266
10537SOL     OW32509   3.367   1.242   2.845
10537SOL    HW132510   3.362   1.342   2.836
10537SOL    HW232511   3.446   1.208   2.795
10538SOL     OW32512   6.300   3.262   3.696
10538SOL    HW132513   6.314   3.229   3.603
10538SOL    HW232514   6.383   3.247   3.750
10539SOL     OW32515   6.773   0.241   1.712
10539SOL    HW132516   6.722   0.160   1.742
10539SOL    HW232517   6.830   0.217   1.633
10540SOL     OW32518   1.643   2.742   6.456
10540SOL    HW132519   1.635   2.643   6.446
10540SOL    HW232520   1.695   2.763   6.539
10541SOL     OW32521   3.967   2.439   6.200
10541SOL    HW132522   3.973   2.537   6.183
10541SOL    HW232523   4.037   2.412   6.267
10542SOL     OW32524   3.915   6.653   2.367
10542SOL    HW132525   3.846   6.696   2.425
10542SOL    HW232526   3.974   6.594   2.423
10543SOL     OW32527   1.107   2.844   4.554
10543SOL    HW132528   1.030   2.828   4.491
10543SOL    HW232529   1.172   2.768   4.547
10544SOL     OW32530   2.973   2.095   2.241
10544SOL    HW132531   2.989   2.129   2.334
10544SOL    HW232532   2.948   2.171   2.181
10545SOL     OW32533   1.257   3.323   1.258
10545SOL    HW132534   1.220   3.348   1.347
10545SOL    HW232535   1.199   3.360   1.186
10546SOL     OW32536   1.849   0.287   5.406
10546SOL    HW132537   1.825   0.228   5.484
10546SOL    HW232538   1.894   0.233   5.336
10547SOL     OW32539   3.336   5.619   6.604
10547SOL    HW132540   3.319   5.710   6.567
10547SOL    HW232541   3.366   5.627   6.699
10548SOL     OW32542   1.515   4.886   2.812
10548SOL    HW132543   1.458   4.881   2.894
10548SOL    HW232544   1.457   4.883   2.731
10549SOL     OW32545   6.870   1.051   2.716
10549SOL    HW132546   6.893   0.970   2.663
10549SOL    HW232547   6.771   1.051   2.735
10550SOL     OW32548   6.699   5.105   2.376
10550SOL    HW132549   6.712   5.005   2.372
10550SOL    HW232550   6.752   5.148   2.303
10551SOL     OW32551   5.155   0.231   4.401
10551SOL    HW132552   5.091   0.171   4.449
10551SOL    HW232553   5.221   0.269   4.466
10552SOL     OW32554   2.673   0.332   3.442
10552SOL    HW132555   2.651   0.397   3.369
10552SOL    HW232556   2.622   0.248   3.428
10553SOL     OW32557   5.552   5.661   1.361
10553SOL    HW132558   5.627   5.713   1.322
10553SOL    HW232559   5.496   5.623   1.288
10554SOL     OW32560   5.739   5.809   1.244
10554SOL    HW132561   5.717   5.907   1.251
10554SOL    HW232562   5.817   5.788   1.303
10555SOL     OW32563   3.346   3.236   2.065
10555SOL    HW132564   3.372   3.140   2.070
10555SOL    HW232565   3.421   3.294   2.097
10556SOL     OW32566   2.285   2.066   1.818
10556SOL    HW132567   2.329   2.009   1.887
10556SOL    HW232568   2.315   2.161   1.827
10557SOL     OW32569   0.578   4.111   2.939
10557SOL    HW132570   0.641   4.065   3.002
10557SOL    HW232571   0.538   4.190   2.985
10558SOL     OW32572   4.851   5.334   4.707
10558SOL    HW132573   4.885   5.244   4.679
10558SOL    HW232574   4.831   5.389   4.626
10559SOL     OW32575   3.601   5.811   1.247
10559SOL    HW132576   3.673   5.879   1.260
10559SOL    HW232577   3.543   5.807   1.329
10560SOL     OW32578   6.100   0.088   4.204
10560SOL    HW132579   6.051   0.033   4.136
10560SOL    HW232580   6.068   0.182   4.199
10561SOL     OW32581   0.787   5.741   5.239
10561SOL    HW132582   0.759   5.798   5.162
10561SOL    HW232583   0.753   5.648   5.226
10562SOL     OW32584   3.022   0.902   2.619
10562SOL    HW132585   3.036   0.990   2.666
10562SOL    HW232586   3.091   0.837   2.650
10563SOL     OW32587   1.427   5.607   2.151
10563SOL    HW132588   1.505   5.580   2.095
10563SOL    HW232589   1.394   5.529   2.203
10564SOL     OW32590   5.221   5.224   2.894
10564SOL    HW132591   5.137   5.233   2.948
10564SOL    HW232592   5.244   5.127   2.885
10565SOL     OW32593   6.689   1.050   4.483
10565SOL    HW132594   6.757   1.036   4.555
10565SOL    HW232595   6.734   1.089   4.402
10566SOL     OW32596   3.731   1.747   0.468
10566SOL    HW132597   3.754   1.778   0.560
10566SOL    HW232598   3.711   1.649   0.469
10567SOL     OW32599   3.282   1.452   6.608
10567SOL    HW132600   3.331   1.405   6.681
10567SOL    HW232601   3.317   1.421   6.519
10568SOL     OW32602   6.110   1.867   6.854
10568SOL    HW132603   6.019   1.883   6.893
10568SOL    HW232604   6.135   1.945   6.796
10569SOL     OW32605   3.760   0.511   1.381
10569SOL    HW132606   3.786   0.529   1.475
10569SOL    HW232607   3.717   0.593   1.342
10570SOL     OW32608   1.292   4.223   3.310
10570SOL    HW132609   1.267   4.305   3.362
10570SOL    HW232610   1.307   4.147   3.373
10571SOL     OW32611   0.357   4.007   4.781
10571SOL    HW132612   0.402   4.097   4.783
10571SOL    HW232613   0.270   4.012   4.829
10572SOL     OW32614   0.398   5.497   0.901
10572SOL    HW132615   0.379   5.435   0.978
10572SOL    HW232616   0.317   5.504   0.843
10573SOL     OW32617   5.727   2.475   3.452
10573SOL    HW132618   5.701   2.448   3.544
10573SOL    HW232619   5.827   2.483   3.446
10574SOL     OW32620   4.669   2.198   2.826
10574SOL    HW132621   4.589   2.152   2.865
10574SOL    HW232622   4.752   2.168   2.875
10575SOL     OW32623   5.064   0.075   2.403
10575SOL    HW132624   5.068   0.169   2.369
10575SOL    HW232625   4.974   0.036   2.383
10576SOL     OW32626   1.254   2.802   5.264
10576SOL    HW132627   1.220   2.841   5.350
10576SOL    HW232628   1.198   2.722   5.240
10577SOL     OW32629   4.492   4.396   6.431
10577SOL    HW132630   4.526   4.452   6.355
10577SOL    HW232631   4.460   4.308   6.395
10578SOL     OW32632   1.417   3.105   2.186
10578SOL    HW132633   1.458   3.113   2.277
10578SOL    HW232634   1.331   3.154   2.183
10579SOL     OW32635   0.207   3.570   0.312
10579SOL    HW132636   0.251   3.485   0.342
10579SOL    HW232637   0.275   3.642   0.304
10580SOL     OW32638   5.160   6.920   5.942
10580SOL    HW132639   5.152   7.005   5.891
10580SOL    HW232640   5.188   6.939   6.036
10581SOL     OW32641   4.203   0.700   2.376
10581SOL    HW132642   4.289   0.733   2.337
10581SOL    HW232643   4.211   0.603   2.397
10582SOL     OW32644   6.874   3.395   0.522
10582SOL    HW132645   6.921   3.320   0.568
10582SOL    HW232646   6.825   3.360   0.443
10583SOL     OW32647   3.985   2.055   5.959
10583SOL    HW132648   3.912   2.026   6.021
10583SOL    HW232649   3.983   1.997   5.877
10584SOL     OW32650   6.393   0.430   3.940
10584SOL    HW132651   6.410   0.331   3.944
10584SOL    HW232652   6.295   0.447   3.952
10585SOL     OW32653   1.512   1.122   5.029
10585SOL    HW132654   1.476   1.187   5.097
10585SOL    HW232655   1.460   1.037   5.033
10586SOL     OW32656   4.838   3.837   6.443
10586SOL    HW132657   4.899   3.905   6.403
10586SOL    HW232658   4.882   3.747   6.441
10587SOL     OW32659   2.212   5.264   5.468
10587SOL    HW132660   2.307   5.268   5.436
10587SOL    HW232661   2.205   5.195   5.540
10588SOL     OW32662   1.358   4.207   4.364
10588SOL    HW132663   1.288   4.274   4.384
10588SOL    HW232664   1.371   4.200   4.265
10589SOL     OW32665   5.938   0.830   3.333
10589SOL    HW132666   5.881   0.892   3.279
10589SOL    HW232667   5.978   0.761   3.272
10590SOL     OW32668   0.186   6.265   1.988
10590SOL    HW132669   0.127   6.190   2.017
10590SOL    HW232670   0.233   6.303   2.068
10591SOL     OW32671   6.658   4.553   2.388
10591SOL    HW132672   6.610   4.528   2.304
10591SOL    HW232673   6.639   4.485   2.459
10592SOL     OW32674   6.370   3.827   4.906
10592SOL    HW132675   6.363   3.926   4.904
10592SOL    HW232676   6.419   3.795   4.825
10593SOL     OW32677   3.841   5.648   3.181
10593SOL    HW132678   3.877   5.740   3.197
10593SOL    HW232679   3.781   5.622   3.257
10594SOL     OW32680   4.114   5.732   3.952
10594SOL    HW132681   4.141   5.828   3.957
10594SOL    HW232682   4.196   5.675   3.939
10595SOL     OW32683   5.811   5.517   0.250
10595SOL    HW132684   5.840   5.603   0.209
10595SOL    HW232685   5.748   5.470   0.189
10596SOL     OW32686   5.879   3.861   0.577
10596SOL    HW132687   5.894   3.766   0.550
10596SOL    HW232688   5.899   3.921   0.499
10597SOL     OW32689   0.931   6.519   5.117
10597SOL    HW132690   1.018   6.547   5.077
10597SOL    HW232691   0.938   6.425   5.151
10598SOL     OW32692   3.033   1.699   0.973
10598SOL    HW132693   3.129   1.678   0.955
10598SOL    HW232694   2.988   1.724   0.887
10599SOL     OW32695   0.561   1.842   0.617
10599SOL    HW132696   0.494   1.865   0.546
10599SOL    HW232697   0.520   1.857   0.707
10600SOL     OW32698   4.611   1.118   2.211
10600SOL    HW132699   4.649   1.181   2.143
10600SOL    HW232700   4.663   1.033   2.209
10601SOL     OW32701   1.970   1.998   5.249
10601SOL    HW132702   1.959   1.929   5.321
10601SOL    HW232703   2.000   2.084   5.291
10602SOL     OW32704   0.019   6.926   1.077
10602SOL    HW132705   6.969   6.981   1.121
10602SOL    HW232706   0.091   6.905   1.143
10603SOL     OW32707   5.407   0.491   2.557
10603SOL    HW132708   5.355   0.477   2.473
10603SOL    HW232709   5.431   0.403   2.597
10604SOL     OW32710   5.582   2.190   4.837
10604SOL    HW132711   5.646   2.120   4.804
10604SOL    HW232712   5.567   2.177   4.935
10605SOL     OW32713   4.596   1.931   1.199
10605SOL    HW132714   4.664   1.997   1.233
10605SOL    HW232715   4.620   1.902   1.107
10606SOL     OW32716   5.918   1.453   0.764
10606SOL    HW132717   5.991   1.422   0.705
10606SOL    HW232718   5.844   1.492   0.709
10607SOL     OW32719   2.264   5.225   1.438
10607SOL    HW132720   2.362   5.213   1.421
10607SOL    HW232721   2.243   5.200   1.532
10608SOL     OW32722   5.221   4.096   2.569
10608SOL    HW132723   5.196   4.053   2.656
10608SOL    HW232724   5.165   4.057   2.496
10609SOL     OW32725   5.668   6.419   6.928
10609SOL    HW132726   5.628   6.510   6.916
10609SOL    HW232727   5.613   6.366   6.993
10610SOL     OW32728   0.331   1.986   3.291
10610SOL    HW132729   0.288   1.899   3.316
10610SOL    HW232730   0.387   1.973   3.209
10611SOL     OW32731   4.160   5.488   6.176
10611SOL    HW132732   4.127   5.411   6.121
10611SOL    HW232733   4.246   5.464   6.219
10612SOL     OW32734   5.351   2.520   3.643
10612SOL    HW132735   5.289   2.469   3.703
10612SOL    HW232736   5.335   2.493   3.548
10613SOL     OW32737   5.569   5.061   5.607
10613SOL    HW132738   5.543   4.966   5.621
10613SOL    HW232739   5.650   5.066   5.548
10614SOL     OW32740   4.031   1.819   0.115
10614SOL    HW132741   4.037   1.751   0.188
10614SOL    HW232742   3.985   1.778   0.036
10615SOL     OW32743   3.049   2.267   5.914
10615SOL    HW132744   2.998   2.190   5.875
10615SOL    HW232745   3.065   2.250   6.012
10616SOL     OW32746   1.390   5.779   0.271
10616SOL    HW132747   1.485   5.747   0.270
10616SOL    HW232748   1.355   5.781   0.177
10617SOL     OW32749   2.297   3.322   0.074
10617SOL    HW132750   2.383   3.338   0.122
10617SOL    HW232751   2.315   3.276   7.008
10618SOL     OW32752   6.983   4.835   4.458
10618SOL    HW132753   7.016   4.823   4.552
10618SOL    HW232754   6.993   4.749   4.408
10619SOL     OW32755   1.096   2.449   0.886
10619SOL    HW132756   1.066   2.543   0.901
10619SOL    HW232757   1.189   2.449   0.850
10620SOL     OW32758   4.205   1.052   5.569
10620SOL    HW132759   4.300   1.082   5.558
10620SOL    HW232760   4.146   1.132   5.579
10621SOL     OW32761   0.704   5.017   4.645
10621SOL    HW132762   0.622   5.074   4.636
10621SOL    HW232763   0.687   4.927   4.605
10622SOL     OW32764   3.814   1.988   6.173
10622SOL    HW132765   3.851   1.952   6.259
10622SOL    HW232766   3.806   2.087   6.179
10623SOL     OW32767   5.012   4.689   5.322
10623SOL    HW132768   4.936   4.645   5.371
10623SOL    HW232769   5.077   4.619   5.292
10624SOL     OW32770   0.342   1.234   5.696
10624SOL    HW132771   0.432   1.269   5.670
10624SOL    HW232772   0.349   1.136   5.715
10625SOL     OW32773   5.706   5.545   6.772
10625SOL    HW132774   5.616   5.520   6.737
10625SOL    HW232775   5.731   5.636   6.740
10626SOL     OW32776   5.745   3.803   1.838
10626SOL    HW132777   5.720   3.800   1.935
10626SOL    HW232778   5.821   3.740   1.821
10627SOL     OW32779   5.025   4.849   5.109
10627SOL    HW132780   4.990   4.939   5.132
10627SOL    HW232781   5.043   4.797   5.192
10628SOL     OW32782   2.701   6.027   1.928
10628SOL    HW132783   2.659   5.989   1.845
10628SOL    HW232784   2.690   5.962   2.003
10629SOL     OW32785   4.508   5.856   4.251
10629SOL    HW132786   4.451   5.918   4.306
10629SOL    HW232787   4.496   5.876   4.154
10630SOL     OW32788   4.309   0.603   1.630
10630SOL    HW132789   4.246   0.544   1.581
10630SOL    HW232790   4.293   0.594   1.729
10631SOL     OW32791   3.783   6.469   2.211
10631SOL    HW132792   3.704   6.513   2.169
10631SOL    HW232793   3.827   6.532   2.275
10632SOL     OW32794   5.570   0.316   4.894
10632SOL    HW132795   5.530   0.404   4.871
10632SOL    HW232796   5.597   0.269   4.810
10633SOL     OW32797   3.017   3.366   0.228
10633SOL    HW132798   2.941   3.341   0.168
10633SOL    HW232799   3.001   3.328   0.319
10634SOL     OW32800   0.842   4.370   0.325
10634SOL    HW132801   0.910   4.394   0.256
10634SOL    HW232802   0.753   4.406   0.298
10635SOL     OW32803   3.017   4.365   6.803
10635SOL    HW132804   3.109   4.397   6.779
10635SOL    HW232805   3.012   4.266   6.791
10636SOL     OW32806   6.898   2.276   0.775
10636SOL    HW132807   6.934   2.215   0.703
10636SOL    HW232808   6.833   2.340   0.734
10637SOL     OW32809   1.592   0.184   5.573
10637SOL    HW132810   1.520   0.157   5.637
10637SOL    HW232811   1.633   0.270   5.604
10638SOL     OW32812   5.994   4.820   6.693
10638SOL    HW132813   6.091   4.797   6.702
10638SOL    HW232814   5.985   4.914   6.659
10639SOL     OW32815   6.695   5.538   6.873
10639SOL    HW132816   6.617   5.533   6.934
10639SOL    HW232817   6.711   5.449   6.831
10640SOL     OW32818   4.021   5.676   4.841
10640SOL    HW132819   4.071   5.591   4.821
10640SOL    HW232820   4.070   5.726   4.913
10641SOL     OW32821   1.175   1.275   3.964
10641SOL    HW132822   1.077   1.255   3.972
10641SOL    HW232823   1.189   1.374   3.963
10642SOL     OW32824   6.998   2.005   5.868
10642SOL    HW132825   6.935   2.077   5.839
10642SOL    HW232826   0.063   2.014   5.817
10643SOL     OW32827   3.064   5.404   4.842
10643SOL    HW132828   2.990   5.467   4.817
10643SOL    HW232829   3.024   5.318   4.876
10644SOL     OW32830   1.319   3.454   3.612
10644SOL    HW132831   1.245   3.397   3.646
10644SOL    HW232832   1.373   3.489   3.689
10645SOL     OW32833   1.918   3.473   3.736
10645SOL    HW132834   1.988   3.434   3.676
10645SOL    HW232835   1.828   3.461   3.694
10646SOL     OW32836   5.169   1.577   3.308
10646SOL    HW132837   5.085   1.600   3.357
10646SOL    HW232838   5.243   1.562   3.373
10647SOL     OW32839   4.393   5.704   4.823
10647SOL    HW132840   4.388   5.647   4.741
10647SOL    HW232841   4.444   5.655   4.894
10648SOL     OW32842   4.818   3.542   5.752
10648SOL    HW132843   4.744   3.572   5.692
10648SOL    HW232844   4.892   3.608   5.749
10649SOL     OW32845   5.887   3.216   3.238
10649SOL    HW132846   5.958   3.275   3.199
10649SOL    HW232847   5.911   3.120   3.222
10650SOL     OW32848   1.145   0.205   3.155
10650SOL    HW132849   1.113   0.250   3.072
10650SOL    HW232850   1.216   0.138   3.131
10651SOL     OW32851   2.270   5.996   5.340
10651SOL    HW132852   2.262   5.950   5.252
10651SOL    HW232853   2.196   5.968   5.401
10652SOL     OW32854   2.722   0.507   0.049
10652SOL    HW132855   2.822   0.510   0.042
10652SOL    HW232856   2.690   0.586   0.101
10653SOL     OW32857   5.864   6.222   4.694
10653SOL    HW132858   5.902   6.303   4.737
10653SOL    HW232859   5.927   6.145   4.707
10654SOL     OW32860   7.011   1.436   3.844
10654SOL    HW132861   6.995   1.457   3.747
10654SOL    HW232862   6.988   1.340   3.861
10655SOL     OW32863   6.170   4.860   0.063
10655SOL    HW132864   6.098   4.791   0.048
10655SOL    HW232865   6.219   4.839   0.148
10656SOL     OW32866   5.879   0.526   5.964
10656SOL    HW132867   5.868   0.597   5.895
10656SOL    HW232868   5.908   0.441   5.920
10657SOL     OW32869   4.187   6.910   5.221
10657SOL    HW132870   4.141   6.828   5.188
10657SOL    HW232871   4.286   6.894   5.223
10658SOL     OW32872   1.622   1.307   5.541
10658SOL    HW132873   1.590   1.373   5.473
10658SOL    HW232874   1.722   1.308   5.543
10659SOL     OW32875   0.643   5.555   6.533
10659SOL    HW132876   0.625   5.590   6.625
10659SOL    HW232877   0.560   5.514   6.496
10660SOL     OW32878   6.172   2.214   6.298
10660SOL    HW132879   6.193   2.309   6.319
10660SOL    HW232880   6.226   2.153   6.357
10661SOL     OW32881   3.262   5.496   5.587
10661SOL    HW132882   3.357   5.501   5.556
10661SOL    HW232883   3.260   5.504   5.687
10662SOL     OW32884   3.399   1.942   0.992
10662SOL    HW132885   3.398   1.970   1.088
10662SOL    HW232886   3.434   2.016   0.936
10663SOL     OW32887   6.553   3.234   3.803
10663SOL    HW132888   6.620   3.162   3.785
10663SOL    HW232889   6.553   3.255   3.901
10664SOL     OW32890   1.247   6.534   4.646
10664SOL    HW132891   1.267   6.459   4.584
10664SOL    HW232892   1.159   6.574   4.623
10665SOL     OW32893   4.257   3.390   0.565
10665SOL    HW132894   4.338   3.411   0.619
10665SOL    HW232895   4.232   3.469   0.509
10666SOL     OW32896   5.181   3.406   1.621
10666SOL    HW132897   5.276   3.418   1.649
10666SOL    HW232898   5.178   3.388   1.522
10667SOL     OW32899   5.599   2.459   4.461
10667SOL    HW132900   5.686   2.508   4.467
10667SOL    HW232901   5.525   2.524   4.443
10668SOL     OW32902   3.457   3.437   5.721
10668SOL    HW132903   3.508   3.352   5.732
10668SOL    HW232904   3.519   3.515   5.728
10669SOL     OW32905   6.459   2.865   1.678
10669SOL    HW132906   6.394   2.789   1.670
10669SOL    HW232907   6.511   2.874   1.594
10670SOL     OW32908   4.405   4.948   4.173
10670SOL    HW132909   4.356   4.881   4.227
10670SOL    HW232910   4.449   4.903   4.095
10671SOL     OW32911   1.940   3.150   4.801
10671SOL    HW132912   1.934   3.245   4.770
10671SOL    HW232913   2.034   3.129   4.829
10672SOL     OW32914   6.518   4.708   1.262
10672SOL    HW132915   6.527   4.648   1.342
10672SOL    HW232916   6.453   4.782   1.283
10673SOL     OW32917   3.078   1.058   1.847
10673SOL    HW132918   3.025   1.036   1.929
10673SOL    HW232919   3.156   1.116   1.871
10674SOL     OW32920   4.032   3.168   4.635
10674SOL    HW132921   4.117   3.140   4.591
10674SOL    HW232922   4.026   3.127   4.725
10675SOL     OW32923   3.281   6.580   5.754
10675SOL    HW132924   3.366   6.529   5.742
10675SOL    HW232925   3.298   6.662   5.810
10676SOL     OW32926   1.406   1.350   4.393
10676SOL    HW132927   1.373   1.287   4.324
10676SOL    HW232928   1.373   1.442   4.372
10677SOL     OW32929   7.016   1.544   6.879
10677SOL    HW132930   6.972   1.536   6.789
10677SOL    HW232931   0.094   1.546   6.868
10678SOL     OW32932   3.432   4.913   2.459
10678SOL    HW132933   3.336   4.895   2.480
10678SOL    HW232934   3.439   4.952   2.368
10679SOL     OW32935   5.335   3.684   0.287
10679SOL    HW132936   5.329   3.761   0.351
10679SOL    HW232937   5.310   3.716   0.195
10680SOL     OW32938   4.398   1.360   5.283
10680SOL    HW132939   4.391   1.415   5.200
10680SOL    HW232940   4.480   1.387   5.334
10681SOL     OW32941   2.874   3.487   5.260
10681SOL    HW132942   2.790   3.541   5.263
10681SOL    HW232943   2.903   3.476   5.164
10682SOL     OW32944   4.922   3.346   6.273
10682SOL    HW132945   4.881   3.377   6.188
10682SOL    HW232946   4.992   3.278   6.254
10683SOL     OW32947   1.890   0.656   3.490
10683SOL    HW132948   1.802   0.622   3.457
10683SOL    HW232949   1.905   0.748   3.455
10684SOL     OW32950   4.587   4.189   1.265
10684SOL    HW132951   4.629   4.269   1.308
10684SOL    HW232952   4.635   4.169   1.179
10685SOL     OW32953   0.909   0.622   2.601
10685SOL    HW132954   0.875   0.542   2.551
10685SOL    HW232955   1.006   0.635   2.581
10686SOL     OW32956   3.067   1.227   6.663
10686SOL    HW132957   3.149   1.283   6.662
10686SOL    HW232958   3.046   1.197   6.570
10687SOL     OW32959   0.474   2.803   3.201
10687SOL    HW132960   0.436   2.883   3.246
10687SOL    HW232961   0.565   2.784   3.237
10688SOL     OW32962   5.135   0.844   3.520
10688SOL    HW132963   5.109   0.883   3.609
10688SOL    HW232964   5.097   0.900   3.447
10689SOL     OW32965   1.661   1.348   2.829
10689SOL    HW132966   1.671   1.420   2.898
10689SOL    HW232967   1.567   1.347   2.796
10690SOL     OW32968   0.779   6.821   4.555
10690SOL    HW132969   0.795   6.918   4.573
10690SOL    HW232970   0.821   6.766   4.626
10691SOL     OW32971   3.392   6.596   1.654
10691SOL    HW132972   3.453   6.540   1.598
10691SOL    HW232973   3.305   6.549   1.667
10692SOL     OW32974   2.535   2.267   4.277
10692SOL    HW132975   2.470   2.333   4.317
10692SOL    HW232976   2.628   2.295   4.299
10693SOL     OW32977   1.384   4.200   0.484
10693SOL    HW132978   1.458   4.179   0.420
10693SOL    HW232979   1.296   4.190   0.437
10694SOL     OW32980   5.466   2.013   5.498
10694SOL    HW132981   5.454   1.970   5.588
10694SOL    HW232982   5.521   2.096   5.508
10695SOL     OW32983   4.955   4.539   1.380
10695SOL    HW132984   4.969   4.631   1.417
10695SOL    HW232985   5.022   4.476   1.419
10696SOL     OW32986   6.668   4.742   4.172
10696SOL    HW132987   6.608   4.682   4.120
10696SOL    HW232988   6.726   4.687   4.232
10697SOL     OW32989   2.521   5.026   4.568
10697SOL    HW132990   2.557   4.939   4.601
10697SOL    HW232991   2.594   5.077   4.522
10698SOL     OW32992   3.810   4.723   0.004
10698SOL    HW132993   3.904   4.690   7.018
10698SOL    HW232994   3.805   4.817   6.991
10699SOL     OW32995   4.000   3.848   1.407
10699SOL    HW132996   3.979   3.813   1.316
10699SOL    HW232997   4.035   3.773   1.464
10700SOL     OW32998   4.924   0.458   1.341
10700SOL    HW132999   4.934   0.551   1.378
10700SOL    HW233000   4.966   0.454   1.251
10701SOL     OW33001   3.265   6.255   6.255
10701SOL    HW133002   3.206   6.297   6.185
10701SOL    HW233003   3.291   6.163   6.225
10702SOL     OW33004   5.440   2.820   2.403
10702SOL    HW133005   5.390   2.771   2.474
10702SOL    HW233006   5.379   2.838   2.326
10703SOL     OW33007   0.783   1.886   5.556
10703SOL    HW133008   0.750   1.812   5.615
10703SOL    HW233009   0.774   1.859   5.460
10704SOL     OW33010   5.551   6.865   1.931
10704SOL    HW133011   5.485   6.840   2.001
10704SOL    HW233012   5.530   6.956   1.895
10705SOL     OW33013   4.680   3.231   1.442
10705SOL    HW133014   4.628   3.169   1.384
10705SOL    HW233015   4.697   3.316   1.392
10706SOL     OW33016   2.924   0.718   1.891
10706SOL    HW133017   2.978   0.766   1.960
10706SOL    HW233018   2.855   0.780   1.854
10707SOL     OW33019   4.188   6.605   3.431
10707SOL    HW133020   4.151   6.527   3.481
10707SOL    HW233021   4.156   6.690   3.473
10708SOL     OW33022   3.882   0.847   1.147
10708SOL    HW133023   3.932   0.764   1.122
10708SOL    HW233024   3.797   0.851   1.096
10709SOL     OW33025   5.790   4.102   2.691
10709SOL    HW133026   5.870   4.041   2.696
10709SOL    HW233027   5.755   4.117   2.783
10710SOL     OW33028   4.565   1.595   3.149
10710SOL    HW133029   4.552   1.638   3.059
10710SOL    HW233030   4.634   1.645   3.200
10711SOL     OW33031   2.739   6.617   3.345
10711SOL    HW133032   2.719   6.649   3.252
10711SOL    HW233033   2.829   6.651   3.373
10712SOL     OW33034   5.657   0.949   3.479
10712SOL    HW133035   5.617   1.006   3.407
10712SOL    HW233036   5.709   0.874   3.437
10713SOL     OW33037   1.110   3.668   1.197
10713SOL    HW133038   1.134   3.752   1.149
10713SOL    HW233039   1.135   3.676   1.293
10714SOL     OW33040   3.231   4.232   5.149
10714SOL    HW133041   3.168   4.286   5.205
10714SOL    HW233042   3.324   4.267   5.161
10715SOL     OW33043   5.692   0.912   1.922
10715SOL    HW133044   5.665   0.823   1.886
10715SOL    HW233045   5.700   0.907   2.022
10716SOL     OW33046   5.104   1.199   3.099
10716SOL    HW133047   5.017   1.238   3.129
10716SOL    HW233048   5.173   1.271   3.093
10717SOL     OW33049   3.445   2.556   0.846
10717SOL    HW133050   3.444   2.496   0.767
10717SOL    HW233051   3.362   2.543   0.900
10718SOL     OW33052   1.694   5.269   6.444
10718SOL    HW133053   1.650   5.282   6.355
10718SOL    HW233054   1.671   5.179   6.480
10719SOL     OW33055   0.310   5.019   5.293
10719SOL    HW133056   0.262   5.068   5.366
10719SOL    HW233057   0.313   4.922   5.315
10720SOL     OW33058   0.149   5.692   2.939
10720SOL    HW133059   0.123   5.695   3.035
10720SOL    HW233060   0.243   5.725   2.929
10721SOL     OW33061   5.072   2.491   5.933
10721SOL    HW133062   5.160   2.534   5.955
10721SOL    HW233063   5.083   2.391   5.932
10722SOL     OW33064   0.390   3.747   5.061
10722SOL    HW133065   0.380   3.709   4.969
10722SOL    HW233066   0.329   3.826   5.071
10723SOL     OW33067   5.763   6.190   0.573
10723SOL    HW133068   5.786   6.244   0.654
10723SOL    HW233069   5.811   6.103   0.576
10724SOL     OW33070   0.148   5.985   5.969
10724SOL    HW133071   0.192   6.073   5.984
10724SOL    HW233072   0.207   5.926   5.913
10725SOL     OW33073   2.376   6.494   6.296
10725SOL    HW133074   2.415   6.411   6.335
10725SOL    HW233075   2.413   6.509   6.204
10726SOL     OW33076   4.001   0.676   4.221
10726SOL    HW133077   4.025   0.773   4.212
10726SOL    HW233078   4.078   0.620   4.189
10727SOL     OW33079   2.290   6.455   6.898
10727SOL    HW133080   2.348   6.430   6.975
10727SOL    HW233081   2.206   6.496   6.932
10728SOL     OW33082   5.467   6.311   1.315
10728SOL    HW133083   5.561   6.279   1.302
10728SOL    HW233084   5.409   6.234   1.343
10729SOL     OW33085   6.300   2.145   0.566
10729SOL    HW133086   6.335   2.071   0.509
10729SOL    HW233087   6.302   2.117   0.662
10730SOL     OW33088   4.966   0.543   2.863
10730SOL    HW133089   4.932   0.591   2.782
10730SOL    HW233090   5.023   0.604   2.917
10731SOL     OW33091   3.436   6.750   1.036
10731SOL    HW133092   3.393   6.839   1.031
10731SOL    HW233093   3.534   6.759   1.017
10732SOL     OW33094   0.848   3.402   6.170
10732SOL    HW133095   0.764   3.430   6.216
10732SOL    HW233096   0.839   3.307   6.139
10733SOL     OW33097   5.547   0.502   0.340
10733SOL    HW133098   5.632   0.528   0.294
10733SOL    HW233099   5.477   0.484   0.271
10734SOL     OW33100   6.007   3.045   2.174
10734SOL    HW133101   6.000   3.119   2.107
10734SOL    HW233102   6.008   2.957   2.127
10735SOL     OW33103   0.647   5.623   3.173
10735SOL    HW133104   0.734   5.670   3.190
10735SOL    HW233105   0.648   5.583   3.081
10736SOL     OW33106   2.091   1.484   4.736
10736SOL    HW133107   2.184   1.477   4.770
10736SOL    HW233108   2.086   1.556   4.666
10737SOL     OW33109   6.464   2.149   6.937
10737SOL    HW133110   6.499   2.242   6.923
10737SOL    HW233111   6.539   2.089   6.964
10738SOL     OW33112   4.123   0.073   4.185
10738SOL    HW133113   4.153   7.001   4.206
10738SOL    HW233114   4.028   0.084   4.213
10739SOL     OW33115   2.370   2.011   2.177
10739SOL    HW133116   2.458   2.034   2.135
10739SOL    HW233117   2.299   2.008   2.106
10740SOL     OW33118   4.547   6.075   3.297
10740SOL    HW133119   4.554   5.993   3.354
10740SOL    HW233120   4.638   6.103   3.267
10741SOL     OW33121   2.606   0.504   3.247
10741SOL    HW133122   2.630   0.558   3.327
10741SOL    HW233123   2.510   0.521   3.223
10742SOL     OW33124   6.929   5.627   0.239
10742SOL    HW133125   6.977   5.654   0.322
10742SOL    HW233126   6.929   5.527   0.231
10743SOL     OW33127   2.602   1.775   4.970
10743SOL    HW133128   2.626   1.829   5.050
10743SOL    HW233129   2.635   1.681   4.982
10744SOL     OW33130   6.118   1.508   0.237
10744SOL    HW133131   6.066   1.568   0.297
10744SOL    HW233132   6.199   1.556   0.203
10745SOL     OW33133   0.202   5.530   6.059
10745SOL    HW133134   0.221   5.561   6.152
10745SOL    HW233135   0.118   5.476   6.058
10746SOL     OW33136   1.924   4.362   5.719
10746SOL    HW133137   1.918   4.462   5.718
10746SOL    HW233138   2.019   4.333   5.720
10747SOL     OW33139   3.055   2.184   4.733
10747SOL    HW133140   3.075   2.235   4.817
10747SOL    HW233141   2.989   2.112   4.754
10748SOL     OW33142   5.666   1.387   2.728
10748SOL    HW133143   5.707   1.425   2.810
10748SOL    HW233144   5.597   1.451   2.692
10749SOL     OW33145   3.186   6.839   0.352
10749SOL    HW133146   3.172   6.914   0.418
10749SOL    HW233147   3.241   6.767   0.395
10750SOL     OW33148   4.369   6.537   5.777
10750SOL    HW133149   4.310   6.484   5.837
10750SOL    HW233150   4.339   6.633   5.777
10751SOL     OW33151   2.655   5.298   3.400
10751SOL    HW133152   2.673   5.214   3.452
10751SOL    HW233153   2.570   5.287   3.348
10752SOL     OW33154   5.165   4.948   3.935
10752SOL    HW133155   5.142   4.883   4.007
10752SOL    HW233156   5.261   4.938   3.910
10753SOL     OW33157   5.818   4.122   4.321
10753SOL    HW133158   5.818   4.064   4.402
10753SOL    HW233159   5.912   4.149   4.299
10754SOL     OW33160   1.281   6.845   2.742
10754SOL    HW133161   1.211   6.869   2.675
10754SOL    HW233162   1.372   6.852   2.699
10755SOL     OW33163   6.285   5.447   1.636
10755SOL    HW133164   6.278   5.466   1.734
10755SOL    HW233165   6.362   5.385   1.619
10756SOL     OW33166   0.678   0.588   5.083
10756SOL    HW133167   0.593   0.540   5.108
10756SOL    HW233168   0.706   0.647   5.158
10757SOL     OW33169   3.152   3.139   1.810
10757SOL    HW133170   3.221   3.197   1.852
10757SOL    HW233171   3.062   3.160   1.849
10758SOL     OW33172   0.344   5.085   4.076
10758SOL    HW133173   0.265   5.025   4.061
10758SOL    HW233174   0.391   5.058   4.161
10759SOL     OW33175   6.830   0.911   6.974
10759SOL    HW133176   6.740   0.953   6.969
10759SOL    HW233177   6.839   0.860   0.039
10760SOL     OW33178   5.908   1.674   4.673
10760SOL    HW133179   5.937   1.692   4.579
10760SOL    HW233180   5.986   1.643   4.727
10761SOL     OW33181   2.988   4.978   5.702
10761SOL    HW133182   2.914   4.928   5.746
10761SOL    HW233183   2.952   5.063   5.664
10762SOL     OW33184   3.364   1.391   6.349
10762SOL    HW133185   3.391   1.320   6.284
10762SOL    HW233186   3.379   1.481   6.309
10763SOL     OW33187   4.717   6.024   4.007
10763SOL    HW133188   4.621   5.997   3.999
10763SOL    HW233189   4.722   6.114   4.051
10764SOL     OW33190   4.390   0.146   4.903
10764SOL    HW133191   4.292   0.135   4.887
10764SOL    HW233192   4.438   0.145   4.816
10765SOL     OW33193   6.612   3.644   6.741
10765SOL    HW133194   6.606   3.737   6.705
10765SOL    HW233195   6.537   3.627   6.805
10766SOL     OW33196   3.410   3.401   1.749
10766SOL    HW133197   3.367   3.369   1.664
10766SOL    HW233198   3.502   3.433   1.729
10767SOL     OW33199   4.409   2.063   2.522
10767SOL    HW133200   4.322   2.038   2.479
10767SOL    HW233201   4.485   2.028   2.466
10768SOL     OW33202   5.937   4.742   6.031
10768SOL    HW133203   5.978   4.788   6.109
10768SOL    HW233204   5.839   4.762   6.028
10769SOL     OW33205   1.849   3.631   5.258
10769SOL    HW133206   1.876   3.535   5.254
10769SOL    HW233207   1.787   3.652   5.182
10770SOL     OW33208   4.187   5.371   4.055
10770SOL    HW133209   4.173   5.293   3.993
10770SOL    HW233210   4.098   5.410   4.080
10771SOL     OW33211   2.404   1.816   4.236
10771SOL    HW133212   2.468   1.885   4.202
10771SOL    HW233213   2.318   1.821   4.184
10772SOL     OW33214   5.372   5.946   3.853
10772SOL    HW133215   5.336   5.871   3.798
10772SOL    HW233216   5.373   6.030   3.798
10773SOL     OW33217   5.577   5.022   2.850
10773SOL    HW133218   5.595   5.043   2.946
10773SOL    HW233219   5.649   4.962   2.815
10774SOL     OW33220   0.187   6.653   3.330
10774SOL    HW133221   0.181   6.753   3.337
10774SOL    HW233222   0.284   6.627   3.324
10775SOL     OW33223   0.462   3.562   1.145
10775SOL    HW133224   0.480   3.465   1.134
10775SOL    HW233225   0.470   3.588   1.241
10776SOL     OW33226   1.481   0.121   5.806
10776SOL    HW133227   1.430   0.044   5.768
10776SOL    HW233228   1.421   0.175   5.865
10777SOL     OW33229   2.350   5.459   1.601
10777SOL    HW133230   2.326   5.365   1.574
10777SOL    HW233231   2.272   5.502   1.646
10778SOL     OW33232   6.126   5.915   2.129
10778SOL    HW133233   6.165   5.906   2.037
10778SOL    HW233234   6.040   5.863   2.134
10779SOL     OW33235   4.781   2.936   3.507
10779SOL    HW133236   4.823   2.980   3.427
10779SOL    HW233237   4.754   2.843   3.484
10780SOL     OW33238   6.813   0.569   1.832
10780SOL    HW133239   6.905   0.530   1.827
10780SOL    HW233240   6.748   0.506   1.790
10781SOL     OW33241   3.335   0.051   4.436
10781SOL    HW133242   3.404   0.049   4.363
10781SOL    HW233243   3.349   6.994   4.497
10782SOL     OW33244   6.486   5.101   3.578
10782SOL    HW133245   6.425   5.030   3.612
10782SOL    HW233246   6.548   5.129   3.652
10783SOL     OW33247   6.713   2.761   3.031
10783SOL    HW133248   6.663   2.847   3.043
10783SOL    HW233249   6.665   2.704   2.964
10784SOL     OW33250   2.322   1.768   4.697
10784SOL    HW133251   2.350   1.676   4.725
10784SOL    HW233252   2.240   1.794   4.748
10785SOL     OW33253   1.041   2.756   6.287
10785SOL    HW133254   0.994   2.818   6.350
10785SOL    HW233255   1.135   2.788   6.274
10786SOL     OW33256   6.519   3.852   4.317
10786SOL    HW133257   6.539   3.950   4.323
10786SOL    HW233258   6.480   3.831   4.228
10787SOL     OW33259   2.319   1.987   6.276
10787SOL    HW133260   2.350   1.960   6.367
10787SOL    HW233261   2.324   2.086   6.266
10788SOL     OW33262   5.482   3.354   6.033
10788SOL    HW133263   5.529   3.376   5.947
10788SOL    HW233264   5.550   3.333   6.103
10789SOL     OW33265   4.808   1.266   0.051
10789SOL    HW133266   4.822   1.293   6.977
10789SOL    HW233267   4.754   1.182   0.055
10790SOL     OW33268   5.870   6.162   2.894
10790SOL    HW133269   5.839   6.067   2.885
10790SOL    HW233270   5.794   6.219   2.926
10791SOL     OW33271   0.947   6.428   2.550
10791SOL    HW133272   0.850   6.453   2.552
10791SOL    HW233273   0.989   6.465   2.467
10792SOL     OW33274   3.770   4.869   6.145
10792SOL    HW133275   3.819   4.800   6.197
10792SOL    HW233276   3.761   4.952   6.200
10793SOL     OW33277   5.750   3.864   4.436
10793SOL    HW133278   5.661   3.908   4.444
10793SOL    HW233279   5.748   3.776   4.483
10794SOL     OW33280   3.184   3.403   4.536
10794SOL    HW133281   3.139   3.475   4.589
10794SOL    HW233282   3.228   3.443   4.456
10795SOL     OW33283   0.266   5.216   2.748
10795SOL    HW133284   0.205   5.255   2.679
10795SOL    HW233285   0.288   5.121   2.723
10796SOL     OW33286   0.909   6.305   5.500
10796SOL    HW133287   0.902   6.357   5.585
10796SOL    HW233288   0.916   6.208   5.521
10797SOL     OW33289   3.740   2.713   0.329
10797SOL    HW133290   3.650   2.757   0.334
10797SOL    HW233291   3.747   2.663   0.243
10798SOL     OW33292   6.191   1.418   0.892
10798SOL    HW133293   6.135   1.336   0.898
10798SOL    HW233294   6.233   1.436   0.980
10799SOL     OW33295   4.865   1.572   1.173
10799SOL    HW133296   4.892   1.479   1.146
10799SOL    HW233297   4.768   1.585   1.154
10800SOL     OW33298   6.751   0.171   0.897
10800SOL    HW133299   6.817   0.102   0.926
10800SOL    HW233300   6.659   0.131   0.895
10801SOL     OW33301   2.112   0.621   1.738
10801SOL    HW133302   2.048   0.698   1.733
10801SOL    HW233303   2.078   0.545   1.683
10802SOL     OW33304   5.596   1.552   3.835
10802SOL    HW133305   5.515   1.599   3.799
10802SOL    HW233306   5.650   1.616   3.889
10803SOL     OW33307   2.440   5.143   5.350
10803SOL    HW133308   2.535   5.156   5.377
10803SOL    HW233309   2.412   5.049   5.370
10804SOL     OW33310   6.350   3.661   4.437
10804SOL    HW133311   6.427   3.599   4.448
10804SOL    HW233312   6.384   3.752   4.412
10805SOL     OW33313   6.465   0.231   6.830
10805SOL    HW133314   6.547   0.287   6.819
10805SOL    HW233315   6.422   0.250   6.918
10806SOL     OW33316   1.474   5.796   0.554
10806SOL    HW133317   1.463   5.743   0.470
10806SOL    HW233318   1.402   5.771   0.619
10807SOL     OW33319   3.366   5.337   4.480
10807SOL    HW133320   3.429   5.324   4.557
10807SOL    HW233321   3.286   5.278   4.493
10808SOL     OW33322   1.568   3.325   6.601
10808SOL    HW133323   1.527   3.332   6.692
10808SOL    HW233324   1.598   3.231   6.584
10809SOL     OW33325   1.466   0.409   4.835
10809SOL    HW133326   1.486   0.317   4.801
10809SOL    HW233327   1.428   0.403   4.928
10810SOL     OW33328   6.178   0.826   3.968
10810SOL    HW133329   6.243   0.811   3.893
10810SOL    HW233330   6.193   0.756   4.038
10811SOL     OW33331   5.621   6.352   4.802
10811SOL    HW133332   5.715   6.328   4.777
10811SOL    HW233333   5.558   6.309   4.737
10812SOL     OW33334   0.318   2.984   0.590
10812SOL    HW133335   0.263   3.016   0.668
10812SOL    HW233336   0.301   3.043   0.511
10813SOL     OW33337   1.140   3.814   0.070
10813SOL    HW133338   1.078   3.852   0.139
10813SOL    HW233339   1.228   3.794   0.112
10814SOL     OW33340   3.205   1.929   1.482
10814SOL    HW133341   3.283   1.876   1.516
10814SOL    HW233342   3.138   1.867   1.442
10815SOL     OW33343   4.815   0.695   4.482
10815SOL    HW133344   4.730   0.728   4.439
10815SOL    HW233345   4.892   0.712   4.420
10816SOL     OW33346   3.289   3.150   5.306
10816SOL    HW133347   3.228   3.090   5.253
10816SOL    HW233348   3.384   3.130   5.283
10817SOL     OW33349   1.290   5.953   4.368
10817SOL    HW133350   1.335   6.006   4.296
10817SOL    HW233351   1.273   6.012   4.447
10818SOL     OW33352   4.024   3.844   0.056
10818SOL    HW133353   3.984   3.752   0.063
10818SOL    HW233354   4.122   3.836   0.037
10819SOL     OW33355   6.164   6.030   5.268
10819SOL    HW133356   6.237   5.979   5.313
10819SOL    HW233357   6.113   5.970   5.207
10820SOL     OW33358   1.842   4.857   6.049
10820SOL    HW133359   1.820   4.952   6.074
10820SOL    HW233360   1.941   4.845   6.049
10821SOL     OW33361   4.418   5.260   3.832
10821SOL    HW133362   4.342   5.196   3.843
10821SOL    HW233363   4.384   5.346   3.794
10822SOL     OW33364   5.873   0.814   2.330
10822SOL    HW133365   5.893   0.883   2.400
10822SOL    HW233366   5.955   0.795   2.277
10823SOL     OW33367   5.573   6.547   2.598
10823SOL    HW133368   5.543   6.641   2.579
10823SOL    HW233369   5.673   6.544   2.601
10824SOL     OW33370   1.069   3.041   2.880
10824SOL    HW133371   0.987   3.019   2.827
10824SOL    HW233372   1.053   3.127   2.930
10825SOL     OW33373   0.069   1.594   0.566
10825SOL    HW133374   0.049   1.630   0.657
10825SOL    HW233375   0.060   1.495   0.567
10826SOL     OW33376   6.667   3.303   2.441
10826SOL    HW133377   6.676   3.210   2.406
10826SOL    HW233378   6.596   3.352   2.390
10827SOL     OW33379   6.840   3.347   4.069
10827SOL    HW133380   6.917   3.287   4.090
10827SOL    HW233381   6.833   3.358   3.970
10828SOL     OW33382   0.133   4.189   4.839
10828SOL    HW133383   0.102   4.176   4.745
10828SOL    HW233384   0.146   4.287   4.856
10829SOL     OW33385   3.795   3.120   5.515
10829SOL    HW133386   3.882   3.076   5.494
10829SOL    HW233387   3.723   3.051   5.523
10830SOL     OW33388   5.515   2.090   3.558
10830SOL    HW133389   5.476   2.169   3.603
10830SOL    HW233390   5.449   2.051   3.494
10831SOL     OW33391   4.362   6.872   3.858
10831SOL    HW133392   4.289   6.927   3.898
10831SOL    HW233393   4.359   6.879   3.759
10832SOL     OW33394   6.756   2.659   6.769
10832SOL    HW133395   6.829   2.675   6.702
10832SOL    HW233396   6.740   2.561   6.777
10833SOL     OW33397   0.672   1.539   6.474
10833SOL    HW133398   0.718   1.451   6.478
10833SOL    HW233399   0.668   1.570   6.378
10834SOL     OW33400   6.468   6.266   1.609
10834SOL    HW133401   6.497   6.171   1.613
10834SOL    HW233402   6.408   6.280   1.530
10835SOL     OW33403   6.676   2.264   5.099
10835SOL    HW133404   6.700   2.274   5.003
10835SOL    HW233405   6.631   2.348   5.131
10836SOL     OW33406   6.894   1.568   3.317
10836SOL    HW133407   6.951   1.625   3.258
10836SOL    HW233408   6.799   1.600   3.312
10837SOL     OW33409   6.815   3.385   3.801
10837SOL    HW133410   6.836   3.291   3.774
10837SOL    HW233411   6.775   3.434   3.724
10838SOL     OW33412   0.152   6.378   2.837
10838SOL    HW133413   0.176   6.436   2.759
10838SOL    HW233414   0.135   6.436   2.917
10839SOL     OW33415   4.485   2.524   0.434
10839SOL    HW133416   4.484   2.590   0.510
10839SOL    HW233417   4.451   2.568   0.351
10840SOL     OW33418   2.778   0.497   2.275
10840SOL    HW133419   2.771   0.469   2.179
10840SOL    HW233420   2.688   0.527   2.307
10841SOL     OW33421   2.271   5.243   5.160
10841SOL    HW133422   2.339   5.229   5.233
10841SOL    HW233423   2.180   5.220   5.194
10842SOL     OW33424   6.783   4.555   1.627
10842SOL    HW133425   6.870   4.603   1.619
10842SOL    HW233426   6.790   4.485   1.699
10843SOL     OW33427   2.588   1.309   1.811
10843SOL    HW133428   2.586   1.210   1.825
10843SOL    HW233429   2.617   1.354   1.896
10844SOL     OW33430   2.191   5.473   4.771
10844SOL    HW133431   2.143   5.550   4.729
10844SOL    HW233432   2.130   5.394   4.777
10845SOL     OW33433   4.278   0.705   4.475
10845SOL    HW133434   4.324   0.672   4.557
10845SOL    HW233435   4.324   0.667   4.394
10846SOL     OW33436   6.056   6.899   5.837
10846SOL    HW133437   5.982   6.846   5.880
10846SOL    HW233438   6.020   6.985   5.802
10847SOL     OW33439   2.818   0.061   0.032
10847SOL    HW133440   2.906   0.105   0.014
10847SOL    HW233441   2.792   0.004   6.974
10848SOL     OW33442   1.701   3.386   1.916
10848SOL    HW133443   1.761   3.433   1.980
10848SOL    HW233444   1.668   3.451   1.847
10849SOL     OW33445   1.873   6.675   3.677
10849SOL    HW133446   1.910   6.595   3.630
10849SOL    HW233447   1.947   6.737   3.700
10850SOL     OW33448   4.819   4.300   0.568
10850SOL    HW133449   4.833   4.222   0.508
10850SOL    HW233450   4.859   4.280   0.658
10851SOL     OW33451   1.535   4.859   0.788
10851SOL    HW133452   1.590   4.806   0.852
10851SOL    HW233453   1.518   4.950   0.826
10852SOL     OW33454   2.892   1.399   2.153
10852SOL    HW133455   2.992   1.404   2.147
10852SOL    HW233456   2.862   1.304   2.140
10853SOL     OW33457   3.550   1.158   6.578
10853SOL    HW133458   3.546   1.195   6.671
10853SOL    HW233459   3.584   1.064   6.582
10854SOL     OW33460   3.072   5.941   6.050
10854SOL    HW133461   3.060   5.878   5.973
10854SOL    HW233462   3.008   6.018   6.041
10855SOL     OW33463   4.109   1.112   6.815
10855SOL    HW133464   4.126   1.013   6.818
10855SOL    HW233465   4.180   1.156   6.759
10856SOL     OW33466   0.795   1.299   0.558
10856SOL    HW133467   0.784   1.228   0.489
10856SOL    HW233468   0.797   1.389   0.513
10857SOL     OW33469   6.775   2.700   1.816
10857SOL    HW133470   6.873   2.708   1.795
10857SOL    HW233471   6.729   2.786   1.794
10858SOL     OW33472   2.144   6.462   1.943
10858SOL    HW133473   2.149   6.522   2.023
10858SOL    HW233474   2.142   6.517   1.860
10859SOL     OW33475   1.316   4.709   3.918
10859SOL    HW133476   1.251   4.677   3.987
10859SOL    HW233477   1.295   4.667   3.830
10860SOL     OW33478   0.274   3.344   3.031
10860SOL    HW133479   0.236   3.379   2.945
10860SOL    HW233480   0.199   3.311   3.089
10861SOL     OW33481   4.234   3.183   5.334
10861SOL    HW133482   4.139   3.205   5.312
10861SOL    HW233483   4.283   3.267   5.357
10862SOL     OW33484   1.356   0.882   5.523
10862SOL    HW133485   1.275   0.888   5.581
10862SOL    HW233486   1.425   0.946   5.556
10863SOL     OW33487   2.380   6.496   4.086
10863SOL    HW133488   2.382   6.536   4.178
10863SOL    HW233489   2.317   6.418   4.085
10864SOL     OW33490   3.680   6.992   3.279
10864SOL    HW133491   3.721   6.909   3.315
10864SOL    HW233492   3.715   0.051   3.329
10865SOL     OW33493   6.523   1.016   6.407
10865SOL    HW133494   6.578   1.010   6.324
10865SOL    HW233495   6.438   1.065   6.387
10866SOL     OW33496   5.705   4.758   6.597
10866SOL    HW133497   5.795   4.751   6.640
10866SOL    HW233498   5.634   4.736   6.664
10867SOL     OW33499   2.776   1.927   6.990
10867SOL    HW133500   2.857   1.886   0.010
10867SOL    HW233501   2.711   1.856   6.963
10868SOL     OW33502   1.602   2.347   3.244
10868SOL    HW133503   1.690   2.367   3.201
10868SOL    HW233504   1.611   2.352   3.343
10869NA      NA33505   6.328   2.018   5.394
10870NA      NA33506   4.426   4.610   5.229
10871NA      NA33507   2.162   3.308   1.776
10872NA      NA33508   4.877   3.657   5.252
10873NA      NA33509   4.136   2.442   5.370
10874NA      NA33510   3.648   4.903   1.814
10875NA      NA33511   6.849   6.267   4.880
10876NA      NA33512   3.549   3.590   5.102
10877NA      NA33513   4.680   6.312   6.041
10878NA      NA33514   2.718   0.481   4.951
10879NA      NA33515   0.565   5.131   2.768
10880NA      NA33516   2.306   0.444   2.677
10881NA      NA33517   3.598   4.475   1.214
10882NA      NA33518   3.907   3.319   3.156
   7.02099   7.02099   7.02099
