Generated by trjconv : CNT in water t= 296.00000
33518
    1C        C    1   2.849   2.774   4.749
    1C        C    2   2.902   2.718   4.867
    1C        C    3   2.845   2.776   4.981
    1C        C    4   2.853   2.776   4.265
    1C        C    5   2.903   2.724   4.386
    1C        C    6   2.848   2.773   4.506
    1C        C    7   3.017   2.642   4.628
    1C        C    8   2.905   2.728   4.627
    1C        C    9   3.079   2.607   4.750
    1C        C   10   3.010   2.627   4.871
    1C        C   11   3.183   2.493   4.978
    1C        C   12   3.060   2.559   4.983
    1C        C   13   2.851   2.774   3.770
    1C        C   14   2.901   2.725   3.893
    1C        C   15   2.853   2.775   4.017
    1C        C   16   3.018   2.648   4.140
    1C        C   17   2.903   2.730   4.141
    1C        C   18   3.081   2.611   4.261
    1C        C   19   3.022   2.647   4.384
    1C        C   20   3.209   2.551   4.505
    1C        C   21   3.078   2.603   4.506
    1C        C   22   3.277   2.529   4.627
    1C        C   23   3.207   2.545   4.748
    1C        C   24   3.415   2.485   4.866
    1C        C   25   3.272   2.500   4.867
    1C        C   26   3.491   2.481   4.983
    1C        C   27   2.848   2.771   3.284
    1C        C   28   2.902   2.723   3.406
    1C        C   29   2.851   2.774   3.528
    1C        C   30   3.014   2.635   3.651
    1C        C   31   2.902   2.722   3.649
    1C        C   32   3.076   2.607   3.774
    1C        C   33   3.016   2.643   3.897
    1C        C   34   3.206   2.546   4.017
    1C        C   35   3.077   2.604   4.019
    1C        C   36   3.274   2.526   4.139
    1C        C   37   3.208   2.550   4.261
    1C        C   38   3.416   2.508   4.382
    1C        C   39   3.276   2.526   4.383
    1C        C   40   3.488   2.499   4.504
    1C        C   41   3.415   2.497   4.625
    1C        C   42   3.630   2.482   4.744
    1C        C   43   3.488   2.475   4.744
    1C        C   44   3.706   2.494   4.862
    1C        C   45   3.630   2.487   4.980
    1C        C   46   2.841   2.754   2.793
    1C        C   47   2.897   2.717   2.917
    1C        C   48   2.847   2.767   3.039
    1C        C   49   3.016   2.641   3.163
    1C        C   50   2.901   2.723   3.162
    1C        C   51   3.077   2.602   3.285
    1C        C   52   3.015   2.638   3.407
    1C        C   53   3.207   2.547   3.526
    1C        C   54   3.076   2.601   3.529
    1C        C   55   3.274   2.530   3.649
    1C        C   56   3.207   2.553   3.771
    1C        C   57   3.412   2.506   3.894
    1C        C   58   3.274   2.533   3.894
    1C        C   59   3.485   2.496   4.015
    1C        C   60   3.413   2.500   4.136
    1C        C   61   3.625   2.504   4.260
    1C        C   62   3.484   2.502   4.259
    1C        C   63   3.699   2.512   4.380
    1C        C   64   3.629   2.501   4.502
    1C        C   65   3.835   2.544   4.622
    1C        C   66   3.701   2.499   4.623
    1C        C   67   3.906   2.565   4.743
    1C        C   68   3.844   2.522   4.862
    1C        C   69   4.052   2.582   4.978
    1C        C   70   3.926   2.520   4.975
    1C        C   71   2.828   2.738   2.308
    1C        C   72   2.886   2.697   2.430
    1C        C   73   2.827   2.740   2.551
    1C        C   74   3.006   2.620   2.673
    1C        C   75   2.887   2.697   2.672
    1C        C   76   3.071   2.593   2.796
    1C        C   77   3.014   2.637   2.918
    1C        C   78   3.205   2.549   3.040
    1C        C   79   3.075   2.603   3.040
    1C        C   80   3.274   2.527   3.161
    1C        C   81   3.206   2.546   3.284
    1C        C   82   3.414   2.499   3.403
    1C        C   83   3.274   2.520   3.405
    1C        C   84   3.483   2.497   3.526
    1C        C   85   3.413   2.502   3.649
    1C        C   86   3.625   2.498   3.773
    1C        C   87   3.483   2.495   3.772
    1C        C   88   3.698   2.508   3.893
    1C        C   89   3.626   2.502   4.015
    1C        C   90   3.831   2.550   4.135
    1C        C   91   3.696   2.509   4.137
    1C        C   92   3.901   2.575   4.255
    1C        C   93   3.836   2.547   4.377
    1C        C   94   4.026   2.635   4.500
    1C        C   95   3.902   2.567   4.500
    1C        C   96   4.092   2.670   4.620
    1C        C   97   4.036   2.622   4.741
    1C        C   98   4.192   2.764   4.862
    1C        C   99   4.100   2.655   4.864
    1C        C  100   4.212   2.845   4.974
    1C        C  101   2.823   2.733   2.071
    1C        C  102   2.993   2.594   2.190
    1C        C  103   2.878   2.679   2.188
    1C        C  104   3.061   2.571   2.312
    1C        C  105   3.000   2.615   2.432
    1C        C  106   3.200   2.534   2.550
    1C        C  107   3.068   2.585   2.552
    1C        C  108   3.267   2.518   2.674
    1C        C  109   3.200   2.536   2.796
    1C        C  110   3.409   2.496   2.913
    1C        C  111   3.270   2.520   2.917
    1C        C  112   3.482   2.493   3.034
    1C        C  113   3.413   2.502   3.158
    1C        C  114   3.624   2.500   3.282
    1C        C  115   3.483   2.491   3.280
    1C        C  116   3.692   2.515   3.405
    1C        C  117   3.624   2.500   3.528
    1C        C  118   3.831   2.545   3.646
    1C        C  119   3.694   2.509   3.650
    1C        C  120   3.895   2.576   3.769
    1C        C  121   3.833   2.548   3.893
    1C        C  122   4.028   2.635   4.009
    1C        C  123   3.902   2.571   4.014
    1C        C  124   4.083   2.679   4.132
    1C        C  125   4.024   2.644   4.255
    1C        C  126   4.190   2.772   4.378
    1C        C  127   4.083   2.679   4.379
    1C        C  128   4.241   2.822   4.500
    1C        C  129   4.193   2.768   4.622
    1C        C  130   4.334   2.932   4.739
    1C        C  131   4.245   2.821   4.743
    1C        C  132   4.364   3.000   4.859
    1C        C  133   4.281   2.966   4.967
    1C        C  134   3.172   2.462   2.085
    1C        C  135   3.041   2.509   2.085
    1C        C  136   3.260   2.478   2.193
    1C        C  137   3.190   2.511   2.311
    1C        C  138   3.405   2.478   2.430
    1C        C  139   3.265   2.497   2.430
    1C        C  140   3.479   2.479   2.550
    1C        C  141   3.406   2.492   2.671
    1C        C  142   3.621   2.494   2.791
    1C        C  143   3.480   2.487   2.791
    1C        C  144   3.690   2.511   2.913
    1C        C  145   3.623   2.500   3.037
    1C        C  146   3.831   2.536   3.157
    1C        C  147   3.693   2.506   3.159
    1C        C  148   3.898   2.564   3.278
    1C        C  149   3.829   2.550   3.401
    1C        C  150   4.021   2.637   3.521
    1C        C  151   3.896   2.571   3.524
    1C        C  152   4.079   2.678   3.643
    1C        C  153   4.019   2.642   3.766
    1C        C  154   4.193   2.768   3.889
    1C        C  155   4.082   2.681   3.887
    1C        C  156   4.243   2.816   4.012
    1C        C  157   4.193   2.768   4.135
    1C        C  158   4.338   2.923   4.252
    1C        C  159   4.248   2.815   4.257
    1C        C  160   4.375   2.984   4.374
    1C        C  161   4.329   2.932   4.497
    1C        C  162   4.439   3.117   4.616
    1C        C  163   4.372   2.993   4.617
    1C        C  164   4.471   3.183   4.737
    1C        C  165   4.438   3.120   4.858
    1C        C  166   4.517   3.320   4.971
    1C        C  167   4.479   3.186   4.975
    1C        C  168   3.477   2.437   2.075
    1C        C  169   3.399   2.454   2.190
    1C        C  170   3.617   2.466   2.309
    1C        C  171   3.475   2.457   2.309
    1C        C  172   3.691   2.483   2.428
    1C        C  173   3.620   2.478   2.551
    1C        C  174   3.829   2.538   2.667
    1C        C  175   3.694   2.497   2.670
    1C        C  176   3.892   2.571   2.789
    1C        C  177   3.827   2.547   2.913
    1C        C  178   4.022   2.629   3.032
    1C        C  179   3.896   2.565   3.035
    1C        C  180   4.086   2.663   3.154
    1C        C  181   4.020   2.635   3.275
    1C        C  182   4.197   2.753   3.397
    1C        C  183   4.081   2.671   3.397
    1C        C  184   4.244   2.806   3.519
    1C        C  185   4.192   2.762   3.643
    1C        C  186   4.337   2.918   3.765
    1C        C  187   4.246   2.809   3.765
    1C        C  188   4.376   2.978   3.886
    1C        C  189   4.337   2.922   4.010
    1C        C  190   4.446   3.106   4.129
    1C        C  191   4.383   2.980   4.130
    1C        C  192   4.472   3.172   4.251
    1C        C  193   4.438   3.110   4.374
    1C        C  194   4.514   3.313   4.488
    1C        C  195   4.473   3.178   4.493
    1C        C  196   4.528   3.384   4.609
    1C        C  197   4.515   3.318   4.734
    1C        C  198   4.548   3.536   4.850
    1C        C  199   4.528   3.394   4.853
    1C        C  200   4.581   3.622   4.959
    1C        C  201   3.616   2.422   2.076
    1C        C  202   3.828   2.509   2.184
    1C        C  203   3.694   2.459   2.190
    1C        C  204   3.899   2.538   2.304
    1C        C  205   3.829   2.514   2.424
    1C        C  206   4.021   2.615   2.544
    1C        C  207   3.895   2.550   2.543
    1C        C  208   4.082   2.657   2.664
    1C        C  209   4.021   2.628   2.788
    1C        C  210   4.193   2.754   2.911
    1C        C  211   4.079   2.670   2.910
    1C        C  212   4.249   2.800   3.032
    1C        C  213   4.196   2.751   3.154
    1C        C  214   4.335   2.912   3.272
    1C        C  215   4.252   2.798   3.275
    1C        C  216   4.370   2.972   3.395
    1C        C  217   4.332   2.917   3.519
    1C        C  218   4.436   3.101   3.638
    1C        C  219   4.377   2.973   3.641
    1C        C  220   4.463   3.168   3.759
    1C        C  221   4.437   3.105   3.883
    1C        C  222   4.503   3.307   4.005
    1C        C  223   4.468   3.170   4.005
    1C        C  224   4.520   3.380   4.125
    1C        C  225   4.510   3.308   4.246
    1C        C  226   4.515   3.524   4.367
    1C        C  227   4.517   3.383   4.365
    1C        C  228   4.516   3.597   4.488
    1C        C  229   4.531   3.525   4.609
    1C        C  230   4.507   3.743   4.725
    1C        C  231   4.540   3.605   4.725
    1C        C  232   4.495   3.818   4.844
    1C        C  233   4.541   3.756   4.961
    1C        C  234   4.017   2.616   2.061
    1C        C  235   3.894   2.551   2.068
    1C        C  236   4.081   2.649   2.182
    1C        C  237   4.024   2.606   2.303
    1C        C  238   4.198   2.735   2.426
    1C        C  239   4.084   2.650   2.423
    1C        C  240   4.251   2.786   2.546
    1C        C  241   4.194   2.744   2.668
    1C        C  242   4.339   2.904   2.786
    1C        C  243   4.249   2.795   2.788
    1C        C  244   4.382   2.962   2.907
    1C        C  245   4.344   2.904   3.030
    1C        C  246   4.447   3.092   3.149
    1C        C  247   4.384   2.966   3.151
    1C        C  248   4.461   3.162   3.271
    1C        C  249   4.427   3.101   3.394
    1C        C  250   4.495   3.304   3.514
    1C        C  251   4.453   3.170   3.515
    1C        C  252   4.512   3.372   3.637
    1C        C  253   4.501   3.304   3.760
    1C        C  254   4.522   3.516   3.873
    1C        C  255   4.511   3.375   3.882
    1C        C  256   4.516   3.587   3.995
    1C        C  257   4.524   3.521   4.120
    1C        C  258   4.491   3.731   4.242
    1C        C  259   4.511   3.591   4.243
    1C        C  260   4.473   3.804   4.361
    1C        C  261   4.488   3.735   4.484
    1C        C  262   4.426   3.940   4.600
    1C        C  263   4.479   3.809   4.604
    1C        C  264   4.404   4.010   4.721
    1C        C  265   4.437   3.946   4.843
    1C        C  266   4.313   4.129   4.958
    1C        C  267   4.390   4.014   4.956
    1C        C  268   4.265   2.768   2.066
    1C        C  269   4.198   2.727   2.182
    1C        C  270   4.346   2.884   2.301
    1C        C  271   4.252   2.778   2.302
    1C        C  272   4.384   2.951   2.420
    1C        C  273   4.339   2.897   2.543
    1C        C  274   4.449   3.083   2.660
    1C        C  275   4.380   2.960   2.663
    1C        C  276   4.469   3.152   2.781
    1C        C  277   4.446   3.088   2.905
    1C        C  278   4.508   3.292   3.023
    1C        C  279   4.477   3.154   3.026
    1C        C  280   4.515   3.364   3.145
    1C        C  281   4.503   3.297   3.269
    1C        C  282   4.526   3.509   3.383
    1C        C  283   4.517   3.368   3.390
    1C        C  284   4.523   3.579   3.506
    1C        C  285   4.523   3.513   3.631
    1C        C  286   4.490   3.725   3.752
    1C        C  287   4.519   3.587   3.751
    1C        C  288   4.469   3.792   3.875
    1C        C  289   4.487   3.725   3.997
    1C        C  290   4.428   3.930   4.114
    1C        C  291   4.476   3.797   4.118
    1C        C  292   4.396   3.998   4.233
    1C        C  293   4.425   3.937   4.357
    1C        C  294   4.322   4.125   4.478
    1C        C  295   4.393   4.003   4.478
    1C        C  296   4.283   4.186   4.600
    1C        C  297   4.324   4.128   4.722
    1C        C  298   4.199   4.314   4.834
    1C        C  299   4.280   4.195   4.839
    1C        C  300   4.170   4.398   4.946
    1C        C  301   4.358   2.871   2.065
    1C        C  302   4.467   3.063   2.176
    1C        C  303   4.402   2.936   2.181
    1C        C  304   4.485   3.137   2.296
    1C        C  305   4.455   3.072   2.418
    1C        C  306   4.513   3.282   2.538
    1C        C  307   4.477   3.146   2.536
    1C        C  308   4.527   3.357   2.657
    1C        C  309   4.503   3.289   2.779
    1C        C  310   4.528   3.501   2.899
    1C        C  311   4.520   3.360   2.900
    1C        C  312   4.525   3.574   3.020
    1C        C  313   4.519   3.505   3.143
    1C        C  314   4.480   3.718   3.264
    1C        C  315   4.513   3.581   3.262
    1C        C  316   4.471   3.787   3.387
    1C        C  317   4.497   3.718   3.508
    1C        C  318   4.430   3.924   3.628
    1C        C  319   4.477   3.791   3.627
    1C        C  320   4.396   3.991   3.747
    1C        C  321   4.420   3.925   3.870
    1C        C  322   4.318   4.112   3.991
    1C        C  323   4.390   3.990   3.992
    1C        C  324   4.277   4.170   4.113
    1C        C  325   4.322   4.119   4.236
    1C        C  326   4.182   4.283   4.353
    1C        C  327   4.276   4.179   4.356
    1C        C  328   4.128   4.334   4.474
    1C        C  329   4.187   4.289   4.594
    1C        C  330   4.026   4.437   4.712
    1C        C  331   4.140   4.353   4.711
    1C        C  332   3.969   4.487   4.831
    1C        C  333   4.050   4.471   4.944
    1C        C  334   4.547   3.264   2.061
    1C        C  335   4.529   3.126   2.063
    1C        C  336   4.529   3.348   2.173
    1C        C  337   4.512   3.277   2.294
    1C        C  338   4.523   3.492   2.412
    1C        C  339   4.519   3.350   2.414
    1C        C  340   4.517   3.566   2.532
    1C        C  341   4.528   3.498   2.655
    1C        C  342   4.488   3.708   2.773
    1C        C  343   4.513   3.569   2.776
    1C        C  344   4.476   3.780   2.895
    1C        C  345   4.496   3.712   3.017
    1C        C  346   4.423   3.913   3.138
    1C        C  347   4.474   3.781   3.138
    1C        C  348   4.392   3.979   3.259
    1C        C  349   4.427   3.921   3.383
    1C        C  350   4.320   4.104   3.503
    1C        C  351   4.398   3.987   3.505
    1C        C  352   4.275   4.165   3.623
    1C        C  353   4.319   4.109   3.745
    1C        C  354   4.178   4.269   3.867
    1C        C  355   4.276   4.166   3.867
    1C        C  356   4.124   4.318   3.987
    1C        C  357   4.173   4.266   4.109
    1C        C  358   4.015   4.409   4.229
    1C        C  359   4.128   4.324   4.229
    1C        C  360   3.952   4.449   4.349
    1C        C  361   4.015   4.419   4.471
    1C        C  362   3.825   4.514   4.594
    1C        C  363   3.959   4.467   4.592
    1C        C  364   3.762   4.552   4.714
    1C        C  365   3.838   4.540   4.833
    1C        C  366   3.630   4.596   4.948
    1C        C  367   3.768   4.580   4.947
    1C        C  368   4.515   3.564   2.052
    1C        C  369   4.516   3.488   2.170
    1C        C  370   4.497   3.702   2.289
    1C        C  371   4.517   3.562   2.290
    1C        C  372   4.481   3.776   2.408
    1C        C  373   4.502   3.707   2.529
    1C        C  374   4.427   3.908   2.649
    1C        C  375   4.475   3.775   2.649
    1C        C  376   4.397   3.974   2.771
    1C        C  377   4.426   3.912   2.894
    1C        C  378   4.319   4.096   3.013
    1C        C  379   4.395   3.977   3.015
    1C        C  380   4.276   4.154   3.134
    1C        C  381   4.318   4.100   3.257
    1C        C  382   4.176   4.256   3.375
    1C        C  383   4.278   4.158   3.380
    1C        C  384   4.121   4.304   3.496
    1C        C  385   4.179   4.268   3.620
    1C        C  386   4.012   4.396   3.741
    1C        C  387   4.129   4.317   3.743
    1C        C  388   3.949   4.433   3.862
    1C        C  389   4.009   4.401   3.985
    1C        C  390   3.822   4.498   4.105
    1C        C  391   3.953   4.445   4.107
    1C        C  392   3.749   4.514   4.226
    1C        C  393   3.821   4.503   4.346
    1C        C  394   3.619   4.553   4.473
    1C        C  395   3.758   4.528   4.470
    1C        C  396   3.546   4.564   4.594
    1C        C  397   3.622   4.570   4.713
    1C        C  398   3.412   4.553   4.841
    1C        C  399   3.551   4.580   4.834
    1C        C  400   3.347   4.516   4.959
    1C        C  401   4.507   3.702   2.053
    1C        C  402   4.449   3.913   2.167
    1C        C  403   4.489   3.778   2.170
    1C        C  404   4.409   3.978   2.286
    1C        C  405   4.436   3.910   2.407
    1C        C  406   4.327   4.094   2.528
    1C        C  407   4.404   3.976   2.527
    1C        C  408   4.276   4.146   2.649
    1C        C  409   4.318   4.091   2.772
    1C        C  410   4.171   4.250   2.887
    1C        C  411   4.274   4.153   2.891
    1C        C  412   4.120   4.298   3.010
    1C        C  413   4.176   4.254   3.132
    1C        C  414   4.004   4.379   3.255
    1C        C  415   4.124   4.304   3.253
    1C        C  416   3.942   4.415   3.376
    1C        C  417   4.005   4.385   3.499
    1C        C  418   3.814   4.480   3.620
    1C        C  419   3.944   4.424   3.620
    1C        C  420   3.749   4.508   3.742
    1C        C  421   3.819   4.489   3.863
    1C        C  422   3.612   4.543   3.985
    1C        C  423   3.751   4.516   3.984
    1C        C  424   3.542   4.543   4.107
    1C        C  425   3.610   4.537   4.231
    1C        C  426   3.402   4.548   4.356
    1C        C  427   3.543   4.556   4.354
    1C        C  428   3.333   4.545   4.479
    1C        C  429   3.405   4.555   4.600
    1C        C  430   3.196   4.517   4.726
    1C        C  431   3.335   4.547   4.723
    1C        C  432   3.126   4.491   4.847
    1C        C  433   3.211   4.487   4.958
    1C        C  434   4.383   4.121   2.052
    1C        C  435   4.446   3.996   2.054
    1C        C  436   4.301   4.162   2.162
    1C        C  437   4.334   4.100   2.285
    1C        C  438   4.187   4.254   2.404
    1C        C  439   4.289   4.157   2.406
    1C        C  440   4.130   4.302   2.524
    1C        C  441   4.178   4.248   2.646
    1C        C  442   4.007   4.381   2.765
    1C        C  443   4.123   4.300   2.765
    1C        C  444   3.945   4.416   2.887
    1C        C  445   4.006   4.382   3.010
    1C        C  446   3.817   4.477   3.131
    1C        C  447   3.944   4.416   3.132
    1C        C  448   3.749   4.503   3.253
    1C        C  449   3.818   4.483   3.374
    1C        C  450   3.612   4.533   3.496
    1C        C  451   3.751   4.505   3.497
    1C        C  452   3.542   4.548   3.618
    1C        C  453   3.610   4.537   3.741
    1C        C  454   3.400   4.546   3.864
    1C        C  455   3.541   4.550   3.863
    1C        C  456   3.332   4.534   3.988
    1C        C  457   3.401   4.539   4.111
    1C        C  458   3.194   4.504   4.239
    1C        C  459   3.332   4.530   4.234
    1C        C  460   3.127   4.489   4.362
    1C        C  461   3.197   4.508   4.483
    1C        C  462   2.997   4.436   4.604
    1C        C  463   3.127   4.492   4.605
    1C        C  464   2.931   4.400   4.723
    1C        C  465   2.992   4.442   4.845
    1C        C  466   2.800   4.337   4.959
    1C        C  467   2.910   4.424   4.961
    1C        C  468   4.127   4.284   2.042
    1C        C  469   4.190   4.253   2.163
    1C        C  470   4.008   4.374   2.278
    1C        C  471   4.129   4.299   2.283
    1C        C  472   3.943   4.398   2.401
    1C        C  473   4.009   4.374   2.524
    1C        C  474   3.813   4.469   2.645
    1C        C  475   3.943   4.412   2.643
    1C        C  476   3.747   4.494   2.767
    1C        C  477   3.817   4.476   2.888
    1C        C  478   3.608   4.521   3.007
    1C        C  479   3.747   4.496   3.010
    1C        C  480   3.537   4.527   3.130
    1C        C  481   3.609   4.523   3.251
    1C        C  482   3.399   4.533   3.376
    1C        C  483   3.540   4.534   3.374
    1C        C  484   3.331   4.525   3.500
    1C        C  485   3.401   4.541   3.621
    1C        C  486   3.192   4.499   3.746
    1C        C  487   3.329   4.533   3.743
    1C        C  488   3.128   4.476   3.870
    1C        C  489   3.194   4.501   3.992
    1C        C  490   3.007   4.408   4.114
    1C        C  491   3.129   4.479   4.116
    1C        C  492   2.946   4.380   4.239
    1C        C  493   3.001   4.425   4.361
    1C        C  494   2.827   4.305   4.482
    1C        C  495   2.937   4.394   4.483
    1C        C  496   2.778   4.255   4.604
    1C        C  497   2.819   4.313   4.726
    1C        C  498   2.659   4.168   4.843
    1C        C  499   2.751   4.275   4.844
    1C        C  500   2.589   4.121   4.955
    1C        C  501   4.009   4.358   2.043
    1C        C  502   3.817   4.468   2.161
    1C        C  503   3.944   4.407   2.157
    1C        C  504   3.744   4.478   2.281
    1C        C  505   3.814   4.456   2.402
    1C        C  506   3.608   4.512   2.519
    1C        C  507   3.748   4.491   2.521
    1C        C  508   3.535   4.518   2.640
    1C        C  509   3.607   4.513   2.761
    1C        C  510   3.397   4.525   2.885
    1C        C  511   3.539   4.526   2.885
    1C        C  512   3.325   4.521   3.007
    1C        C  513   3.396   4.529   3.129
    1C        C  514   3.192   4.488   3.255
    1C        C  515   3.329   4.522   3.253
    1C        C  516   3.126   4.466   3.378
    1C        C  517   3.194   4.492   3.500
    1C        C  518   3.002   4.408   3.626
    1C        C  519   3.128   4.471   3.623
    1C        C  520   2.944   4.369   3.749
    1C        C  521   3.007   4.404   3.870
    1C        C  522   2.836   4.280   3.996
    1C        C  523   2.948   4.366   3.993
    1C        C  524   2.787   4.237   4.121
    1C        C  525   2.838   4.288   4.242
    1C        C  526   2.697   4.130   4.364
    1C        C  527   2.780   4.244   4.363
    1C        C  528   2.656   4.075   4.487
    1C        C  529   2.691   4.143   4.606
    1C        C  530   2.584   3.960   4.729
    1C        C  531   2.639   4.091   4.726
    1C        C  532   2.545   3.902   4.853
    1C        C  533   2.523   3.997   4.958
    1C        C  534   3.621   4.556   2.039
    1C        C  535   3.753   4.509   2.043
    1C        C  536   3.538   4.537   2.155
    1C        C  537   3.606   4.514   2.277
    1C        C  538   3.394   4.523   2.398
    1C        C  539   3.535   4.519   2.399
    1C        C  540   3.323   4.509   2.519
    1C        C  541   3.394   4.510   2.641
    1C        C  542   3.187   4.481   2.766
    1C        C  543   3.325   4.510   2.764
    1C        C  544   3.122   4.461   2.890
    1C        C  545   3.189   4.483   3.012
    1C        C  546   2.998   4.396   3.137
    1C        C  547   3.122   4.464   3.135
    1C        C  548   2.939   4.364   3.261
    1C        C  549   3.000   4.404   3.382
    1C        C  550   2.831   4.278   3.505
    1C        C  551   2.940   4.369   3.505
    1C        C  552   2.781   4.231   3.628
    1C        C  553   2.832   4.283   3.750
    1C        C  554   2.703   4.117   3.877
    1C        C  555   2.787   4.232   3.873
    1C        C  556   2.666   4.058   3.999
    1C        C  557   2.700   4.126   4.118
    1C        C  558   2.601   3.942   4.245
    1C        C  559   2.657   4.072   4.242
    1C        C  560   2.572   3.879   4.369
    1C        C  561   2.595   3.947   4.490
    1C        C  562   2.523   3.748   4.619
    1C        C  563   2.563   3.883   4.612
    1C        C  564   2.513   3.682   4.743
    1C        C  565   2.512   3.763   4.860
    1C        C  566   2.532   3.549   4.976
    1C        C  567   2.524   3.688   4.978
    1C        C  568   3.327   4.479   2.040
    1C        C  569   3.398   4.509   2.157
    1C        C  570   3.185   4.473   2.281
    1C        C  571   3.322   4.509   2.277
    1C        C  572   3.112   4.456   2.401
    1C        C  573   3.186   4.476   2.520
    1C        C  574   2.992   4.398   2.650
    1C        C  575   3.121   4.457   2.644
    1C        C  576   2.933   4.358   2.771
    1C        C  577   2.996   4.398   2.891
    1C        C  578   2.830   4.269   3.014
    1C        C  579   2.937   4.361   3.014
    1C        C  580   2.786   4.216   3.138
    1C        C  581   2.832   4.271   3.259
    1C        C  582   2.699   4.111   3.384
    1C        C  583   2.785   4.223   3.384
    1C        C  584   2.661   4.054   3.508
    1C        C  585   2.696   4.118   3.629
    1C        C  586   2.595   3.937   3.755
    1C        C  587   2.661   4.062   3.754
    1C        C  588   2.568   3.872   3.877
    1C        C  589   2.597   3.934   4.001
    1C        C  590   2.531   3.738   4.128
    1C        C  591   2.575   3.872   4.126
    1C        C  592   2.514   3.673   4.252
    1C        C  593   2.528   3.745   4.373
    1C        C  594   2.513   3.536   4.498
    1C        C  595   2.517   3.678   4.497
    1C        C  596   2.514   3.465   4.620
    1C        C  597   2.513   3.540   4.740
    1C        C  598   2.533   3.328   4.863
    1C        C  599   2.527   3.469   4.861
    1C        C  600   2.531   3.251   4.980
    1C        C  601   3.198   4.430   2.044
    1C        C  602   2.984   4.391   2.159
    1C        C  603   3.120   4.437   2.160
    1C        C  604   2.923   4.361   2.283
    1C        C  605   2.984   4.395   2.406
    1C        C  606   2.820   4.268   2.531
    1C        C  607   2.927   4.360   2.530
    1C        C  608   2.768   4.218   2.652
    1C        C  609   2.823   4.269   2.772
    1C        C  610   2.682   4.111   2.896
    1C        C  611   2.775   4.218   2.895
    1C        C  612   2.650   4.053   3.020
    1C        C  613   2.694   4.109   3.142
    1C        C  614   2.590   3.925   3.266
    1C        C  615   2.657   4.049   3.264
    1C        C  616   2.558   3.865   3.390
    1C        C  617   2.592   3.930   3.511
    1C        C  618   2.529   3.732   3.638
    1C        C  619   2.568   3.868   3.635
    1C        C  620   2.514   3.663   3.761
    1C        C  621   2.531   3.736   3.881
    1C        C  622   2.508   3.528   4.011
    1C        C  623   2.521   3.669   4.005
    1C        C  624   2.516   3.457   4.133
    1C        C  625   2.515   3.532   4.252
    1C        C  626   2.543   3.325   4.379
    1C        C  627   2.520   3.465   4.376
    1C        C  628   2.559   3.256   4.501
    1C        C  629   2.543   3.327   4.622
    1C        C  630   2.602   3.122   4.745
    1C        C  631   2.555   3.257   4.744
    1C        C  632   2.620   3.053   4.868
    1C        C  633   2.561   3.114   4.983
    1C        C  634   2.779   4.309   2.056
    1C        C  635   2.893   4.390   2.049
    1C        C  636   2.747   4.233   2.170
    1C        C  637   2.806   4.280   2.289
    1C        C  638   2.673   4.113   2.412
    1C        C  639   2.760   4.224   2.411
    1C        C  640   2.629   4.052   2.532
    1C        C  641   2.676   4.110   2.652
    1C        C  642   2.582   3.923   2.778
    1C        C  643   2.640   4.052   2.775
    1C        C  644   2.565   3.856   2.901
    1C        C  645   2.593   3.923   3.022
    1C        C  646   2.531   3.721   3.151
    1C        C  647   2.569   3.857   3.144
    1C        C  648   2.507   3.654   3.274
    1C        C  649   2.522   3.729   3.393
    1C        C  650   2.504   3.520   3.519
    1C        C  651   2.513   3.661   3.517
    1C        C  652   2.514   3.452   3.642
    1C        C  653   2.509   3.522   3.765
    1C        C  654   2.533   3.316   3.889
    1C        C  655   2.510   3.456   3.890
    1C        C  656   2.555   3.249   4.011
    1C        C  657   2.540   3.318   4.134
    1C        C  658   2.610   3.122   4.257
    1C        C  659   2.558   3.254   4.258
    1C        C  660   2.641   3.059   4.379
    1C        C  661   2.612   3.125   4.501
    1C        C  662   2.712   2.939   4.627
    1C        C  663   2.638   3.060   4.624
    1C        C  664   2.758   2.883   4.748
    1C        C  665   2.702   2.936   4.868
    1C        C  666   2.746   2.873   4.985
    1C        C  667   2.675   4.030   2.057
    1C        C  668   2.681   4.108   2.173
    1C        C  669   2.589   3.913   2.294
    1C        C  670   2.643   4.044   2.292
    1C        C  671   2.558   3.849   2.417
    1C        C  672   2.577   3.921   2.537
    1C        C  673   2.516   3.717   2.660
    1C        C  674   2.554   3.853   2.658
    1C        C  675   2.502   3.650   2.784
    1C        C  676   2.530   3.719   2.903
    1C        C  677   2.500   3.513   3.031
    1C        C  678   2.519   3.653   3.028
    1C        C  679   2.495   3.444   3.154
    1C        C  680   2.493   3.514   3.277
    1C        C  681   2.514   3.303   3.402
    1C        C  682   2.499   3.443   3.400
    1C        C  683   2.537   3.237   3.524
    1C        C  684   2.534   3.312   3.644
    1C        C  685   2.602   3.114   3.769
    1C        C  686   2.554   3.247   3.768
    1C        C  687   2.642   3.055   3.891
    1C        C  688   2.610   3.119   4.013
    1C        C  689   2.720   2.939   4.140
    1C        C  690   2.644   3.057   4.136
    1C        C  691   2.759   2.881   4.263
    1C        C  692   2.714   2.938   4.385
    1C        C  693   2.760   2.883   4.506
    1C        C  694   2.621   3.901   2.057
    1C        C  695   2.523   3.708   2.175
    1C        C  696   2.575   3.839   2.174
    1C        C  697   2.504   3.641   2.298
    1C        C  698   2.516   3.714   2.418
    1C        C  699   2.493   3.504   2.543
    1C        C  700   2.501   3.645   2.540
    1C        C  701   2.502   3.437   2.667
    1C        C  702   2.492   3.509   2.788
    1C        C  703   2.525   3.301   2.911
    1C        C  704   2.498   3.439   2.911
    1C        C  705   2.547   3.237   3.036
    1C        C  706   2.528   3.307   3.157
    1C        C  707   2.595   3.107   3.280
    1C        C  708   2.542   3.238   3.279
    1C        C  709   2.626   3.045   3.403
    1C        C  710   2.588   3.105   3.526
    1C        C  711   2.705   2.930   3.650
    1C        C  712   2.619   3.042   3.648
    1C        C  713   2.751   2.874   3.771
    1C        C  714   2.717   2.935   3.894
    1C        C  715   2.759   2.880   4.017
    1C        C  716   2.450   3.500   2.060
    1C        C  717   2.492   3.633   2.061
    1C        C  718   2.471   3.426   2.181
    1C        C  719   2.484   3.500   2.302
    1C        C  720   2.517   3.291   2.423
    1C        C  721   2.486   3.429   2.423
    1C        C  722   2.541   3.227   2.546
    1C        C  723   2.527   3.298   2.668
    1C        C  724   2.594   3.097   2.791
    1C        C  725   2.546   3.230   2.791
    1C        C  726   2.627   3.037   2.914
    1C        C  727   2.598   3.105   3.035
    1C        C  728   2.711   2.928   3.161
    1C        C  729   2.630   3.044   3.158
    1C        C  730   2.751   2.873   3.285
    1C        C  731   2.711   2.932   3.407
    1C        C  732   2.756   2.878   3.529
    1C        C  733   2.493   3.200   2.071
    1C        C  734   2.497   3.286   2.181
    1C        C  735   2.590   3.089   2.304
    1C        C  736   2.529   3.218   2.302
    1C        C  737   2.619   3.026   2.427
    1C        C  738   2.592   3.095   2.547
    1C        C  739   2.698   2.911   2.671
    1C        C  740   2.625   3.032   2.669
    1C        C  741   2.748   2.860   2.792
    1C        C  742   2.708   2.922   2.913
    1C        C  743   2.753   2.872   3.038
    1C        C  744   2.556   3.076   2.069
    1C        C  745   2.690   2.900   2.187
    1C        C  746   2.613   3.018   2.184
    1C        C  747   2.733   2.844   2.309
    1C        C  748   2.689   2.904   2.429
    1C        C  749   2.737   2.849   2.550
    1C        C  750   2.736   2.842   2.068
    1C        C  751   3.679   2.320   1.989
    1C        O  752   3.649   2.199   2.008
    1C        O  753   3.730   2.358   1.864
    1C        C  754   4.621   3.045   1.979
    1C        O  755   4.610   3.032   1.854
    1C        O  756   4.743   3.007   2.035
    1C        C  757   4.436   4.231   1.968
    1C        O  758   4.546   4.283   2.000
    1C        O  759   4.438   4.234   1.828
    1C        C  760   3.601   4.665   1.941
    1C        O  761   3.681   4.761   1.925
    1C        O  762   3.518   4.629   1.834
    1C        C  763   2.882   4.506   1.957
    1C        O  764   2.915   4.489   1.837
    1C        O  765   2.795   4.614   1.975
    1C        C  766   2.332   3.491   1.971
    1C        O  767   2.321   3.424   1.864
    1C        O  768   2.213   3.560   1.997
    1C        C  769   4.702   3.592   5.039
    1C        O  770   4.691   3.559   5.160
    1C        O  771   4.833   3.634   5.013
    1C        C  772   4.283   4.443   5.030
    1C        O  773   4.312   4.397   5.143
    1C        O  774   4.338   4.572   5.030
    1C        C  775   4.132   2.559   5.100
    1C        O  776   4.232   2.483   5.111
    1C        O  777   4.108   2.626   5.221
    1C        C  778   2.909   4.527   5.067
    1C        O  779   2.873   4.645   5.039
    1C        O  780   2.894   4.496   5.203
    1C        C  781   2.471   3.048   5.081
    1C        O  782   2.373   2.979   5.041
    1C        O  783   2.515   2.994   5.201
    1C        C  784   2.387   3.997   5.015
    1C        O  785   2.297   4.042   4.938
    1C        O  786   2.366   4.051   5.143
    1C        C  787   2.956   2.436   1.988
    1C        O  788   2.959   2.467   1.865
    1C        O  789   2.883   2.330   2.039
    1C        C  790   3.189   2.375   5.068
    1C        O  791   3.145   2.264   5.028
    1C        O  792   3.215   2.387   5.205
    1C        H  793   4.243   3.047   5.026
    1C        H  794   4.144   2.834   5.056
    1C        H  795   4.482   3.134   5.068
    1C        H  796   4.504   3.373   5.063
    1C        H  797   4.557   3.819   5.047
    1C        H  798   4.439   4.000   5.051
    1C        H  799   4.257   4.143   5.048
    1C        H  800   4.019   4.517   5.035
    1C        H  801   3.823   4.587   5.039
    1C        H  802   3.592   4.648   5.034
    1C        H  803   3.402   4.472   5.039
    1C        H  804   3.169   4.464   5.054
    1C        H  805   3.904   2.454   5.057
    1C        H  806   3.680   2.490   5.074
    1C        H  807   2.997   2.554   5.070
    1C        H  808   3.440   2.472   5.077
    1C        H  809   2.898   2.753   5.071
    1C        H  810   2.753   2.945   5.064
    1C        H  811   2.531   3.306   5.073
    1C        H  812   2.507   3.506   5.071
    1C        H  813   2.589   3.726   5.054
    1C        H  814   2.579   4.183   5.042
    1C        H  815   2.737   4.334   5.046
    1C        H  816   2.689   2.871   1.977
    1C        H  817   2.852   2.692   1.976
    1C        H  818   3.202   2.402   2.001
    1C        H  819   3.423   2.407   1.987
    1C        H  820   3.842   2.537   1.976
    1C        H  821   4.078   2.581   1.980
    1C        H  822   4.262   2.705   1.979
    1C        H  823   4.413   2.885   1.974
    1C        H  824   4.627   3.299   1.999
    1C        H  825   4.509   3.517   1.955
    1C        H  826   4.539   3.751   1.964
    1C        H  827   3.818   4.541   1.965
    1C        H  828   3.964   4.377   1.948
    1C        H  829   4.135   4.212   1.964
    1C        H  830   4.520   3.986   1.978
    1C        H  831   2.633   3.844   1.968
    1C        H  832   2.711   4.071   1.965
    1C        H  833   2.706   4.318   1.979
    1C        H  834   3.361   4.520   1.947
    1C        H  835   3.168   4.381   1.953
    1C        H  836   2.552   3.016   1.980
    1C        H  837   2.404   3.214   2.013
    1C        H  838   2.536   3.668   1.969
    2V3OU   H29  839   2.805   3.548   3.132
    2V3OU   C27  840   2.788   3.505   3.234
    2V3OU   H27  841   2.733   3.572   3.304
    2V3OU   H28  842   2.741   3.404   3.220
    2V3OU   O11  843   2.919   3.476   3.285
    2V3OU   C15  844   2.927   3.394   3.396
    2V3OU   C13  845   3.055   3.373   3.450
    2V3OU   C14  846   3.080   3.267   3.537
    2V3OU   C16  847   2.981   3.182   3.585
    2V3OU    H6  848   2.993   3.106   3.664
    2V3OU   C12  849   3.218   3.230   3.577
    2V3OU    O2  850   3.244   3.129   3.647
    2V3OU   C10  851   3.325   3.309   3.515
    2V3OU    C8  852   3.459   3.271   3.523
    2V3OU   O10  853   3.484   3.148   3.575
    2V3OU   H26  854   3.402   3.119   3.620
    2V3OU    C6  855   3.565   3.350   3.469
    2V3OU    C5  856   3.541   3.466   3.398
    2V3OU    C4  857   3.705   3.297   3.464
    2V3OU    H4  858   3.724   3.225   3.548
    2V3OU    H5  859   3.709   3.232   3.372
    2V3OU    C2  860   3.818   3.400   3.460
    2V3OU    O6  861   3.804   3.476   3.581
    2V3OU   H21  862   3.765   3.557   3.543
    2V3OU    C3  863   3.786   3.499   3.348
    2V3OU    H2  864   3.870   3.573   3.344
    2V3OU    H3  865   3.784   3.441   3.251
    2V3OU   C25  866   3.950   3.327   3.440
    2V3OU    O7  867   4.005   3.301   3.332
    2V3OU   C26  868   4.031   3.287   3.562
    2V3OU   H22  869   4.066   3.380   3.612
    2V3OU   H23  870   4.121   3.228   3.531
    2V3OU    O8  871   3.960   3.209   3.656
    2V3OU   H24  872   3.932   3.257   3.736
    2V3OU    C1  873   3.650   3.564   3.366
    2V3OU    H1  874   3.622   3.618   3.271
    2V3OU    O3  875   3.658   3.659   3.473
    2V3OU   C19  876   3.616   3.794   3.454
    2V3OU    H9  877   3.522   3.801   3.392
    2V3OU    O4  878   3.713   3.851   3.368
    2V3OU   C20  879   3.846   3.875   3.416
    2V3OU   H10  880   3.890   3.774   3.440
    2V3OU   C24  881   3.609   3.859   3.593
    2V3OU   H16  882   3.547   3.794   3.661
    2V3OU   H17  883   3.555   3.956   3.584
    2V3OU   C23  884   3.750   3.875   3.649
    2V3OU   H15  885   3.797   3.772   3.662
    2V3OU    N1  886   3.736   3.949   3.773
    2V3OU   H19  887   3.818   3.922   3.823
    2V3OU   H20  888   3.654   3.936   3.828
    2V3OU   C21  889   3.846   3.948   3.550
    2V3OU   H11  890   3.949   3.928   3.591
    2V3OU    O5  891   3.824   4.088   3.552
    2V3OU   H18  892   3.789   4.109   3.640
    2V3OU   C22  893   3.917   3.953   3.306
    2V3OU   H12  894   3.863   4.048   3.282
    2V3OU   H13  895   3.911   3.893   3.211
    2V3OU   H14  896   4.024   3.968   3.333
    2V3OU   C11  897   3.161   3.473   3.429
    2V3OU    O1  898   3.139   3.586   3.380
    2V3OU    C9  899   3.302   3.431   3.445
    2V3OU    C7  900   3.404   3.503   3.385
    2V3OU    O9  901   3.381   3.615   3.307
    2V3OU   H25  902   3.286   3.634   3.315
    2V3OU   C17  903   2.828   3.312   3.454
    2V3OU    H7  904   2.730   3.358   3.455
    2V3OU   C18  905   2.850   3.216   3.553
    2V3OU    H8  906   2.781   3.186   3.633
    3SOL     OW  907   2.663   5.393   6.154
    3SOL    HW1  908   2.567   5.380   6.129
    3SOL    HW2  909   2.682   5.346   6.241
    4SOL     OW  910   6.699   0.586   1.201
    4SOL    HW1  911   6.790   0.554   1.171
    4SOL    HW2  912   6.689   0.570   1.299
    5SOL     OW  913   4.419   2.354   1.956
    5SOL    HW1  914   4.361   2.330   2.033
    5SOL    HW2  915   4.363   2.363   1.874
    6SOL     OW  916   4.245   1.420   1.858
    6SOL    HW1  917   4.340   1.416   1.888
    6SOL    HW2  918   4.195   1.486   1.913
    7SOL     OW  919   0.736   3.967   3.437
    7SOL    HW1  920   0.787   3.888   3.404
    7SOL    HW2  921   0.640   3.959   3.410
    8SOL     OW  922   2.804   2.060   5.400
    8SOL    HW1  923   2.899   2.068   5.432
    8SOL    HW2  924   2.750   2.136   5.435
    9SOL     OW  925   5.429   1.720   5.828
    9SOL    HW1  926   5.373   1.802   5.833
    9SOL    HW2  927   5.374   1.644   5.795
   10SOL     OW  928   2.958   5.319   5.210
   10SOL    HW1  929   2.914   5.267   5.283
   10SOL    HW2  930   2.911   5.407   5.199
   11SOL     OW  931   2.473   1.538   5.980
   11SOL    HW1  932   2.528   1.603   5.928
   11SOL    HW2  933   2.505   1.537   6.075
   12SOL     OW  934   3.089   4.854   3.686
   12SOL    HW1  935   3.146   4.841   3.768
   12SOL    HW2  936   2.999   4.814   3.702
   13SOL     OW  937   3.055   6.681   4.312
   13SOL    HW1  938   3.140   6.630   4.328
   13SOL    HW2  939   3.046   6.701   4.214
   14SOL     OW  940   3.921   5.105   6.465
   14SOL    HW1  941   3.973   5.181   6.505
   14SOL    HW2  942   3.919   5.115   6.365
   15SOL     OW  943   0.524   6.751   1.021
   15SOL    HW1  944   0.457   6.779   0.951
   15SOL    HW2  945   0.476   6.724   1.104
   16SOL     OW  946   5.440   3.149   6.204
   16SOL    HW1  947   5.344   3.126   6.189
   16SOL    HW2  948   5.478   3.190   6.121
   17SOL     OW  949   5.840   6.918   6.867
   17SOL    HW1  950   5.793   6.847   6.815
   17SOL    HW2  951   5.937   6.918   6.843
   18SOL     OW  952   3.251   0.775   5.524
   18SOL    HW1  953   3.179   0.792   5.591
   18SOL    HW2  954   3.339   0.771   5.570
   19SOL     OW  955   0.546   2.317   2.485
   19SOL    HW1  956   0.557   2.248   2.413
   19SOL    HW2  957   0.592   2.402   2.458
   20SOL     OW  958   5.022   1.331   5.239
   20SOL    HW1  959   5.033   1.317   5.141
   20SOL    HW2  960   5.025   1.243   5.286
   21SOL     OW  961   3.011   1.429   2.032
   21SOL    HW1  962   3.046   1.457   1.942
   21SOL    HW2  963   2.937   1.363   2.020
   22SOL     OW  964   0.879   6.055   0.433
   22SOL    HW1  965   0.785   6.087   0.420
   22SOL    HW2  966   0.920   6.103   0.510
   23SOL     OW  967   4.282   5.442   1.996
   23SOL    HW1  968   4.352   5.455   2.067
   23SOL    HW2  969   4.319   5.471   1.908
   24SOL     OW  970   3.144   0.670   2.302
   24SOL    HW1  971   3.179   0.576   2.295
   24SOL    HW2  972   3.045   0.669   2.292
   25SOL     OW  973   2.564   0.204   3.517
   25SOL    HW1  974   2.566   0.176   3.421
   25SOL    HW2  975   2.500   0.281   3.528
   26SOL     OW  976   6.364   1.710   0.305
   26SOL    HW1  977   6.345   1.621   0.345
   26SOL    HW2  978   6.423   1.763   0.367
   27SOL     OW  979   1.652   1.050   2.437
   27SOL    HW1  980   1.566   1.102   2.436
   27SOL    HW2  981   1.729   1.112   2.430
   28SOL     OW  982   1.391   0.012   5.037
   28SOL    HW1  983   1.423   6.957   4.985
   28SOL    HW2  984   1.329   7.006   5.110
   29SOL     OW  985   6.372   1.863   1.422
   29SOL    HW1  986   6.356   1.856   1.521
   29SOL    HW2  987   6.438   1.935   1.405
   30SOL     OW  988   4.417   0.876   3.828
   30SOL    HW1  989   4.417   0.811   3.904
   30SOL    HW2  990   4.486   0.849   3.761
   31SOL     OW  991   0.463   2.253   6.634
   31SOL    HW1  992   0.500   2.338   6.671
   31SOL    HW2  993   0.493   2.242   6.539
   32SOL     OW  994   0.738   2.121   2.712
   32SOL    HW1  995   0.804   2.169   2.654
   32SOL    HW2  996   0.680   2.063   2.656
   33SOL     OW  997   1.270   4.395   5.115
   33SOL    HW1  998   1.259   4.409   5.213
   33SOL    HW2  999   1.245   4.301   5.091
   34SOL     OW 1000   2.760   6.750   4.881
   34SOL    HW1 1001   2.757   6.845   4.911
   34SOL    HW2 1002   2.674   6.705   4.901
   35SOL     OW 1003   4.947   2.414   5.653
   35SOL    HW1 1004   5.009   2.350   5.699
   35SOL    HW2 1005   4.960   2.506   5.690
   36SOL     OW 1006   4.501   2.132   4.557
   36SOL    HW1 1007   4.485   2.033   4.552
   36SOL    HW2 1008   4.599   2.149   4.559
   37SOL     OW 1009   1.788   1.252   5.886
   37SOL    HW1 1010   1.779   1.315   5.808
   37SOL    HW2 1011   1.740   1.291   5.965
   38SOL     OW 1012   1.438   4.953   2.186
   38SOL    HW1 1013   1.454   5.050   2.202
   38SOL    HW2 1014   1.521   4.901   2.207
   39SOL     OW 1015   6.352   4.463   6.557
   39SOL    HW1 1016   6.360   4.385   6.495
   39SOL    HW2 1017   6.286   4.442   6.629
   40SOL     OW 1018   4.067   2.063   0.873
   40SOL    HW1 1019   4.003   2.001   0.827
   40SOL    HW2 1020   4.093   2.023   0.961
   41SOL     OW 1021   6.745   3.394   3.414
   41SOL    HW1 1022   6.654   3.403   3.456
   41SOL    HW2 1023   6.814   3.432   3.476
   42SOL     OW 1024   3.289   5.957   4.598
   42SOL    HW1 1025   3.240   6.043   4.604
   42SOL    HW2 1026   3.379   5.967   4.641
   43SOL     OW 1027   4.592   0.513   5.346
   43SOL    HW1 1028   4.600   0.418   5.375
   43SOL    HW2 1029   4.572   0.570   5.425
   44SOL     OW 1030   5.470   2.219   5.483
   44SOL    HW1 1031   5.484   2.317   5.468
   44SOL    HW2 1032   5.485   2.170   5.397
   45SOL     OW 1033   4.458   4.880   1.083
   45SOL    HW1 1034   4.377   4.859   1.028
   45SOL    HW2 1035   4.432   4.939   1.160
   46SOL     OW 1036   0.710   2.797   3.963
   46SOL    HW1 1037   0.650   2.777   4.041
   46SOL    HW2 1038   0.662   2.859   3.900
   47SOL     OW 1039   4.256   4.079   0.620
   47SOL    HW1 1040   4.339   4.065   0.674
   47SOL    HW2 1041   4.185   4.017   0.653
   48SOL     OW 1042   6.652   2.747   6.661
   48SOL    HW1 1043   6.609   2.657   6.657
   48SOL    HW2 1044   6.695   2.759   6.751
   49SOL     OW 1045   6.119   3.148   2.136
   49SOL    HW1 1046   6.203   3.198   2.114
   49SOL    HW2 1047   6.115   3.063   2.083
   50SOL     OW 1048   5.860   1.208   5.319
   50SOL    HW1 1049   5.897   1.295   5.285
   50SOL    HW2 1050   5.794   1.172   5.252
   51SOL     OW 1051   2.380   6.750   2.926
   51SOL    HW1 1052   2.324   6.796   2.857
   51SOL    HW2 1053   2.476   6.774   2.912
   52SOL     OW 1054   5.748   3.119   1.969
   52SOL    HW1 1055   5.755   3.218   1.982
   52SOL    HW2 1056   5.727   3.100   1.873
   53SOL     OW 1057   4.947   1.592   4.027
   53SOL    HW1 1058   5.027   1.560   3.977
   53SOL    HW2 1059   4.976   1.639   4.110
   54SOL     OW 1060   5.795   6.221   1.265
   54SOL    HW1 1061   5.703   6.203   1.229
   54SOL    HW2 1062   5.859   6.230   1.189
   55SOL     OW 1063   2.401   2.732   4.916
   55SOL    HW1 1064   2.346   2.760   4.837
   55SOL    HW2 1065   2.417   2.811   4.975
   56SOL     OW 1066   0.463   0.716   1.404
   56SOL    HW1 1067   0.438   0.752   1.314
   56SOL    HW2 1068   0.391   0.653   1.436
   57SOL     OW 1069   4.693   1.113   1.574
   57SOL    HW1 1070   4.759   1.102   1.649
   57SOL    HW2 1071   4.689   1.028   1.522
   58SOL     OW 1072   0.933   6.306   5.941
   58SOL    HW1 1073   0.933   6.314   5.842
   58SOL    HW2 1074   0.907   6.394   5.982
   59SOL     OW 1075   6.850   3.420   6.474
   59SOL    HW1 1076   6.820   3.515   6.467
   59SOL    HW2 1077   6.774   3.360   6.449
   60SOL     OW 1078   5.426   2.847   4.165
   60SOL    HW1 1079   5.364   2.835   4.088
   60SOL    HW2 1080   5.401   2.929   4.216
   61SOL     OW 1081   0.145   1.444   4.476
   61SOL    HW1 1082   0.064   1.446   4.535
   61SOL    HW2 1083   0.155   1.352   4.437
   62SOL     OW 1084   2.033   1.181   1.742
   62SOL    HW1 1085   2.029   1.256   1.808
   62SOL    HW2 1086   1.971   1.201   1.666
   63SOL     OW 1087   4.002   0.364   4.586
   63SOL    HW1 1088   3.964   0.285   4.634
   63SOL    HW2 1089   3.947   0.384   4.505
   64SOL     OW 1090   0.097   2.518   6.473
   64SOL    HW1 1091   0.033   2.504   6.397
   64SOL    HW2 1092   0.133   2.429   6.502
   65SOL     OW 1093   0.319   4.818   6.492
   65SOL    HW1 1094   0.324   4.866   6.405
   65SOL    HW2 1095   0.327   4.719   6.476
   66SOL     OW 1096   2.907   0.790   3.163
   66SOL    HW1 1097   3.003   0.779   3.138
   66SOL    HW2 1098   2.897   0.871   3.221
   67SOL     OW 1099   6.976   2.866   6.001
   67SOL    HW1 1100   6.924   2.818   6.071
   67SOL    HW2 1101   0.049   2.853   6.017
   68SOL     OW 1102   0.360   1.409   0.107
   68SOL    HW1 1103   0.285   1.476   0.114
   68SOL    HW2 1104   0.430   1.444   0.044
   69SOL     OW 1105   1.475   2.569   5.313
   69SOL    HW1 1106   1.537   2.500   5.350
   69SOL    HW2 1107   1.524   2.657   5.306
   70SOL     OW 1108   5.248   4.905   4.114
   70SOL    HW1 1109   5.248   4.858   4.203
   70SOL    HW2 1110   5.324   4.872   4.059
   71SOL     OW 1111   4.337   2.186   3.460
   71SOL    HW1 1112   4.329   2.157   3.365
   71SOL    HW2 1113   4.356   2.107   3.518
   72SOL     OW 1114   0.967   1.307   3.243
   72SOL    HW1 1115   0.897   1.312   3.171
   72SOL    HW2 1116   1.008   1.398   3.254
   73SOL     OW 1117   3.435   0.284   0.878
   73SOL    HW1 1118   3.335   0.286   0.878
   73SOL    HW2 1119   3.469   0.361   0.823
   74SOL     OW 1120   3.855   0.781   0.143
   74SOL    HW1 1121   3.825   0.875   0.129
   74SOL    HW2 1122   3.840   0.755   0.238
   75SOL     OW 1123   4.580   0.727   1.465
   75SOL    HW1 1124   4.501   0.779   1.431
   75SOL    HW2 1125   4.555   0.631   1.473
   76SOL     OW 1126   3.234   3.170   6.923
   76SOL    HW1 1127   3.185   3.083   6.922
   76SOL    HW2 1128   3.169   3.245   6.933
   77SOL     OW 1129   0.847   0.448   3.422
   77SOL    HW1 1130   0.897   0.456   3.508
   77SOL    HW2 1131   0.902   0.487   3.348
   78SOL     OW 1132   4.976   1.574   0.626
   78SOL    HW1 1133   4.929   1.659   0.602
   78SOL    HW2 1134   5.069   1.595   0.657
   79SOL     OW 1135   2.866   6.063   1.830
   79SOL    HW1 1136   2.880   6.109   1.742
   79SOL    HW2 1137   2.921   5.979   1.833
   80SOL     OW 1138   4.270   1.591   4.300
   80SOL    HW1 1139   4.254   1.688   4.316
   80SOL    HW2 1140   4.202   1.556   4.235
   81SOL     OW 1141   1.842   7.009   2.357
   81SOL    HW1 1142   1.830   6.991   2.454
   81SOL    HW2 1143   1.773   6.958   2.305
   82SOL     OW 1144   5.612   5.597   1.200
   82SOL    HW1 1145   5.625   5.669   1.269
   82SOL    HW2 1146   5.595   5.639   1.111
   83SOL     OW 1147   0.327   0.514   7.012
   83SOL    HW1 1148   0.370   0.453   0.053
   83SOL    HW2 1149   0.249   0.560   0.030
   84SOL     OW 1150   6.209   3.579   2.825
   84SOL    HW1 1151   6.252   3.653   2.774
   84SOL    HW2 1152   6.217   3.597   2.923
   85SOL     OW 1153   1.795   1.316   3.005
   85SOL    HW1 1154   1.791   1.320   3.105
   85SOL    HW2 1155   1.814   1.222   2.977
   86SOL     OW 1156   6.992   1.321   6.775
   86SOL    HW1 1157   0.013   1.306   6.688
   86SOL    HW2 1158   6.895   1.343   6.758
   87SOL     OW 1159   4.530   4.282   1.129
   87SOL    HW1 1160   4.561   4.241   1.215
   87SOL    HW2 1161   4.485   4.369   1.148
   88SOL     OW 1162   3.494   2.449   6.131
   88SOL    HW1 1163   3.570   2.406   6.081
   88SOL    HW2 1164   3.513   2.446   6.229
   89SOL     OW 1165   3.286   2.568   0.197
   89SOL    HW1 1166   3.282   2.645   0.133
   89SOL    HW2 1167   3.378   2.562   0.236
   90SOL     OW 1168   3.866   5.108   2.553
   90SOL    HW1 1169   3.931   5.118   2.477
   90SOL    HW2 1170   3.773   5.126   2.519
   91SOL     OW 1171   6.585   4.029   6.119
   91SOL    HW1 1172   6.641   4.006   6.040
   91SOL    HW2 1173   6.644   4.050   6.197
   92SOL     OW 1174   4.283   4.300   1.022
   92SOL    HW1 1175   4.284   4.399   1.028
   92SOL    HW2 1176   4.369   4.263   1.057
   93SOL     OW 1177   3.073   3.351   6.758
   93SOL    HW1 1178   3.025   3.438   6.749
   93SOL    HW2 1179   3.006   3.277   6.767
   94SOL     OW 1180   3.020   5.485   6.621
   94SOL    HW1 1181   3.008   5.461   6.718
   94SOL    HW2 1182   3.077   5.417   6.576
   95SOL     OW 1183   2.032   1.390   2.629
   95SOL    HW1 1184   1.937   1.366   2.611
   95SOL    HW2 1185   2.047   1.486   2.609
   96SOL     OW 1186   4.288   5.224   5.253
   96SOL    HW1 1187   4.233   5.300   5.221
   96SOL    HW2 1188   4.336   5.250   5.337
   97SOL     OW 1189   1.765   3.643   5.776
   97SOL    HW1 1190   1.812   3.667   5.691
   97SOL    HW2 1191   1.771   3.544   5.791
   98SOL     OW 1192   1.436   2.358   0.294
   98SOL    HW1 1193   1.512   2.316   0.245
   98SOL    HW2 1194   1.365   2.385   0.228
   99SOL     OW 1195   3.989   3.561   1.489
   99SOL    HW1 1196   3.993   3.616   1.405
   99SOL    HW2 1197   3.909   3.588   1.542
  100SOL     OW 1198   0.338   0.054   4.353
  100SOL    HW1 1199   0.404   7.013   4.390
  100SOL    HW2 1200   0.350   0.061   4.254
  101SOL     OW 1201   0.741   4.864   2.080
  101SOL    HW1 1202   0.797   4.882   2.160
  101SOL    HW2 1203   0.672   4.795   2.102
  102SOL     OW 1204   3.476   5.441   2.134
  102SOL    HW1 1205   3.562   5.431   2.085
  102SOL    HW2 1206   3.405   5.471   2.071
  103SOL     OW 1207   2.154   2.560   2.102
  103SOL    HW1 1208   2.158   2.651   2.144
  103SOL    HW2 1209   2.230   2.504   2.135
  104SOL     OW 1210   1.364   6.266   2.786
  104SOL    HW1 1211   1.459   6.236   2.790
  104SOL    HW2 1212   1.341   6.315   2.870
  105SOL     OW 1213   6.204   1.326   6.273
  105SOL    HW1 1214   6.130   1.298   6.333
  105SOL    HW2 1215   6.183   1.417   6.235
  106SOL     OW 1216   3.733   6.458   3.514
  106SOL    HW1 1217   3.668   6.507   3.455
  106SOL    HW2 1218   3.712   6.478   3.610
  107SOL     OW 1219   0.643   1.151   0.493
  107SOL    HW1 1220   0.606   1.059   0.476
  107SOL    HW2 1221   0.575   1.219   0.463
  108SOL     OW 1222   3.849   6.493   6.462
  108SOL    HW1 1223   3.910   6.423   6.499
  108SOL    HW2 1224   3.769   6.449   6.422
  109SOL     OW 1225   2.895   1.632   2.192
  109SOL    HW1 1226   2.950   1.562   2.146
  109SOL    HW2 1227   2.947   1.673   2.266
  110SOL     OW 1228   3.434   5.708   4.499
  110SOL    HW1 1229   3.375   5.681   4.575
  110SOL    HW2 1230   3.445   5.630   4.436
  111SOL     OW 1231   2.123   1.493   4.039
  111SOL    HW1 1232   2.039   1.545   4.023
  111SOL    HW2 1233   2.190   1.515   3.968
  112SOL     OW 1234   3.725   6.310   6.949
  112SOL    HW1 1235   3.717   6.275   6.855
  112SOL    HW2 1236   3.693   6.241   7.013
  113SOL     OW 1237   0.607   6.163   3.254
  113SOL    HW1 1238   0.625   6.140   3.158
  113SOL    HW2 1239   0.694   6.166   3.304
  114SOL     OW 1240   1.260   5.874   1.686
  114SOL    HW1 1241   1.207   5.862   1.601
  114SOL    HW2 1242   1.342   5.818   1.682
  115SOL     OW 1243   5.433   6.940   2.668
  115SOL    HW1 1244   5.400   6.870   2.731
  115SOL    HW2 1245   5.506   6.993   2.713
  116SOL     OW 1246   0.173   5.736   1.328
  116SOL    HW1 1247   0.215   5.671   1.264
  116SOL    HW2 1248   0.090   5.697   1.366
  117SOL     OW 1249   0.375   0.859   1.168
  117SOL    HW1 1250   0.323   0.944   1.173
  117SOL    HW2 1251   0.447   0.868   1.100
  118SOL     OW 1252   1.274   1.871   2.472
  118SOL    HW1 1253   1.290   1.827   2.384
  118SOL    HW2 1254   1.361   1.898   2.512
  119SOL     OW 1255   0.581   0.385   0.487
  119SOL    HW1 1256   0.624   0.412   0.401
  119SOL    HW2 1257   0.483   0.401   0.482
  120SOL     OW 1258   5.304   0.762   4.618
  120SOL    HW1 1259   5.387   0.802   4.657
  120SOL    HW2 1260   5.304   0.663   4.632
  121SOL     OW 1261   1.135   3.607   0.201
  121SOL    HW1 1262   1.116   3.686   0.142
  121SOL    HW2 1263   1.131   3.636   0.297
  122SOL     OW 1264   1.796   3.129   0.504
  122SOL    HW1 1265   1.840   3.127   0.414
  122SOL    HW2 1266   1.769   3.223   0.527
  123SOL     OW 1267   1.258   1.626   1.827
  123SOL    HW1 1268   1.305   1.686   1.763
  123SOL    HW2 1269   1.226   1.545   1.779
  124SOL     OW 1270   3.072   2.844   0.933
  124SOL    HW1 1271   3.056   2.828   0.835
  124SOL    HW2 1272   3.053   2.940   0.954
  125SOL     OW 1273   4.625   2.978   0.741
  125SOL    HW1 1274   4.547   3.041   0.745
  125SOL    HW2 1275   4.710   3.030   0.749
  126SOL     OW 1276   3.438   3.365   2.629
  126SOL    HW1 1277   3.506   3.372   2.556
  126SOL    HW2 1278   3.452   3.437   2.696
  127SOL     OW 1279   0.434   5.005   6.654
  127SOL    HW1 1280   0.527   5.019   6.620
  127SOL    HW2 1281   0.391   4.929   6.606
  128SOL     OW 1282   5.032   3.174   1.586
  128SOL    HW1 1283   5.055   3.271   1.592
  128SOL    HW2 1284   5.097   3.121   1.640
  129SOL     OW 1285   2.984   2.888   0.133
  129SOL    HW1 1286   2.903   2.839   0.164
  129SOL    HW2 1287   2.986   2.979   0.175
  130SOL     OW 1288   0.036   0.365   4.251
  130SOL    HW1 1289   6.979   0.409   4.214
  130SOL    HW2 1290   0.019   0.267   4.262
  131SOL     OW 1291   5.078   0.476   3.830
  131SOL    HW1 1292   5.083   0.473   3.930
  131SOL    HW2 1293   5.170   0.472   3.792
  132SOL     OW 1294   3.025   2.701   1.753
  132SOL    HW1 1295   3.067   2.659   1.672
  132SOL    HW2 1296   2.995   2.629   1.816
  133SOL     OW 1297   5.428   0.888   4.121
  133SOL    HW1 1298   5.419   0.820   4.048
  133SOL    HW2 1299   5.477   0.968   4.086
  134SOL     OW 1300   6.957   0.726   2.911
  134SOL    HW1 1301   6.931   0.811   2.956
  134SOL    HW2 1302   7.005   0.667   2.975
  135SOL     OW 1303   5.563   3.865   4.545
  135SOL    HW1 1304   5.468   3.882   4.516
  135SOL    HW2 1305   5.577   3.767   4.557
  136SOL     OW 1306   1.611   5.230   4.909
  136SOL    HW1 1307   1.653   5.309   4.953
  136SOL    HW2 1308   1.555   5.260   4.832
  137SOL     OW 1309   4.461   1.626   3.876
  137SOL    HW1 1310   4.476   1.588   3.785
  137SOL    HW2 1311   4.393   1.699   3.871
  138SOL     OW 1312   1.046   3.842   3.048
  138SOL    HW1 1313   0.948   3.858   3.056
  138SOL    HW2 1314   1.095   3.903   3.110
  139SOL     OW 1315   1.719   6.075   5.415
  139SOL    HW1 1316   1.629   6.037   5.433
  139SOL    HW2 1317   1.748   6.052   5.323
  140SOL     OW 1318   1.301   6.401   3.869
  140SOL    HW1 1319   1.317   6.497   3.891
  140SOL    HW2 1320   1.265   6.393   3.777
  141SOL     OW 1321   6.759   2.726   5.654
  141SOL    HW1 1322   6.727   2.765   5.740
  141SOL    HW2 1323   6.787   2.801   5.593
  142SOL     OW 1324   1.993   3.388   1.973
  142SOL    HW1 1325   2.075   3.444   1.959
  142SOL    HW2 1326   2.017   3.292   1.959
  143SOL     OW 1327   5.612   5.111   0.936
  143SOL    HW1 1328   5.544   5.182   0.953
  143SOL    HW2 1329   5.701   5.141   0.972
  144SOL     OW 1330   2.306   4.662   5.440
  144SOL    HW1 1331   2.387   4.623   5.485
  144SOL    HW2 1332   2.319   4.661   5.341
  145SOL     OW 1333   2.777   5.360   1.425
  145SOL    HW1 1334   2.693   5.390   1.379
  145SOL    HW2 1335   2.801   5.268   1.393
  146SOL     OW 1336   5.379   0.237   6.735
  146SOL    HW1 1337   5.435   0.316   6.761
  146SOL    HW2 1338   5.283   0.264   6.733
  147SOL     OW 1339   5.222   0.750   5.857
  147SOL    HW1 1340   5.122   0.755   5.863
  147SOL    HW2 1341   5.257   0.833   5.815
  148SOL     OW 1342   0.475   5.520   1.345
  148SOL    HW1 1343   0.525   5.488   1.425
  148SOL    HW2 1344   0.437   5.611   1.363
  149SOL     OW 1345   3.385   1.913   5.091
  149SOL    HW1 1346   3.448   1.926   5.167
  149SOL    HW2 1347   3.404   1.825   5.046
  150SOL     OW 1348   5.539   0.026   6.800
  150SOL    HW1 1349   5.490   0.113   6.794
  150SOL    HW2 1350   5.630   0.041   6.836
  151SOL     OW 1351   3.705   1.017   1.815
  151SOL    HW1 1352   3.627   1.078   1.828
  151SOL    HW2 1353   3.754   1.040   1.731
  152SOL     OW 1354   0.075   1.559   0.599
  152SOL    HW1 1355   0.115   1.611   0.675
  152SOL    HW2 1356   0.051   1.467   0.631
  153SOL     OW 1357   2.600   6.452   3.120
  153SOL    HW1 1358   2.601   6.376   3.185
  153SOL    HW2 1359   2.562   6.421   3.033
  154SOL     OW 1360   0.406   3.455   0.961
  154SOL    HW1 1361   0.338   3.450   1.035
  154SOL    HW2 1362   0.378   3.524   0.895
  155SOL     OW 1363   0.571   1.400   3.518
  155SOL    HW1 1364   0.600   1.359   3.604
  155SOL    HW2 1365   0.632   1.476   3.494
  156SOL     OW 1366   6.723   0.168   7.000
  156SOL    HW1 1367   6.717   0.148   6.902
  156SOL    HW2 1368   6.753   0.263   7.013
  157SOL     OW 1369   5.477   3.491   0.288
  157SOL    HW1 1370   5.497   3.531   0.378
  157SOL    HW2 1371   5.561   3.454   0.249
  158SOL     OW 1372   2.154   2.632   0.907
  158SOL    HW1 1373   2.199   2.689   0.838
  158SOL    HW2 1374   2.069   2.675   0.935
  159SOL     OW 1375   4.016   4.998   1.267
  159SOL    HW1 1376   3.994   5.062   1.340
  159SOL    HW2 1377   4.068   5.046   1.195
  160SOL     OW 1378   5.897   0.261   0.771
  160SOL    HW1 1379   5.804   0.267   0.807
  160SOL    HW2 1380   5.945   0.347   0.787
  161SOL     OW 1381   1.264   0.558   2.670
  161SOL    HW1 1382   1.325   0.504   2.729
  161SOL    HW2 1383   1.245   0.506   2.586
  162SOL     OW 1384   3.854   5.723   6.345
  162SOL    HW1 1385   3.859   5.623   6.344
  162SOL    HW2 1386   3.835   5.754   6.439
  163SOL     OW 1387   6.716   6.203   2.158
  163SOL    HW1 1388   6.737   6.153   2.242
  163SOL    HW2 1389   6.762   6.159   2.081
  164SOL     OW 1390   0.987   3.889   2.452
  164SOL    HW1 1391   0.951   3.806   2.409
  164SOL    HW2 1392   0.927   3.918   2.526
  165SOL     OW 1393   4.779   4.832   6.412
  165SOL    HW1 1394   4.868   4.850   6.453
  165SOL    HW2 1395   4.708   4.877   6.467
  166SOL     OW 1396   0.524   3.458   1.914
  166SOL    HW1 1397   0.467   3.385   1.951
  166SOL    HW2 1398   0.473   3.543   1.913
  167SOL     OW 1399   6.229   1.584   6.460
  167SOL    HW1 1400   6.164   1.603   6.533
  167SOL    HW2 1401   6.297   1.517   6.492
  168SOL     OW 1402   3.866   1.912   0.745
  168SOL    HW1 1403   3.914   1.972   0.681
  168SOL    HW2 1404   3.848   1.824   0.702
  169SOL     OW 1405   5.827   3.165   0.495
  169SOL    HW1 1406   5.737   3.148   0.454
  169SOL    HW2 1407   5.815   3.200   0.588
  170SOL     OW 1408   6.867   5.685   2.214
  170SOL    HW1 1409   6.868   5.753   2.287
  170SOL    HW2 1410   6.788   5.702   2.154
  171SOL     OW 1411   2.442   4.614   6.888
  171SOL    HW1 1412   2.379   4.663   6.827
  171SOL    HW2 1413   2.444   4.660   6.977
  172SOL     OW 1414   6.086   1.628   3.139
  172SOL    HW1 1415   5.998   1.674   3.131
  172SOL    HW2 1416   6.160   1.695   3.135
  173SOL     OW 1417   5.527   1.228   4.658
  173SOL    HW1 1418   5.486   1.313   4.693
  173SOL    HW2 1419   5.474   1.194   4.581
  174SOL     OW 1420   4.383   5.336   3.791
  174SOL    HW1 1421   4.308   5.399   3.811
  174SOL    HW2 1422   4.351   5.263   3.731
  175SOL     OW 1423   3.880   0.842   1.140
  175SOL    HW1 1424   3.859   0.748   1.113
  175SOL    HW2 1425   3.951   0.842   1.210
  176SOL     OW 1426   5.815   4.648   2.219
  176SOL    HW1 1427   5.869   4.570   2.251
  176SOL    HW2 1428   5.743   4.615   2.157
  177SOL     OW 1429   5.276   3.380   4.643
  177SOL    HW1 1430   5.295   3.449   4.713
  177SOL    HW2 1431   5.231   3.301   4.685
  178SOL     OW 1432   3.075   4.769   5.622
  178SOL    HW1 1433   2.976   4.755   5.608
  178SOL    HW2 1434   3.125   4.692   5.584
  179SOL     OW 1435   3.795   0.539   6.730
  179SOL    HW1 1436   3.854   0.588   6.794
  179SOL    HW2 1437   3.741   0.471   6.779
  180SOL     OW 1438   2.345   0.542   0.834
  180SOL    HW1 1439   2.248   0.537   0.811
  180SOL    HW2 1440   2.400   0.504   0.760
  181SOL     OW 1441   2.854   3.696   5.551
  181SOL    HW1 1442   2.858   3.709   5.650
  181SOL    HW2 1443   2.944   3.713   5.511
  182SOL     OW 1444   4.200   2.362   6.214
  182SOL    HW1 1445   4.164   2.410   6.293
  182SOL    HW2 1446   4.153   2.275   6.203
  183SOL     OW 1447   3.692   2.112   3.961
  183SOL    HW1 1448   3.703   2.100   4.060
  183SOL    HW2 1449   3.777   2.089   3.915
  184SOL     OW 1450   0.126   6.812   3.410
  184SOL    HW1 1451   0.091   6.788   3.500
  184SOL    HW2 1452   0.147   6.729   3.358
  185SOL     OW 1453   1.059   1.441   4.811
  185SOL    HW1 1454   1.048   1.369   4.742
  185SOL    HW2 1455   1.049   1.530   4.767
  186SOL     OW 1456   6.169   1.254   4.319
  186SOL    HW1 1457   6.079   1.250   4.361
  186SOL    HW2 1458   6.165   1.311   4.237
  187SOL     OW 1459   5.629   6.771   2.302
  187SOL    HW1 1460   5.542   6.725   2.288
  187SOL    HW2 1461   5.647   6.780   2.400
  188SOL     OW 1462   0.635   3.179   4.089
  188SOL    HW1 1463   0.555   3.122   4.105
  188SOL    HW2 1464   0.693   3.137   4.020
  189SOL     OW 1465   2.051   5.398   0.122
  189SOL    HW1 1466   2.131   5.452   0.098
  189SOL    HW2 1467   2.048   5.384   0.221
  190SOL     OW 1468   6.349   4.257   5.681
  190SOL    HW1 1469   6.448   4.248   5.687
  190SOL    HW2 1470   6.312   4.179   5.631
  191SOL     OW 1471   6.453   1.467   6.576
  191SOL    HW1 1472   6.499   1.534   6.635
  191SOL    HW2 1473   6.512   1.446   6.498
  192SOL     OW 1474   0.100   4.917   1.741
  192SOL    HW1 1475   0.031   4.980   1.777
  192SOL    HW2 1476   0.168   4.896   1.812
  193SOL     OW 1477   5.180   3.772   5.243
  193SOL    HW1 1478   5.231   3.727   5.316
  193SOL    HW2 1479   5.198   3.725   5.156
  194SOL     OW 1480   3.670   6.840   3.517
  194SOL    HW1 1481   3.715   6.762   3.472
  194SOL    HW2 1482   3.718   6.860   3.603
  195SOL     OW 1483   1.689   1.098   4.472
  195SOL    HW1 1484   1.703   1.184   4.422
  195SOL    HW2 1485   1.773   1.045   4.471
  196SOL     OW 1486   2.568   0.151   6.460
  196SOL    HW1 1487   2.615   0.170   6.546
  196SOL    HW2 1488   2.606   0.208   6.387
  197SOL     OW 1489   2.816   0.124   0.809
  197SOL    HW1 1490   2.724   0.141   0.845
  197SOL    HW2 1491   2.875   0.090   0.883
  198SOL     OW 1492   4.521   6.701   2.460
  198SOL    HW1 1493   4.570   6.630   2.410
  198SOL    HW2 1494   4.495   6.774   2.398
  199SOL     OW 1495   6.643   1.102   3.328
  199SOL    HW1 1496   6.627   1.020   3.382
  199SOL    HW2 1497   6.735   1.136   3.346
  200SOL     OW 1498   1.433   3.768   1.789
  200SOL    HW1 1499   1.382   3.753   1.874
  200SOL    HW2 1500   1.374   3.810   1.721
  201SOL     OW 1501   5.191   6.899   6.455
  201SOL    HW1 1502   5.210   6.996   6.442
  201SOL    HW2 1503   5.274   6.853   6.487
  202SOL     OW 1504   5.063   6.995   6.161
  202SOL    HW1 1505   5.153   7.000   6.118
  202SOL    HW2 1506   5.022   6.906   6.142
  203SOL     OW 1507   4.832   2.267   5.173
  203SOL    HW1 1508   4.740   2.301   5.192
  203SOL    HW2 1509   4.888   2.340   5.135
  204SOL     OW 1510   6.565   0.704   6.513
  204SOL    HW1 1511   6.639   0.668   6.571
  204SOL    HW2 1512   6.564   0.804   6.519
  205SOL     OW 1513   0.850   0.993   2.624
  205SOL    HW1 1514   0.908   1.024   2.700
  205SOL    HW2 1515   0.902   0.999   2.539
  206SOL     OW 1516   0.222   4.920   2.532
  206SOL    HW1 1517   0.303   4.978   2.544
  206SOL    HW2 1518   0.166   4.925   2.614
  207SOL     OW 1519   4.217   0.412   4.308
  207SOL    HW1 1520   4.167   0.497   4.326
  207SOL    HW2 1521   4.210   0.351   4.387
  208SOL     OW 1522   5.202   3.719   5.557
  208SOL    HW1 1523   5.168   3.693   5.647
  208SOL    HW2 1524   5.128   3.761   5.504
  209SOL     OW 1525   1.056   4.888   4.848
  209SOL    HW1 1526   1.089   4.887   4.943
  209SOL    HW2 1527   1.057   4.795   4.812
  210SOL     OW 1528   4.078   1.784   1.526
  210SOL    HW1 1529   4.100   1.816   1.618
  210SOL    HW2 1530   4.138   1.708   1.502
  211SOL     OW 1531   1.239   6.370   3.350
  211SOL    HW1 1532   1.174   6.367   3.426
  211SOL    HW2 1533   1.194   6.341   3.266
  212SOL     OW 1534   2.210   4.681   2.273
  212SOL    HW1 1535   2.176   4.763   2.226
  212SOL    HW2 1536   2.174   4.678   2.366
  213SOL     OW 1537   3.478   0.730   5.650
  213SOL    HW1 1538   3.507   0.788   5.725
  213SOL    HW2 1539   3.555   0.675   5.619
  214SOL     OW 1540   4.136   5.744   1.827
  214SOL    HW1 1541   4.095   5.658   1.860
  214SOL    HW2 1542   4.211   5.770   1.888
  215SOL     OW 1543   2.680   3.669   1.588
  215SOL    HW1 1544   2.720   3.622   1.667
  215SOL    HW2 1545   2.739   3.746   1.562
  216SOL     OW 1546   1.570   5.983   4.918
  216SOL    HW1 1547   1.568   5.906   4.853
  216SOL    HW2 1548   1.481   5.990   4.963
  217SOL     OW 1549   2.611   2.508   3.418
  217SOL    HW1 1550   2.641   2.421   3.379
  217SOL    HW2 1551   2.549   2.554   3.354
  218SOL     OW 1552   0.283   3.061   4.353
  218SOL    HW1 1553   0.341   3.046   4.273
  218SOL    HW2 1554   0.339   3.087   4.431
  219SOL     OW 1555   3.398   6.389   6.055
  219SOL    HW1 1556   3.419   6.463   6.119
  219SOL    HW2 1557   3.355   6.314   6.105
  220SOL     OW 1558   3.646   6.666   6.863
  220SOL    HW1 1559   3.627   6.569   6.879
  220SOL    HW2 1560   3.704   6.676   6.782
  221SOL     OW 1561   7.003   4.048   2.385
  221SOL    HW1 1562   0.001   3.953   2.362
  221SOL    HW2 1563   0.048   4.084   2.447
  222SOL     OW 1564   2.246   5.000   5.720
  222SOL    HW1 1565   2.212   4.952   5.801
  222SOL    HW2 1566   2.321   5.060   5.746
  223SOL     OW 1567   6.081   3.624   1.260
  223SOL    HW1 1568   6.078   3.525   1.250
  223SOL    HW2 1569   6.014   3.666   1.199
  224SOL     OW 1570   2.679   1.503   3.774
  224SOL    HW1 1571   2.735   1.436   3.725
  224SOL    HW2 1572   2.660   1.471   3.866
  225SOL     OW 1573   5.522   1.340   5.735
  225SOL    HW1 1574   5.573   1.274   5.790
  225SOL    HW2 1575   5.474   1.291   5.661
  226SOL     OW 1576   1.547   0.165   6.086
  226SOL    HW1 1577   1.556   0.080   6.033
  226SOL    HW2 1578   1.453   0.198   6.080
  227SOL     OW 1579   1.519   4.243   2.286
  227SOL    HW1 1580   1.473   4.185   2.353
  227SOL    HW2 1581   1.452   4.274   2.219
  228SOL     OW 1582   3.216   6.541   4.099
  228SOL    HW1 1583   3.188   6.468   4.037
  228SOL    HW2 1584   3.164   6.624   4.079
  229SOL     OW 1585   4.852   6.751   0.585
  229SOL    HW1 1586   4.776   6.705   0.630
  229SOL    HW2 1587   4.933   6.745   0.643
  230SOL     OW 1588   2.626   4.686   2.724
  230SOL    HW1 1589   2.581   4.714   2.639
  230SOL    HW2 1590   2.565   4.627   2.776
  231SOL     OW 1591   6.824   1.783   6.648
  231SOL    HW1 1592   6.858   1.706   6.594
  231SOL    HW2 1593   6.742   1.754   6.699
  232SOL     OW 1594   1.343   3.804   6.012
  232SOL    HW1 1595   1.405   3.847   6.078
  232SOL    HW2 1596   1.397   3.755   5.943
  233SOL     OW 1597   2.309   1.584   3.869
  233SOL    HW1 1598   2.266   1.593   3.779
  233SOL    HW2 1599   2.374   1.659   3.883
  234SOL     OW 1600   2.998   6.431   5.567
  234SOL    HW1 1601   3.091   6.397   5.550
  234SOL    HW2 1602   2.945   6.362   5.616
  235SOL     OW 1603   3.286   3.757   2.043
  235SOL    HW1 1604   3.275   3.678   1.984
  235SOL    HW2 1605   3.221   3.751   2.120
  236SOL     OW 1606   6.099   2.922   6.508
  236SOL    HW1 1607   6.179   2.863   6.513
  236SOL    HW2 1608   6.127   3.015   6.484
  237SOL     OW 1609   6.619   6.390   0.873
  237SOL    HW1 1610   6.671   6.462   0.828
  237SOL    HW2 1611   6.676   6.347   0.943
  238SOL     OW 1612   6.007   2.190   6.777
  238SOL    HW1 1613   6.056   2.271   6.807
  238SOL    HW2 1614   6.067   2.110   6.782
  239SOL     OW 1615   0.286   5.675   6.913
  239SOL    HW1 1616   0.297   5.772   6.932
  239SOL    HW2 1617   0.306   5.657   6.816
  240SOL     OW 1618   0.515   2.570   6.278
  240SOL    HW1 1619   0.468   2.643   6.327
  240SOL    HW2 1620   0.614   2.584   6.284
  241SOL     OW 1621   1.510   6.898   4.145
  241SOL    HW1 1622   1.593   6.864   4.188
  241SOL    HW2 1623   1.517   6.996   4.128
  242SOL     OW 1624   2.385   3.009   6.113
  242SOL    HW1 1625   2.406   3.082   6.048
  242SOL    HW2 1626   2.467   2.986   6.165
  243SOL     OW 1627   5.759   0.317   6.532
  243SOL    HW1 1628   5.798   0.345   6.444
  243SOL    HW2 1629   5.752   0.217   6.535
  244SOL     OW 1630   4.865   3.003   4.562
  244SOL    HW1 1631   4.871   3.091   4.609
  244SOL    HW2 1632   4.784   2.953   4.594
  245SOL     OW 1633   7.015   2.424   5.124
  245SOL    HW1 1634   0.063   2.402   5.189
  245SOL    HW2 1635   6.926   2.401   5.163
  246SOL     OW 1636   4.813   2.965   2.947
  246SOL    HW1 1637   4.794   3.054   2.905
  246SOL    HW2 1638   4.911   2.956   2.963
  247SOL     OW 1639   2.770   1.096   1.726
  247SOL    HW1 1640   2.720   1.075   1.642
  247SOL    HW2 1641   2.853   1.147   1.704
  248SOL     OW 1642   4.346   1.607   4.671
  248SOL    HW1 1643   4.367   1.531   4.610
  248SOL    HW2 1644   4.266   1.584   4.727
  249SOL     OW 1645   4.762   6.801   5.894
  249SOL    HW1 1646   4.852   6.768   5.921
  249SOL    HW2 1647   4.760   6.814   5.795
  250SOL     OW 1648   4.995   1.929   6.423
  250SOL    HW1 1649   4.902   1.929   6.388
  250SOL    HW2 1650   5.031   1.836   6.421
  251SOL     OW 1651   4.460   4.497   6.553
  251SOL    HW1 1652   4.409   4.413   6.575
  251SOL    HW2 1653   4.517   4.522   6.631
  252SOL     OW 1654   6.773   0.667   6.645
  252SOL    HW1 1655   6.837   0.682   6.570
  252SOL    HW2 1656   6.810   0.599   6.708
  253SOL     OW 1657   2.039   3.957   0.064
  253SOL    HW1 1658   1.983   3.915   7.018
  253SOL    HW2 1659   1.985   4.027   0.112
  254SOL     OW 1660   6.186   3.046   3.889
  254SOL    HW1 1661   6.208   3.099   3.807
  254SOL    HW2 1662   6.097   3.002   3.877
  255SOL     OW 1663   1.640   3.040   4.446
  255SOL    HW1 1664   1.554   3.080   4.414
  255SOL    HW2 1665   1.689   3.107   4.501
  256SOL     OW 1666   5.942   4.352   6.969
  256SOL    HW1 1667   5.955   4.433   0.002
  256SOL    HW2 1668   5.898   4.280   7.023
  257SOL     OW 1669   4.211   5.973   4.624
  257SOL    HW1 1670   4.279   6.039   4.658
  257SOL    HW2 1671   4.245   5.930   4.541
  258SOL     OW 1672   5.779   4.758   4.621
  258SOL    HW1 1673   5.738   4.669   4.641
  258SOL    HW2 1674   5.874   4.759   4.653
  259SOL     OW 1675   2.177   3.004   2.078
  259SOL    HW1 1676   2.177   3.088   2.133
  259SOL    HW2 1677   2.168   3.028   1.981
  260SOL     OW 1678   4.853   0.841   1.478
  260SOL    HW1 1679   4.758   0.808   1.469
  260SOL    HW2 1680   4.866   0.880   1.569
  261SOL     OW 1681   6.615   4.019   0.962
  261SOL    HW1 1682   6.672   3.957   1.015
  261SOL    HW2 1683   6.660   4.039   0.874
  262SOL     OW 1684   0.562   3.874   1.323
  262SOL    HW1 1685   0.635   3.942   1.333
  262SOL    HW2 1686   0.599   3.783   1.344
  263SOL     OW 1687   0.795   1.216   3.937
  263SOL    HW1 1688   0.749   1.127   3.926
  263SOL    HW2 1689   0.891   1.201   3.962
  264SOL     OW 1690   5.515   4.160   4.915
  264SOL    HW1 1691   5.544   4.079   4.964
  264SOL    HW2 1692   5.594   4.218   4.896
  265SOL     OW 1693   4.262   4.752   3.252
  265SOL    HW1 1694   4.324   4.723   3.325
  265SOL    HW2 1695   4.168   4.751   3.285
  266SOL     OW 1696   3.374   3.639   5.939
  266SOL    HW1 1697   3.326   3.559   5.975
  266SOL    HW2 1698   3.468   3.614   5.917
  267SOL     OW 1699   6.392   2.748   6.132
  267SOL    HW1 1700   6.429   2.829   6.178
  267SOL    HW2 1701   6.408   2.667   6.188
  268SOL     OW 1702   4.424   6.016   5.561
  268SOL    HW1 1703   4.500   5.998   5.498
  268SOL    HW2 1704   4.340   6.028   5.509
  269SOL     OW 1705   1.700   2.625   0.437
  269SOL    HW1 1706   1.776   2.661   0.490
  269SOL    HW2 1707   1.666   2.542   0.479
  270SOL     OW 1708   6.868   0.212   2.184
  270SOL    HW1 1709   6.928   0.290   2.205
  270SOL    HW2 1710   6.922   0.142   2.137
  271SOL     OW 1711   2.548   2.567   0.720
  271SOL    HW1 1712   2.565   2.506   0.798
  271SOL    HW2 1713   2.592   2.530   0.638
  272SOL     OW 1714   3.586   5.936   4.107
  272SOL    HW1 1715   3.509   5.920   4.169
  272SOL    HW2 1716   3.600   5.855   4.050
  273SOL     OW 1717   1.619   4.970   5.096
  273SOL    HW1 1718   1.618   5.039   5.024
  273SOL    HW2 1719   1.674   5.002   5.173
  274SOL     OW 1720   4.900   2.216   3.727
  274SOL    HW1 1721   4.917   2.152   3.652
  274SOL    HW2 1722   4.984   2.267   3.747
  275SOL     OW 1723   0.056   5.765   6.311
  275SOL    HW1 1724   0.064   5.813   6.223
  275SOL    HW2 1725   6.996   5.792   6.356
  276SOL     OW 1726   0.212   5.527   3.117
  276SOL    HW1 1727   0.239   5.467   3.192
  276SOL    HW2 1728   0.120   5.562   3.134
  277SOL     OW 1729   2.733   1.863   0.265
  277SOL    HW1 1730   2.645   1.825   0.293
  277SOL    HW2 1731   2.792   1.875   0.345
  278SOL     OW 1732   6.813   4.053   1.928
  278SOL    HW1 1733   6.843   4.019   1.839
  278SOL    HW2 1734   6.892   4.062   1.989
  279SOL     OW 1735   5.995   3.120   4.618
  279SOL    HW1 1736   6.028   3.095   4.709
  279SOL    HW2 1737   6.028   3.052   4.551
  280SOL     OW 1738   3.625   6.801   2.708
  280SOL    HW1 1739   3.652   6.887   2.667
  280SOL    HW2 1740   3.589   6.740   2.637
  281SOL     OW 1741   3.077   4.830   2.406
  281SOL    HW1 1742   3.010   4.842   2.480
  281SOL    HW2 1743   3.029   4.831   2.318
  282SOL     OW 1744   4.087   2.461   5.523
  282SOL    HW1 1745   4.075   2.487   5.619
  282SOL    HW2 1746   4.000   2.429   5.486
  283SOL     OW 1747   6.961   1.389   5.415
  283SOL    HW1 1748   7.017   1.322   5.366
  283SOL    HW2 1749   6.998   1.401   5.507
  284SOL     OW 1750   0.732   4.141   4.994
  284SOL    HW1 1751   0.708   4.069   5.058
  284SOL    HW2 1752   0.648   4.180   4.955
  285SOL     OW 1753   5.410   5.649   6.696
  285SOL    HW1 1754   5.396   5.553   6.670
  285SOL    HW2 1755   5.377   5.708   6.623
  286SOL     OW 1756   4.006   4.712   5.242
  286SOL    HW1 1757   3.924   4.767   5.261
  286SOL    HW2 1758   4.015   4.641   5.312
  287SOL     OW 1759   0.796   5.074   6.675
  287SOL    HW1 1760   0.870   5.035   6.620
  287SOL    HW2 1761   0.780   5.168   6.647
  288SOL     OW 1762   3.808   1.225   0.659
  288SOL    HW1 1763   3.825   1.153   0.726
  288SOL    HW2 1764   3.780   1.308   0.707
  289SOL     OW 1765   0.170   5.260   4.898
  289SOL    HW1 1766   0.212   5.190   4.841
  289SOL    HW2 1767   0.215   5.263   4.987
  290SOL     OW 1768   4.750   1.894   3.206
  290SOL    HW1 1769   4.763   1.988   3.174
  290SOL    HW2 1770   4.711   1.896   3.297
  291SOL     OW 1771   3.830   1.005   4.412
  291SOL    HW1 1772   3.737   0.981   4.385
  291SOL    HW2 1773   3.880   1.042   4.333
  292SOL     OW 1774   4.404   1.825   3.353
  292SOL    HW1 1775   4.369   1.913   3.320
  292SOL    HW2 1776   4.493   1.840   3.396
  293SOL     OW 1777   3.926   5.900   1.760
  293SOL    HW1 1778   3.968   5.976   1.709
  293SOL    HW2 1779   3.996   5.831   1.778
  294SOL     OW 1780   6.731   5.735   6.874
  294SOL    HW1 1781   6.634   5.714   6.879
  294SOL    HW2 1782   6.750   5.784   6.789
  295SOL     OW 1783   2.969   1.803   4.981
  295SOL    HW1 1784   3.010   1.892   4.960
  295SOL    HW2 1785   3.034   1.730   4.961
  296SOL     OW 1786   6.489   2.209   1.929
  296SOL    HW1 1787   6.575   2.206   1.981
  296SOL    HW2 1788   6.469   2.304   1.904
  297SOL     OW 1789   2.879   4.828   2.858
  297SOL    HW1 1790   2.880   4.816   2.958
  297SOL    HW2 1791   2.820   4.759   2.817
  298SOL     OW 1792   4.006   0.339   6.905
  298SOL    HW1 1793   3.999   0.323   6.807
  298SOL    HW2 1794   4.021   0.253   6.953
  299SOL     OW 1795   5.028   2.432   6.247
  299SOL    HW1 1796   5.057   2.337   6.249
  299SOL    HW2 1797   4.978   2.450   6.162
  300SOL     OW 1798   4.692   0.710   2.271
  300SOL    HW1 1799   4.602   0.754   2.276
  300SOL    HW2 1800   4.689   0.623   2.321
  301SOL     OW 1801   5.001   1.842   0.418
  301SOL    HW1 1802   5.085   1.806   0.459
  301SOL    HW2 1803   5.024   1.895   0.337
  302SOL     OW 1804   6.692   0.732   2.520
  302SOL    HW1 1805   6.665   0.821   2.556
  302SOL    HW2 1806   6.759   0.744   2.447
  303SOL     OW 1807   5.836   6.044   1.879
  303SOL    HW1 1808   5.890   6.060   1.962
  303SOL    HW2 1809   5.764   5.977   1.899
  304SOL     OW 1810   1.850   6.087   5.791
  304SOL    HW1 1811   1.946   6.060   5.799
  304SOL    HW2 1812   1.841   6.153   5.716
  305SOL     OW 1813   1.379   3.148   0.522
  305SOL    HW1 1814   1.367   3.247   0.516
  305SOL    HW2 1815   1.393   3.111   0.430
  306SOL     OW 1816   1.040   1.050   3.042
  306SOL    HW1 1817   1.124   1.041   3.097
  306SOL    HW2 1818   0.988   1.129   3.074
  307SOL     OW 1819   4.929   4.273   1.031
  307SOL    HW1 1820   4.899   4.255   1.125
  307SOL    HW2 1821   4.995   4.347   1.031
  308SOL     OW 1822   5.840   3.654   4.673
  308SOL    HW1 1823   5.845   3.721   4.599
  308SOL    HW2 1824   5.749   3.612   4.674
  309SOL     OW 1825   1.875   5.438   0.622
  309SOL    HW1 1826   1.946   5.404   0.560
  309SOL    HW2 1827   1.789   5.446   0.572
  310SOL     OW 1828   5.014   5.870   5.274
  310SOL    HW1 1829   4.946   5.848   5.204
  310SOL    HW2 1830   5.102   5.890   5.230
  311SOL     OW 1831   3.316   5.020   2.873
  311SOL    HW1 1832   3.252   5.093   2.896
  311SOL    HW2 1833   3.272   4.956   2.809
  312SOL     OW 1834   4.027   1.781   4.291
  312SOL    HW1 1835   4.051   1.849   4.360
  312SOL    HW2 1836   3.994   1.828   4.209
  313SOL     OW 1837   3.478   3.547   2.121
  313SOL    HW1 1838   3.557   3.540   2.060
  313SOL    HW2 1839   3.443   3.641   2.120
  314SOL     OW 1840   2.843   4.728   6.731
  314SOL    HW1 1841   2.807   4.794   6.665
  314SOL    HW2 1842   2.922   4.680   6.692
  315SOL     OW 1843   1.014   3.312   4.119
  315SOL    HW1 1844   1.026   3.401   4.074
  315SOL    HW2 1845   0.974   3.247   4.054
  316SOL     OW 1846   3.560   0.657   4.264
  316SOL    HW1 1847   3.541   0.625   4.357
  316SOL    HW2 1848   3.656   0.639   4.242
  317SOL     OW 1849   0.156   1.908   1.311
  317SOL    HW1 1850   0.083   1.923   1.378
  317SOL    HW2 1851   0.173   1.809   1.303
  318SOL     OW 1852   6.990   6.040   6.813
  318SOL    HW1 1853   0.014   5.972   6.759
  318SOL    HW2 1854   0.010   6.129   6.803
  319SOL     OW 1855   6.359   1.393   3.925
  319SOL    HW1 1856   6.425   1.365   3.855
  319SOL    HW2 1857   6.404   1.449   3.993
  320SOL     OW 1858   5.872   2.774   0.094
  320SOL    HW1 1859   5.805   2.756   0.166
  320SOL    HW2 1860   5.828   2.765   0.004
  321SOL     OW 1861   3.722   1.830   6.795
  321SOL    HW1 1862   3.700   1.751   6.739
  321SOL    HW2 1863   3.796   1.883   6.752
  322SOL     OW 1864   3.191   3.422   3.841
  322SOL    HW1 1865   3.262   3.491   3.854
  322SOL    HW2 1866   3.229   3.331   3.860
  323SOL     OW 1867   0.896   2.968   5.611
  323SOL    HW1 1868   0.992   2.988   5.594
  323SOL    HW2 1869   0.848   2.956   5.524
  324SOL     OW 1870   3.151   0.837   2.989
  324SOL    HW1 1871   3.083   0.894   2.942
  324SOL    HW2 1872   3.243   0.868   2.965
  325SOL     OW 1873   0.390   2.775   2.202
  325SOL    HW1 1874   0.302   2.773   2.155
  325SOL    HW2 1875   0.393   2.852   2.265
  326SOL     OW 1876   0.990   4.586   6.299
  326SOL    HW1 1877   1.012   4.629   6.212
  326SOL    HW2 1878   1.050   4.624   6.370
  327SOL     OW 1879   1.704   4.871   2.241
  327SOL    HW1 1880   1.697   4.869   2.141
  327SOL    HW2 1881   1.677   4.782   2.278
  328SOL     OW 1882   1.520   5.567   1.596
  328SOL    HW1 1883   1.582   5.623   1.649
  328SOL    HW2 1884   1.540   5.577   1.499
  329SOL     OW 1885   2.954   3.274   5.017
  329SOL    HW1 1886   2.961   3.175   5.013
  329SOL    HW2 1887   3.028   3.311   5.073
  330SOL     OW 1888   3.482   6.631   1.378
  330SOL    HW1 1889   3.440   6.721   1.379
  330SOL    HW2 1890   3.565   6.631   1.435
  331SOL     OW 1891   4.079   5.797   0.266
  331SOL    HW1 1892   4.030   5.820   0.182
  331SOL    HW2 1893   4.165   5.751   0.242
  332SOL     OW 1894   5.281   2.074   5.620
  332SOL    HW1 1895   5.340   2.132   5.564
  332SOL    HW2 1896   5.226   2.014   5.561
  333SOL     OW 1897   4.596   0.925   5.760
  333SOL    HW1 1898   4.606   0.988   5.683
  333SOL    HW2 1899   4.682   0.922   5.812
  334SOL     OW 1900   3.407   1.340   0.685
  334SOL    HW1 1901   3.415   1.298   0.776
  334SOL    HW2 1902   3.404   1.268   0.616
  335SOL     OW 1903   4.600   6.334   6.159
  335SOL    HW1 1904   4.559   6.412   6.207
  335SOL    HW2 1905   4.647   6.275   6.224
  336SOL     OW 1906   2.755   1.282   3.296
  336SOL    HW1 1907   2.751   1.379   3.270
  336SOL    HW2 1908   2.664   1.252   3.324
  337SOL     OW 1909   0.207   3.164   6.004
  337SOL    HW1 1910   0.179   3.125   6.092
  337SOL    HW2 1911   0.234   3.091   5.943
  338SOL     OW 1912   2.911   2.256   1.425
  338SOL    HW1 1913   2.817   2.224   1.432
  338SOL    HW2 1914   2.943   2.285   1.515
  339SOL     OW 1915   4.454   5.748   5.037
  339SOL    HW1 1916   4.398   5.792   5.106
  339SOL    HW2 1917   4.399   5.730   4.955
  340SOL     OW 1918   5.217   4.034   5.369
  340SOL    HW1 1919   5.186   3.947   5.330
  340SOL    HW2 1920   5.314   4.047   5.349
  341SOL     OW 1921   6.433   7.016   4.095
  341SOL    HW1 1922   6.467   7.023   4.189
  341SOL    HW2 1923   6.504   6.977   4.037
  342SOL     OW 1924   5.674   3.815   0.342
  342SOL    HW1 1925   5.753   3.863   0.379
  342SOL    HW2 1926   5.664   3.727   0.389
  343SOL     OW 1927   1.310   6.482   1.293
  343SOL    HW1 1928   1.315   6.511   1.388
  343SOL    HW2 1929   1.242   6.410   1.283
  344SOL     OW 1930   1.202   2.846   1.750
  344SOL    HW1 1931   1.282   2.906   1.747
  344SOL    HW2 1932   1.220   2.770   1.813
  345SOL     OW 1933   5.134   2.289   3.796
  345SOL    HW1 1934   5.209   2.298   3.730
  345SOL    HW2 1935   5.169   2.248   3.880
  346SOL     OW 1936   1.806   0.983   2.929
  346SOL    HW1 1937   1.816   0.910   2.862
  346SOL    HW2 1938   1.723   0.968   2.982
  347SOL     OW 1939   2.745   5.472   6.968
  347SOL    HW1 1940   2.747   5.410   0.022
  347SOL    HW2 1941   2.650   5.492   6.944
  348SOL     OW 1942   4.813   3.948   2.204
  348SOL    HW1 1943   4.790   4.042   2.180
  348SOL    HW2 1944   4.878   3.911   2.139
  349SOL     OW 1945   6.703   5.258   0.601
  349SOL    HW1 1946   6.787   5.310   0.617
  349SOL    HW2 1947   6.709   5.214   0.511
  350SOL     OW 1948   2.847   2.636   1.225
  350SOL    HW1 1949   2.888   2.720   1.262
  350SOL    HW2 1950   2.910   2.595   1.159
  351SOL     OW 1951   2.480   3.677   0.687
  351SOL    HW1 1952   2.414   3.744   0.654
  351SOL    HW2 1953   2.572   3.716   0.682
  352SOL     OW 1954   3.041   6.771   4.044
  352SOL    HW1 1955   2.960   6.754   3.987
  352SOL    HW2 1956   3.095   6.845   4.003
  353SOL     OW 1957   3.061   0.056   0.133
  353SOL    HW1 1958   3.070   0.041   0.232
  353SOL    HW2 1959   3.004   7.009   0.094
  354SOL     OW 1960   4.140   2.704   0.773
  354SOL    HW1 1961   4.201   2.744   0.705
  354SOL    HW2 1962   4.106   2.616   0.740
  355SOL     OW 1963   1.403   3.732   2.771
  355SOL    HW1 1964   1.351   3.733   2.685
  355SOL    HW2 1965   1.376   3.811   2.827
  356SOL     OW 1966   2.051   6.825   5.630
  356SOL    HW1 1967   2.042   6.784   5.720
  356SOL    HW2 1968   1.990   6.903   5.622
  357SOL     OW 1969   6.997   6.118   5.457
  357SOL    HW1 1970   0.041   6.096   5.388
  357SOL    HW2 1971   6.962   6.210   5.441
  358SOL     OW 1972   4.979   6.441   0.560
  358SOL    HW1 1973   5.038   6.500   0.615
  358SOL    HW2 1974   4.932   6.376   0.620
  359SOL     OW 1975   3.045   2.320   1.668
  359SOL    HW1 1976   3.120   2.265   1.704
  359SOL    HW2 1977   2.986   2.350   1.743
  360SOL     OW 1978   1.267   4.575   5.861
  360SOL    HW1 1979   1.185   4.572   5.804
  360SOL    HW2 1980   1.316   4.488   5.855
  361SOL     OW 1981   6.427   6.625   2.766
  361SOL    HW1 1982   6.492   6.693   2.730
  361SOL    HW2 1983   6.443   6.537   2.723
  362SOL     OW 1984   3.671   3.056   1.299
  362SOL    HW1 1985   3.616   3.059   1.215
  362SOL    HW2 1986   3.648   3.134   1.356
  363SOL     OW 1987   5.564   4.398   2.980
  363SOL    HW1 1988   5.500   4.406   3.056
  363SOL    HW2 1989   5.640   4.462   2.995
  364SOL     OW 1990   6.649   5.033   6.581
  364SOL    HW1 1991   6.682   4.939   6.570
  364SOL    HW2 1992   6.590   5.057   6.503
  365SOL     OW 1993   5.537   6.660   1.926
  365SOL    HW1 1994   5.555   6.738   1.986
  365SOL    HW2 1995   5.528   6.577   1.980
  366SOL     OW 1996   5.355   0.569   6.626
  366SOL    HW1 1997   5.429   0.539   6.686
  366SOL    HW2 1998   5.370   0.665   6.601
  367SOL     OW 1999   5.663   2.798   1.910
  367SOL    HW1 2000   5.685   2.838   1.999
  367SOL    HW2 2001   5.694   2.703   1.909
  368SOL     OW 2002   0.749   2.908   5.347
  368SOL    HW1 2003   0.774   2.945   5.257
  368SOL    HW2 2004   0.709   2.981   5.403
  369SOL     OW 2005   5.936   4.869   2.111
  369SOL    HW1 2006   5.891   4.946   2.156
  369SOL    HW2 2007   5.902   4.783   2.149
  370SOL     OW 2008   1.855   1.355   5.077
  370SOL    HW1 2009   1.758   1.374   5.058
  370SOL    HW2 2010   1.912   1.415   5.022
  371SOL     OW 2011   1.788   4.557   5.851
  371SOL    HW1 2012   1.801   4.480   5.788
  371SOL    HW2 2013   1.871   4.570   5.905
  372SOL     OW 2014   1.418   6.283   6.701
  372SOL    HW1 2015   1.409   6.205   6.639
  372SOL    HW2 2016   1.364   6.359   6.665
  373SOL     OW 2017   6.123   6.407   4.458
  373SOL    HW1 2018   6.107   6.390   4.361
  373SOL    HW2 2019   6.039   6.444   4.499
  374SOL     OW 2020   2.940   1.861   3.997
  374SOL    HW1 2021   2.998   1.938   3.970
  374SOL    HW2 2022   2.898   1.822   3.915
  375SOL     OW 2023   0.826   4.661   4.274
  375SOL    HW1 2024   0.857   4.646   4.367
  375SOL    HW2 2025   0.816   4.760   4.258
  376SOL     OW 2026   2.890   1.150   5.199
  376SOL    HW1 2027   2.822   1.211   5.240
  376SOL    HW2 2028   2.981   1.190   5.209
  377SOL     OW 2029   1.259   2.053   1.248
  377SOL    HW1 2030   1.357   2.055   1.269
  377SOL    HW2 2031   1.247   2.059   1.149
  378SOL     OW 2032   4.790   2.491   6.368
  378SOL    HW1 2033   4.874   2.451   6.332
  378SOL    HW2 2034   4.711   2.452   6.321
  379SOL     OW 2035   5.968   2.793   1.831
  379SOL    HW1 2036   5.960   2.761   1.736
  379SOL    HW2 2037   5.921   2.728   1.892
  380SOL     OW 2038   2.659   1.291   0.500
  380SOL    HW1 2039   2.690   1.204   0.538
  380SOL    HW2 2040   2.739   1.347   0.476
  381SOL     OW 2041   1.447   3.905   2.433
  381SOL    HW1 2042   1.386   3.840   2.479
  381SOL    HW2 2043   1.431   3.997   2.468
  382SOL     OW 2044   6.116   0.249   6.778
  382SOL    HW1 2045   6.089   0.177   6.713
  382SOL    HW2 2046   6.077   0.229   6.868
  383SOL     OW 2047   4.085   4.143   6.449
  383SOL    HW1 2048   3.992   4.125   6.479
  383SOL    HW2 2049   4.088   4.147   6.349
  384SOL     OW 2050   0.093   5.336   3.747
  384SOL    HW1 2051   0.047   5.423   3.766
  384SOL    HW2 2052   0.192   5.352   3.741
  385SOL     OW 2053   3.214   4.507   5.479
  385SOL    HW1 2054   3.297   4.466   5.518
  385SOL    HW2 2055   3.169   4.440   5.419
  386SOL     OW 2056   2.526   0.051   5.167
  386SOL    HW1 2057   2.550   0.138   5.124
  386SOL    HW2 2058   2.608   0.011   5.209
  387SOL     OW 2059   1.262   0.066   2.213
  387SOL    HW1 2060   1.334   0.098   2.152
  387SOL    HW2 2061   1.255   6.991   2.207
  388SOL     OW 2062   1.356   1.559   5.085
  388SOL    HW1 2063   1.407   1.624   5.029
  388SOL    HW2 2064   1.305   1.609   5.156
  389SOL     OW 2065   3.586   3.765   1.336
  389SOL    HW1 2066   3.659   3.799   1.277
  389SOL    HW2 2067   3.502   3.753   1.281
  390SOL     OW 2068   3.207   1.872   1.682
  390SOL    HW1 2069   3.280   1.842   1.621
  390SOL    HW2 2070   3.189   1.969   1.667
  391SOL     OW 2071   1.928   2.392   6.622
  391SOL    HW1 2072   1.862   2.319   6.640
  391SOL    HW2 2073   2.018   2.351   6.606
  392SOL     OW 2074   1.848   4.558   0.937
  392SOL    HW1 2075   1.870   4.541   1.033
  392SOL    HW2 2076   1.928   4.597   0.891
  393SOL     OW 2077   1.595   4.305   6.771
  393SOL    HW1 2078   1.682   4.255   6.779
  393SOL    HW2 2079   1.582   4.333   6.676
  394SOL     OW 2080   0.144   1.914   0.227
  394SOL    HW1 2081   0.238   1.947   0.216
  394SOL    HW2 2082   0.142   1.840   0.294
  395SOL     OW 2083   4.756   4.083   2.990
  395SOL    HW1 2084   4.786   4.010   3.051
  395SOL    HW2 2085   4.757   4.051   2.895
  396SOL     OW 2086   3.169   3.802   1.724
  396SOL    HW1 2087   3.086   3.829   1.772
  396SOL    HW2 2088   3.226   3.883   1.708
  397SOL     OW 2089   5.528   1.527   5.411
  397SOL    HW1 2090   5.626   1.528   5.433
  397SOL    HW2 2091   5.484   1.449   5.457
  398SOL     OW 2092   1.290   0.377   2.219
  398SOL    HW1 2093   1.352   0.335   2.153
  398SOL    HW2 2094   1.196   0.374   2.184
  399SOL     OW 2095   5.774   5.912   2.258
  399SOL    HW1 2096   5.752   6.007   2.235
  399SOL    HW2 2097   5.775   5.857   2.174
  400SOL     OW 2098   6.536   6.088   5.922
  400SOL    HW1 2099   6.452   6.034   5.924
  400SOL    HW2 2100   6.561   6.114   6.015
  401SOL     OW 2101   5.793   0.456   6.758
  401SOL    HW1 2102   5.775   0.410   6.670
  401SOL    HW2 2103   5.882   0.501   6.754
  402SOL     OW 2104   6.150   0.099   3.762
  402SOL    HW1 2105   6.089   0.022   3.780
  402SOL    HW2 2106   6.113   0.181   3.805
  403SOL     OW 2107   3.678   2.044   4.461
  403SOL    HW1 2108   3.696   1.946   4.458
  403SOL    HW2 2109   3.588   2.061   4.500
  404SOL     OW 2110   1.468   5.203   3.916
  404SOL    HW1 2111   1.399   5.190   3.987
  404SOL    HW2 2112   1.426   5.244   3.835
  405SOL     OW 2113   1.798   3.277   2.339
  405SOL    HW1 2114   1.791   3.365   2.293
  405SOL    HW2 2115   1.826   3.207   2.273
  406SOL     OW 2116   0.736   3.838   4.732
  406SOL    HW1 2117   0.716   3.828   4.830
  406SOL    HW2 2118   0.820   3.789   4.710
  407SOL     OW 2119   1.236   0.741   4.542
  407SOL    HW1 2120   1.214   0.827   4.587
  407SOL    HW2 2121   1.316   0.753   4.484
  408SOL     OW 2122   1.251   2.587   3.165
  408SOL    HW1 2123   1.322   2.636   3.115
  408SOL    HW2 2124   1.263   2.489   3.154
  409SOL     OW 2125   6.832   3.107   2.135
  409SOL    HW1 2126   6.844   3.013   2.104
  409SOL    HW2 2127   6.770   3.109   2.214
  410SOL     OW 2128   2.015   1.550   0.806
  410SOL    HW1 2129   1.937   1.612   0.800
  410SOL    HW2 2130   2.009   1.481   0.735
  411SOL     OW 2131   6.057   0.168   1.691
  411SOL    HW1 2132   5.976   0.223   1.709
  411SOL    HW2 2133   6.033   0.071   1.696
  412SOL     OW 2134   3.289   5.856   3.867
  412SOL    HW1 2135   3.216   5.875   3.932
  412SOL    HW2 2136   3.258   5.878   3.774
  413SOL     OW 2137   5.502   3.576   1.764
  413SOL    HW1 2138   5.403   3.587   1.753
  413SOL    HW2 2139   5.548   3.595   1.677
  414SOL     OW 2140   3.344   5.297   3.613
  414SOL    HW1 2141   3.350   5.376   3.674
  414SOL    HW2 2142   3.270   5.237   3.643
  415SOL     OW 2143   1.070   5.961   6.901
  415SOL    HW1 2144   1.155   5.935   6.855
  415SOL    HW2 2145   1.021   5.879   6.930
  416SOL     OW 2146   4.689   6.501   4.892
  416SOL    HW1 2147   4.605   6.463   4.855
  416SOL    HW2 2148   4.677   6.599   4.907
  417SOL     OW 2149   2.074   5.893   6.225
  417SOL    HW1 2150   2.094   5.805   6.183
  417SOL    HW2 2151   2.006   5.880   6.298
  418SOL     OW 2152   4.262   6.840   6.938
  418SOL    HW1 2153   4.242   6.937   6.933
  418SOL    HW2 2154   4.359   6.826   6.956
  419SOL     OW 2155   2.067   6.734   1.611
  419SOL    HW1 2156   2.057   6.770   1.704
  419SOL    HW2 2157   2.037   6.639   1.609
  420SOL     OW 2158   6.095   1.261   0.318
  420SOL    HW1 2159   6.051   1.265   0.408
  420SOL    HW2 2160   6.179   1.314   0.321
  421SOL     OW 2161   0.204   3.768   5.486
  421SOL    HW1 2162   0.143   3.797   5.412
  421SOL    HW2 2163   0.298   3.767   5.454
  422SOL     OW 2164   5.440   3.295   1.444
  422SOL    HW1 2165   5.401   3.231   1.510
  422SOL    HW2 2166   5.383   3.377   1.439
  423SOL     OW 2167   0.715   1.912   6.030
  423SOL    HW1 2168   0.631   1.944   5.985
  423SOL    HW2 2169   0.764   1.851   5.968
  424SOL     OW 2170   1.552   5.526   0.942
  424SOL    HW1 2171   1.603   5.476   1.013
  424SOL    HW2 2172   1.612   5.593   0.899
  425SOL     OW 2173   4.867   1.681   3.360
  425SOL    HW1 2174   4.877   1.728   3.272
  425SOL    HW2 2175   4.831   1.589   3.344
  426SOL     OW 2176   3.220   1.946   4.408
  426SOL    HW1 2177   3.133   1.936   4.360
  426SOL    HW2 2178   3.294   1.950   4.341
  427SOL     OW 2179   5.638   6.271   3.770
  427SOL    HW1 2180   5.584   6.270   3.686
  427SOL    HW2 2181   5.650   6.366   3.801
  428SOL     OW 2182   4.288   0.349   3.613
  428SOL    HW1 2183   4.339   0.431   3.587
  428SOL    HW2 2184   4.344   0.291   3.671
  429SOL     OW 2185   1.251   4.663   1.724
  429SOL    HW1 2186   1.180   4.702   1.783
  429SOL    HW2 2187   1.233   4.566   1.711
  430SOL     OW 2188   0.703   0.054   4.464
  430SOL    HW1 2189   0.662   6.989   4.479
  430SOL    HW2 2190   0.746   0.086   4.548
  431SOL     OW 2191   2.568   0.457   1.191
  431SOL    HW1 2192   2.512   0.412   1.122
  431SOL    HW2 2193   2.643   0.396   1.218
  432SOL     OW 2194   6.387   1.544   0.611
  432SOL    HW1 2195   6.463   1.583   0.664
  432SOL    HW2 2196   6.301   1.561   0.659
  433SOL     OW 2197   1.713   6.519   4.998
  433SOL    HW1 2198   1.777   6.495   4.926
  433SOL    HW2 2199   1.657   6.440   5.022
  434SOL     OW 2200   3.834   5.406   3.613
  434SOL    HW1 2201   3.763   5.345   3.648
  434SOL    HW2 2202   3.801   5.453   3.531
  435SOL     OW 2203   4.446   2.762   6.390
  435SOL    HW1 2204   4.423   2.723   6.301
  435SOL    HW2 2205   4.467   2.859   6.379
  436SOL     OW 2206   3.062   5.777   2.429
  436SOL    HW1 2207   3.067   5.701   2.364
  436SOL    HW2 2208   2.983   5.834   2.409
  437SOL     OW 2209   0.551   1.498   6.957
  437SOL    HW1 2210   0.640   1.467   6.990
  437SOL    HW2 2211   0.557   1.593   6.929
  438SOL     OW 2212   2.276   4.222   3.404
  438SOL    HW1 2213   2.230   4.308   3.381
  438SOL    HW2 2214   2.315   4.182   3.321
  439SOL     OW 2215   5.980   5.120   2.338
  439SOL    HW1 2216   5.926   5.155   2.261
  439SOL    HW2 2217   5.923   5.062   2.396
  440SOL     OW 2218   2.202   1.765   4.880
  440SOL    HW1 2219   2.215   1.863   4.867
  440SOL    HW2 2220   2.180   1.746   4.976
  441SOL     OW 2221   0.399   3.065   4.104
  441SOL    HW1 2222   0.331   3.138   4.106
  441SOL    HW2 2223   0.358   2.983   4.064
  442SOL     OW 2224   4.184   5.480   5.194
  442SOL    HW1 2225   4.234   5.561   5.224
  442SOL    HW2 2226   4.111   5.507   5.131
  443SOL     OW 2227   6.016   4.322   3.858
  443SOL    HW1 2228   6.046   4.226   3.853
  443SOL    HW2 2229   5.948   4.339   3.787
  444SOL     OW 2230   5.077   0.592   0.008
  444SOL    HW1 2231   4.992   0.640   7.017
  444SOL    HW2 2232   5.083   0.566   0.104
  445SOL     OW 2233   0.510   5.817   3.110
  445SOL    HW1 2234   0.588   5.774   3.064
  445SOL    HW2 2235   0.523   5.916   3.113
  446SOL     OW 2236   3.297   4.888   3.481
  446SOL    HW1 2237   3.263   4.969   3.433
  446SOL    HW2 2238   3.224   4.853   3.540
  447SOL     OW 2239   0.403   2.777   6.429
  447SOL    HW1 2240   0.327   2.765   6.493
  447SOL    HW2 2241   0.410   2.874   6.403
  448SOL     OW 2242   2.176   0.895   3.654
  448SOL    HW1 2243   2.130   0.976   3.688
  448SOL    HW2 2244   2.125   0.813   3.683
  449SOL     OW 2245   2.612   1.147   4.102
  449SOL    HW1 2246   2.697   1.159   4.049
  449SOL    HW2 2247   2.635   1.138   4.199
  450SOL     OW 2248   1.579   4.793   3.264
  450SOL    HW1 2249   1.610   4.707   3.305
  450SOL    HW2 2250   1.614   4.800   3.171
  451SOL     OW 2251   1.260   2.433   4.314
  451SOL    HW1 2252   1.243   2.394   4.404
  451SOL    HW2 2253   1.195   2.395   4.248
  452SOL     OW 2254   5.345   6.238   0.562
  452SOL    HW1 2255   5.399   6.323   0.558
  452SOL    HW2 2256   5.316   6.213   0.470
  453SOL     OW 2257   4.302   0.301   6.546
  453SOL    HW1 2258   4.267   0.310   6.453
  453SOL    HW2 2259   4.226   0.286   6.609
  454SOL     OW 2260   0.123   4.539   5.816
  454SOL    HW1 2261   0.046   4.517   5.876
  454SOL    HW2 2262   0.208   4.507   5.857
  455SOL     OW 2263   5.253   2.546   4.729
  455SOL    HW1 2264   5.288   2.583   4.814
  455SOL    HW2 2265   5.318   2.479   4.692
  456SOL     OW 2266   0.242   0.146   3.540
  456SOL    HW1 2267   0.267   0.062   3.588
  456SOL    HW2 2268   0.272   0.140   3.445
  457SOL     OW 2269   1.751   2.909   4.238
  457SOL    HW1 2270   1.769   2.814   4.264
  457SOL    HW2 2271   1.725   2.961   4.320
  458SOL     OW 2272   3.334   6.257   2.754
  458SOL    HW1 2273   3.268   6.202   2.805
  458SOL    HW2 2274   3.424   6.246   2.795
  459SOL     OW 2275   1.775   6.902   6.029
  459SOL    HW1 2276   1.784   6.886   6.127
  459SOL    HW2 2277   1.859   6.873   5.982
  460SOL     OW 2278   2.539   6.974   4.774
  460SOL    HW1 2279   2.540   0.049   4.783
  460SOL    HW2 2280   2.491   6.935   4.853
  461SOL     OW 2281   6.893   5.771   5.178
  461SOL    HW1 2282   6.897   5.683   5.130
  461SOL    HW2 2283   6.931   5.842   5.118
  462SOL     OW 2284   3.760   3.413   0.065
  462SOL    HW1 2285   3.819   3.456   0.133
  462SOL    HW2 2286   3.706   3.483   0.017
  463SOL     OW 2287   5.879   6.028   3.770
  463SOL    HW1 2288   5.819   6.084   3.712
  463SOL    HW2 2289   5.899   5.942   3.724
  464SOL     OW 2290   3.078   1.139   5.478
  464SOL    HW1 2291   3.064   1.196   5.398
  464SOL    HW2 2292   3.167   1.158   5.519
  465SOL     OW 2293   0.607   2.560   0.089
  465SOL    HW1 2294   0.652   2.486   0.140
  465SOL    HW2 2295   0.536   2.521   0.031
  466SOL     OW 2296   1.707   6.312   4.165
  466SOL    HW1 2297   1.702   6.285   4.068
  466SOL    HW2 2298   1.738   6.235   4.220
  467SOL     OW 2299   2.176   1.247   0.979
  467SOL    HW1 2300   2.265   1.291   0.990
  467SOL    HW2 2301   2.177   1.158   1.025
  468SOL     OW 2302   4.011   6.062   5.620
  468SOL    HW1 2303   4.043   6.157   5.627
  468SOL    HW2 2304   3.935   6.057   5.556
  469SOL     OW 2305   2.626   3.522   6.448
  469SOL    HW1 2306   2.617   3.482   6.356
  469SOL    HW2 2307   2.667   3.455   6.509
  470SOL     OW 2308   4.870   6.619   1.232
  470SOL    HW1 2309   4.772   6.637   1.239
  470SOL    HW2 2310   4.906   6.661   1.149
  471SOL     OW 2311   2.521   2.508   4.096
  471SOL    HW1 2312   2.514   2.530   3.999
  471SOL    HW2 2313   2.448   2.554   4.146
  472SOL     OW 2314   4.460   3.982   6.269
  472SOL    HW1 2315   4.374   3.960   6.315
  472SOL    HW2 2316   4.443   4.051   6.199
  473SOL     OW 2317   1.533   2.868   2.656
  473SOL    HW1 2318   1.594   2.804   2.704
  473SOL    HW2 2319   1.469   2.908   2.722
  474SOL     OW 2320   5.327   5.541   4.664
  474SOL    HW1 2321   5.325   5.499   4.755
  474SOL    HW2 2322   5.234   5.552   4.630
  475SOL     OW 2323   5.877   2.064   6.421
  475SOL    HW1 2324   5.936   2.072   6.501
  475SOL    HW2 2325   5.879   1.969   6.388
  476SOL     OW 2326   0.584   3.683   2.188
  476SOL    HW1 2327   0.579   3.591   2.228
  476SOL    HW2 2328   0.530   3.687   2.104
  477SOL     OW 2329   2.252   6.312   3.182
  477SOL    HW1 2330   2.313   6.254   3.128
  477SOL    HW2 2331   2.244   6.402   3.139
  478SOL     OW 2332   3.400   6.617   2.532
  478SOL    HW1 2333   3.372   6.659   2.445
  478SOL    HW2 2334   3.395   6.518   2.525
  479SOL     OW 2335   3.681   2.737   5.533
  479SOL    HW1 2336   3.780   2.744   5.546
  479SOL    HW2 2337   3.636   2.808   5.586
  480SOL     OW 2338   2.409   1.030   0.675
  480SOL    HW1 2339   2.319   1.012   0.716
  480SOL    HW2 2340   2.401   1.026   0.575
  481SOL     OW 2341   1.901   6.513   1.284
  481SOL    HW1 2342   1.826   6.463   1.241
  481SOL    HW2 2343   1.894   6.610   1.263
  482SOL     OW 2344   4.314   4.752   2.289
  482SOL    HW1 2345   4.343   4.679   2.226
  482SOL    HW2 2346   4.218   4.738   2.313
  483SOL     OW 2347   6.603   2.553   3.148
  483SOL    HW1 2348   6.525   2.616   3.147
  483SOL    HW2 2349   6.590   2.482   3.079
  484SOL     OW 2350   1.794   3.057   5.451
  484SOL    HW1 2351   1.856   3.107   5.511
  484SOL    HW2 2352   1.838   3.043   5.362
  485SOL     OW 2353   4.052   4.820   2.530
  485SOL    HW1 2354   3.986   4.813   2.605
  485SOL    HW2 2355   4.004   4.812   2.442
  486SOL     OW 2356   6.255   0.524   0.233
  486SOL    HW1 2357   6.211   0.594   0.290
  486SOL    HW2 2358   6.353   0.519   0.256
  487SOL     OW 2359   0.688   0.780   3.486
  487SOL    HW1 2360   0.737   0.728   3.416
  487SOL    HW2 2361   0.614   0.832   3.443
  488SOL     OW 2362   0.993   1.239   2.136
  488SOL    HW1 2363   1.003   1.146   2.170
  488SOL    HW2 2364   1.083   1.282   2.129
  489SOL     OW 2365   4.353   5.676   5.318
  489SOL    HW1 2366   4.392   5.768   5.331
  489SOL    HW2 2367   4.424   5.608   5.335
  490SOL     OW 2368   0.583   6.414   2.957
  490SOL    HW1 2369   0.561   6.339   2.895
  490SOL    HW2 2370   0.678   6.444   2.943
  491SOL     OW 2371   1.410   3.492   1.736
  491SOL    HW1 2372   1.442   3.587   1.735
  491SOL    HW2 2373   1.484   3.432   1.766
  492SOL     OW 2374   1.415   0.124   5.719
  492SOL    HW1 2375   1.463   0.200   5.764
  492SOL    HW2 2376   1.420   0.135   5.620
  493SOL     OW 2377   3.771   6.591   5.700
  493SOL    HW1 2378   3.839   6.569   5.770
  493SOL    HW2 2379   3.686   6.620   5.745
  494SOL     OW 2380   0.888   6.790   6.699
  494SOL    HW1 2381   0.962   6.801   6.766
  494SOL    HW2 2382   0.885   6.695   6.669
  495SOL     OW 2383   4.109   5.937   3.751
  495SOL    HW1 2384   4.035   5.985   3.797
  495SOL    HW2 2385   4.130   5.982   3.664
  496SOL     OW 2386   5.392   3.205   1.900
  496SOL    HW1 2387   5.479   3.254   1.890
  496SOL    HW2 2388   5.333   3.254   1.964
  497SOL     OW 2389   3.257   1.783   4.647
  497SOL    HW1 2390   3.242   1.700   4.700
  497SOL    HW2 2391   3.181   1.846   4.663
  498SOL     OW 2392   0.958   4.687   1.633
  498SOL    HW1 2393   0.974   4.784   1.617
  498SOL    HW2 2394   0.976   4.636   1.550
  499SOL     OW 2395   1.993   5.382   4.460
  499SOL    HW1 2396   2.037   5.462   4.420
  499SOL    HW2 2397   2.014   5.301   4.406
  500SOL     OW 2398   0.062   2.030   6.005
  500SOL    HW1 2399   0.076   2.102   5.937
  500SOL    HW2 2400   0.149   1.986   6.025
  501SOL     OW 2401   3.690   0.234   1.005
  501SOL    HW1 2402   3.593   0.236   0.979
  501SOL    HW2 2403   3.700   0.182   1.090
  502SOL     OW 2404   0.792   3.629   5.820
  502SOL    HW1 2405   0.740   3.544   5.811
  502SOL    HW2 2406   0.890   3.609   5.815
  503SOL     OW 2407   6.897   4.823   6.655
  503SOL    HW1 2408   6.852   4.886   6.719
  503SOL    HW2 2409   6.939   4.876   6.581
  504SOL     OW 2410   0.809   5.685   2.237
  504SOL    HW1 2411   0.868   5.646   2.167
  504SOL    HW2 2412   0.800   5.621   2.314
  505SOL     OW 2413   2.870   5.941   4.675
  505SOL    HW1 2414   2.879   5.920   4.577
  505SOL    HW2 2415   2.892   6.037   4.691
  506SOL     OW 2416   3.077   5.166   3.945
  506SOL    HW1 2417   3.053   5.152   4.041
  506SOL    HW2 2418   3.048   5.087   3.891
  507SOL     OW 2419   3.156   0.602   3.354
  507SOL    HW1 2420   3.153   0.558   3.265
  507SOL    HW2 2421   3.157   0.702   3.342
  508SOL     OW 2422   0.064   3.807   2.335
  508SOL    HW1 2423   0.070   3.766   2.426
  508SOL    HW2 2424   7.007   3.771   2.288
  509SOL     OW 2425   2.603   1.203   1.389
  509SOL    HW1 2426   2.599   1.278   1.455
  509SOL    HW2 2427   2.689   1.207   1.339
  510SOL     OW 2428   6.124   4.135   6.908
  510SOL    HW1 2429   6.052   4.205   6.913
  510SOL    HW2 2430   6.150   4.107   7.000
  511SOL     OW 2431   0.804   2.475   5.830
  511SOL    HW1 2432   0.869   2.418   5.780
  511SOL    HW2 2433   0.744   2.416   5.885
  512SOL     OW 2434   0.198   2.282   6.549
  512SOL    HW1 2435   0.145   2.263   6.632
  512SOL    HW2 2436   0.296   2.277   6.571
  513SOL     OW 2437   5.630   6.515   3.381
  513SOL    HW1 2438   5.692   6.505   3.459
  513SOL    HW2 2439   5.666   6.464   3.303
  514SOL     OW 2440   6.260   0.503   4.467
  514SOL    HW1 2441   6.251   0.416   4.515
  514SOL    HW2 2442   6.259   0.578   4.532
  515SOL     OW 2443   1.315   6.808   0.983
  515SOL    HW1 2444   1.316   6.827   0.884
  515SOL    HW2 2445   1.408   6.808   1.018
  516SOL     OW 2446   2.905   4.770   2.168
  516SOL    HW1 2447   2.875   4.684   2.127
  516SOL    HW2 2448   2.990   4.800   2.124
  517SOL     OW 2449   3.947   5.173   1.469
  517SOL    HW1 2450   3.890   5.255   1.463
  517SOL    HW2 2451   4.031   5.195   1.520
  518SOL     OW 2452   2.218   2.032   3.593
  518SOL    HW1 2453   2.249   1.954   3.539
  518SOL    HW2 2454   2.144   2.079   3.545
  519SOL     OW 2455   0.935   6.194   4.006
  519SOL    HW1 2456   0.886   6.110   3.983
  519SOL    HW2 2457   0.902   6.229   4.093
  520SOL     OW 2458   5.719   3.945   6.884
  520SOL    HW1 2459   5.773   3.919   6.804
  520SOL    HW2 2460   5.748   3.890   6.963
  521SOL     OW 2461   6.131   6.277   4.882
  521SOL    HW1 2462   6.124   6.247   4.787
  521SOL    HW2 2463   6.135   6.376   4.885
  522SOL     OW 2464   3.477   3.296   4.109
  522SOL    HW1 2465   3.482   3.278   4.011
  522SOL    HW2 2466   3.524   3.222   4.158
  523SOL     OW 2467   0.875   6.131   1.630
  523SOL    HW1 2468   0.950   6.112   1.566
  523SOL    HW2 2469   0.846   6.046   1.672
  524SOL     OW 2470   0.553   2.146   2.266
  524SOL    HW1 2471   0.578   2.146   2.169
  524SOL    HW2 2472   0.464   2.101   2.277
  525SOL     OW 2473   2.051   4.300   5.841
  525SOL    HW1 2474   2.104   4.279   5.759
  525SOL    HW2 2475   2.026   4.215   5.887
  526SOL     OW 2476   3.037   6.232   3.714
  526SOL    HW1 2477   3.087   6.269   3.636
  526SOL    HW2 2478   3.089   6.250   3.798
  527SOL     OW 2479   6.539   3.399   0.982
  527SOL    HW1 2480   6.595   3.323   0.949
  527SOL    HW2 2481   6.442   3.374   0.975
  528SOL     OW 2482   1.364   2.718   3.732
  528SOL    HW1 2483   1.377   2.816   3.717
  528SOL    HW2 2484   1.437   2.683   3.790
  529SOL     OW 2485   1.207   5.447   4.853
  529SOL    HW1 2486   1.220   5.541   4.824
  529SOL    HW2 2487   1.125   5.410   4.808
  530SOL     OW 2488   4.103   3.526   3.840
  530SOL    HW1 2489   4.020   3.482   3.807
  530SOL    HW2 2490   4.105   3.523   3.940
  531SOL     OW 2491   0.586   2.275   2.898
  531SOL    HW1 2492   0.564   2.357   2.845
  531SOL    HW2 2493   0.627   2.207   2.838
  532SOL     OW 2494   0.769   3.218   0.224
  532SOL    HW1 2495   0.819   3.303   0.210
  532SOL    HW2 2496   0.817   3.144   0.176
  533SOL     OW 2497   4.062   6.914   4.230
  533SOL    HW1 2498   3.972   6.874   4.243
  533SOL    HW2 2499   4.082   6.920   4.132
  534SOL     OW 2500   5.215   6.479   2.450
  534SOL    HW1 2501   5.122   6.456   2.477
  534SOL    HW2 2502   5.274   6.481   2.532
  535SOL     OW 2503   6.708   3.857   4.274
  535SOL    HW1 2504   6.728   3.761   4.297
  535SOL    HW2 2505   6.636   3.891   4.334
  536SOL     OW 2506   6.218   4.822   2.686
  536SOL    HW1 2507   6.231   4.778   2.775
  536SOL    HW2 2508   6.229   4.921   2.697
  537SOL     OW 2509   2.508   6.463   4.619
  537SOL    HW1 2510   2.573   6.530   4.583
  537SOL    HW2 2511   2.558   6.384   4.655
  538SOL     OW 2512   1.201   4.484   4.227
  538SOL    HW1 2513   1.261   4.423   4.174
  538SOL    HW2 2514   1.111   4.487   4.185
  539SOL     OW 2515   2.196   5.266   1.565
  539SOL    HW1 2516   2.295   5.265   1.580
  539SOL    HW2 2517   2.162   5.173   1.554
  540SOL     OW 2518   1.624   1.556   2.668
  540SOL    HW1 2519   1.583   1.590   2.583
  540SOL    HW2 2520   1.564   1.577   2.745
  541SOL     OW 2521   5.182   4.981   3.848
  541SOL    HW1 2522   5.123   4.952   3.923
  541SOL    HW2 2523   5.267   5.019   3.886
  542SOL     OW 2524   5.817   5.605   6.974
  542SOL    HW1 2525   5.737   5.549   6.957
  542SOL    HW2 2526   5.868   5.567   0.027
  543SOL     OW 2527   0.411   3.040   4.637
  543SOL    HW1 2528   0.406   3.121   4.695
  543SOL    HW2 2529   0.343   2.974   4.666
  544SOL     OW 2530   1.769   5.014   0.368
  544SOL    HW1 2531   1.741   5.105   0.338
  544SOL    HW2 2532   1.815   4.966   0.293
  545SOL     OW 2533   3.313   1.817   1.409
  545SOL    HW1 2534   3.276   1.886   1.346
  545SOL    HW2 2535   3.338   1.735   1.358
  546SOL     OW 2536   2.659   3.248   0.694
  546SOL    HW1 2537   2.562   3.271   0.696
  546SOL    HW2 2538   2.681   3.188   0.771
  547SOL     OW 2539   3.740   1.239   0.375
  547SOL    HW1 2540   3.762   1.267   0.468
  547SOL    HW2 2541   3.654   1.188   0.375
  548SOL     OW 2542   3.457   3.653   2.735
  548SOL    HW1 2543   3.519   3.725   2.702
  548SOL    HW2 2544   3.485   3.624   2.827
  549SOL     OW 2545   5.699   3.427   0.702
  549SOL    HW1 2546   5.643   3.344   0.707
  549SOL    HW2 2547   5.693   3.476   0.788
  550SOL     OW 2548   1.220   5.901   3.962
  550SOL    HW1 2549   1.146   5.861   3.907
  550SOL    HW2 2550   1.300   5.841   3.958
  551SOL     OW 2551   1.406   0.248   2.028
  551SOL    HW1 2552   1.358   0.247   1.940
  551SOL    HW2 2553   1.503   0.267   2.012
  552SOL     OW 2554   6.105   4.715   6.749
  552SOL    HW1 2555   6.108   4.616   6.735
  552SOL    HW2 2556   6.190   4.746   6.790
  553SOL     OW 2557   2.677   6.258   3.296
  553SOL    HW1 2558   2.606   6.220   3.354
  553SOL    HW2 2559   2.760   6.274   3.350
  554SOL     OW 2560   6.602   6.508   6.764
  554SOL    HW1 2561   6.684   6.518   6.821
  554SOL    HW2 2562   6.586   6.593   6.714
  555SOL     OW 2563   2.223   4.545   4.802
  555SOL    HW1 2564   2.303   4.605   4.793
  555SOL    HW2 2565   2.143   4.590   4.762
  556SOL     OW 2566   4.287   2.061   4.023
  556SOL    HW1 2567   4.246   2.070   4.114
  556SOL    HW2 2568   4.236   2.116   3.958
  557SOL     OW 2569   0.157   5.395   0.678
  557SOL    HW1 2570   0.145   5.448   0.762
  557SOL    HW2 2571   0.191   5.456   0.606
  558SOL     OW 2572   2.924   3.417   3.833
  558SOL    HW1 2573   2.912   3.474   3.752
  558SOL    HW2 2574   3.020   3.392   3.842
  559SOL     OW 2575   0.079   5.603   0.047
  559SOL    HW1 2576   0.148   5.629   7.003
  559SOL    HW2 2577   7.023   5.566   0.001
  560SOL     OW 2578   5.451   4.704   5.406
  560SOL    HW1 2579   5.439   4.634   5.336
  560SOL    HW2 2580   5.420   4.670   5.494
  561SOL     OW 2581   0.788   1.715   1.475
  561SOL    HW1 2582   0.789   1.669   1.386
  561SOL    HW2 2583   0.739   1.802   1.466
  562SOL     OW 2584   4.711   0.315   6.084
  562SOL    HW1 2585   4.716   0.242   6.152
  562SOL    HW2 2586   4.770   0.391   6.113
  563SOL     OW 2587   2.612   0.479   3.512
  563SOL    HW1 2588   2.623   0.467   3.413
  563SOL    HW2 2589   2.695   0.449   3.559
  564SOL     OW 2590   1.496   1.853   6.690
  564SOL    HW1 2591   1.406   1.809   6.691
  564SOL    HW2 2592   1.491   1.938   6.637
  565SOL     OW 2593   2.950   3.196   5.465
  565SOL    HW1 2594   2.980   3.165   5.375
  565SOL    HW2 2595   2.856   3.230   5.460
  566SOL     OW 2596   6.729   4.926   3.296
  566SOL    HW1 2597   6.822   4.956   3.318
  566SOL    HW2 2598   6.691   4.982   3.223
  567SOL     OW 2599   2.746   2.918   1.278
  567SOL    HW1 2600   2.710   2.993   1.333
  567SOL    HW2 2601   2.679   2.844   1.274
  568SOL     OW 2602   5.295   0.676   0.296
  568SOL    HW1 2603   5.264   0.582   0.283
  568SOL    HW2 2604   5.259   0.711   0.382
  569SOL     OW 2605   1.617   2.987   6.487
  569SOL    HW1 2606   1.572   2.899   6.466
  569SOL    HW2 2607   1.592   3.016   6.579
  570SOL     OW 2608   3.733   5.680   6.586
  570SOL    HW1 2609   3.654   5.723   6.631
  570SOL    HW2 2610   3.750   5.591   6.628
  571SOL     OW 2611   3.490   6.799   2.128
  571SOL    HW1 2612   3.560   6.776   2.196
  571SOL    HW2 2613   3.520   6.877   2.074
  572SOL     OW 2614   2.759   4.677   5.702
  572SOL    HW1 2615   2.746   4.729   5.618
  572SOL    HW2 2616   2.692   4.708   5.770
  573SOL     OW 2617   5.446   1.191   5.497
  573SOL    HW1 2618   5.516   1.126   5.528
  573SOL    HW2 2619   5.412   1.164   5.407
  574SOL     OW 2620   3.727   1.775   4.458
  574SOL    HW1 2621   3.796   1.704   4.475
  574SOL    HW2 2622   3.697   1.770   4.363
  575SOL     OW 2623   4.995   4.239   6.728
  575SOL    HW1 2624   5.051   4.216   6.649
  575SOL    HW2 2625   4.898   4.231   6.704
  576SOL     OW 2626   1.085   2.228   3.145
  576SOL    HW1 2627   1.017   2.299   3.162
  576SOL    HW2 2628   1.059   2.175   3.064
  577SOL     OW 2629   1.680   1.287   2.678
  577SOL    HW1 2630   1.677   1.241   2.767
  577SOL    HW2 2631   1.664   1.385   2.690
  578SOL     OW 2632   5.678   6.120   3.997
  578SOL    HW1 2633   5.695   6.178   3.917
  578SOL    HW2 2634   5.652   6.028   3.967
  579SOL     OW 2635   1.836   3.387   3.176
  579SOL    HW1 2636   1.779   3.409   3.096
  579SOL    HW2 2637   1.794   3.425   3.258
  580SOL     OW 2638   5.441   5.528   0.126
  580SOL    HW1 2639   5.436   5.571   0.036
  580SOL    HW2 2640   5.451   5.598   0.196
  581SOL     OW 2641   2.413   3.497   1.399
  581SOL    HW1 2642   2.439   3.524   1.307
  581SOL    HW2 2643   2.480   3.432   1.435
  582SOL     OW 2644   4.253   6.456   1.557
  582SOL    HW1 2645   4.178   6.473   1.621
  582SOL    HW2 2646   4.336   6.500   1.590
  583SOL     OW 2647   3.107   5.906   5.541
  583SOL    HW1 2648   3.168   5.985   5.534
  583SOL    HW2 2649   3.060   5.894   5.453
  584SOL     OW 2650   2.877   4.295   6.579
  584SOL    HW1 2651   2.808   4.357   6.617
  584SOL    HW2 2652   2.897   4.223   6.645
  585SOL     OW 2653   5.435   2.668   6.326
  585SOL    HW1 2654   5.476   2.620   6.404
  585SOL    HW2 2655   5.478   2.757   6.315
  586SOL     OW 2656   3.842   0.851   6.166
  586SOL    HW1 2657   3.767   0.789   6.191
  586SOL    HW2 2658   3.928   0.800   6.168
  587SOL     OW 2659   4.253   1.724   5.297
  587SOL    HW1 2660   4.325   1.753   5.233
  587SOL    HW2 2661   4.184   1.670   5.249
  588SOL     OW 2662   1.308   4.447   2.615
  588SOL    HW1 2663   1.340   4.535   2.578
  588SOL    HW2 2664   1.263   4.395   2.542
  589SOL     OW 2665   3.302   4.608   1.385
  589SOL    HW1 2666   3.242   4.623   1.306
  589SOL    HW2 2667   3.347   4.694   1.408
  590SOL     OW 2668   4.749   2.921   3.490
  590SOL    HW1 2669   4.753   2.937   3.392
  590SOL    HW2 2670   4.691   2.842   3.508
  591SOL     OW 2671   3.114   5.443   3.868
  591SOL    HW1 2672   3.178   5.495   3.925
  591SOL    HW2 2673   3.123   5.345   3.889
  592SOL     OW 2674   3.622   1.310   1.164
  592SOL    HW1 2675   3.682   1.230   1.170
  592SOL    HW2 2676   3.677   1.393   1.160
  593SOL     OW 2677   4.706   2.745   4.130
  593SOL    HW1 2678   4.691   2.709   4.222
  593SOL    HW2 2679   4.725   2.668   4.068
  594SOL     OW 2680   6.660   1.955   0.179
  594SOL    HW1 2681   6.756   1.939   0.157
  594SOL    HW2 2682   6.652   1.992   0.272
  595SOL     OW 2683   5.631   0.025   3.695
  595SOL    HW1 2684   5.703   6.996   3.651
  595SOL    HW2 2685   5.595   0.091   3.630
  596SOL     OW 2686   0.832   5.087   3.186
  596SOL    HW1 2687   0.822   5.124   3.278
  596SOL    HW2 2688   0.890   5.005   3.190
  597SOL     OW 2689   2.842   0.654   7.021
  597SOL    HW1 2690   2.796   0.743   7.021
  597SOL    HW2 2691   2.848   0.620   6.927
  598SOL     OW 2692   4.272   4.858   5.579
  598SOL    HW1 2693   4.359   4.893   5.612
  598SOL    HW2 2694   4.241   4.913   5.501
  599SOL     OW 2695   2.114   6.205   2.159
  599SOL    HW1 2696   2.211   6.206   2.183
  599SOL    HW2 2697   2.088   6.296   2.126
  600SOL     OW 2698   0.112   1.520   6.545
  600SOL    HW1 2699   0.099   1.427   6.512
  600SOL    HW2 2700   0.188   1.523   6.610
  601SOL     OW 2701   2.410   0.612   4.385
  601SOL    HW1 2702   2.325   0.659   4.410
  601SOL    HW2 2703   2.398   0.513   4.394
  602SOL     OW 2704   1.960   2.597   6.167
  602SOL    HW1 2705   1.952   2.658   6.246
  602SOL    HW2 2706   1.953   2.502   6.198
  603SOL     OW 2707   2.114   2.404   5.036
  603SOL    HW1 2708   2.077   2.421   4.945
  603SOL    HW2 2709   2.209   2.434   5.040
  604SOL     OW 2710   1.456   2.894   1.759
  604SOL    HW1 2711   1.516   2.973   1.749
  604SOL    HW2 2712   1.512   2.811   1.762
  605SOL     OW 2713   6.803   6.862   1.448
  605SOL    HW1 2714   6.826   6.772   1.410
  605SOL    HW2 2715   6.851   6.933   1.398
  606SOL     OW 2716   4.226   0.076   6.851
  606SOL    HW1 2717   4.168   0.084   6.770
  606SOL    HW2 2718   4.322   0.088   6.824
  607SOL     OW 2719   6.751   6.454   6.097
  607SOL    HW1 2720   6.849   6.437   6.110
  607SOL    HW2 2721   6.732   6.551   6.107
  608SOL     OW 2722   3.243   6.219   6.211
  608SOL    HW1 2723   3.256   6.121   6.199
  608SOL    HW2 2724   3.201   6.237   6.300
  609SOL     OW 2725   3.944   3.035   3.159
  609SOL    HW1 2726   3.861   3.020   3.213
  609SOL    HW2 2727   4.012   3.084   3.213
  610SOL     OW 2728   5.413   3.876   2.093
  610SOL    HW1 2729   5.492   3.828   2.054
  610SOL    HW2 2730   5.433   3.902   2.187
  611SOL     OW 2731   3.760   6.881   0.657
  611SOL    HW1 2732   3.724   6.810   0.596
  611SOL    HW2 2733   3.858   6.867   0.669
  612SOL     OW 2734   4.051   6.807   5.963
  612SOL    HW1 2735   4.098   6.816   5.875
  612SOL    HW2 2736   4.107   6.846   6.036
  613SOL     OW 2737   3.679   6.352   5.563
  613SOL    HW1 2738   3.711   6.431   5.616
  613SOL    HW2 2739   3.682   6.375   5.466
  614SOL     OW 2740   4.916   5.247   1.188
  614SOL    HW1 2741   4.930   5.258   1.090
  614SOL    HW2 2742   4.934   5.334   1.234
  615SOL     OW 2743   6.373   2.454   1.759
  615SOL    HW1 2744   6.287   2.409   1.733
  615SOL    HW2 2745   6.352   2.539   1.807
  616SOL     OW 2746   6.874   2.254   3.764
  616SOL    HW1 2747   6.906   2.192   3.692
  616SOL    HW2 2748   6.882   2.349   3.731
  617SOL     OW 2749   6.645   4.406   6.575
  617SOL    HW1 2750   6.654   4.309   6.554
  617SOL    HW2 2751   6.550   4.426   6.600
  618SOL     OW 2752   6.516   2.504   6.610
  618SOL    HW1 2753   6.490   2.526   6.704
  618SOL    HW2 2754   6.587   2.434   6.610
  619SOL     OW 2755   4.373   1.127   0.023
  619SOL    HW1 2756   4.385   1.184   0.104
  619SOL    HW2 2757   4.320   1.045   0.047
  620SOL     OW 2758   4.520   2.905   1.389
  620SOL    HW1 2759   4.460   2.941   1.460
  620SOL    HW2 2760   4.510   2.960   1.306
  621SOL     OW 2761   3.027   6.464   6.640
  621SOL    HW1 2762   3.029   6.484   6.738
  621SOL    HW2 2763   3.094   6.521   6.593
  622SOL     OW 2764   2.037   0.520   5.021
  622SOL    HW1 2765   1.992   0.606   5.042
  622SOL    HW2 2766   2.135   0.529   5.033
  623SOL     OW 2767   0.298   5.726   6.032
  623SOL    HW1 2768   0.329   5.772   6.116
  623SOL    HW2 2769   0.255   5.794   5.972
  624SOL     OW 2770   0.105   2.095   1.121
  624SOL    HW1 2771   0.108   2.194   1.134
  624SOL    HW2 2772   0.118   2.050   1.209
  625SOL     OW 2773   1.390   1.771   2.237
  625SOL    HW1 2774   1.396   1.680   2.195
  625SOL    HW2 2775   1.413   1.841   2.169
  626SOL     OW 2776   1.662   5.829   3.166
  626SOL    HW1 2777   1.755   5.826   3.203
  626SOL    HW2 2778   1.661   5.889   3.086
  627SOL     OW 2779   5.829   6.530   0.124
  627SOL    HW1 2780   5.751   6.478   0.159
  627SOL    HW2 2781   5.838   6.516   0.026
  628SOL     OW 2782   5.678   5.309   5.574
  628SOL    HW1 2783   5.756   5.312   5.512
  628SOL    HW2 2784   5.645   5.402   5.591
  629SOL     OW 2785   0.181   0.711   6.405
  629SOL    HW1 2786   0.174   0.708   6.505
  629SOL    HW2 2787   0.270   0.675   6.377
  630SOL     OW 2788   0.532   1.741   1.133
  630SOL    HW1 2789   0.494   1.814   1.190
  630SOL    HW2 2790   0.541   1.773   1.039
  631SOL     OW 2791   4.275   0.371   5.080
  631SOL    HW1 2792   4.263   0.467   5.105
  631SOL    HW2 2793   4.203   0.344   5.016
  632SOL     OW 2794   3.460   1.647   1.252
  632SOL    HW1 2795   3.536   1.649   1.317
  632SOL    HW2 2796   3.495   1.663   1.160
  633SOL     OW 2797   3.423   3.595   6.749
  633SOL    HW1 2798   3.415   3.505   6.705
  633SOL    HW2 2799   3.339   3.646   6.737
  634SOL     OW 2800   3.514   3.182   1.818
  634SOL    HW1 2801   3.534   3.123   1.897
  634SOL    HW2 2802   3.485   3.271   1.850
  635SOL     OW 2803   4.568   5.569   1.429
  635SOL    HW1 2804   4.621   5.635   1.482
  635SOL    HW2 2805   4.511   5.617   1.363
  636SOL     OW 2806   2.430   6.402   0.171
  636SOL    HW1 2807   2.528   6.419   0.187
  636SOL    HW2 2808   2.399   6.459   0.095
  637SOL     OW 2809   0.375   3.195   3.026
  637SOL    HW1 2810   0.459   3.231   3.066
  637SOL    HW2 2811   0.319   3.270   2.992
  638SOL     OW 2812   5.418   2.047   4.287
  638SOL    HW1 2813   5.510   2.082   4.303
  638SOL    HW2 2814   5.377   2.095   4.210
  639SOL     OW 2815   4.856   3.924   3.231
  639SOL    HW1 2816   4.878   3.842   3.177
  639SOL    HW2 2817   4.921   3.997   3.209
  640SOL     OW 2818   0.636   5.399   3.963
  640SOL    HW1 2819   0.679   5.408   4.053
  640SOL    HW2 2820   0.669   5.317   3.918
  641SOL     OW 2821   6.762   4.963   4.277
  641SOL    HW1 2822   6.712   4.890   4.323
  641SOL    HW2 2823   6.762   5.045   4.334
  642SOL     OW 2824   6.601   2.831   4.450
  642SOL    HW1 2825   6.543   2.913   4.446
  642SOL    HW2 2826   6.579   2.772   4.372
  643SOL     OW 2827   6.146   5.197   5.431
  643SOL    HW1 2828   6.049   5.193   5.411
  643SOL    HW2 2829   6.195   5.238   5.353
  644SOL     OW 2830   1.403   6.497   4.450
  644SOL    HW1 2831   1.490   6.467   4.491
  644SOL    HW2 2832   1.385   6.444   4.367
  645SOL     OW 2833   3.899   0.592   4.684
  645SOL    HW1 2834   3.940   0.678   4.654
  645SOL    HW2 2835   3.952   0.516   4.648
  646SOL     OW 2836   3.582   0.939   4.673
  646SOL    HW1 2837   3.624   0.849   4.686
  646SOL    HW2 2838   3.486   0.927   4.646
  647SOL     OW 2839   5.361   1.187   5.251
  647SOL    HW1 2840   5.299   1.115   5.221
  647SOL    HW2 2841   5.318   1.277   5.237
  648SOL     OW 2842   0.796   3.772   3.750
  648SOL    HW1 2843   0.808   3.757   3.652
  648SOL    HW2 2844   0.719   3.716   3.783
  649SOL     OW 2845   2.595   4.143   0.796
  649SOL    HW1 2846   2.555   4.081   0.862
  649SOL    HW2 2847   2.522   4.192   0.747
  650SOL     OW 2848   5.918   4.204   0.436
  650SOL    HW1 2849   5.913   4.105   0.428
  650SOL    HW2 2850   6.007   4.236   0.405
  651SOL     OW 2851   0.286   6.012   5.957
  651SOL    HW1 2852   0.251   5.991   5.865
  651SOL    HW2 2853   0.378   5.973   5.966
  652SOL     OW 2854   4.667   0.425   3.435
  652SOL    HW1 2855   4.618   0.491   3.492
  652SOL    HW2 2856   4.628   0.333   3.449
  653SOL     OW 2857   1.077   5.780   5.990
  653SOL    HW1 2858   1.144   5.717   6.029
  653SOL    HW2 2859   1.106   5.809   5.899
  654SOL     OW 2860   0.278   4.329   6.051
  654SOL    HW1 2861   0.284   4.320   5.952
  654SOL    HW2 2862   0.363   4.370   6.086
  655SOL     OW 2863   0.351   5.875   1.808
  655SOL    HW1 2864   0.273   5.854   1.866
  655SOL    HW2 2865   0.349   5.817   1.726
  656SOL     OW 2866   1.943   5.913   1.232
  656SOL    HW1 2867   1.951   5.855   1.313
  656SOL    HW2 2868   1.898   5.999   1.258
  657SOL     OW 2869   2.174   3.444   1.630
  657SOL    HW1 2870   2.231   3.481   1.556
  657SOL    HW2 2871   2.230   3.432   1.712
  658SOL     OW 2872   2.889   3.987   6.786
  658SOL    HW1 2873   2.877   4.033   6.874
  658SOL    HW2 2874   2.835   3.903   6.785
  659SOL     OW 2875   1.487   5.377   5.631
  659SOL    HW1 2876   1.528   5.382   5.540
  659SOL    HW2 2877   1.556   5.347   5.697
  660SOL     OW 2878   5.520   3.940   2.323
  660SOL    HW1 2879   5.528   4.017   2.387
  660SOL    HW2 2880   5.595   3.876   2.340
  661SOL     OW 2881   5.008   4.971   3.540
  661SOL    HW1 2882   4.952   4.927   3.471
  661SOL    HW2 2883   4.957   5.048   3.581
  662SOL     OW 2884   3.570   0.814   5.091
  662SOL    HW1 2885   3.634   0.824   5.015
  662SOL    HW2 2886   3.603   0.866   5.170
  663SOL     OW 2887   1.940   3.743   6.897
  663SOL    HW1 2888   2.022   3.769   6.846
  663SOL    HW2 2889   1.933   3.643   6.899
  664SOL     OW 2890   0.027   5.116   6.234
  664SOL    HW1 2891   7.020   5.166   6.153
  664SOL    HW2 2892   0.044   5.180   6.309
  665SOL     OW 2893   4.707   4.643   1.139
  665SOL    HW1 2894   4.717   4.593   1.226
  665SOL    HW2 2895   4.773   4.607   1.073
  666SOL     OW 2896   4.865   1.865   2.930
  666SOL    HW1 2897   4.854   1.855   2.832
  666SOL    HW2 2898   4.792   1.816   2.978
  667SOL     OW 2899   6.407   3.865   3.873
  667SOL    HW1 2900   6.373   3.772   3.857
  667SOL    HW2 2901   6.391   3.890   3.969
  668SOL     OW 2902   5.087   6.040   6.668
  668SOL    HW1 2903   5.126   6.121   6.623
  668SOL    HW2 2904   5.137   5.959   6.640
  669SOL     OW 2905   3.795   6.889   4.213
  669SOL    HW1 2906   3.766   6.822   4.282
  669SOL    HW2 2907   3.733   6.886   4.135
  670SOL     OW 2908   2.928   3.010   0.701
  670SOL    HW1 2909   2.835   2.983   0.726
  670SOL    HW2 2910   2.944   2.991   0.604
  671SOL     OW 2911   2.187   6.081   1.270
  671SOL    HW1 2912   2.220   6.113   1.181
  671SOL    HW2 2913   2.119   6.009   1.258
  672SOL     OW 2914   1.130   5.266   1.891
  672SOL    HW1 2915   1.080   5.319   1.960
  672SOL    HW2 2916   1.227   5.262   1.917
  673SOL     OW 2917   0.234   0.548   1.402
  673SOL    HW1 2918   0.273   0.567   1.312
  673SOL    HW2 2919   0.168   0.474   1.394
  674SOL     OW 2920   0.272   2.872   5.034
  674SOL    HW1 2921   0.279   2.953   5.093
  674SOL    HW2 2922   0.201   2.812   5.070
  675SOL     OW 2923   0.163   0.697   3.999
  675SOL    HW1 2924   0.146   0.795   4.001
  675SOL    HW2 2925   0.083   0.650   3.962
  676SOL     OW 2926   3.824   6.157   2.835
  676SOL    HW1 2927   3.869   6.067   2.829
  676SOL    HW2 2928   3.751   6.162   2.767
  677SOL     OW 2929   6.700   1.748   6.964
  677SOL    HW1 2930   6.622   1.734   0.001
  677SOL    HW2 2931   6.753   1.826   6.996
  678SOL     OW 2932   1.985   1.556   4.934
  678SOL    HW1 2933   1.959   1.604   4.851
  678SOL    HW2 2934   2.029   1.620   4.998
  679SOL     OW 2935   4.625   1.672   4.257
  679SOL    HW1 2936   4.528   1.691   4.271
  679SOL    HW2 2937   4.656   1.714   4.172
  680SOL     OW 2938   5.875   5.192   5.352
  680SOL    HW1 2939   5.864   5.131   5.431
  680SOL    HW2 2940   5.798   5.180   5.290
  681SOL     OW 2941   5.290   5.356   1.943
  681SOL    HW1 2942   5.236   5.384   1.864
  681SOL    HW2 2943   5.385   5.342   1.916
  682SOL     OW 2944   1.296   0.694   0.784
  682SOL    HW1 2945   1.259   0.614   0.829
  682SOL    HW2 2946   1.231   0.727   0.715
  683SOL     OW 2947   3.725   3.660   0.426
  683SOL    HW1 2948   3.819   3.694   0.425
  683SOL    HW2 2949   3.719   3.580   0.485
  684SOL     OW 2950   0.247   0.936   7.015
  684SOL    HW1 2951   0.160   0.912   0.036
  684SOL    HW2 2952   0.272   0.863   6.952
  685SOL     OW 2953   4.737   0.885   4.158
  685SOL    HW1 2954   4.821   0.892   4.104
  685SOL    HW2 2955   4.660   0.919   4.105
  686SOL     OW 2956   5.427   2.596   3.778
  686SOL    HW1 2957   5.362   2.553   3.841
  686SOL    HW2 2958   5.519   2.588   3.816
  687SOL     OW 2959   0.603   2.161   4.579
  687SOL    HW1 2960   0.597   2.252   4.539
  687SOL    HW2 2961   0.524   2.107   4.550
  688SOL     OW 2962   0.741   2.321   0.189
  688SOL    HW1 2963   0.714   2.250   0.123
  688SOL    HW2 2964   0.823   2.367   0.156
  689SOL     OW 2965   6.937   3.843   6.000
  689SOL    HW1 2966   6.921   3.859   6.097
  689SOL    HW2 2967   6.892   3.915   5.946
  690SOL     OW 2968   0.314   4.129   2.959
  690SOL    HW1 2969   0.355   4.153   2.871
  690SOL    HW2 2970   0.215   4.143   2.954
  691SOL     OW 2971   2.430   6.828   6.616
  691SOL    HW1 2972   2.336   6.843   6.586
  691SOL    HW2 2973   2.493   6.860   6.545
  692SOL     OW 2974   3.048   6.515   3.480
  692SOL    HW1 2975   3.048   6.606   3.437
  692SOL    HW2 2976   3.142   6.486   3.497
  693SOL     OW 2977   6.050   1.082   3.064
  693SOL    HW1 2978   6.005   1.090   3.153
  693SOL    HW2 2979   6.008   1.147   3.000
  694SOL     OW 2980   4.230   5.751   2.461
  694SOL    HW1 2981   4.205   5.669   2.513
  694SOL    HW2 2982   4.187   5.748   2.371
  695SOL     OW 2983   4.057   6.165   4.268
  695SOL    HW1 2984   4.051   6.111   4.352
  695SOL    HW2 2985   3.971   6.216   4.256
  696SOL     OW 2986   3.963   4.770   2.279
  696SOL    HW1 2987   3.895   4.829   2.235
  696SOL    HW2 2988   3.947   4.675   2.252
  697SOL     OW 2989   2.146   3.407   3.401
  697SOL    HW1 2990   2.181   3.333   3.457
  697SOL    HW2 2991   2.106   3.478   3.459
  698SOL     OW 2992   5.619   6.359   0.206
  698SOL    HW1 2993   5.608   6.295   0.130
  698SOL    HW2 2994   5.546   6.346   0.273
  699SOL     OW 2995   2.173   3.146   6.380
  699SOL    HW1 2996   2.218   3.225   6.340
  699SOL    HW2 2997   2.149   3.081   6.308
  700SOL     OW 2998   2.485   1.567   2.815
  700SOL    HW1 2999   2.504   1.477   2.777
  700SOL    HW2 3000   2.420   1.558   2.891
  701SOL     OW 3001   6.091   3.729   5.321
  701SOL    HW1 3002   6.190   3.720   5.308
  701SOL    HW2 3003   6.060   3.662   5.387
  702SOL     OW 3004   1.039   5.777   5.442
  702SOL    HW1 3005   1.022   5.753   5.537
  702SOL    HW2 3006   1.110   5.718   5.405
  703SOL     OW 3007   3.605   4.113   6.280
  703SOL    HW1 3008   3.577   4.150   6.191
  703SOL    HW2 3009   3.570   4.019   6.288
  704SOL     OW 3010   1.646   1.595   6.974
  704SOL    HW1 3011   1.561   1.591   6.922
  704SOL    HW2 3012   1.723   1.596   6.911
  705SOL     OW 3013   6.107   5.946   2.567
  705SOL    HW1 3014   6.127   6.044   2.561
  705SOL    HW2 3015   6.169   5.903   2.632
  706SOL     OW 3016   4.433   2.472   4.391
  706SOL    HW1 3017   4.486   2.404   4.443
  706SOL    HW2 3018   4.477   2.561   4.399
  707SOL     OW 3019   4.980   6.360   2.520
  707SOL    HW1 3020   4.997   6.261   2.513
  707SOL    HW2 3021   4.883   6.375   2.539
  708SOL     OW 3022   4.459   6.816   1.460
  708SOL    HW1 3023   4.493   6.910   1.471
  708SOL    HW2 3024   4.486   6.761   1.539
  709SOL     OW 3025   0.983   5.536   1.169
  709SOL    HW1 3026   1.082   5.547   1.185
  709SOL    HW2 3027   0.941   5.493   1.249
  710SOL     OW 3028   4.057   3.260   2.596
  710SOL    HW1 3029   4.062   3.185   2.662
  710SOL    HW2 3030   3.963   3.293   2.590
  711SOL     OW 3031   6.554   2.875   5.258
  711SOL    HW1 3032   6.554   2.963   5.306
  711SOL    HW2 3033   6.646   2.855   5.224
  712SOL     OW 3034   4.227   3.296   1.381
  712SOL    HW1 3035   4.128   3.285   1.384
  712SOL    HW2 3036   4.254   3.336   1.294
  713SOL     OW 3037   4.358   2.321   5.989
  713SOL    HW1 3038   4.334   2.331   6.085
  713SOL    HW2 3039   4.371   2.224   5.969
  714SOL     OW 3040   6.261   4.706   3.716
  714SOL    HW1 3041   6.280   4.608   3.721
  714SOL    HW2 3042   6.208   4.733   3.797
  715SOL     OW 3043   5.590   5.901   0.421
  715SOL    HW1 3044   5.561   5.953   0.501
  715SOL    HW2 3045   5.530   5.822   0.408
  716SOL     OW 3046   0.644   0.616   1.751
  716SOL    HW1 3047   0.659   0.703   1.703
  716SOL    HW2 3048   0.546   0.602   1.763
  717SOL     OW 3049   6.147   4.446   5.769
  717SOL    HW1 3050   6.125   4.450   5.867
  717SOL    HW2 3051   6.210   4.371   5.752
  718SOL     OW 3052   5.257   2.697   5.783
  718SOL    HW1 3053   5.275   2.609   5.740
  718SOL    HW2 3054   5.307   2.702   5.870
  719SOL     OW 3055   6.256   0.561   1.683
  719SOL    HW1 3056   6.332   0.506   1.718
  719SOL    HW2 3057   6.220   0.619   1.757
  720SOL     OW 3058   3.597   0.698   6.166
  720SOL    HW1 3059   3.585   0.645   6.082
  720SOL    HW2 3060   3.536   0.777   6.165
  721SOL     OW 3061   2.664   1.851   4.086
  721SOL    HW1 3062   2.683   1.943   4.120
  721SOL    HW2 3063   2.747   1.813   4.045
  722SOL     OW 3064   2.618   0.523   5.482
  722SOL    HW1 3065   2.688   0.575   5.432
  722SOL    HW2 3066   2.551   0.586   5.520
  723SOL     OW 3067   1.863   4.306   2.693
  723SOL    HW1 3068   1.821   4.293   2.783
  723SOL    HW2 3069   1.950   4.354   2.703
  724SOL     OW 3070   0.953   2.887   4.153
  724SOL    HW1 3071   0.889   2.842   4.090
  724SOL    HW2 3072   1.034   2.916   4.102
  725SOL     OW 3073   2.606   5.912   0.471
  725SOL    HW1 3074   2.627   5.817   0.494
  725SOL    HW2 3075   2.517   5.936   0.507
  726SOL     OW 3076   3.848   5.070   0.908
  726SOL    HW1 3077   3.827   5.158   0.949
  726SOL    HW2 3078   3.861   5.002   0.980
  727SOL     OW 3079   5.699   4.275   5.365
  727SOL    HW1 3080   5.691   4.290   5.463
  727SOL    HW2 3081   5.697   4.363   5.317
  728SOL     OW 3082   6.337   2.792   5.004
  728SOL    HW1 3083   6.413   2.850   5.033
  728SOL    HW2 3084   6.252   2.828   5.043
  729SOL     OW 3085   1.004   1.888   1.034
  729SOL    HW1 3086   0.961   1.957   1.091
  729SOL    HW2 3087   1.077   1.930   0.980
  730SOL     OW 3088   5.774   0.622   4.169
  730SOL    HW1 3089   5.735   0.562   4.099
  730SOL    HW2 3090   5.865   0.589   4.193
  731SOL     OW 3091   5.294   4.217   5.969
  731SOL    HW1 3092   5.307   4.167   5.884
  731SOL    HW2 3093   5.232   4.166   6.030
  732SOL     OW 3094   6.782   2.223   1.538
  732SOL    HW1 3095   6.796   2.175   1.624
  732SOL    HW2 3096   6.862   2.280   1.518
  733SOL     OW 3097   5.386   5.904   5.240
  733SOL    HW1 3098   5.357   5.998   5.257
  733SOL    HW2 3099   5.372   5.849   5.323
  734SOL     OW 3100   0.104   4.987   2.791
  734SOL    HW1 3101   0.145   4.910   2.840
  734SOL    HW2 3102   0.144   5.073   2.823
  735SOL     OW 3103   4.003   2.025   0.547
  735SOL    HW1 3104   3.962   2.108   0.510
  735SOL    HW2 3105   4.102   2.030   0.536
  736SOL     OW 3106   0.040   1.285   3.718
  736SOL    HW1 3107   7.021   1.218   3.779
  736SOL    HW2 3108   0.070   1.240   3.634
  737SOL     OW 3109   4.890   2.025   5.294
  737SOL    HW1 3110   4.851   2.114   5.273
  737SOL    HW2 3111   4.851   1.956   5.232
  738SOL     OW 3112   2.230   4.523   1.398
  738SOL    HW1 3113   2.201   4.536   1.303
  738SOL    HW2 3114   2.163   4.465   1.445
  739SOL     OW 3115   4.332   0.118   4.194
  739SOL    HW1 3116   4.302   0.031   4.156
  739SOL    HW2 3117   4.292   0.193   4.141
  740SOL     OW 3118   6.328   0.521   1.413
  740SOL    HW1 3119   6.408   0.577   1.395
  740SOL    HW2 3120   6.294   0.538   1.505
  741SOL     OW 3121   2.000   6.396   3.462
  741SOL    HW1 3122   2.053   6.444   3.532
  741SOL    HW2 3123   1.994   6.452   3.380
  742SOL     OW 3124   3.045   6.874   2.923
  742SOL    HW1 3125   3.009   6.939   2.855
  742SOL    HW2 3126   3.144   6.866   2.913
  743SOL     OW 3127   0.108   4.243   3.366
  743SOL    HW1 3128   0.088   4.334   3.402
  743SOL    HW2 3129   0.028   4.209   3.316
  744SOL     OW 3130   6.415   0.221   6.870
  744SOL    HW1 3131   6.385   0.209   6.964
  744SOL    HW2 3132   6.343   0.189   6.808
  745SOL     OW 3133   1.385   4.878   4.753
  745SOL    HW1 3134   1.322   4.927   4.813
  745SOL    HW2 3135   1.360   4.781   4.750
  746SOL     OW 3136   6.847   4.201   6.585
  746SOL    HW1 3137   6.932   4.149   6.581
  746SOL    HW2 3138   6.856   4.275   6.652
  747SOL     OW 3139   3.391   6.325   4.592
  747SOL    HW1 3140   3.460   6.253   4.602
  747SOL    HW2 3141   3.384   6.352   4.496
  748SOL     OW 3142   3.804   5.188   2.123
  748SOL    HW1 3143   3.791   5.228   2.033
  748SOL    HW2 3144   3.821   5.090   2.114
  749SOL     OW 3145   6.007   4.259   4.723
  749SOL    HW1 3146   6.087   4.304   4.684
  749SOL    HW2 3147   5.927   4.277   4.666
  750SOL     OW 3148   1.623   1.803   1.030
  750SOL    HW1 3149   1.631   1.901   1.047
  750SOL    HW2 3150   1.551   1.764   1.088
  751SOL     OW 3151   3.891   2.375   0.156
  751SOL    HW1 3152   3.981   2.335   0.141
  751SOL    HW2 3153   3.899   2.453   0.218
  752SOL     OW 3154   3.096   0.792   2.029
  752SOL    HW1 3155   3.163   0.821   2.097
  752SOL    HW2 3156   3.033   0.868   2.010
  753SOL     OW 3157   2.342   2.990   5.403
  753SOL    HW1 3158   2.281   2.911   5.396
  753SOL    HW2 3159   2.398   2.995   5.321
  754SOL     OW 3160   5.290   2.717   5.440
  754SOL    HW1 3161   5.306   2.655   5.517
  754SOL    HW2 3162   5.206   2.769   5.456
  755SOL     OW 3163   1.560   4.687   5.943
  755SOL    HW1 3164   1.642   4.630   5.935
  755SOL    HW2 3165   1.478   4.629   5.934
  756SOL     OW 3166   2.933   0.050   6.568
  756SOL    HW1 3167   2.961   0.145   6.560
  756SOL    HW2 3168   3.008   7.021   6.607
  757SOL     OW 3169   0.668   0.951   3.891
  757SOL    HW1 3170   0.602   0.948   3.817
  757SOL    HW2 3171   0.669   0.864   3.940
  758SOL     OW 3172   3.681   0.271   2.094
  758SOL    HW1 3173   3.594   0.285   2.142
  758SOL    HW2 3174   3.674   0.189   2.037
  759SOL     OW 3175   0.488   1.522   1.420
  759SOL    HW1 3176   0.404   1.477   1.450
  759SOL    HW2 3177   0.564   1.496   1.479
  760SOL     OW 3178   5.357   0.102   5.444
  760SOL    HW1 3179   5.423   0.027   5.433
  760SOL    HW2 3180   5.369   0.145   5.533
  761SOL     OW 3181   5.185   3.573   5.842
  761SOL    HW1 3182   5.226   3.657   5.878
  761SOL    HW2 3183   5.253   3.500   5.844
  762SOL     OW 3184   2.313   0.469   5.015
  762SOL    HW1 3185   2.352   0.497   4.928
  762SOL    HW2 3186   2.255   0.388   5.002
  763SOL     OW 3187   4.235   5.181   6.612
  763SOL    HW1 3188   4.168   5.253   6.624
  763SOL    HW2 3189   4.218   5.108   6.678
  764SOL     OW 3190   5.036   1.295   4.977
  764SOL    HW1 3191   5.129   1.264   4.959
  764SOL    HW2 3192   4.985   1.298   4.890
  765SOL     OW 3193   1.690   6.069   1.544
  765SOL    HW1 3194   1.727   6.082   1.636
  765SOL    HW2 3195   1.591   6.086   1.545
  766SOL     OW 3196   2.544   3.143   6.372
  766SOL    HW1 3197   2.548   3.152   6.472
  766SOL    HW2 3198   2.473   3.203   6.336
  767SOL     OW 3199   5.884   5.348   1.729
  767SOL    HW1 3200   5.875   5.448   1.734
  767SOL    HW2 3201   5.795   5.308   1.704
  768SOL     OW 3202   2.382   6.979   2.703
  768SOL    HW1 3203   2.282   6.989   2.705
  768SOL    HW2 3204   2.417   7.019   2.619
  769SOL     OW 3205   3.025   0.914   5.172
  769SOL    HW1 3206   2.961   0.988   5.194
  769SOL    HW2 3207   2.975   0.828   5.163
  770SOL     OW 3208   1.820   4.617   2.633
  770SOL    HW1 3209   1.832   4.692   2.569
  770SOL    HW2 3210   1.793   4.534   2.583
  771SOL     OW 3211   1.417   5.449   2.627
  771SOL    HW1 3212   1.416   5.486   2.534
  771SOL    HW2 3213   1.461   5.515   2.688
  772SOL     OW 3214   5.699   5.892   7.020
  772SOL    HW1 3215   5.724   5.952   0.071
  772SOL    HW2 3216   5.758   5.811   7.020
  773SOL     OW 3217   0.114   3.732   4.384
  773SOL    HW1 3218   0.076   3.643   4.408
  773SOL    HW2 3219   0.207   3.740   4.420
  774SOL     OW 3220   1.419   1.663   1.173
  774SOL    HW1 3221   1.322   1.683   1.164
  774SOL    HW2 3222   1.436   1.567   1.148
  775SOL     OW 3223   0.761   2.233   3.528
  775SOL    HW1 3224   0.722   2.279   3.607
  775SOL    HW2 3225   0.724   2.273   3.444
  776SOL     OW 3226   1.778   6.663   6.264
  776SOL    HW1 3227   1.682   6.688   6.255
  776SOL    HW2 3228   1.826   6.734   6.316
  777SOL     OW 3229   2.308   4.739   1.908
  777SOL    HW1 3230   2.384   4.762   1.968
  777SOL    HW2 3231   2.329   4.654   1.859
  778SOL     OW 3232   2.363   1.471   1.892
  778SOL    HW1 3233   2.450   1.422   1.899
  778SOL    HW2 3234   2.365   1.550   1.953
  779SOL     OW 3235   6.398   2.753   2.120
  779SOL    HW1 3236   6.371   2.727   2.028
  779SOL    HW2 3237   6.341   2.705   2.187
  780SOL     OW 3238   0.404   3.909   4.058
  780SOL    HW1 3239   0.426   3.930   4.153
  780SOL    HW2 3240   0.388   3.994   4.008
  781SOL     OW 3241   5.720   6.991   0.087
  781SOL    HW1 3242   5.658   0.045   0.096
  781SOL    HW2 3243   5.766   6.994   7.023
  782SOL     OW 3244   1.706   4.126   6.492
  782SOL    HW1 3245   1.709   4.173   6.581
  782SOL    HW2 3246   1.611   4.113   6.465
  783SOL     OW 3247   4.952   4.601   1.474
  783SOL    HW1 3248   4.899   4.685   1.461
  783SOL    HW2 3249   5.050   4.622   1.468
  784SOL     OW 3250   5.026   4.827   0.653
  784SOL    HW1 3251   5.048   4.875   0.568
  784SOL    HW2 3252   4.946   4.869   0.695
  785SOL     OW 3253   0.349   2.565   3.520
  785SOL    HW1 3254   0.437   2.587   3.563
  785SOL    HW2 3255   0.352   2.588   3.423
  786SOL     OW 3256   1.422   1.181   2.533
  786SOL    HW1 3257   1.486   1.195   2.608
  786SOL    HW2 3258   1.332   1.159   2.570
  787SOL     OW 3259   2.448   0.796   6.974
  787SOL    HW1 3260   2.428   0.713   6.922
  787SOL    HW2 3261   2.404   0.874   6.929
  788SOL     OW 3262   3.357   2.976   6.094
  788SOL    HW1 3263   3.295   3.009   6.023
  788SOL    HW2 3264   3.434   2.928   6.051
  789SOL     OW 3265   5.273   3.766   0.641
  789SOL    HW1 3266   5.308   3.860   0.650
  789SOL    HW2 3267   5.306   3.711   0.718
  790SOL     OW 3268   2.473   1.301   3.698
  790SOL    HW1 3269   2.434   1.248   3.774
  790SOL    HW2 3270   2.496   1.393   3.731
  791SOL     OW 3271   2.384   5.958   3.818
  791SOL    HW1 3272   2.474   5.970   3.859
  791SOL    HW2 3273   2.334   6.044   3.821
  792SOL     OW 3274   1.041   0.279   0.960
  792SOL    HW1 3275   0.975   0.280   1.036
  792SOL    HW2 3276   0.995   0.306   0.876
  793SOL     OW 3277   4.805   4.854   3.779
  793SOL    HW1 3278   4.859   4.889   3.855
  793SOL    HW2 3279   4.852   4.776   3.738
  794SOL     OW 3280   3.653   3.682   5.861
  794SOL    HW1 3281   3.636   3.753   5.930
  794SOL    HW2 3282   3.729   3.625   5.891
  795SOL     OW 3283   2.796   6.588   4.203
  795SOL    HW1 3284   2.800   6.564   4.106
  795SOL    HW2 3285   2.887   6.583   4.243
  796SOL     OW 3286   6.621   1.927   6.376
  796SOL    HW1 3287   6.712   1.888   6.385
  796SOL    HW2 3288   6.554   1.853   6.371
  797SOL     OW 3289   5.698   2.718   0.522
  797SOL    HW1 3290   5.633   2.763   0.583
  797SOL    HW2 3291   5.789   2.719   0.563
  798SOL     OW 3292   3.911   6.638   2.386
  798SOL    HW1 3293   3.983   6.685   2.335
  798SOL    HW2 3294   3.916   6.664   2.483
  799SOL     OW 3295   0.384   6.422   5.477
  799SOL    HW1 3296   0.303   6.475   5.504
  799SOL    HW2 3297   0.382   6.407   5.378
  800SOL     OW 3298   4.829   2.186   2.680
  800SOL    HW1 3299   4.879   2.178   2.767
  800SOL    HW2 3300   4.862   2.265   2.629
  801SOL     OW 3301   1.542   3.713   4.276
  801SOL    HW1 3302   1.477   3.789   4.269
  801SOL    HW2 3303   1.634   3.746   4.252
  802SOL     OW 3304   3.864   2.526   0.901
  802SOL    HW1 3305   3.964   2.520   0.897
  802SOL    HW2 3306   3.833   2.608   0.852
  803SOL     OW 3307   0.045   6.364   5.622
  803SOL    HW1 3308   0.124   6.328   5.573
  803SOL    HW2 3309   0.038   6.463   5.605
  804SOL     OW 3310   5.699   5.955   6.421
  804SOL    HW1 3311   5.645   5.898   6.359
  804SOL    HW2 3312   5.712   5.906   6.508
  805SOL     OW 3313   2.996   7.009   4.692
  805SOL    HW1 3314   3.083   6.970   4.724
  805SOL    HW2 3315   2.986   6.990   4.594
  806SOL     OW 3316   4.914   1.291   4.333
  806SOL    HW1 3317   4.952   1.215   4.386
  806SOL    HW2 3318   4.987   1.357   4.312
  807SOL     OW 3319   1.677   1.101   5.108
  807SOL    HW1 3320   1.771   1.135   5.112
  807SOL    HW2 3321   1.657   1.068   5.015
  808SOL     OW 3322   4.319   3.673   6.147
  808SOL    HW1 3323   4.354   3.721   6.228
  808SOL    HW2 3324   4.234   3.626   6.170
  809SOL     OW 3325   0.320   5.106   1.076
  809SOL    HW1 3326   0.361   5.195   1.092
  809SOL    HW2 3327   0.284   5.102   0.983
  810SOL     OW 3328   3.886   3.620   1.146
  810SOL    HW1 3329   3.851   3.713   1.133
  810SOL    HW2 3330   3.809   3.557   1.156
  811SOL     OW 3331   4.549   5.148   4.929
  811SOL    HW1 3332   4.488   5.080   4.969
  811SOL    HW2 3333   4.599   5.108   4.852
  812SOL     OW 3334   0.581   1.111   2.218
  812SOL    HW1 3335   0.586   1.015   2.244
  812SOL    HW2 3336   0.633   1.125   2.134
  813SOL     OW 3337   3.496   6.689   4.422
  813SOL    HW1 3338   3.588   6.650   4.420
  813SOL    HW2 3339   3.466   6.698   4.517
  814SOL     OW 3340   6.253   6.052   2.262
  814SOL    HW1 3341   6.264   6.106   2.179
  814SOL    HW2 3342   6.334   5.995   2.276
  815SOL     OW 3343   0.510   3.968   3.229
  815SOL    HW1 3344   0.444   3.903   3.268
  815SOL    HW2 3345   0.462   4.053   3.204
  816SOL     OW 3346   6.061   6.464   0.270
  816SOL    HW1 3347   5.973   6.485   0.227
  816SOL    HW2 3348   6.065   6.507   0.360
  817SOL     OW 3349   2.075   4.577   0.766
  817SOL    HW1 3350   2.042   4.542   0.678
  817SOL    HW2 3351   2.123   4.663   0.752
  818SOL     OW 3352   6.710   2.706   2.540
  818SOL    HW1 3353   6.702   2.800   2.573
  818SOL    HW2 3354   6.731   2.706   2.442
  819SOL     OW 3355   5.232   2.458   2.512
  819SOL    HW1 3356   5.230   2.527   2.439
  819SOL    HW2 3357   5.284   2.379   2.481
  820SOL     OW 3358   3.002   2.318   5.338
  820SOL    HW1 3359   2.987   2.222   5.312
  820SOL    HW2 3360   3.079   2.355   5.285
  821SOL     OW 3361   1.140   4.479   1.467
  821SOL    HW1 3362   1.186   4.562   1.437
  821SOL    HW2 3363   1.191   4.438   1.543
  822SOL     OW 3364   1.049   4.636   3.854
  822SOL    HW1 3365   1.024   4.597   3.943
  822SOL    HW2 3366   1.125   4.583   3.815
  823SOL     OW 3367   5.047   3.796   6.239
  823SOL    HW1 3368   5.120   3.863   6.224
  823SOL    HW2 3369   4.973   3.839   6.291
  824SOL     OW 3370   5.532   1.051   6.310
  824SOL    HW1 3371   5.479   1.119   6.259
  824SOL    HW2 3372   5.570   1.094   6.392
  825SOL     OW 3373   0.277   4.664   1.266
  825SOL    HW1 3374   0.370   4.643   1.237
  825SOL    HW2 3375   0.213   4.603   1.217
  826SOL     OW 3376   4.855   3.036   5.866
  826SOL    HW1 3377   4.929   3.045   5.800
  826SOL    HW2 3378   4.883   2.974   5.939
  827SOL     OW 3379   2.843   4.668   5.410
  827SOL    HW1 3380   2.892   4.755   5.400
  827SOL    HW2 3381   2.860   4.611   5.330
  828SOL     OW 3382   5.714   6.681   6.760
  828SOL    HW1 3383   5.740   6.612   6.828
  828SOL    HW2 3384   5.641   6.645   6.702
  829SOL     OW 3385   3.658   4.028   2.878
  829SOL    HW1 3386   3.667   4.119   2.919
  829SOL    HW2 3387   3.562   4.005   2.868
  830SOL     OW 3388   5.059   5.187   6.524
  830SOL    HW1 3389   4.990   5.171   6.595
  830SOL    HW2 3390   5.057   5.111   6.459
  831SOL     OW 3391   6.016   0.396   0.354
  831SOL    HW1 3392   6.003   0.481   0.405
  831SOL    HW2 3393   6.105   0.397   0.308
  832SOL     OW 3394   3.378   0.480   1.861
  832SOL    HW1 3395   3.413   0.536   1.786
  832SOL    HW2 3396   3.418   0.511   1.948
  833SOL     OW 3397   1.046   3.554   5.792
  833SOL    HW1 3398   1.140   3.542   5.822
  833SOL    HW2 3399   1.044   3.584   5.697
  834SOL     OW 3400   4.161   3.660   0.544
  834SOL    HW1 3401   4.182   3.571   0.501
  834SOL    HW2 3402   4.095   3.709   0.487
  835SOL     OW 3403   3.691   0.332   5.585
  835SOL    HW1 3404   3.779   0.328   5.632
  835SOL    HW2 3405   3.702   0.299   5.491
  836SOL     OW 3406   3.891   6.011   6.072
  836SOL    HW1 3407   3.987   6.021   6.047
  836SOL    HW2 3408   3.843   5.961   6.001
  837SOL     OW 3409   5.616   0.604   0.712
  837SOL    HW1 3410   5.600   0.563   0.802
  837SOL    HW2 3411   5.701   0.657   0.714
  838SOL     OW 3412   2.487   0.552   4.805
  838SOL    HW1 3413   2.516   0.526   4.713
  838SOL    HW2 3414   2.506   0.648   4.821
  839SOL     OW 3415   1.106   2.816   2.196
  839SOL    HW1 3416   1.199   2.814   2.159
  839SOL    HW2 3417   1.044   2.858   2.130
  840SOL     OW 3418   6.581   5.847   0.376
  840SOL    HW1 3419   6.627   5.936   0.376
  840SOL    HW2 3420   6.620   5.789   0.304
  841SOL     OW 3421   4.051   4.850   6.930
  841SOL    HW1 3422   4.097   4.859   6.842
  841SOL    HW2 3423   4.109   4.797   6.993
  842SOL     OW 3424   4.311   0.074   5.156
  842SOL    HW1 3425   4.277   0.034   5.241
  842SOL    HW2 3426   4.317   0.174   5.167
  843SOL     OW 3427   0.610   1.264   0.928
  843SOL    HW1 3428   0.696   1.264   0.877
  843SOL    HW2 3429   0.594   1.355   0.966
  844SOL     OW 3430   5.507   0.445   0.297
  844SOL    HW1 3431   5.445   0.453   0.376
  844SOL    HW2 3432   5.601   0.430   0.330
  845SOL     OW 3433   5.181   4.771   4.756
  845SOL    HW1 3434   5.192   4.728   4.845
  845SOL    HW2 3435   5.201   4.704   4.684
  846SOL     OW 3436   1.913   1.855   6.186
  846SOL    HW1 3437   1.868   1.771   6.156
  846SOL    HW2 3438   1.988   1.876   6.124
  847SOL     OW 3439   1.633   2.909   1.400
  847SOL    HW1 3440   1.564   2.946   1.461
  847SOL    HW2 3441   1.602   2.821   1.363
  848SOL     OW 3442   6.305   0.538   5.883
  848SOL    HW1 3443   6.306   0.602   5.806
  848SOL    HW2 3444   6.362   0.458   5.860
  849SOL     OW 3445   0.147   3.679   6.059
  849SOL    HW1 3446   0.063   3.729   6.076
  849SOL    HW2 3447   0.127   3.598   6.004
  850SOL     OW 3448   5.045   0.478   3.131
  850SOL    HW1 3449   5.049   0.405   3.063
  850SOL    HW2 3450   5.016   0.439   3.219
  851SOL     OW 3451   0.067   1.779   2.473
  851SOL    HW1 3452   0.167   1.776   2.471
  851SOL    HW2 3453   0.036   1.773   2.568
  852SOL     OW 3454   1.516   3.088   6.715
  852SOL    HW1 3455   1.535   3.066   6.811
  852SOL    HW2 3456   1.519   3.187   6.703
  853SOL     OW 3457   1.696   4.490   1.484
  853SOL    HW1 3458   1.755   4.438   1.546
  853SOL    HW2 3459   1.720   4.587   1.491
  854SOL     OW 3460   5.043   5.916   1.107
  854SOL    HW1 3461   5.126   5.935   1.159
  854SOL    HW2 3462   4.989   6.000   1.098
  855SOL     OW 3463   7.018   6.659   1.677
  855SOL    HW1 3464   6.941   6.614   1.722
  855SOL    HW2 3465   7.001   6.665   1.579
  856SOL     OW 3466   0.940   2.259   5.082
  856SOL    HW1 3467   0.928   2.319   5.002
  856SOL    HW2 3468   1.034   2.267   5.115
  857SOL     OW 3469   5.906   4.118   1.789
  857SOL    HW1 3470   5.994   4.163   1.806
  857SOL    HW2 3471   5.907   4.027   1.831
  858SOL     OW 3472   2.652   3.606   0.953
  858SOL    HW1 3473   2.613   3.643   0.869
  858SOL    HW2 3474   2.748   3.585   0.938
  859SOL     OW 3475   5.951   5.886   5.158
  859SOL    HW1 3476   5.971   5.822   5.083
  859SOL    HW2 3477   5.992   5.975   5.138
  860SOL     OW 3478   5.425   3.531   0.826
  860SOL    HW1 3479   5.385   3.454   0.875
  860SOL    HW2 3480   5.415   3.614   0.880
  861SOL     OW 3481   2.365   5.822   3.529
  861SOL    HW1 3482   2.389   5.882   3.605
  861SOL    HW2 3483   2.379   5.727   3.556
  862SOL     OW 3484   1.091   3.991   4.815
  862SOL    HW1 3485   1.056   3.908   4.859
  862SOL    HW2 3486   1.170   3.969   4.758
  863SOL     OW 3487   6.187   1.003   0.427
  863SOL    HW1 3488   6.125   1.074   0.460
  863SOL    HW2 3489   6.240   1.040   0.350
  864SOL     OW 3490   4.129   5.444   3.855
  864SOL    HW1 3491   4.059   5.515   3.841
  864SOL    HW2 3492   4.085   5.360   3.887
  865SOL     OW 3493   0.797   6.130   6.101
  865SOL    HW1 3494   0.729   6.129   6.028
  865SOL    HW2 3495   0.888   6.146   6.061
  866SOL     OW 3496   1.877   1.969   1.686
  866SOL    HW1 3497   1.938   2.048   1.693
  866SOL    HW2 3498   1.925   1.887   1.717
  867SOL     OW 3499   4.205   3.730   0.866
  867SOL    HW1 3500   4.293   3.725   0.912
  867SOL    HW2 3501   4.214   3.698   0.772
  868SOL     OW 3502   6.291   1.426   1.103
  868SOL    HW1 3503   6.213   1.371   1.072
  868SOL    HW2 3504   6.341   1.375   1.173
  869SOL     OW 3505   0.262   4.805   3.124
  869SOL    HW1 3506   0.333   4.806   3.195
  869SOL    HW2 3507   0.195   4.877   3.142
  870SOL     OW 3508   4.795   3.229   0.759
  870SOL    HW1 3509   4.813   3.324   0.786
  870SOL    HW2 3510   4.874   3.172   0.783
  871SOL     OW 3511   4.455   2.408   3.151
  871SOL    HW1 3512   4.421   2.452   3.234
  871SOL    HW2 3513   4.545   2.368   3.169
  872SOL     OW 3514   5.378   3.418   3.686
  872SOL    HW1 3515   5.362   3.485   3.758
  872SOL    HW2 3516   5.413   3.464   3.604
  873SOL     OW 3517   5.691   6.900   4.141
  873SOL    HW1 3518   5.700   6.957   4.222
  873SOL    HW2 3519   5.648   6.953   4.067
  874SOL     OW 3520   0.648   4.368   5.926
  874SOL    HW1 3521   0.654   4.276   5.965
  874SOL    HW2 3522   0.587   4.367   5.846
  875SOL     OW 3523   3.991   3.345   0.671
  875SOL    HW1 3524   3.919   3.411   0.651
  875SOL    HW2 3525   4.016   3.351   0.768
  876SOL     OW 3526   0.543   4.619   2.103
  876SOL    HW1 3527   0.617   4.551   2.104
  876SOL    HW2 3528   0.474   4.594   2.171
  877SOL     OW 3529   3.883   4.272   6.037
  877SOL    HW1 3530   3.834   4.357   6.018
  877SOL    HW2 3531   3.869   4.208   5.962
  878SOL     OW 3532   3.865   6.079   5.376
  878SOL    HW1 3533   3.871   6.120   5.285
  878SOL    HW2 3534   3.783   6.112   5.423
  879SOL     OW 3535   3.776   2.745   0.759
  879SOL    HW1 3536   3.679   2.766   0.772
  879SOL    HW2 3537   3.821   2.822   0.714
  880SOL     OW 3538   3.298   4.039   4.812
  880SOL    HW1 3539   3.257   4.070   4.898
  880SOL    HW2 3540   3.359   3.961   4.831
  881SOL     OW 3541   4.862   4.103   4.639
  881SOL    HW1 3542   4.838   4.010   4.667
  881SOL    HW2 3543   4.961   4.114   4.639
  882SOL     OW 3544   0.907   2.403   4.395
  882SOL    HW1 3545   0.973   2.462   4.441
  882SOL    HW2 3546   0.909   2.312   4.436
  883SOL     OW 3547   4.410   6.043   6.688
  883SOL    HW1 3548   4.440   6.065   6.595
  883SOL    HW2 3549   4.317   6.077   6.702
  884SOL     OW 3550   7.017   4.109   0.294
  884SOL    HW1 3551   0.083   4.102   0.252
  884SOL    HW2 3552   6.959   4.035   0.259
  885SOL     OW 3553   4.781   5.847   6.389
  885SOL    HW1 3554   4.787   5.884   6.297
  885SOL    HW2 3555   4.755   5.750   6.386
  886SOL     OW 3556   4.311   1.178   1.391
  886SOL    HW1 3557   4.344   1.084   1.394
  886SOL    HW2 3558   4.374   1.237   1.441
  887SOL     OW 3559   3.318   6.474   4.348
  887SOL    HW1 3560   3.356   6.552   4.396
  887SOL    HW2 3561   3.299   6.499   4.253
  888SOL     OW 3562   6.326   5.812   2.702
  888SOL    HW1 3563   6.305   5.817   2.800
  888SOL    HW2 3564   6.418   5.774   2.690
  889SOL     OW 3565   1.364   6.324   6.133
  889SOL    HW1 3566   1.414   6.386   6.194
  889SOL    HW2 3567   1.309   6.379   6.070
  890SOL     OW 3568   2.038   5.381   2.319
  890SOL    HW1 3569   1.970   5.366   2.247
  890SOL    HW2 3570   2.104   5.306   2.318
  891SOL     OW 3571   6.194   3.930   0.688
  891SOL    HW1 3572   6.280   3.930   0.739
  891SOL    HW2 3573   6.129   3.868   0.731
  892SOL     OW 3574   3.854   4.046   5.870
  892SOL    HW1 3575   3.822   4.009   5.957
  892SOL    HW2 3576   3.776   4.061   5.809
  893SOL     OW 3577   2.128   1.062   2.109
  893SOL    HW1 3578   2.147   0.996   2.182
  893SOL    HW2 3579   2.144   1.019   2.021
  894SOL     OW 3580   0.976   2.473   3.403
  894SOL    HW1 3581   0.919   2.478   3.321
  894SOL    HW2 3582   1.064   2.430   3.380
  895SOL     OW 3583   1.144   5.161   3.926
  895SOL    HW1 3584   1.153   5.077   3.872
  895SOL    HW2 3585   1.103   5.139   4.015
  896SOL     OW 3586   6.423   0.056   1.519
  896SOL    HW1 3587   6.367   7.012   1.567
  896SOL    HW2 3588   6.363   0.123   1.476
  897SOL     OW 3589   4.209   0.623   6.696
  897SOL    HW1 3590   4.301   0.651   6.726
  897SOL    HW2 3591   4.147   0.701   6.703
  898SOL     OW 3592   3.528   6.492   3.274
  898SOL    HW1 3593   3.475   6.424   3.223
  898SOL    HW2 3594   3.503   6.584   3.241
  899SOL     OW 3595   0.540   5.402   0.899
  899SOL    HW1 3596   0.498   5.351   0.824
  899SOL    HW2 3597   0.609   5.464   0.863
  900SOL     OW 3598   4.652   6.194   0.304
  900SOL    HW1 3599   4.655   6.288   0.338
  900SOL    HW2 3600   4.637   6.195   0.205
  901SOL     OW 3601   1.389   0.749   5.252
  901SOL    HW1 3602   1.294   0.771   5.276
  901SOL    HW2 3603   1.448   0.825   5.277
  902SOL     OW 3604   1.165   2.335   1.238
  902SOL    HW1 3605   1.189   2.323   1.142
  902SOL    HW2 3606   1.137   2.247   1.277
  903SOL     OW 3607   6.860   3.548   5.963
  903SOL    HW1 3608   6.921   3.625   5.945
  903SOL    HW2 3609   6.882   3.508   6.052
  904SOL     OW 3610   2.164   2.696   2.805
  904SOL    HW1 3611   2.103   2.765   2.766
  904SOL    HW2 3612   2.117   2.649   2.880
  905SOL     OW 3613   4.882   3.798   5.839
  905SOL    HW1 3614   4.941   3.735   5.889
  905SOL    HW2 3615   4.791   3.757   5.828
  906SOL     OW 3616   0.580   3.020   6.114
  906SOL    HW1 3617   0.657   2.959   6.131
  906SOL    HW2 3618   0.614   3.106   6.075
  907SOL     OW 3619   4.975   2.359   2.525
  907SOL    HW1 3620   4.946   2.380   2.432
  907SOL    HW2 3621   5.070   2.388   2.537
  908SOL     OW 3622   2.027   5.413   3.247
  908SOL    HW1 3623   1.992   5.455   3.163
  908SOL    HW2 3624   1.960   5.347   3.281
  909SOL     OW 3625   2.864   5.961   2.425
  909SOL    HW1 3626   2.803   5.892   2.463
  909SOL    HW2 3627   2.810   6.036   2.387
  910SOL     OW 3628   2.696   1.083   0.717
  910SOL    HW1 3629   2.752   1.006   0.746
  910SOL    HW2 3630   2.600   1.063   0.736
  911SOL     OW 3631   0.003   5.778   0.723
  911SOL    HW1 3632   6.957   5.753   0.657
  911SOL    HW2 3633   0.028   5.698   0.778
  912SOL     OW 3634   5.366   0.447   3.776
  912SOL    HW1 3635   5.374   0.441   3.676
  912SOL    HW2 3636   5.408   0.367   3.817
  913SOL     OW 3637   1.241   1.179   3.601
  913SOL    HW1 3638   1.191   1.145   3.681
  913SOL    HW2 3639   1.183   1.173   3.520
  914SOL     OW 3640   2.243   5.787   5.004
  914SOL    HW1 3641   2.226   5.732   4.923
  914SOL    HW2 3642   2.188   5.871   5.000
  915SOL     OW 3643   0.913   3.440   0.239
  915SOL    HW1 3644   0.924   3.399   0.330
  915SOL    HW2 3645   0.990   3.500   0.220
  916SOL     OW 3646   1.451   2.849   2.394
  916SOL    HW1 3647   1.415   2.936   2.360
  916SOL    HW2 3648   1.519   2.868   2.465
  917SOL     OW 3649   5.602   0.802   2.253
  917SOL    HW1 3650   5.576   0.895   2.226
  917SOL    HW2 3651   5.524   0.741   2.242
  918SOL     OW 3652   3.010   6.771   0.636
  918SOL    HW1 3653   2.962   6.771   0.724
  918SOL    HW2 3654   2.945   6.751   0.563
  919SOL     OW 3655   6.800   5.959   2.751
  919SOL    HW1 3656   6.743   6.011   2.814
  919SOL    HW2 3657   6.895   5.990   2.759
  920SOL     OW 3658   2.303   5.422   3.321
  920SOL    HW1 3659   2.204   5.426   3.306
  920SOL    HW2 3660   2.329   5.493   3.386
  921SOL     OW 3661   4.834   4.499   3.137
  921SOL    HW1 3662   4.916   4.512   3.081
  921SOL    HW2 3663   4.853   4.531   3.230
  922SOL     OW 3664   3.524   3.027   5.465
  922SOL    HW1 3665   3.578   2.999   5.545
  922SOL    HW2 3666   3.450   2.962   5.451
  923SOL     OW 3667   2.784   4.981   5.777
  923SOL    HW1 3668   2.840   5.057   5.744
  923SOL    HW2 3669   2.687   5.001   5.763
  924SOL     OW 3670   5.796   2.374   3.074
  924SOL    HW1 3671   5.780   2.357   3.171
  924SOL    HW2 3672   5.729   2.440   3.040
  925SOL     OW 3673   0.476   1.917   7.004
  925SOL    HW1 3674   0.445   2.001   6.959
  925SOL    HW2 3675   0.430   1.908   0.068
  926SOL     OW 3676   5.642   1.280   0.472
  926SOL    HW1 3677   5.654   1.182   0.484
  926SOL    HW2 3678   5.590   1.317   0.549
  927SOL     OW 3679   6.182   3.877   3.234
  927SOL    HW1 3680   6.182   3.977   3.242
  927SOL    HW2 3681   6.110   3.839   3.292
  928SOL     OW 3682   1.134   5.699   0.500
  928SOL    HW1 3683   1.098   5.705   0.407
  928SOL    HW2 3684   1.058   5.681   0.564
  929SOL     OW 3685   7.012   0.982   1.505
  929SOL    HW1 3686   0.004   0.894   1.549
  929SOL    HW2 3687   0.045   0.992   1.425
  930SOL     OW 3688   5.329   6.302   4.632
  930SOL    HW1 3689   5.384   6.230   4.590
  930SOL    HW2 3690   5.341   6.387   4.581
  931SOL     OW 3691   5.694   1.995   2.759
  931SOL    HW1 3692   5.720   2.091   2.767
  931SOL    HW2 3693   5.636   1.983   2.678
  932SOL     OW 3694   3.218   6.682   2.815
  932SOL    HW1 3695   3.213   6.588   2.848
  932SOL    HW2 3696   3.260   6.682   2.724
  933SOL     OW 3697   0.913   5.853   3.292
  933SOL    HW1 3698   0.880   5.770   3.337
  933SOL    HW2 3699   0.935   5.832   3.196
  934SOL     OW 3700   2.071   0.204   5.190
  934SOL    HW1 3701   2.018   0.288   5.178
  934SOL    HW2 3702   2.117   0.181   5.105
  935SOL     OW 3703   5.081   4.315   4.975
  935SOL    HW1 3704   5.006   4.326   4.910
  935SOL    HW2 3705   5.049   4.261   5.053
  936SOL     OW 3706   1.300   0.271   6.100
  936SOL    HW1 3707   1.295   0.343   6.031
  936SOL    HW2 3708   1.215   0.218   6.098
  937SOL     OW 3709   4.962   1.087   4.539
  937SOL    HW1 3710   5.051   1.079   4.583
  937SOL    HW2 3711   4.890   1.086   4.609
  938SOL     OW 3712   6.786   5.730   5.652
  938SOL    HW1 3713   6.787   5.655   5.586
  938SOL    HW2 3714   6.817   5.814   5.607
  939SOL     OW 3715   5.849   0.323   5.671
  939SOL    HW1 3716   5.924   0.343   5.734
  939SOL    HW2 3717   5.764   0.313   5.722
  940SOL     OW 3718   0.588   2.833   2.021
  940SOL    HW1 3719   0.657   2.761   2.029
  940SOL    HW2 3720   0.518   2.819   2.091
  941SOL     OW 3721   5.845   1.195   5.591
  941SOL    HW1 3722   5.841   1.214   5.493
  941SOL    HW2 3723   5.871   1.278   5.640
  942SOL     OW 3724   4.982   6.786   3.627
  942SOL    HW1 3725   4.955   6.727   3.551
  942SOL    HW2 3726   4.901   6.831   3.665
  943SOL     OW 3727   2.094   3.223   3.980
  943SOL    HW1 3728   2.108   3.174   3.893
  943SOL    HW2 3729   2.049   3.162   4.045
  944SOL     OW 3730   0.001   4.233   5.751
  944SOL    HW1 3731   6.948   4.204   5.806
  944SOL    HW2 3732   0.076   4.167   5.762
  945SOL     OW 3733   6.239   4.403   4.632
  945SOL    HW1 3734   6.298   4.362   4.702
  945SOL    HW2 3735   6.240   4.503   4.641
  946SOL     OW 3736   5.118   2.681   6.243
  946SOL    HW1 3737   5.101   2.584   6.258
  946SOL    HW2 3738   5.211   2.704   6.272
  947SOL     OW 3739   3.986   3.121   4.216
  947SOL    HW1 3740   3.946   3.118   4.308
  947SOL    HW2 3741   4.046   3.200   4.208
  948SOL     OW 3742   4.166   0.009   1.676
  948SOL    HW1 3743   4.125   0.032   1.588
  948SOL    HW2 3744   4.152   6.937   1.695
  949SOL     OW 3745   1.045   6.376   6.251
  949SOL    HW1 3746   0.947   6.357   6.253
  949SOL    HW2 3747   1.095   6.300   6.293
  950SOL     OW 3748   4.442   5.316   1.547
  950SOL    HW1 3749   4.512   5.246   1.532
  950SOL    HW2 3750   4.446   5.382   1.472
  951SOL     OW 3751   2.159   0.988   3.980
  951SOL    HW1 3752   2.134   1.021   4.071
  951SOL    HW2 3753   2.237   1.040   3.946
  952SOL     OW 3754   4.591   2.155   2.843
  952SOL    HW1 3755   4.651   2.168   2.764
  952SOL    HW2 3756   4.552   2.063   2.841
  953SOL     OW 3757   5.284   5.477   3.876
  953SOL    HW1 3758   5.202   5.435   3.915
  953SOL    HW2 3759   5.341   5.513   3.949
  954SOL     OW 3760   4.664   6.063   0.691
  954SOL    HW1 3761   4.590   6.068   0.758
  954SOL    HW2 3762   4.626   6.050   0.600
  955SOL     OW 3763   6.948   4.008   2.840
  955SOL    HW1 3764   6.895   3.966   2.914
  955SOL    HW2 3765   6.890   4.018   2.759
  956SOL     OW 3766   0.050   2.516   2.655
  956SOL    HW1 3767   0.011   2.596   2.610
  956SOL    HW2 3768   0.127   2.481   2.601
  957SOL     OW 3769   6.947   4.377   5.039
  957SOL    HW1 3770   6.996   4.464   5.035
  957SOL    HW2 3771   6.912   4.355   4.948
  958SOL     OW 3772   4.388   1.553   2.198
  958SOL    HW1 3773   4.419   1.628   2.139
  958SOL    HW2 3774   4.292   1.568   2.223
  959SOL     OW 3775   3.787   5.627   2.881
  959SOL    HW1 3776   3.790   5.535   2.841
  959SOL    HW2 3777   3.765   5.694   2.811
  960SOL     OW 3778   1.304   5.950   2.419
  960SOL    HW1 3779   1.274   5.944   2.324
  960SOL    HW2 3780   1.298   6.045   2.450
  961SOL     OW 3781   4.822   0.053   3.521
  961SOL    HW1 3782   4.735   0.104   3.517
  961SOL    HW2 3783   4.827   0.003   3.607
  962SOL     OW 3784   0.544   0.514   5.290
  962SOL    HW1 3785   0.466   0.565   5.254
  962SOL    HW2 3786   0.518   0.471   5.376
  963SOL     OW 3787   6.800   1.940   6.036
  963SOL    HW1 3788   6.876   1.905   5.982
  963SOL    HW2 3789   6.834   1.972   6.124
  964SOL     OW 3790   5.704   4.596   6.839
  964SOL    HW1 3791   5.767   4.661   6.883
  964SOL    HW2 3792   5.694   4.515   6.897
  965SOL     OW 3793   5.704   2.105   0.699
  965SOL    HW1 3794   5.687   2.128   0.795
  965SOL    HW2 3795   5.653   2.022   0.676
  966SOL     OW 3796   5.258   2.581   1.820
  966SOL    HW1 3797   5.296   2.655   1.875
  966SOL    HW2 3798   5.288   2.592   1.725
  967SOL     OW 3799   2.175   4.247   1.664
  967SOL    HW1 3800   2.243   4.305   1.709
  967SOL    HW2 3801   2.105   4.221   1.730
  968SOL     OW 3802   3.406   1.122   1.610
  968SOL    HW1 3803   3.421   1.174   1.694
  968SOL    HW2 3804   3.398   1.185   1.532
  969SOL     OW 3805   3.421   6.022   5.848
  969SOL    HW1 3806   3.479   6.023   5.929
  969SOL    HW2 3807   3.413   6.114   5.812
  970SOL     OW 3808   5.519   0.785   6.244
  970SOL    HW1 3809   5.433   0.762   6.198
  970SOL    HW2 3810   5.509   0.874   6.288
  971SOL     OW 3811   6.854   1.925   3.066
  971SOL    HW1 3812   6.810   2.011   3.091
  971SOL    HW2 3813   6.924   1.941   2.996
  972SOL     OW 3814   5.626   3.362   1.858
  972SOL    HW1 3815   5.584   3.450   1.879
  972SOL    HW2 3816   5.654   3.361   1.762
  973SOL     OW 3817   6.959   4.662   7.022
  973SOL    HW1 3818   7.014   4.738   6.989
  973SOL    HW2 3819   6.983   4.579   6.972
  974SOL     OW 3820   5.116   6.567   2.717
  974SOL    HW1 3821   5.053   6.580   2.641
  974SOL    HW2 3822   5.069   6.582   2.804
  975SOL     OW 3823   1.443   6.169   6.949
  975SOL    HW1 3824   1.522   6.113   6.923
  975SOL    HW2 3825   1.407   6.215   6.868
  976SOL     OW 3826   0.242   3.583   2.838
  976SOL    HW1 3827   0.204   3.676   2.834
  976SOL    HW2 3828   0.274   3.557   2.747
  977SOL     OW 3829   1.013   0.638   2.388
  977SOL    HW1 3830   1.089   0.677   2.440
  977SOL    HW2 3831   0.928   0.652   2.439
  978SOL     OW 3832   4.704   3.958   5.556
  978SOL    HW1 3833   4.799   3.946   5.584
  978SOL    HW2 3834   4.661   3.868   5.544
  979SOL     OW 3835   6.571   2.280   0.462
  979SOL    HW1 3836   6.589   2.365   0.412
  979SOL    HW2 3837   6.493   2.294   0.524
  980SOL     OW 3838   4.323   2.326   4.629
  980SOL    HW1 3839   4.334   2.403   4.567
  980SOL    HW2 3840   4.384   2.251   4.602
  981SOL     OW 3841   0.399   1.918   4.641
  981SOL    HW1 3842   0.326   1.980   4.613
  981SOL    HW2 3843   0.410   1.923   4.740
  982SOL     OW 3844   2.578   2.248   3.955
  982SOL    HW1 3845   2.556   2.330   4.009
  982SOL    HW2 3846   2.494   2.197   3.937
  983SOL     OW 3847   5.509   1.984   4.971
  983SOL    HW1 3848   5.464   1.929   4.901
  983SOL    HW2 3849   5.476   2.079   4.966
  984SOL     OW 3850   2.593   1.791   4.345
  984SOL    HW1 3851   2.616   1.809   4.249
  984SOL    HW2 3852   2.575   1.878   4.392
  985SOL     OW 3853   5.754   4.360   4.911
  985SOL    HW1 3854   5.845   4.344   4.873
  985SOL    HW2 3855   5.711   4.436   4.862
  986SOL     OW 3856   5.823   4.390   0.968
  986SOL    HW1 3857   5.885   4.467   0.980
  986SOL    HW2 3858   5.871   4.314   0.925
  987SOL     OW 3859   4.615   6.896   1.971
  987SOL    HW1 3860   4.668   6.827   1.921
  987SOL    HW2 3861   4.545   6.934   1.911
  988SOL     OW 3862   2.890   3.486   2.831
  988SOL    HW1 3863   2.940   3.401   2.845
  988SOL    HW2 3864   2.856   3.490   2.737
  989SOL     OW 3865   6.459   0.757   5.496
  989SOL    HW1 3866   6.520   0.707   5.557
  989SOL    HW2 3867   6.489   0.745   5.402
  990SOL     OW 3868   3.947   0.241   2.117
  990SOL    HW1 3869   3.850   0.264   2.115
  990SOL    HW2 3870   3.983   0.255   2.210
  991SOL     OW 3871   0.835   2.547   5.102
  991SOL    HW1 3872   0.873   2.458   5.077
  991SOL    HW2 3873   0.863   2.569   5.195
  992SOL     OW 3874   6.654   2.674   2.248
  992SOL    HW1 3875   6.572   2.721   2.215
  992SOL    HW2 3876   6.648   2.577   2.226
  993SOL     OW 3877   1.231   4.170   1.482
  993SOL    HW1 3878   1.304   4.238   1.489
  993SOL    HW2 3879   1.144   4.211   1.508
  994SOL     OW 3880   3.529   4.229   1.831
  994SOL    HW1 3881   3.586   4.251   1.910
  994SOL    HW2 3882   3.452   4.172   1.860
  995SOL     OW 3883   3.941   3.066   5.408
  995SOL    HW1 3884   3.961   3.161   5.383
  995SOL    HW2 3885   3.934   3.011   5.324
  996SOL     OW 3886   2.937   5.051   4.148
  996SOL    HW1 3887   2.946   5.070   4.246
  996SOL    HW2 3888   2.946   4.953   4.132
  997SOL     OW 3889   1.027   1.157   2.781
  997SOL    HW1 3890   1.027   1.100   2.863
  997SOL    HW2 3891   1.031   1.253   2.807
  998SOL     OW 3892   4.509   0.358   4.441
  998SOL    HW1 3893   4.531   0.271   4.398
  998SOL    HW2 3894   4.417   0.354   4.479
  999SOL     OW 3895   4.753   4.625   2.610
  999SOL    HW1 3896   4.709   4.635   2.520
  999SOL    HW2 3897   4.757   4.528   2.635
 1000SOL     OW 3898   2.520   1.224   1.893
 1000SOL    HW1 3899   2.456   1.177   1.953
 1000SOL    HW2 3900   2.511   1.189   1.800
 1001SOL     OW 3901   5.051   6.236   0.378
 1001SOL    HW1 3902   4.997   6.253   0.296
 1001SOL    HW2 3903   5.043   6.314   0.440
 1002SOL     OW 3904   5.997   1.934   0.685
 1002SOL    HW1 3905   6.057   1.861   0.652
 1002SOL    HW2 3906   5.905   1.897   0.698
 1003SOL     OW 3907   2.154   6.455   2.023
 1003SOL    HW1 3908   2.171   6.537   2.078
 1003SOL    HW2 3909   2.240   6.406   2.009
 1004SOL     OW 3910   0.429   6.800   2.283
 1004SOL    HW1 3911   0.346   6.754   2.253
 1004SOL    HW2 3912   0.453   6.871   2.217
 1005SOL     OW 3913   2.223   2.926   4.009
 1005SOL    HW1 3914   2.197   2.834   3.979
 1005SOL    HW2 3915   2.273   2.919   4.095
 1006SOL     OW 3916   1.098   4.652   1.071
 1006SOL    HW1 3917   1.040   4.691   0.999
 1006SOL    HW2 3918   1.108   4.719   1.145
 1007SOL     OW 3919   4.563   6.913   5.570
 1007SOL    HW1 3920   4.655   6.881   5.593
 1007SOL    HW2 3921   4.560   6.938   5.473
 1008SOL     OW 3922   1.628   2.878   5.017
 1008SOL    HW1 3923   1.724   2.850   5.015
 1008SOL    HW2 3924   1.569   2.798   5.025
 1009SOL     OW 3925   0.445   5.521   4.784
 1009SOL    HW1 3926   0.448   5.584   4.861
 1009SOL    HW2 3927   0.384   5.557   4.714
 1010SOL     OW 3928   3.347   2.845   5.756
 1010SOL    HW1 3929   3.295   2.779   5.702
 1010SOL    HW2 3930   3.283   2.898   5.813
 1011SOL     OW 3931   2.444   5.050   2.153
 1011SOL    HW1 3932   2.487   5.135   2.121
 1011SOL    HW2 3933   2.509   4.997   2.206
 1012SOL     OW 3934   6.983   0.596   1.657
 1012SOL    HW1 3935   6.889   0.631   1.654
 1012SOL    HW2 3936   0.021   0.671   1.680
 1013SOL     OW 3937   1.097   0.891   5.419
 1013SOL    HW1 3938   1.164   0.949   5.372
 1013SOL    HW2 3939   1.018   0.947   5.445
 1014SOL     OW 3940   5.892   6.068   6.111
 1014SOL    HW1 3941   5.964   6.118   6.159
 1014SOL    HW2 3942   5.897   5.971   6.137
 1015SOL     OW 3943   2.701   6.514   5.768
 1015SOL    HW1 3944   2.662   6.464   5.691
 1015SOL    HW2 3945   2.702   6.612   5.747
 1016SOL     OW 3946   3.984   3.791   6.669
 1016SOL    HW1 3947   4.072   3.751   6.645
 1016SOL    HW2 3948   3.991   3.891   6.668
 1017SOL     OW 3949   3.974   2.745   1.273
 1017SOL    HW1 3950   4.005   2.672   1.213
 1017SOL    HW2 3951   4.041   2.760   1.346
 1018SOL     OW 3952   0.391   4.136   3.878
 1018SOL    HW1 3953   0.475   4.084   3.859
 1018SOL    HW2 3954   0.372   4.197   3.800
 1019SOL     OW 3955   6.683   6.718   1.120
 1019SOL    HW1 3956   6.639   6.789   1.175
 1019SOL    HW2 3957   6.777   6.744   1.101
 1020SOL     OW 3958   0.586   0.868   1.596
 1020SOL    HW1 3959   0.542   0.805   1.531
 1020SOL    HW2 3960   0.531   0.951   1.605
 1021SOL     OW 3961   5.150   6.841   1.399
 1021SOL    HW1 3962   5.078   6.790   1.352
 1021SOL    HW2 3963   5.235   6.790   1.395
 1022SOL     OW 3964   3.967   4.990   5.996
 1022SOL    HW1 3965   3.992   4.904   5.950
 1022SOL    HW2 3966   3.919   5.049   5.931
 1023SOL     OW 3967   0.782   6.752   2.806
 1023SOL    HW1 3968   0.818   6.670   2.850
 1023SOL    HW2 3969   0.682   6.743   2.796
 1024SOL     OW 3970   0.509   2.306   3.954
 1024SOL    HW1 3971   0.506   2.311   4.054
 1024SOL    HW2 3972   0.435   2.360   3.915
 1025SOL     OW 3973   3.276   3.074   0.855
 1025SOL    HW1 3974   3.247   3.008   0.786
 1025SOL    HW2 3975   3.206   3.145   0.866
 1026SOL     OW 3976   2.062   2.435   0.753
 1026SOL    HW1 3977   2.132   2.385   0.702
 1026SOL    HW2 3978   2.102   2.474   0.836
 1027SOL     OW 3979   3.164   6.408   1.704
 1027SOL    HW1 3980   3.205   6.350   1.774
 1027SOL    HW2 3981   3.235   6.441   1.642
 1028SOL     OW 3982   3.079   6.369   0.235
 1028SOL    HW1 3983   3.055   6.399   0.327
 1028SOL    HW2 3984   3.022   6.290   0.210
 1029SOL     OW 3985   1.860   6.858   6.960
 1029SOL    HW1 3986   1.939   6.908   6.924
 1029SOL    HW2 3987   1.791   6.850   6.888
 1030SOL     OW 3988   3.058   2.952   1.857
 1030SOL    HW1 3989   3.022   2.871   1.812
 1030SOL    HW2 3990   3.003   3.032   1.831
 1031SOL     OW 3991   5.495   4.583   0.612
 1031SOL    HW1 3992   5.490   4.588   0.512
 1031SOL    HW2 3993   5.586   4.553   0.640
 1032SOL     OW 3994   2.273   2.027   4.924
 1032SOL    HW1 3995   2.306   2.091   4.855
 1032SOL    HW2 3996   2.222   2.077   4.995
 1033SOL     OW 3997   1.230   6.737   0.721
 1033SOL    HW1 3998   1.299   6.695   0.662
 1033SOL    HW2 3999   1.192   6.817   0.676
 1034SOL     OW 4000   0.731   4.867   4.965
 1034SOL    HW1 4001   0.770   4.926   4.894
 1034SOL    HW2 4002   0.650   4.820   4.929
 1035SOL     OW 4003   0.041   0.972   5.214
 1035SOL    HW1 4004   0.002   1.063   5.201
 1035SOL    HW2 4005   0.125   0.964   5.161
 1036SOL     OW 4006   3.482   1.229   1.861
 1036SOL    HW1 4007   3.548   1.266   1.927
 1036SOL    HW2 4008   3.400   1.200   1.910
 1037SOL     OW 4009   1.436   0.872   1.914
 1037SOL    HW1 4010   1.493   0.826   1.846
 1037SOL    HW2 4011   1.472   0.964   1.932
 1038SOL     OW 4012   1.241   0.314   4.695
 1038SOL    HW1 4013   1.286   0.402   4.688
 1038SOL    HW2 4014   1.143   0.327   4.712
 1039SOL     OW 4015   3.456   3.981   5.675
 1039SOL    HW1 4016   3.484   3.919   5.602
 1039SOL    HW2 4017   3.357   3.999   5.667
 1040SOL     OW 4018   4.738   2.656   2.664
 1040SOL    HW1 4019   4.656   2.605   2.642
 1040SOL    HW2 4020   4.787   2.680   2.580
 1041SOL     OW 4021   6.994   0.175   3.578
 1041SOL    HW1 4022   0.069   0.183   3.584
 1041SOL    HW2 4023   6.963   0.211   3.490
 1042SOL     OW 4024   4.604   5.353   2.400
 1042SOL    HW1 4025   4.559   5.270   2.432
 1042SOL    HW2 4026   4.689   5.367   2.450
 1043SOL     OW 4027   3.453   1.365   5.277
 1043SOL    HW1 4028   3.480   1.423   5.200
 1043SOL    HW2 4029   3.384   1.413   5.332
 1044SOL     OW 4030   4.927   4.863   2.702
 1044SOL    HW1 4031   4.964   4.852   2.610
 1044SOL    HW2 4032   4.941   4.779   2.754
 1045SOL     OW 4033   4.521   6.205   2.016
 1045SOL    HW1 4034   4.504   6.260   2.098
 1045SOL    HW2 4035   4.616   6.173   2.017
 1046SOL     OW 4036   1.478   0.795   0.085
 1046SOL    HW1 4037   1.392   0.842   0.107
 1046SOL    HW2 4038   1.460   0.697   0.073
 1047SOL     OW 4039   1.622   1.089   3.254
 1047SOL    HW1 4040   1.590   1.065   3.163
 1047SOL    HW2 4041   1.612   1.011   3.315
 1048SOL     OW 4042   4.659   6.396   4.269
 1048SOL    HW1 4043   4.671   6.484   4.316
 1048SOL    HW2 4044   4.612   6.332   4.329
 1049SOL     OW 4045   6.397   6.148   3.531
 1049SOL    HW1 4046   6.409   6.092   3.449
 1049SOL    HW2 4047   6.300   6.163   3.548
 1050SOL     OW 4048   4.230   4.801   0.960
 1050SOL    HW1 4049   4.240   4.806   0.861
 1050SOL    HW2 4050   4.134   4.791   0.984
 1051SOL     OW 4051   2.647   5.720   1.040
 1051SOL    HW1 4052   2.579   5.740   1.110
 1051SOL    HW2 4053   2.737   5.710   1.082
 1052SOL     OW 4054   3.656   0.664   4.794
 1052SOL    HW1 4055   3.673   0.621   4.882
 1052SOL    HW2 4056   3.734   0.649   4.733
 1053SOL     OW 4057   5.684   4.828   3.231
 1053SOL    HW1 4058   5.762   4.869   3.278
 1053SOL    HW2 4059   5.624   4.901   3.197
 1054SOL     OW 4060   3.016   4.135   5.856
 1054SOL    HW1 4061   2.952   4.068   5.894
 1054SOL    HW2 4062   3.039   4.203   5.927
 1055SOL     OW 4063   4.039   6.735   5.175
 1055SOL    HW1 4064   3.991   6.784   5.248
 1055SOL    HW2 4065   4.037   6.637   5.193
 1056SOL     OW 4066   2.073   5.449   6.287
 1056SOL    HW1 4067   2.099   5.386   6.360
 1056SOL    HW2 4068   1.975   5.468   6.293
 1057SOL     OW 4069   2.930   3.463   2.190
 1057SOL    HW1 4070   2.928   3.466   2.090
 1057SOL    HW2 4071   2.973   3.547   2.225
 1058SOL     OW 4072   4.801   1.497   3.655
 1058SOL    HW1 4073   4.849   1.583   3.670
 1058SOL    HW2 4074   4.729   1.511   3.586
 1059SOL     OW 4075   2.688   0.129   1.419
 1059SOL    HW1 4076   2.596   0.116   1.458
 1059SOL    HW2 4077   2.684   0.197   1.347
 1060SOL     OW 4078   0.152   4.199   4.714
 1060SOL    HW1 4079   0.170   4.277   4.775
 1060SOL    HW2 4080   0.071   4.218   4.659
 1061SOL     OW 4081   5.870   3.688   1.081
 1061SOL    HW1 4082   5.799   3.696   1.151
 1061SOL    HW2 4083   5.871   3.770   1.024
 1062SOL     OW 4084   5.909   4.091   6.495
 1062SOL    HW1 4085   5.887   4.125   6.403
 1062SOL    HW2 4086   5.894   3.992   6.498
 1063SOL     OW 4087   1.844   4.878   2.480
 1063SOL    HW1 4088   1.916   4.944   2.461
 1063SOL    HW2 4089   1.790   4.862   2.397
 1064SOL     OW 4090   1.578   4.208   1.881
 1064SOL    HW1 4091   1.558   4.231   1.786
 1064SOL    HW2 4092   1.647   4.272   1.916
 1065SOL     OW 4093   3.208   0.373   3.811
 1065SOL    HW1 4094   3.281   0.441   3.816
 1065SOL    HW2 4095   3.188   0.352   3.715
 1066SOL     OW 4096   4.505   0.655   3.526
 1066SOL    HW1 4097   4.543   0.736   3.571
 1066SOL    HW2 4098   4.433   0.684   3.462
 1067SOL     OW 4099   0.607   3.644   0.996
 1067SOL    HW1 4100   0.689   3.602   1.034
 1067SOL    HW2 4101   0.540   3.572   0.974
 1068SOL     OW 4102   5.311   5.355   2.907
 1068SOL    HW1 4103   5.230   5.373   2.851
 1068SOL    HW2 4104   5.392   5.388   2.859
 1069SOL     OW 4105   4.193   5.054   0.761
 1069SOL    HW1 4106   4.120   5.112   0.723
 1069SOL    HW2 4107   4.231   4.996   0.690
 1070SOL     OW 4108   0.058   0.434   2.357
 1070SOL    HW1 4109   0.128   0.426   2.285
 1070SOL    HW2 4110   0.102   0.454   2.444
 1071SOL     OW 4111   1.493   0.823   3.312
 1071SOL    HW1 4112   1.429   0.783   3.376
 1071SOL    HW2 4113   1.499   0.765   3.230
 1072SOL     OW 4114   2.143   0.984   0.780
 1072SOL    HW1 4115   2.102   1.074   0.765
 1072SOL    HW2 4116   2.155   0.968   0.878
 1073SOL     OW 4117   4.833   6.875   1.417
 1073SOL    HW1 4118   4.802   6.837   1.330
 1073SOL    HW2 4119   4.872   6.801   1.472
 1074SOL     OW 4120   2.435   5.682   1.236
 1074SOL    HW1 4121   2.411   5.765   1.286
 1074SOL    HW2 4122   2.371   5.667   1.161
 1075SOL     OW 4123   4.794   6.343   4.570
 1075SOL    HW1 4124   4.720   6.285   4.534
 1075SOL    HW2 4125   4.868   6.347   4.502
 1076SOL     OW 4126   6.869   2.862   5.456
 1076SOL    HW1 4127   6.874   2.840   5.359
 1076SOL    HW2 4128   6.959   2.848   5.498
 1077SOL     OW 4129   5.598   0.429   1.698
 1077SOL    HW1 4130   5.693   0.417   1.669
 1077SOL    HW2 4131   5.559   0.340   1.721
 1078SOL     OW 4132   1.151   1.621   2.614
 1078SOL    HW1 4133   1.206   1.704   2.614
 1078SOL    HW2 4134   1.176   1.565   2.535
 1079SOL     OW 4135   2.155   6.427   2.558
 1079SOL    HW1 4136   2.150   6.513   2.611
 1079SOL    HW2 4137   2.215   6.441   2.479
 1080SOL     OW 4138   0.974   4.114   3.890
 1080SOL    HW1 4139   1.020   4.095   3.803
 1080SOL    HW2 4140   0.955   4.028   3.937
 1081SOL     OW 4141   0.324   5.556   5.827
 1081SOL    HW1 4142   0.337   5.611   5.910
 1081SOL    HW2 4143   0.264   5.604   5.764
 1082SOL     OW 4144   4.002   1.864   5.685
 1082SOL    HW1 4145   4.001   1.943   5.624
 1082SOL    HW2 4146   3.962   1.889   5.773
 1083SOL     OW 4147   4.298   3.915   6.850
 1083SOL    HW1 4148   4.306   3.816   6.840
 1083SOL    HW2 4149   4.313   3.940   6.946
 1084SOL     OW 4150   5.576   6.179   7.006
 1084SOL    HW1 4151   5.624   6.104   6.961
 1084SOL    HW2 4152   5.522   6.229   6.939
 1085SOL     OW 4153   1.342   3.910   4.244
 1085SOL    HW1 4154   1.381   4.002   4.243
 1085SOL    HW2 4155   1.259   3.908   4.189
 1086SOL     OW 4156   6.779   6.231   1.049
 1086SOL    HW1 4157   6.799   6.314   1.101
 1086SOL    HW2 4158   6.863   6.197   1.007
 1087SOL     OW 4159   5.130   2.028   5.170
 1087SOL    HW1 4160   5.203   2.048   5.234
 1087SOL    HW2 4161   5.042   2.057   5.209
 1088SOL     OW 4162   6.392   4.418   3.108
 1088SOL    HW1 4163   6.409   4.500   3.162
 1088SOL    HW2 4164   6.296   4.391   3.117
 1089SOL     OW 4165   1.442   6.447   4.123
 1089SOL    HW1 4166   1.411   6.364   4.076
 1089SOL    HW2 4167   1.540   6.438   4.144
 1090SOL     OW 4168   2.005   2.176   3.483
 1090SOL    HW1 4169   1.950   2.235   3.423
 1090SOL    HW2 4170   1.955   2.091   3.501
 1091SOL     OW 4171   3.042   2.008   5.522
 1091SOL    HW1 4172   2.988   1.924   5.520
 1091SOL    HW2 4173   3.139   1.985   5.531
 1092SOL     OW 4174   2.091   4.143   1.083
 1092SOL    HW1 4175   2.026   4.075   1.049
 1092SOL    HW2 4176   2.091   4.223   1.024
 1093SOL     OW 4177   2.097   1.386   1.904
 1093SOL    HW1 4178   2.078   1.355   1.997
 1093SOL    HW2 4179   2.196   1.398   1.892
 1094SOL     OW 4180   0.692   6.468   3.216
 1094SOL    HW1 4181   0.634   6.466   3.298
 1094SOL    HW2 4182   0.683   6.381   3.167
 1095SOL     OW 4183   0.522   2.827   6.792
 1095SOL    HW1 4184   0.451   2.873   6.844
 1095SOL    HW2 4185   0.486   2.798   6.703
 1096SOL     OW 4186   3.470   4.447   1.654
 1096SOL    HW1 4187   3.501   4.366   1.704
 1096SOL    HW2 4188   3.478   4.528   1.712
 1097SOL     OW 4189   2.094   4.667   4.202
 1097SOL    HW1 4190   2.071   4.763   4.184
 1097SOL    HW2 4191   2.100   4.617   4.116
 1098SOL     OW 4192   4.610   3.501   0.356
 1098SOL    HW1 4193   4.531   3.439   0.361
 1098SOL    HW2 4194   4.611   3.546   0.267
 1099SOL     OW 4195   4.604   1.650   5.364
 1099SOL    HW1 4196   4.572   1.591   5.438
 1099SOL    HW2 4197   4.527   1.680   5.310
 1100SOL     OW 4198   3.478   2.010   6.012
 1100SOL    HW1 4199   3.397   2.019   6.070
 1100SOL    HW2 4200   3.467   2.067   5.931
 1101SOL     OW 4201   6.136   2.092   6.558
 1101SOL    HW1 4202   6.163   2.184   6.585
 1101SOL    HW2 4203   6.145   2.082   6.459
 1102SOL     OW 4204   0.483   6.096   4.790
 1102SOL    HW1 4205   0.446   6.008   4.759
 1102SOL    HW2 4206   0.409   6.163   4.796
 1103SOL     OW 4207   3.788   1.675   0.629
 1103SOL    HW1 4208   3.783   1.621   0.713
 1103SOL    HW2 4209   3.854   1.633   0.566
 1104SOL     OW 4210   2.131   2.787   5.468
 1104SOL    HW1 4211   2.049   2.731   5.456
 1104SOL    HW2 4212   2.210   2.727   5.480
 1105SOL     OW 4213   6.648   4.154   4.968
 1105SOL    HW1 4214   6.577   4.121   4.906
 1105SOL    HW2 4215   6.615   4.233   5.019
 1106SOL     OW 4216   0.177   2.049   1.724
 1106SOL    HW1 4217   0.215   2.076   1.813
 1106SOL    HW2 4218   0.079   2.065   1.723
 1107SOL     OW 4219   1.757   0.454   6.733
 1107SOL    HW1 4220   1.754   0.515   6.654
 1107SOL    HW2 4221   1.665   0.421   6.754
 1108SOL     OW 4222   3.921   0.331   5.725
 1108SOL    HW1 4223   3.949   0.235   5.734
 1108SOL    HW2 4224   3.963   0.385   5.798
 1109SOL     OW 4225   4.810   0.650   4.494
 1109SOL    HW1 4226   4.792   0.748   4.490
 1109SOL    HW2 4227   4.765   0.604   4.417
 1110SOL     OW 4228   2.385   2.002   3.194
 1110SOL    HW1 4229   2.312   1.950   3.237
 1110SOL    HW2 4230   2.464   1.943   3.179
 1111SOL     OW 4231   4.842   5.502   6.269
 1111SOL    HW1 4232   4.920   5.563   6.252
 1111SOL    HW2 4233   4.834   5.437   6.194
 1112SOL     OW 4234   4.970   1.527   2.357
 1112SOL    HW1 4235   5.022   1.442   2.345
 1112SOL    HW2 4236   4.932   1.529   2.450
 1113SOL     OW 4237   6.545   3.929   2.130
 1113SOL    HW1 4238   6.588   3.950   2.042
 1113SOL    HW2 4239   6.540   4.011   2.186
 1114SOL     OW 4240   3.943   1.972   6.675
 1114SOL    HW1 4241   3.988   2.039   6.735
 1114SOL    HW2 4242   4.008   1.941   6.606
 1115SOL     OW 4243   4.277   3.447   6.991
 1115SOL    HW1 4244   4.350   3.462   6.925
 1115SOL    HW2 4245   4.195   3.416   6.944
 1116SOL     OW 4246   5.074   6.529   5.596
 1116SOL    HW1 4247   5.010   6.571   5.531
 1116SOL    HW2 4248   5.153   6.590   5.608
 1117SOL     OW 4249   1.545   2.351   2.176
 1117SOL    HW1 4250   1.486   2.430   2.195
 1117SOL    HW2 4251   1.536   2.284   2.249
 1118SOL     OW 4252   2.729   4.757   1.106
 1118SOL    HW1 4253   2.725   4.744   1.007
 1118SOL    HW2 4254   2.652   4.710   1.149
 1119SOL     OW 4255   4.108   4.255   0.826
 1119SOL    HW1 4256   4.147   4.200   0.751
 1119SOL    HW2 4257   4.177   4.268   0.897
 1120SOL     OW 4258   6.450   6.973   5.579
 1120SOL    HW1 4259   6.361   6.954   5.536
 1120SOL    HW2 4260   6.504   6.889   5.581
 1121SOL     OW 4261   4.864   5.284   2.937
 1121SOL    HW1 4262   4.852   5.318   3.031
 1121SOL    HW2 4263   4.797   5.212   2.919
 1122SOL     OW 4264   5.519   3.627   6.545
 1122SOL    HW1 4265   5.451   3.664   6.609
 1122SOL    HW2 4266   5.546   3.536   6.574
 1123SOL     OW 4267   5.011   1.450   3.176
 1123SOL    HW1 4268   4.929   1.430   3.230
 1123SOL    HW2 4269   5.091   1.454   3.236
 1124SOL     OW 4270   7.008   3.416   5.278
 1124SOL    HW1 4271   6.943   3.491   5.293
 1124SOL    HW2 4272   0.036   3.400   5.361
 1125SOL     OW 4273   3.473   1.725   4.946
 1125SOL    HW1 4274   3.406   1.671   4.895
 1125SOL    HW2 4275   3.495   1.807   4.894
 1126SOL     OW 4276   6.323   5.045   6.523
 1126SOL    HW1 4277   6.340   4.947   6.516
 1126SOL    HW2 4278   6.248   5.071   6.462
 1127SOL     OW 4279   5.178   5.242   4.648
 1127SOL    HW1 4280   5.263   5.253   4.597
 1127SOL    HW2 4281   5.131   5.160   4.616
 1128SOL     OW 4282   5.499   1.814   5.409
 1128SOL    HW1 4283   5.545   1.864   5.483
 1128SOL    HW2 4284   5.534   1.720   5.406
 1129SOL     OW 4285   2.704   0.889   7.016
 1129SOL    HW1 4286   2.687   0.925   0.083
 1129SOL    HW2 4287   2.621   0.846   6.982
 1130SOL     OW 4288   2.719   4.746   0.340
 1130SOL    HW1 4289   2.786   4.704   0.279
 1130SOL    HW2 4290   2.638   4.771   0.288
 1131SOL     OW 4291   0.052   6.002   6.141
 1131SOL    HW1 4292   0.121   6.035   6.077
 1131SOL    HW2 4293   0.015   6.079   6.193
 1132SOL     OW 4294   5.495   0.666   1.616
 1132SOL    HW1 4295   5.560   0.612   1.669
 1132SOL    HW2 4296   5.404   0.624   1.622
 1133SOL     OW 4297   0.625   0.566   1.146
 1133SOL    HW1 4298   0.700   0.615   1.193
 1133SOL    HW2 4299   0.645   0.562   1.048
 1134SOL     OW 4300   5.514   0.959   1.842
 1134SOL    HW1 4301   5.537   0.865   1.816
 1134SOL    HW2 4302   5.497   0.963   1.941
 1135SOL     OW 4303   2.452   1.362   2.602
 1135SOL    HW1 4304   2.538   1.329   2.640
 1135SOL    HW2 4305   2.431   1.312   2.518
 1136SOL     OW 4306   3.398   5.296   3.952
 1136SOL    HW1 4307   3.350   5.209   3.948
 1136SOL    HW2 4308   3.494   5.280   3.974
 1137SOL     OW 4309   0.853   0.983   6.503
 1137SOL    HW1 4310   0.818   0.957   6.413
 1137SOL    HW2 4311   0.793   1.051   6.544
 1138SOL     OW 4312   0.219   1.090   6.710
 1138SOL    HW1 4313   0.161   1.010   6.726
 1138SOL    HW2 4314   0.246   1.129   6.798
 1139SOL     OW 4315   3.522   5.072   1.580
 1139SOL    HW1 4316   3.584   5.057   1.657
 1139SOL    HW2 4317   3.443   5.125   1.610
 1140SOL     OW 4318   4.138   1.153   2.156
 1140SOL    HW1 4319   4.189   1.226   2.202
 1140SOL    HW2 4320   4.201   1.083   2.124
 1141SOL     OW 4321   0.148   6.233   6.747
 1141SOL    HW1 4322   0.165   6.232   6.648
 1141SOL    HW2 4323   0.234   6.246   6.796
 1142SOL     OW 4324   2.848   0.075   4.927
 1142SOL    HW1 4325   2.773   0.142   4.921
 1142SOL    HW2 4326   2.865   0.036   4.837
 1143SOL     OW 4327   1.614   3.534   2.527
 1143SOL    HW1 4328   1.682   3.560   2.597
 1143SOL    HW2 4329   1.656   3.542   2.437
 1144SOL     OW 4330   6.795   4.985   5.256
 1144SOL    HW1 4331   6.697   4.992   5.236
 1144SOL    HW2 4332   6.822   5.058   5.318
 1145SOL     OW 4333   6.796   3.795   2.238
 1145SOL    HW1 4334   6.720   3.836   2.188
 1145SOL    HW2 4335   6.808   3.843   2.325
 1146SOL     OW 4336   6.255   0.727   2.273
 1146SOL    HW1 4337   6.304   0.703   2.189
 1146SOL    HW2 4338   6.203   0.811   2.257
 1147SOL     OW 4339   2.457   5.311   1.555
 1147SOL    HW1 4340   2.499   5.352   1.474
 1147SOL    HW2 4341   2.522   5.315   1.631
 1148SOL     OW 4342   5.161   6.157   0.752
 1148SOL    HW1 4343   5.216   6.154   0.668
 1148SOL    HW2 4344   5.222   6.165   0.831
 1149SOL     OW 4345   6.790   4.207   2.679
 1149SOL    HW1 4346   6.799   4.262   2.596
 1149SOL    HW2 4347   6.712   4.239   2.732
 1150SOL     OW 4348   2.156   3.793   0.248
 1150SOL    HW1 4349   2.216   3.723   0.209
 1150SOL    HW2 4350   2.103   3.836   0.175
 1151SOL     OW 4351   4.861   5.245   0.062
 1151SOL    HW1 4352   4.953   5.210   0.045
 1151SOL    HW2 4353   4.832   5.302   7.010
 1152SOL     OW 4354   5.860   4.710   6.095
 1152SOL    HW1 4355   5.860   4.636   6.162
 1152SOL    HW2 4356   5.898   4.793   6.137
 1153SOL     OW 4357   2.092   0.365   1.211
 1153SOL    HW1 4358   2.026   0.296   1.238
 1153SOL    HW2 4359   2.065   0.454   1.249
 1154SOL     OW 4360   0.658   4.535   1.568
 1154SOL    HW1 4361   0.743   4.498   1.529
 1154SOL    HW2 4362   0.670   4.547   1.667
 1155SOL     OW 4363   2.352   5.780   6.559
 1155SOL    HW1 4364   2.338   5.809   6.464
 1155SOL    HW2 4365   2.422   5.838   6.601
 1156SOL     OW 4366   3.598   1.743   4.227
 1156SOL    HW1 4367   3.613   1.655   4.272
 1156SOL    HW2 4368   3.612   1.734   4.128
 1157SOL     OW 4369   5.777   0.517   5.523
 1157SOL    HW1 4370   5.811   0.434   5.567
 1157SOL    HW2 4371   5.789   0.594   5.584
 1158SOL     OW 4372   7.000   5.626   5.430
 1158SOL    HW1 4373   6.959   5.540   5.399
 1158SOL    HW2 4374   0.019   5.672   5.352
 1159SOL     OW 4375   6.419   0.243   3.981
 1159SOL    HW1 4376   6.444   0.150   4.006
 1159SOL    HW2 4377   6.320   0.250   3.971
 1160SOL     OW 4378   4.226   3.679   1.243
 1160SOL    HW1 4379   4.203   3.758   1.301
 1160SOL    HW2 4380   4.150   3.660   1.181
 1161SOL     OW 4381   6.699   7.003   6.475
 1161SOL    HW1 4382   6.633   7.010   6.400
 1161SOL    HW2 4383   6.792   7.007   6.438
 1162SOL     OW 4384   2.769   2.394   6.510
 1162SOL    HW1 4385   2.831   2.344   6.571
 1162SOL    HW2 4386   2.714   2.329   6.457
 1163SOL     OW 4387   6.723   3.233   1.659
 1163SOL    HW1 4388   6.815   3.262   1.686
 1163SOL    HW2 4389   6.662   3.313   1.658
 1164SOL     OW 4390   5.787   2.992   5.225
 1164SOL    HW1 4391   5.802   3.010   5.322
 1164SOL    HW2 4392   5.728   3.063   5.186
 1165SOL     OW 4393   2.807   4.822   3.824
 1165SOL    HW1 4394   2.785   4.919   3.826
 1165SOL    HW2 4395   2.731   4.772   3.781
 1166SOL     OW 4396   3.745   0.028   0.355
 1166SOL    HW1 4397   3.701   0.087   0.422
 1166SOL    HW2 4398   3.750   6.960   0.391
 1167SOL     OW 4399   4.235   6.455   6.543
 1167SOL    HW1 4400   4.313   6.505   6.580
 1167SOL    HW2 4401   4.165   6.520   6.514
 1168SOL     OW 4402   4.939   2.025   3.528
 1168SOL    HW1 4403   5.005   2.058   3.460
 1168SOL    HW2 4404   4.986   1.971   3.597
 1169SOL     OW 4405   5.150   2.392   5.994
 1169SOL    HW1 4406   5.193   2.436   6.074
 1169SOL    HW2 4407   5.051   2.401   6.000
 1170SOL     OW 4408   5.203   0.891   2.884
 1170SOL    HW1 4409   5.120   0.921   2.835
 1170SOL    HW2 4410   5.205   0.792   2.888
 1171SOL     OW 4411   3.016   6.461   6.914
 1171SOL    HW1 4412   3.055   6.522   6.984
 1171SOL    HW2 4413   3.074   6.380   6.905
 1172SOL     OW 4414   3.040   4.140   1.863
 1172SOL    HW1 4415   2.986   4.220   1.889
 1172SOL    HW2 4416   3.110   4.123   1.932
 1173SOL     OW 4417   3.278   0.740   6.601
 1173SOL    HW1 4418   3.253   0.758   6.697
 1173SOL    HW2 4419   3.249   0.817   6.544
 1174SOL     OW 4420   3.471   4.929   0.944
 1174SOL    HW1 4421   3.483   5.027   0.927
 1174SOL    HW2 4422   3.551   4.880   0.911
 1175SOL     OW 4423   3.711   3.472   6.481
 1175SOL    HW1 4424   3.703   3.427   6.569
 1175SOL    HW2 4425   3.778   3.546   6.487
 1176SOL     OW 4426   5.889   4.895   6.288
 1176SOL    HW1 4427   5.818   4.881   6.356
 1176SOL    HW2 4428   5.975   4.919   6.334
 1177SOL     OW 4429   6.754   1.834   5.547
 1177SOL    HW1 4430   6.728   1.741   5.522
 1177SOL    HW2 4431   6.851   1.837   5.571
 1178SOL     OW 4432   3.160   3.573   0.697
 1178SOL    HW1 4433   3.119   3.580   0.606
 1178SOL    HW2 4434   3.111   3.505   0.751
 1179SOL     OW 4435   3.435   6.683   0.864
 1179SOL    HW1 4436   3.391   6.773   0.869
 1179SOL    HW2 4437   3.383   6.625   0.802
 1180SOL     OW 4438   2.161   5.923   4.062
 1180SOL    HW1 4439   2.209   5.969   3.987
 1180SOL    HW2 4440   2.068   5.959   4.070
 1181SOL     OW 4441   0.392   3.552   5.790
 1181SOL    HW1 4442   0.299   3.586   5.777
 1181SOL    HW2 4443   0.419   3.564   5.886
 1182SOL     OW 4444   3.178   5.095   3.363
 1182SOL    HW1 4445   3.146   5.094   3.268
 1182SOL    HW2 4446   3.229   5.179   3.380
 1183SOL     OW 4447   3.604   5.533   1.814
 1183SOL    HW1 4448   3.529   5.575   1.763
 1183SOL    HW2 4449   3.663   5.604   1.852
 1184SOL     OW 4450   5.528   6.985   6.351
 1184SOL    HW1 4451   5.444   6.936   6.376
 1184SOL    HW2 4452   5.587   6.924   6.298
 1185SOL     OW 4453   0.670   1.300   1.529
 1185SOL    HW1 4454   0.723   1.310   1.445
 1185SOL    HW2 4455   0.678   1.382   1.584
 1186SOL     OW 4456   5.729   5.625   5.297
 1186SOL    HW1 4457   5.821   5.635   5.259
 1186SOL    HW2 4458   5.720   5.681   5.379
 1187SOL     OW 4459   5.511   6.574   5.627
 1187SOL    HW1 4460   5.425   6.621   5.605
 1187SOL    HW2 4461   5.555   6.544   5.542
 1188SOL     OW 4462   3.735   5.466   6.324
 1188SOL    HW1 4463   3.717   5.440   6.229
 1188SOL    HW2 4464   3.649   5.478   6.372
 1189SOL     OW 4465   5.996   0.460   1.568
 1189SOL    HW1 4466   6.083   0.473   1.616
 1189SOL    HW2 4467   5.938   0.541   1.582
 1190SOL     OW 4468   3.198   6.064   2.885
 1190SOL    HW1 4469   3.130   6.016   2.829
 1190SOL    HW2 4470   3.242   5.999   2.947
 1191SOL     OW 4471   2.297   6.345   4.427
 1191SOL    HW1 4472   2.351   6.362   4.510
 1191SOL    HW2 4473   2.354   6.355   4.346
 1192SOL     OW 4474   5.775   6.117   3.529
 1192SOL    HW1 4475   5.715   6.063   3.471
 1192SOL    HW2 4476   5.757   6.215   3.516
 1193SOL     OW 4477   0.467   0.121   5.116
 1193SOL    HW1 4478   0.549   0.169   5.149
 1193SOL    HW2 4479   0.410   0.095   5.194
 1194SOL     OW 4480   6.591   1.708   0.724
 1194SOL    HW1 4481   6.678   1.670   0.757
 1194SOL    HW2 4482   6.608   1.762   0.642
 1195SOL     OW 4483   6.584   3.444   0.517
 1195SOL    HW1 4484   6.680   3.443   0.491
 1195SOL    HW2 4485   6.534   3.375   0.463
 1196SOL     OW 4486   6.057   4.742   3.321
 1196SOL    HW1 4487   6.014   4.830   3.341
 1196SOL    HW2 4488   6.054   4.685   3.403
 1197SOL     OW 4489   4.464   6.656   4.263
 1197SOL    HW1 4490   4.371   6.688   4.278
 1197SOL    HW2 4491   4.520   6.681   4.342
 1198SOL     OW 4492   1.249   3.735   2.003
 1198SOL    HW1 4493   1.156   3.719   2.039
 1198SOL    HW2 4494   1.300   3.790   2.069
 1199SOL     OW 4495   3.170   3.489   3.083
 1199SOL    HW1 4496   3.207   3.579   3.059
 1199SOL    HW2 4497   3.077   3.499   3.119
 1200SOL     OW 4498   3.769   4.081   4.582
 1200SOL    HW1 4499   3.702   4.007   4.574
 1200SOL    HW2 4500   3.834   4.075   4.506
 1201SOL     OW 4501   6.805   0.920   4.964
 1201SOL    HW1 4502   6.885   0.891   4.912
 1201SOL    HW2 4503   6.796   1.020   4.958
 1202SOL     OW 4504   6.679   6.300   5.358
 1202SOL    HW1 4505   6.655   6.241   5.281
 1202SOL    HW2 4506   6.619   6.280   5.435
 1203SOL     OW 4507   0.404   6.476   0.426
 1203SOL    HW1 4508   0.422   6.387   0.384
 1203SOL    HW2 4509   0.431   6.474   0.522
 1204SOL     OW 4510   4.947   1.252   1.614
 1204SOL    HW1 4511   4.908   1.344   1.603
 1204SOL    HW2 4512   4.930   1.199   1.531
 1205SOL     OW 4513   3.526   3.689   0.211
 1205SOL    HW1 4514   3.605   3.659   0.264
 1205SOL    HW2 4515   3.550   3.693   0.114
 1206SOL     OW 4516   1.071   3.309   4.606
 1206SOL    HW1 4517   1.112   3.220   4.585
 1206SOL    HW2 4518   1.081   3.371   4.528
 1207SOL     OW 4519   0.258   0.326   1.149
 1207SOL    HW1 4520   0.261   0.296   1.245
 1207SOL    HW2 4521   0.318   0.405   1.138
 1208SOL     OW 4522   3.047   3.494   1.919
 1208SOL    HW1 4523   3.023   3.468   1.825
 1208SOL    HW2 4524   3.136   3.455   1.943
 1209SOL     OW 4525   5.341   0.172   4.503
 1209SOL    HW1 4526   5.330   0.081   4.462
 1209SOL    HW2 4527   5.251   0.215   4.511
 1210SOL     OW 4528   4.718   6.685   3.835
 1210SOL    HW1 4529   4.632   6.702   3.884
 1210SOL    HW2 4530   4.787   6.652   3.899
 1211SOL     OW 4531   0.855   3.411   2.812
 1211SOL    HW1 4532   0.935   3.355   2.829
 1211SOL    HW2 4533   0.881   3.491   2.758
 1212SOL     OW 4534   6.218   0.577   6.143
 1212SOL    HW1 4535   6.287   0.529   6.196
 1212SOL    HW2 4536   6.255   0.599   6.052
 1213SOL     OW 4537   5.633   1.923   2.214
 1213SOL    HW1 4538   5.607   2.008   2.167
 1213SOL    HW2 4539   5.685   1.946   2.296
 1214SOL     OW 4540   0.514   2.514   6.735
 1214SOL    HW1 4541   0.542   2.610   6.746
 1214SOL    HW2 4542   0.436   2.495   6.794
 1215SOL     OW 4543   1.536   4.813   2.640
 1215SOL    HW1 4544   1.458   4.839   2.697
 1215SOL    HW2 4545   1.611   4.878   2.654
 1216SOL     OW 4546   5.861   1.319   0.806
 1216SOL    HW1 4547   5.817   1.381   0.871
 1216SOL    HW2 4548   5.855   1.225   0.840
 1217SOL     OW 4549   2.954   4.933   0.821
 1217SOL    HW1 4550   2.984   5.028   0.818
 1217SOL    HW2 4551   3.022   4.874   0.777
 1218SOL     OW 4552   1.581   2.355   5.043
 1218SOL    HW1 4553   1.512   2.427   5.052
 1218SOL    HW2 4554   1.570   2.309   4.955
 1219SOL     OW 4555   5.222   5.448   2.207
 1219SOL    HW1 4556   5.261   5.429   2.117
 1219SOL    HW2 4557   5.181   5.539   2.207
 1220SOL     OW 4558   6.657   4.258   1.987
 1220SOL    HW1 4559   6.695   4.177   1.943
 1220SOL    HW2 4560   6.712   4.338   1.964
 1221SOL     OW 4561   5.223   3.874   6.516
 1221SOL    HW1 4562   5.263   3.918   6.597
 1221SOL    HW2 4563   5.283   3.888   6.438
 1222SOL     OW 4564   7.004   0.757   6.828
 1222SOL    HW1 4565   7.002   0.851   6.794
 1222SOL    HW2 4566   7.012   0.693   6.752
 1223SOL     OW 4567   3.786   0.694   0.391
 1223SOL    HW1 4568   3.799   0.598   0.414
 1223SOL    HW2 4569   3.821   0.751   0.466
 1224SOL     OW 4570   3.098   6.208   6.487
 1224SOL    HW1 4571   3.128   6.301   6.464
 1224SOL    HW2 4572   3.035   6.212   6.565
 1225SOL     OW 4573   3.626   2.717   6.578
 1225SOL    HW1 4574   3.666   2.808   6.584
 1225SOL    HW2 4575   3.530   2.720   6.608
 1226SOL     OW 4576   3.700   6.410   0.662
 1226SOL    HW1 4577   3.643   6.338   0.702
 1226SOL    HW2 4578   3.668   6.431   0.569
 1227SOL     OW 4579   5.355   4.993   5.524
 1227SOL    HW1 4580   5.317   4.937   5.598
 1227SOL    HW2 4581   5.308   4.970   5.439
 1228SOL     OW 4582   3.361   2.302   6.807
 1228SOL    HW1 4583   3.320   2.280   6.719
 1228SOL    HW2 4584   3.434   2.235   6.827
 1229SOL     OW 4585   1.961   5.642   0.375
 1229SOL    HW1 4586   2.046   5.592   0.361
 1229SOL    HW2 4587   1.979   5.741   0.375
 1230SOL     OW 4588   5.468   6.161   2.272
 1230SOL    HW1 4589   5.564   6.183   2.259
 1230SOL    HW2 4590   5.455   6.118   2.361
 1231SOL     OW 4591   1.957   1.830   4.825
 1231SOL    HW1 4592   2.048   1.821   4.865
 1231SOL    HW2 4593   1.926   1.925   4.833
 1232SOL     OW 4594   6.472   1.035   4.910
 1232SOL    HW1 4595   6.414   0.955   4.894
 1232SOL    HW2 4596   6.498   1.076   4.822
 1233SOL     OW 4597   0.807   5.594   4.716
 1233SOL    HW1 4598   0.766   5.668   4.769
 1233SOL    HW2 4599   0.785   5.506   4.760
 1234SOL     OW 4600   5.749   2.496   5.355
 1234SOL    HW1 4601   5.699   2.580   5.377
 1234SOL    HW2 4602   5.684   2.427   5.323
 1235SOL     OW 4603   5.869   4.777   1.626
 1235SOL    HW1 4604   5.925   4.773   1.709
 1235SOL    HW2 4605   5.824   4.689   1.613
 1236SOL     OW 4606   4.508   1.497   1.303
 1236SOL    HW1 4607   4.606   1.503   1.283
 1236SOL    HW2 4608   4.493   1.439   1.383
 1237SOL     OW 4609   1.131   4.701   5.456
 1237SOL    HW1 4610   1.100   4.791   5.424
 1237SOL    HW2 4611   1.217   4.712   5.507
 1238SOL     OW 4612   1.698   0.407   6.376
 1238SOL    HW1 4613   1.603   0.408   6.346
 1238SOL    HW2 4614   1.744   0.490   6.344
 1239SOL     OW 4615   0.356   6.807   6.759
 1239SOL    HW1 4616   0.369   6.709   6.741
 1239SOL    HW2 4617   0.261   6.823   6.787
 1240SOL     OW 4618   5.951   6.163   1.029
 1240SOL    HW1 4619   5.954   6.066   1.005
 1240SOL    HW2 4620   6.044   6.197   1.040
 1241SOL     OW 4621   6.193   4.497   5.373
 1241SOL    HW1 4622   6.098   4.474   5.394
 1241SOL    HW2 4623   6.234   4.542   5.453
 1242SOL     OW 4624   1.913   3.933   1.059
 1242SOL    HW1 4625   1.837   3.976   1.108
 1242SOL    HW2 4626   1.931   3.842   1.096
 1243SOL     OW 4627   1.413   0.508   5.372
 1243SOL    HW1 4628   1.422   0.595   5.324
 1243SOL    HW2 4629   1.504   0.469   5.388
 1244SOL     OW 4630   5.444   6.534   4.489
 1244SOL    HW1 4631   5.376   6.577   4.431
 1244SOL    HW2 4632   5.493   6.605   4.541
 1245SOL     OW 4633   5.355   4.299   0.242
 1245SOL    HW1 4634   5.315   4.365   0.305
 1245SOL    HW2 4635   5.284   4.240   0.204
 1246SOL     OW 4636   3.418   1.203   1.328
 1246SOL    HW1 4637   3.474   1.262   1.270
 1246SOL    HW2 4638   3.467   1.119   1.349
 1247SOL     OW 4639   0.181   6.618   5.565
 1247SOL    HW1 4640   0.224   6.665   5.642
 1247SOL    HW2 4641   0.121   6.681   5.517
 1248SOL     OW 4642   1.899   6.969   4.094
 1248SOL    HW1 4643   1.988   6.924   4.094
 1248SOL    HW2 4644   1.885   7.013   4.005
 1249SOL     OW 4645   6.727   2.132   2.034
 1249SOL    HW1 4646   6.826   2.136   2.020
 1249SOL    HW2 4647   6.708   2.119   2.132
 1250SOL     OW 4648   5.882   5.284   3.182
 1250SOL    HW1 4649   5.870   5.199   3.131
 1250SOL    HW2 4650   5.979   5.297   3.202
 1251SOL     OW 4651   2.274   1.341   3.255
 1251SOL    HW1 4652   2.192   1.311   3.304
 1251SOL    HW2 4653   2.301   1.271   3.190
 1252SOL     OW 4654   4.112   4.404   6.759
 1252SOL    HW1 4655   4.069   4.431   6.673
 1252SOL    HW2 4656   4.044   4.364   6.820
 1253SOL     OW 4657   3.357   6.418   2.157
 1253SOL    HW1 4658   3.454   6.423   2.132
 1253SOL    HW2 4659   3.329   6.503   2.201
 1254SOL     OW 4660   0.603   2.594   3.684
 1254SOL    HW1 4661   0.639   2.501   3.697
 1254SOL    HW2 4662   0.651   2.638   3.608
 1255SOL     OW 4663   5.639   1.096   5.838
 1255SOL    HW1 4664   5.628   1.058   5.746
 1255SOL    HW2 4665   5.724   1.062   5.878
 1256SOL     OW 4666   6.846   0.436   3.196
 1256SOL    HW1 4667   6.818   0.343   3.216
 1256SOL    HW2 4668   6.766   0.489   3.167
 1257SOL     OW 4669   6.955   5.176   4.975
 1257SOL    HW1 4670   6.921   5.220   5.059
 1257SOL    HW2 4671   0.024   5.206   4.958
 1258SOL     OW 4672   1.344   5.167   3.168
 1258SOL    HW1 4673   1.266   5.132   3.116
 1258SOL    HW2 4674   1.395   5.231   3.111
 1259SOL     OW 4675   3.343   0.378   4.260
 1259SOL    HW1 4676   3.245   0.369   4.280
 1259SOL    HW2 4677   3.381   0.455   4.311
 1260SOL     OW 4678   3.272   2.012   7.012
 1260SOL    HW1 4679   3.198   2.065   6.970
 1260SOL    HW2 4680   3.283   2.041   0.083
 1261SOL     OW 4681   6.626   5.121   6.832
 1261SOL    HW1 4682   6.630   5.091   6.737
 1261SOL    HW2 4683   6.538   5.094   6.872
 1262SOL     OW 4684   5.698   4.495   1.285
 1262SOL    HW1 4685   5.777   4.535   1.239
 1262SOL    HW2 4686   5.614   4.535   1.248
 1263SOL     OW 4687   6.784   1.938   1.284
 1263SOL    HW1 4688   6.798   1.923   1.382
 1263SOL    HW2 4689   6.821   1.860   1.233
 1264SOL     OW 4690   6.604   3.464   1.320
 1264SOL    HW1 4691   6.592   3.381   1.374
 1264SOL    HW2 4692   6.626   3.541   1.380
 1265SOL     OW 4693   4.893   5.497   3.766
 1265SOL    HW1 4694   4.928   5.424   3.824
 1265SOL    HW2 4695   4.947   5.502   3.682
 1266SOL     OW 4696   0.629   1.318   4.422
 1266SOL    HW1 4697   0.594   1.225   4.434
 1266SOL    HW2 4698   0.680   1.323   4.336
 1267SOL     OW 4699   5.360   6.360   0.958
 1267SOL    HW1 4700   5.367   6.437   1.022
 1267SOL    HW2 4701   5.284   6.301   0.984
 1268SOL     OW 4702   3.833   3.168   0.549
 1268SOL    HW1 4703   3.762   3.235   0.528
 1268SOL    HW2 4704   3.911   3.215   0.592
 1269SOL     OW 4705   5.654   5.208   4.611
 1269SOL    HW1 4706   5.705   5.287   4.645
 1269SOL    HW2 4707   5.618   5.157   4.689
 1270SOL     OW 4708   1.890   4.005   3.566
 1270SOL    HW1 4709   1.946   3.928   3.535
 1270SOL    HW2 4710   1.849   4.050   3.486
 1271SOL     OW 4711   2.754   2.270   3.353
 1271SOL    HW1 4712   2.843   2.243   3.391
 1271SOL    HW2 4713   2.687   2.198   3.369
 1272SOL     OW 4714   5.125   5.512   0.103
 1272SOL    HW1 4715   5.200   5.450   0.126
 1272SOL    HW2 4716   5.162   5.597   0.067
 1273SOL     OW 4717   0.351   4.212   0.110
 1273SOL    HW1 4718   0.319   4.155   0.186
 1273SOL    HW2 4719   0.284   4.209   0.037
 1274SOL     OW 4720   6.626   4.387   1.554
 1274SOL    HW1 4721   6.653   4.434   1.638
 1274SOL    HW2 4722   6.550   4.437   1.511
 1275SOL     OW 4723   3.476   1.661   4.548
 1275SOL    HW1 4724   3.558   1.711   4.518
 1275SOL    HW2 4725   3.410   1.726   4.585
 1276SOL     OW 4726   0.005   5.929   4.993
 1276SOL    HW1 4727   6.961   5.950   4.924
 1276SOL    HW2 4728   0.069   5.861   4.958
 1277SOL     OW 4729   1.483   5.642   6.550
 1277SOL    HW1 4730   1.537   5.572   6.596
 1277SOL    HW2 4731   1.527   5.666   6.463
 1278SOL     OW 4732   1.022   6.945   4.688
 1278SOL    HW1 4733   0.988   6.868   4.743
 1278SOL    HW2 4734   1.060   6.910   4.602
 1279SOL     OW 4735   2.996   6.457   0.475
 1279SOL    HW1 4736   2.961   6.365   0.491
 1279SOL    HW2 4737   3.053   6.485   0.553
 1280SOL     OW 4738   3.300   6.485   5.178
 1280SOL    HW1 4739   3.214   6.439   5.200
 1280SOL    HW2 4740   3.347   6.436   5.104
 1281SOL     OW 4741   1.692   6.483   3.401
 1281SOL    HW1 4742   1.744   6.506   3.483
 1281SOL    HW2 4743   1.603   6.527   3.404
 1282SOL     OW 4744   0.805   2.039   6.952
 1282SOL    HW1 4745   0.786   2.009   6.858
 1282SOL    HW2 4746   0.801   1.961   7.013
 1283SOL     OW 4747   0.311   2.889   5.432
 1283SOL    HW1 4748   0.270   2.889   5.341
 1283SOL    HW2 4749   0.386   2.823   5.435
 1284SOL     OW 4750   4.952   2.115   1.429
 1284SOL    HW1 4751   4.938   2.041   1.494
 1284SOL    HW2 4752   4.890   2.191   1.451
 1285SOL     OW 4753   4.709   1.956   6.369
 1285SOL    HW1 4754   4.641   1.897   6.325
 1285SOL    HW2 4755   4.683   1.971   6.464
 1286SOL     OW 4756   4.958   3.811   2.028
 1286SOL    HW1 4757   5.052   3.813   1.994
 1286SOL    HW2 4758   4.895   3.834   1.953
 1287SOL     OW 4759   5.657   5.983   5.106
 1287SOL    HW1 4760   5.725   5.923   5.148
 1287SOL    HW2 4761   5.565   5.947   5.124
 1288SOL     OW 4762   4.500   3.407   6.781
 1288SOL    HW1 4763   4.596   3.420   6.755
 1288SOL    HW2 4764   4.481   3.309   6.788
 1289SOL     OW 4765   1.107   5.858   1.910
 1289SOL    HW1 4766   1.168   5.860   1.830
 1289SOL    HW2 4767   1.032   5.923   1.896
 1290SOL     OW 4768   0.431   6.176   6.794
 1290SOL    HW1 4769   0.529   6.187   6.811
 1290SOL    HW2 4770   0.416   6.126   6.709
 1291SOL     OW 4771   0.319   3.457   5.215
 1291SOL    HW1 4772   0.248   3.407   5.265
 1291SOL    HW2 4773   0.277   3.532   5.163
 1292SOL     OW 4774   0.043   5.819   2.057
 1292SOL    HW1 4775   7.018   5.814   2.143
 1292SOL    HW2 4776   0.105   5.741   2.049
 1293SOL     OW 4777   1.129   2.287   0.408
 1293SOL    HW1 4778   1.203   2.293   0.341
 1293SOL    HW2 4779   1.114   2.191   0.433
 1294SOL     OW 4780   0.863   3.076   6.390
 1294SOL    HW1 4781   0.835   3.011   6.320
 1294SOL    HW2 4782   0.883   3.027   6.475
 1295SOL     OW 4783   0.307   3.265   2.117
 1295SOL    HW1 4784   0.328   3.199   2.045
 1295SOL    HW2 4785   0.215   3.302   2.103
 1296SOL     OW 4786   3.617   0.129   5.923
 1296SOL    HW1 4787   3.626   0.211   5.979
 1296SOL    HW2 4788   3.695   0.069   5.938
 1297SOL     OW 4789   6.738   0.750   1.628
 1297SOL    HW1 4790   6.726   0.847   1.605
 1297SOL    HW2 4791   6.672   0.725   1.699
 1298SOL     OW 4792   5.373   4.764   2.475
 1298SOL    HW1 4793   5.424   4.833   2.423
 1298SOL    HW2 4794   5.433   4.724   2.545
 1299SOL     OW 4795   1.294   3.951   2.889
 1299SOL    HW1 4796   1.286   3.980   2.984
 1299SOL    HW2 4797   1.202   3.936   2.851
 1300SOL     OW 4798   2.919   3.054   1.104
 1300SOL    HW1 4799   2.987   3.076   1.174
 1300SOL    HW2 4800   2.849   2.995   1.143
 1301SOL     OW 4801   0.857   6.324   1.280
 1301SOL    HW1 4802   0.812   6.403   1.323
 1301SOL    HW2 4803   0.818   6.240   1.317
 1302SOL     OW 4804   4.804   0.619   5.647
 1302SOL    HW1 4805   4.872   0.625   5.575
 1302SOL    HW2 4806   4.770   0.525   5.652
 1303SOL     OW 4807   4.427   2.081   1.674
 1303SOL    HW1 4808   4.517   2.107   1.639
 1303SOL    HW2 4809   4.417   1.981   1.667
 1304SOL     OW 4810   2.050   1.064   6.223
 1304SOL    HW1 4811   2.104   1.145   6.200
 1304SOL    HW2 4812   2.107   0.999   6.272
 1305SOL     OW 4813   5.106   3.708   0.185
 1305SOL    HW1 4814   5.177   3.690   0.254
 1305SOL    HW2 4815   5.021   3.732   0.231
 1306SOL     OW 4816   0.654   4.756   4.001
 1306SOL    HW1 4817   0.637   4.789   4.093
 1306SOL    HW2 4818   0.712   4.821   3.951
 1307SOL     OW 4819   0.875   4.262   4.202
 1307SOL    HW1 4820   0.805   4.210   4.154
 1307SOL    HW2 4821   0.853   4.267   4.300
 1308SOL     OW 4822   5.938   6.587   5.326
 1308SOL    HW1 4823   5.895   6.650   5.391
 1308SOL    HW2 4824   5.946   6.632   5.237
 1309SOL     OW 4825   5.463   3.406   5.328
 1309SOL    HW1 4826   5.411   3.394   5.412
 1309SOL    HW2 4827   5.529   3.480   5.340
 1310SOL     OW 4828   0.023   4.042   3.970
 1310SOL    HW1 4829   0.057   4.133   3.992
 1310SOL    HW2 4830   0.007   3.991   4.054
 1311SOL     OW 4831   0.573   6.437   4.821
 1311SOL    HW1 4832   0.633   6.429   4.742
 1311SOL    HW2 4833   0.489   6.385   4.804
 1312SOL     OW 4834   1.289   6.829   0.167
 1312SOL    HW1 4835   1.316   6.904   0.227
 1312SOL    HW2 4836   1.299   6.858   0.071
 1313SOL     OW 4837   0.636   4.009   3.785
 1313SOL    HW1 4838   0.610   4.030   3.691
 1313SOL    HW2 4839   0.704   3.936   3.785
 1314SOL     OW 4840   4.145   1.318   5.710
 1314SOL    HW1 4841   4.188   1.289   5.795
 1314SOL    HW2 4842   4.214   1.357   5.649
 1315SOL     OW 4843   0.452   1.122   1.300
 1315SOL    HW1 4844   0.399   1.164   1.226
 1315SOL    HW2 4845   0.550   1.139   1.285
 1316SOL     OW 4846   1.584   5.790   4.704
 1316SOL    HW1 4847   1.640   5.826   4.629
 1316SOL    HW2 4848   1.544   5.702   4.676
 1317SOL     OW 4849   2.527   4.689   6.329
 1317SOL    HW1 4850   2.511   4.779   6.369
 1317SOL    HW2 4851   2.609   4.648   6.368
 1318SOL     OW 4852   0.657   1.975   1.394
 1318SOL    HW1 4853   0.558   1.980   1.378
 1318SOL    HW2 4854   0.695   2.067   1.398
 1319SOL     OW 4855   6.810   0.237   0.627
 1319SOL    HW1 4856   6.711   0.224   0.636
 1319SOL    HW2 4857   6.838   0.213   0.534
 1320SOL     OW 4858   4.674   4.300   0.891
 1320SOL    HW1 4859   4.632   4.316   0.981
 1320SOL    HW2 4860   4.773   4.311   0.899
 1321SOL     OW 4861   5.832   1.475   6.615
 1321SOL    HW1 4862   5.860   1.387   6.655
 1321SOL    HW2 4863   5.817   1.464   6.517
 1322SOL     OW 4864   3.808   0.747   3.777
 1322SOL    HW1 4865   3.887   0.724   3.833
 1322SOL    HW2 4866   3.728   0.697   3.810
 1323SOL     OW 4867   5.001   0.920   5.665
 1323SOL    HW1 4868   4.968   0.830   5.695
 1323SOL    HW2 4869   5.084   0.908   5.611
 1324SOL     OW 4870   1.647   3.379   0.533
 1324SOL    HW1 4871   1.557   3.348   0.564
 1324SOL    HW2 4872   1.699   3.415   0.610
 1325SOL     OW 4873   1.983   0.415   2.778
 1325SOL    HW1 4874   2.029   0.482   2.720
 1325SOL    HW2 4875   1.935   0.463   2.852
 1326SOL     OW 4876   4.940   3.618   4.779
 1326SOL    HW1 4877   5.038   3.621   4.799
 1326SOL    HW2 4878   4.889   3.629   4.865
 1327SOL     OW 4879   1.086   5.470   2.382
 1327SOL    HW1 4880   0.996   5.496   2.418
 1327SOL    HW2 4881   1.136   5.552   2.354
 1328SOL     OW 4882   1.405   2.682   0.554
 1328SOL    HW1 4883   1.375   2.712   0.463
 1328SOL    HW2 4884   1.481   2.739   0.584
 1329SOL     OW 4885   0.068   2.340   1.444
 1329SOL    HW1 4886   0.149   2.283   1.457
 1329SOL    HW2 4887   0.092   2.436   1.459
 1330SOL     OW 4888   0.343   1.662   2.001
 1330SOL    HW1 4889   0.370   1.640   1.907
 1330SOL    HW2 4890   0.398   1.739   2.033
 1331SOL     OW 4891   5.103   2.498   3.114
 1331SOL    HW1 4892   5.083   2.568   3.182
 1331SOL    HW2 4893   5.018   2.467   3.072
 1332SOL     OW 4894   2.568   0.318   6.226
 1332SOL    HW1 4895   2.514   0.244   6.185
 1332SOL    HW2 4896   2.585   0.389   6.158
 1333SOL     OW 4897   3.558   4.249   5.066
 1333SOL    HW1 4898   3.574   4.249   4.967
 1333SOL    HW2 4899   3.640   4.280   5.113
 1334SOL     OW 4900   6.391   1.646   4.559
 1334SOL    HW1 4901   6.394   1.682   4.466
 1334SOL    HW2 4902   6.426   1.715   4.623
 1335SOL     OW 4903   2.245   2.316   3.427
 1335SOL    HW1 4904   2.194   2.401   3.438
 1335SOL    HW2 4905   2.181   2.238   3.432
 1336SOL     OW 4906   1.856   1.785   5.228
 1336SOL    HW1 4907   1.849   1.708   5.293
 1336SOL    HW2 4908   1.765   1.821   5.210
 1337SOL     OW 4909   1.970   2.524   4.525
 1337SOL    HW1 4910   2.002   2.452   4.587
 1337SOL    HW2 4911   1.928   2.483   4.445
 1338SOL     OW 4912   5.470   2.037   5.271
 1338SOL    HW1 4913   5.457   1.947   5.312
 1338SOL    HW2 4914   5.433   2.037   5.178
 1339SOL     OW 4915   6.897   1.731   6.317
 1339SOL    HW1 4916   6.933   1.821   6.294
 1339SOL    HW2 4917   6.914   1.712   6.414
 1340SOL     OW 4918   6.858   2.337   2.737
 1340SOL    HW1 4919   6.936   2.392   2.707
 1340SOL    HW2 4920   6.867   2.317   2.834
 1341SOL     OW 4921   5.322   0.070   6.042
 1341SOL    HW1 4922   5.382   0.109   6.112
 1341SOL    HW2 4923   5.374   0.053   5.959
 1342SOL     OW 4924   1.729   5.423   6.044
 1342SOL    HW1 4925   1.824   5.406   6.015
 1342SOL    HW2 4926   1.719   5.401   6.141
 1343SOL     OW 4927   4.572   5.677   3.477
 1343SOL    HW1 4928   4.597   5.651   3.570
 1343SOL    HW2 4929   4.512   5.757   3.480
 1344SOL     OW 4930   6.734   5.542   4.409
 1344SOL    HW1 4931   6.778   5.618   4.362
 1344SOL    HW2 4932   6.700   5.574   4.498
 1345SOL     OW 4933   1.623   0.605   2.805
 1345SOL    HW1 4934   1.609   0.696   2.767
 1345SOL    HW2 4935   1.572   0.538   2.752
 1346SOL     OW 4936   0.578   5.789   4.648
 1346SOL    HW1 4937   0.618   5.787   4.556
 1346SOL    HW2 4938   0.650   5.801   4.716
 1347SOL     OW 4939   6.347   6.570   4.573
 1347SOL    HW1 4940   6.373   6.522   4.657
 1347SOL    HW2 4941   6.268   6.525   4.531
 1348SOL     OW 4942   5.395   5.423   2.437
 1348SOL    HW1 4943   5.390   5.513   2.480
 1348SOL    HW2 4944   5.335   5.422   2.357
 1349SOL     OW 4945   4.648   2.470   5.730
 1349SOL    HW1 4946   4.727   2.418   5.699
 1349SOL    HW2 4947   4.670   2.521   5.813
 1350SOL     OW 4948   5.179   5.089   5.211
 1350SOL    HW1 4949   5.259   5.028   5.214
 1350SOL    HW2 4950   5.178   5.138   5.124
 1351SOL     OW 4951   6.004   1.701   3.565
 1351SOL    HW1 4952   6.023   1.795   3.593
 1351SOL    HW2 4953   6.065   1.639   3.614
 1352SOL     OW 4954   6.662   6.762   2.695
 1352SOL    HW1 4955   6.691   6.835   2.757
 1352SOL    HW2 4956   6.702   6.778   2.604
 1353SOL     OW 4957   0.419   3.409   0.423
 1353SOL    HW1 4958   0.386   3.315   0.408
 1353SOL    HW2 4959   0.505   3.406   0.475
 1354SOL     OW 4960   0.946   3.317   0.515
 1354SOL    HW1 4961   0.860   3.281   0.550
 1354SOL    HW2 4962   1.003   3.346   0.592
 1355SOL     OW 4963   6.772   2.311   5.215
 1355SOL    HW1 4964   6.687   2.361   5.202
 1355SOL    HW2 4965   6.763   2.250   5.294
 1356SOL     OW 4966   2.976   3.218   2.788
 1356SOL    HW1 4967   3.058   3.231   2.732
 1356SOL    HW2 4968   2.985   3.135   2.842
 1357SOL     OW 4969   1.335   2.945   5.246
 1357SOL    HW1 4970   1.432   2.923   5.259
 1357SOL    HW2 4971   1.313   3.028   5.297
 1358SOL     OW 4972   4.418   0.737   5.865
 1358SOL    HW1 4973   4.484   0.804   5.830
 1358SOL    HW2 4974   4.441   0.714   5.959
 1359SOL     OW 4975   5.674   4.271   1.799
 1359SOL    HW1 4976   5.755   4.213   1.791
 1359SOL    HW2 4977   5.609   4.228   1.862
 1360SOL     OW 4978   4.128   2.548   0.394
 1360SOL    HW1 4979   4.092   2.640   0.379
 1360SOL    HW2 4980   4.208   2.534   0.337
 1361SOL     OW 4981   6.702   5.468   5.069
 1361SOL    HW1 4982   6.639   5.541   5.044
 1361SOL    HW2 4983   6.797   5.499   5.056
 1362SOL     OW 4984   3.014   3.875   4.202
 1362SOL    HW1 4985   2.915   3.871   4.192
 1362SOL    HW2 4986   3.037   3.911   4.292
 1363SOL     OW 4987   6.817   5.707   3.396
 1363SOL    HW1 4988   6.863   5.747   3.475
 1363SOL    HW2 4989   6.718   5.713   3.408
 1364SOL     OW 4990   6.640   2.383   1.147
 1364SOL    HW1 4991   6.708   2.331   1.096
 1364SOL    HW2 4992   6.586   2.321   1.204
 1365SOL     OW 4993   0.918   2.665   6.058
 1365SOL    HW1 4994   0.959   2.724   5.988
 1365SOL    HW2 4995   0.857   2.599   6.013
 1366SOL     OW 4996   1.199   4.498   0.051
 1366SOL    HW1 4997   1.111   4.473   0.012
 1366SOL    HW2 4998   1.272   4.474   7.012
 1367SOL     OW 4999   2.110   0.004   2.700
 1367SOL    HW1 5000   2.045   6.972   2.649
 1367SOL    HW2 5001   2.062   0.050   2.775
 1368SOL     OW 5002   6.434   0.908   3.728
 1368SOL    HW1 5003   6.442   0.960   3.642
 1368SOL    HW2 5004   6.522   0.907   3.774
 1369SOL     OW 5005   2.430   0.200   1.735
 1369SOL    HW1 5006   2.379   0.166   1.813
 1369SOL    HW2 5007   2.489   0.128   1.699
 1370SOL     OW 5008   3.955   1.278   1.963
 1370SOL    HW1 5009   3.991   1.366   1.993
 1370SOL    HW2 5010   4.021   1.206   1.984
 1371SOL     OW 5011   6.483   1.281   4.234
 1371SOL    HW1 5012   6.497   1.367   4.184
 1371SOL    HW2 5013   6.391   1.279   4.273
 1372SOL     OW 5014   1.201   3.021   0.719
 1372SOL    HW1 5015   1.147   2.969   0.653
 1372SOL    HW2 5016   1.271   3.073   0.671
 1373SOL     OW 5017   4.875   2.517   6.702
 1373SOL    HW1 5018   4.829   2.455   6.765
 1373SOL    HW2 5019   4.850   2.493   6.608
 1374SOL     OW 5020   4.976   1.642   0.133
 1374SOL    HW1 5021   5.059   1.670   0.083
 1374SOL    HW2 5022   5.003   1.587   0.212
 1375SOL     OW 5023   0.703   4.151   6.430
 1375SOL    HW1 5024   0.715   4.226   6.365
 1375SOL    HW2 5025   0.661   4.073   6.383
 1376SOL     OW 5026   4.522   4.784   5.239
 1376SOL    HW1 5027   4.495   4.879   5.223
 1376SOL    HW2 5028   4.585   4.755   5.167
 1377SOL     OW 5029   0.715   3.397   5.671
 1377SOL    HW1 5030   0.619   3.369   5.673
 1377SOL    HW2 5031   0.771   3.328   5.716
 1378SOL     OW 5032   5.964   1.011   5.001
 1378SOL    HW1 5033   6.009   1.078   4.942
 1378SOL    HW2 5034   5.938   0.931   4.947
 1379SOL     OW 5035   3.569   6.976   3.309
 1379SOL    HW1 5036   3.616   6.918   3.375
 1379SOL    HW2 5037   3.488   6.928   3.274
 1380SOL     OW 5038   7.011   0.014   2.372
 1380SOL    HW1 5039   6.938   0.082   2.367
 1380SOL    HW2 5040   0.038   0.014   2.286
 1381SOL     OW 5041   5.831   2.386   6.682
 1381SOL    HW1 5042   5.764   2.349   6.618
 1381SOL    HW2 5043   5.873   2.311   6.734
 1382SOL     OW 5044   4.692   3.653   0.148
 1382SOL    HW1 5045   4.694   3.714   0.228
 1382SOL    HW2 5046   4.767   3.677   0.086
 1383SOL     OW 5047   0.845   0.366   2.233
 1383SOL    HW1 5048   0.782   0.303   2.280
 1383SOL    HW2 5049   0.805   0.457   2.231
 1384SOL     OW 5050   4.925   0.228   1.831
 1384SOL    HW1 5051   4.962   0.172   1.757
 1384SOL    HW2 5052   4.875   0.170   1.896
 1385SOL     OW 5053   1.942   4.342   3.476
 1385SOL    HW1 5054   1.917   4.261   3.423
 1385SOL    HW2 5055   1.865   4.369   3.534
 1386SOL     OW 5056   3.608   0.328   4.723
 1386SOL    HW1 5057   3.572   0.237   4.743
 1386SOL    HW2 5058   3.707   0.328   4.732
 1387SOL     OW 5059   3.369   5.762   2.354
 1387SOL    HW1 5060   3.360   5.851   2.399
 1387SOL    HW2 5061   3.281   5.714   2.357
 1388SOL     OW 5062   0.519   0.361   3.172
 1388SOL    HW1 5063   0.596   0.389   3.114
 1388SOL    HW2 5064   0.552   0.301   3.244
 1389SOL     OW 5065   6.577   1.132   4.017
 1389SOL    HW1 5066   6.550   1.177   4.102
 1389SOL    HW2 5067   6.497   1.095   3.972
 1390SOL     OW 5068   6.256   3.182   6.049
 1390SOL    HW1 5069   6.199   3.146   5.975
 1390SOL    HW2 5070   6.202   3.186   6.133
 1391SOL     OW 5071   6.045   6.777   5.535
 1391SOL    HW1 5072   6.136   6.818   5.536
 1391SOL    HW2 5073   6.050   6.682   5.566
 1392SOL     OW 5074   5.619   6.627   6.302
 1392SOL    HW1 5075   5.661   6.568   6.232
 1392SOL    HW2 5076   5.558   6.572   6.359
 1393SOL     OW 5077   6.724   3.354   5.726
 1393SOL    HW1 5078   6.626   3.334   5.722
 1393SOL    HW2 5079   6.760   3.330   5.816
 1394SOL     OW 5080   3.872   5.936   4.775
 1394SOL    HW1 5081   3.785   5.885   4.780
 1394SOL    HW2 5082   3.879   5.981   4.686
 1395SOL     OW 5083   1.861   4.426   3.890
 1395SOL    HW1 5084   1.871   4.344   3.947
 1395SOL    HW2 5085   1.946   4.480   3.895
 1396SOL     OW 5086   0.662   0.351   4.776
 1396SOL    HW1 5087   0.730   0.280   4.760
 1396SOL    HW2 5088   0.570   0.313   4.760
 1397SOL     OW 5089   0.454   5.517   4.358
 1397SOL    HW1 5090   0.388   5.499   4.285
 1397SOL    HW2 5091   0.545   5.531   4.319
 1398SOL     OW 5092   2.458   1.613   0.010
 1398SOL    HW1 5093   2.475   1.613   6.936
 1398SOL    HW2 5094   2.401   1.534   0.034
 1399SOL     OW 5095   3.759   6.441   0.187
 1399SOL    HW1 5096   3.779   6.394   0.102
 1399SOL    HW2 5097   3.769   6.540   0.174
 1400SOL     OW 5098   0.529   1.782   4.443
 1400SOL    HW1 5099   0.484   1.823   4.522
 1400SOL    HW2 5100   0.498   1.687   4.431
 1401SOL     OW 5101   5.797   0.064   4.784
 1401SOL    HW1 5102   5.764   0.140   4.839
 1401SOL    HW2 5103   5.858   0.098   4.713
 1402SOL     OW 5104   5.748   4.265   6.619
 1402SOL    HW1 5105   5.814   4.339   6.635
 1402SOL    HW2 5106   5.795   4.188   6.576
 1403SOL     OW 5107   1.835   2.144   1.308
 1403SOL    HW1 5108   1.887   2.146   1.223
 1403SOL    HW2 5109   1.855   2.225   1.362
 1404SOL     OW 5110   6.814   0.441   0.002
 1404SOL    HW1 5111   6.856   0.449   0.093
 1404SOL    HW2 5112   6.755   0.520   7.011
 1405SOL     OW 5113   2.732   4.266   1.034
 1405SOL    HW1 5114   2.688   4.355   1.024
 1405SOL    HW2 5115   2.699   4.205   0.962
 1406SOL     OW 5116   1.732   5.494   1.346
 1406SOL    HW1 5117   1.737   5.425   1.418
 1406SOL    HW2 5118   1.821   5.540   1.337
 1407SOL     OW 5119   1.303   4.050   3.159
 1407SOL    HW1 5120   1.375   4.119   3.145
 1407SOL    HW2 5121   1.222   4.094   3.198
 1408SOL     OW 5122   5.909   6.554   6.251
 1408SOL    HW1 5123   5.860   6.474   6.218
 1408SOL    HW2 5124   5.970   6.587   6.178
 1409SOL     OW 5125   1.094   0.120   5.234
 1409SOL    HW1 5126   1.175   0.167   5.269
 1409SOL    HW2 5127   1.012   0.169   5.263
 1410SOL     OW 5128   2.431   4.158   6.420
 1410SOL    HW1 5129   2.457   4.251   6.395
 1410SOL    HW2 5130   2.420   4.103   6.337
 1411SOL     OW 5131   3.608   6.308   0.425
 1411SOL    HW1 5132   3.597   6.209   0.418
 1411SOL    HW2 5133   3.665   6.341   0.350
 1412SOL     OW 5134   0.733   4.098   1.313
 1412SOL    HW1 5135   0.683   4.184   1.324
 1412SOL    HW2 5136   0.771   4.093   1.221
 1413SOL     OW 5137   2.452   1.360   4.540
 1413SOL    HW1 5138   2.407   1.274   4.518
 1413SOL    HW2 5139   2.384   1.430   4.560
 1414SOL     OW 5140   2.834   1.744   1.682
 1414SOL    HW1 5141   2.803   1.838   1.700
 1414SOL    HW2 5142   2.762   1.680   1.708
 1415SOL     OW 5143   3.047   1.640   4.126
 1415SOL    HW1 5144   3.039   1.729   4.082
 1415SOL    HW2 5145   3.127   1.638   4.186
 1416SOL     OW 5146   3.677   6.722   5.048
 1416SOL    HW1 5147   3.698   6.659   5.123
 1416SOL    HW2 5148   3.627   6.801   5.084
 1417SOL     OW 5149   3.111   2.688   6.743
 1417SOL    HW1 5150   3.119   2.607   6.801
 1417SOL    HW2 5151   3.061   2.664   6.659
 1418SOL     OW 5152   2.714   3.844   1.095
 1418SOL    HW1 5153   2.687   3.748   1.090
 1418SOL    HW2 5154   2.808   3.855   1.063
 1419SOL     OW 5155   3.252   6.068   4.150
 1419SOL    HW1 5156   3.168   6.080   4.203
 1419SOL    HW2 5157   3.318   6.016   4.204
 1420SOL     OW 5158   3.507   6.232   3.426
 1420SOL    HW1 5159   3.467   6.247   3.517
 1420SOL    HW2 5160   3.587   6.291   3.415
 1421SOL     OW 5161   1.082   3.934   4.134
 1421SOL    HW1 5162   1.125   4.024   4.132
 1421SOL    HW2 5163   1.002   3.936   4.194
 1422SOL     OW 5164   2.936   4.283   6.888
 1422SOL    HW1 5165   3.001   4.228   6.941
 1422SOL    HW2 5166   2.846   4.239   6.890
 1423SOL     OW 5167   4.012   0.840   4.556
 1423SOL    HW1 5168   4.044   0.856   4.649
 1423SOL    HW2 5169   3.962   0.921   4.523
 1424SOL     OW 5170   6.646   4.034   6.712
 1424SOL    HW1 5171   6.568   4.094   6.727
 1424SOL    HW2 5172   6.726   4.089   6.687
 1425SOL     OW 5173   2.280   5.472   5.043
 1425SOL    HW1 5174   2.356   5.532   5.068
 1425SOL    HW2 5175   2.229   5.445   5.125
 1426SOL     OW 5176   2.366   2.137   5.987
 1426SOL    HW1 5177   2.407   2.064   5.933
 1426SOL    HW2 5178   2.266   2.128   5.985
 1427SOL     OW 5179   6.760   6.724   3.731
 1427SOL    HW1 5180   6.701   6.753   3.656
 1427SOL    HW2 5181   6.856   6.744   3.708
 1428SOL     OW 5182   0.936   2.121   1.784
 1428SOL    HW1 5183   0.869   2.047   1.786
 1428SOL    HW2 5184   0.895   2.204   1.822
 1429SOL     OW 5185   5.816   1.735   0.137
 1429SOL    HW1 5186   5.803   1.703   0.232
 1429SOL    HW2 5187   5.913   1.756   0.123
 1430SOL     OW 5188   1.917   5.026   3.501
 1430SOL    HW1 5189   1.829   4.989   3.530
 1430SOL    HW2 5190   1.902   5.105   3.442
 1431SOL     OW 5191   2.754   2.899   6.534
 1431SOL    HW1 5192   2.681   2.863   6.477
 1431SOL    HW2 5193   2.818   2.825   6.557
 1432SOL     OW 5194   3.363   0.773   0.862
 1432SOL    HW1 5195   3.390   0.827   0.942
 1432SOL    HW2 5196   3.445   0.737   0.818
 1433SOL     OW 5197   4.798   0.564   5.005
 1433SOL    HW1 5198   4.707   0.526   5.021
 1433SOL    HW2 5199   4.852   0.501   4.949
 1434SOL     OW 5200   0.410   0.875   6.514
 1434SOL    HW1 5201   0.432   0.973   6.509
 1434SOL    HW2 5202   0.445   0.829   6.432
 1435SOL     OW 5203   6.348   0.120   3.228
 1435SOL    HW1 5204   6.388   0.040   3.185
 1435SOL    HW2 5205   6.248   0.111   3.230
 1436SOL     OW 5206   5.329   4.022   6.721
 1436SOL    HW1 5207   5.362   4.104   6.674
 1436SOL    HW2 5208   5.332   4.037   6.820
 1437SOL     OW 5209   3.589   1.658   6.176
 1437SOL    HW1 5210   3.614   1.667   6.273
 1437SOL    HW2 5211   3.619   1.569   6.142
 1438SOL     OW 5212   2.502   6.907   1.061
 1438SOL    HW1 5213   2.500   6.972   0.986
 1438SOL    HW2 5214   2.441   6.938   1.134
 1439SOL     OW 5215   0.178   4.784   0.597
 1439SOL    HW1 5216   0.124   4.833   0.665
 1439SOL    HW2 5217   0.117   4.742   0.530
 1440SOL     OW 5218   3.007   2.787   6.097
 1440SOL    HW1 5219   3.053   2.705   6.062
 1440SOL    HW2 5220   2.950   2.762   6.176
 1441SOL     OW 5221   6.048   3.484   3.900
 1441SOL    HW1 5222   6.131   3.523   3.939
 1441SOL    HW2 5223   6.006   3.421   3.967
 1442SOL     OW 5224   6.195   5.050   6.870
 1442SOL    HW1 5225   6.207   4.956   6.901
 1442SOL    HW2 5226   6.098   5.069   6.857
 1443SOL     OW 5227   1.069   3.003   4.845
 1443SOL    HW1 5228   1.114   2.987   4.757
 1443SOL    HW2 5229   0.980   3.045   4.829
 1444SOL     OW 5230   4.531   5.334   1.081
 1444SOL    HW1 5231   4.452   5.384   1.118
 1444SOL    HW2 5232   4.601   5.399   1.052
 1445SOL     OW 5233   6.959   2.306   2.001
 1445SOL    HW1 5234   6.972   2.300   2.100
 1445SOL    HW2 5235   6.919   2.396   1.978
 1446SOL     OW 5236   4.862   2.177   6.552
 1446SOL    HW1 5237   4.807   2.119   6.611
 1446SOL    HW2 5238   4.818   2.185   6.463
 1447SOL     OW 5239   6.101   6.552   5.676
 1447SOL    HW1 5240   6.030   6.484   5.694
 1447SOL    HW2 5241   6.191   6.508   5.680
 1448SOL     OW 5242   6.760   2.775   6.925
 1448SOL    HW1 5243   6.723   2.868   6.937
 1448SOL    HW2 5244   6.810   2.748   7.007
 1449SOL     OW 5245   6.754   0.921   6.829
 1449SOL    HW1 5246   6.776   0.834   6.874
 1449SOL    HW2 5247   6.837   0.961   6.791
 1450SOL     OW 5248   0.828   2.716   1.987
 1450SOL    HW1 5249   0.860   2.797   1.939
 1450SOL    HW2 5250   0.824   2.639   1.924
 1451SOL     OW 5251   2.962   1.365   2.687
 1451SOL    HW1 5252   2.989   1.281   2.640
 1451SOL    HW2 5253   3.044   1.416   2.715
 1452SOL     OW 5254   4.357   1.037   4.374
 1452SOL    HW1 5255   4.278   1.053   4.315
 1452SOL    HW2 5256   4.441   1.044   4.320
 1453SOL     OW 5257   6.981   3.105   5.267
 1453SOL    HW1 5258   6.976   3.204   5.264
 1453SOL    HW2 5259   6.964   3.074   5.361
 1454SOL     OW 5260   6.211   2.353   3.147
 1454SOL    HW1 5261   6.242   2.372   3.054
 1454SOL    HW2 5262   6.163   2.432   3.184
 1455SOL     OW 5263   1.117   0.405   1.419
 1455SOL    HW1 5264   1.066   0.384   1.503
 1455SOL    HW2 5265   1.189   0.338   1.406
 1456SOL     OW 5266   6.584   6.737   5.531
 1456SOL    HW1 5267   6.680   6.765   5.527
 1456SOL    HW2 5268   6.549   6.726   5.438
 1457SOL     OW 5269   1.304   0.222   1.336
 1457SOL    HW1 5270   1.262   0.170   1.261
 1457SOL    HW2 5271   1.378   0.278   1.300
 1458SOL     OW 5272   6.083   6.204   3.554
 1458SOL    HW1 5273   6.080   6.255   3.640
 1458SOL    HW2 5274   5.993   6.161   3.538
 1459SOL     OW 5275   2.421   5.490   5.352
 1459SOL    HW1 5276   2.330   5.450   5.347
 1459SOL    HW2 5277   2.431   5.560   5.281
 1460SOL     OW 5278   0.401   5.229   6.217
 1460SOL    HW1 5279   0.357   5.140   6.209
 1460SOL    HW2 5280   0.500   5.219   6.203
 1461SOL     OW 5281   0.659   5.253   3.676
 1461SOL    HW1 5282   0.728   5.183   3.695
 1461SOL    HW2 5283   0.568   5.216   3.689
 1462SOL     OW 5284   1.082   0.883   5.959
 1462SOL    HW1 5285   1.123   0.871   6.049
 1462SOL    HW2 5286   1.120   0.815   5.896
 1463SOL     OW 5287   0.345   5.210   0.037
 1463SOL    HW1 5288   0.307   5.212   0.130
 1463SOL    HW2 5289   0.377   5.118   0.016
 1464SOL     OW 5290   6.251   6.580   1.060
 1464SOL    HW1 5291   6.181   6.651   1.056
 1464SOL    HW2 5292   6.336   6.615   1.019
 1465SOL     OW 5293   1.625   1.570   3.845
 1465SOL    HW1 5294   1.647   1.478   3.813
 1465SOL    HW2 5295   1.525   1.580   3.850
 1466SOL     OW 5296   1.215   1.438   2.427
 1466SOL    HW1 5297   1.223   1.403   2.333
 1466SOL    HW2 5298   1.243   1.367   2.491
 1467SOL     OW 5299   2.007   2.033   2.046
 1467SOL    HW1 5300   1.946   1.955   2.054
 1467SOL    HW2 5301   1.979   2.104   2.112
 1468SOL     OW 5302   5.541   5.485   2.795
 1468SOL    HW1 5303   5.606   5.520   2.862
 1468SOL    HW2 5304   5.526   5.554   2.724
 1469SOL     OW 5305   0.764   1.185   1.983
 1469SOL    HW1 5306   0.799   1.150   1.896
 1469SOL    HW2 5307   0.830   1.249   2.021
 1470SOL     OW 5308   1.679   1.404   2.398
 1470SOL    HW1 5309   1.653   1.368   2.487
 1470SOL    HW2 5310   1.632   1.491   2.382
 1471SOL     OW 5311   1.238   0.208   0.556
 1471SOL    HW1 5312   1.228   0.185   0.653
 1471SOL    HW2 5313   1.156   0.258   0.525
 1472SOL     OW 5314   3.769   5.600   5.094
 1472SOL    HW1 5315   3.815   5.535   5.035
 1472SOL    HW2 5316   3.812   5.600   5.185
 1473SOL     OW 5317   5.311   6.210   3.768
 1473SOL    HW1 5318   5.402   6.186   3.803
 1473SOL    HW2 5319   5.265   6.271   3.832
 1474SOL     OW 5320   6.282   5.809   2.965
 1474SOL    HW1 5321   6.210   5.747   2.995
 1474SOL    HW2 5322   6.279   5.893   3.019
 1475SOL     OW 5323   6.452   0.396   1.919
 1475SOL    HW1 5324   6.382   0.329   1.895
 1475SOL    HW2 5325   6.484   0.377   2.012
 1476SOL     OW 5326   2.666   1.585   1.092
 1476SOL    HW1 5327   2.675   1.629   1.002
 1476SOL    HW2 5328   2.613   1.501   1.083
 1477SOL     OW 5329   3.451   1.241   6.747
 1477SOL    HW1 5330   3.506   1.189   6.813
 1477SOL    HW2 5331   3.355   1.214   6.756
 1478SOL     OW 5332   5.527   4.733   0.091
 1478SOL    HW1 5333   5.475   4.648   0.086
 1478SOL    HW2 5334   5.503   4.792   0.014
 1479SOL     OW 5335   1.579   3.241   6.933
 1479SOL    HW1 5336   1.547   3.318   6.989
 1479SOL    HW2 5337   1.583   3.269   6.837
 1480SOL     OW 5338   3.095   6.916   6.194
 1480SOL    HW1 5339   3.127   6.872   6.110
 1480SOL    HW2 5340   3.102   6.852   6.270
 1481SOL     OW 5341   0.060   2.661   5.466
 1481SOL    HW1 5342   0.073   2.668   5.367
 1481SOL    HW2 5343   7.013   2.593   5.484
 1482SOL     OW 5344   5.148   2.576   0.940
 1482SOL    HW1 5345   5.131   2.586   1.038
 1482SOL    HW2 5346   5.107   2.491   0.907
 1483SOL     OW 5347   5.827   2.006   5.952
 1483SOL    HW1 5348   5.825   1.987   5.854
 1483SOL    HW2 5349   5.774   1.936   6.001
 1484SOL     OW 5350   5.792   5.157   3.919
 1484SOL    HW1 5351   5.853   5.096   3.867
 1484SOL    HW2 5352   5.831   5.174   4.009
 1485SOL     OW 5353   3.336   1.740   3.276
 1485SOL    HW1 5354   3.302   1.790   3.197
 1485SOL    HW2 5355   3.278   1.758   3.355
 1486SOL     OW 5356   4.941   2.186   3.178
 1486SOL    HW1 5357   5.035   2.151   3.187
 1486SOL    HW2 5358   4.917   2.238   3.260
 1487SOL     OW 5359   6.571   3.010   6.538
 1487SOL    HW1 5360   6.597   2.915   6.557
 1487SOL    HW2 5361   6.527   3.050   6.619
 1488SOL     OW 5362   5.554   2.017   3.469
 1488SOL    HW1 5363   5.610   2.014   3.552
 1488SOL    HW2 5364   5.467   1.971   3.486
 1489SOL     OW 5365   3.631   5.293   3.740
 1489SOL    HW1 5366   3.665   5.295   3.834
 1489SOL    HW2 5367   3.560   5.223   3.732
 1490SOL     OW 5368   1.224   2.996   0.998
 1490SOL    HW1 5369   1.238   2.916   1.058
 1490SOL    HW2 5370   1.236   2.968   0.903
 1491SOL     OW 5371   6.640   3.895   3.462
 1491SOL    HW1 5372   6.698   3.815   3.464
 1491SOL    HW2 5373   6.675   3.964   3.526
 1492SOL     OW 5374   5.498   1.660   2.767
 1492SOL    HW1 5375   5.412   1.617   2.792
 1492SOL    HW2 5376   5.522   1.728   2.836
 1493SOL     OW 5377   4.439   0.479   4.165
 1493SOL    HW1 5378   4.519   0.469   4.223
 1493SOL    HW2 5379   4.357   0.453   4.215
 1494SOL     OW 5380   5.799   1.530   5.464
 1494SOL    HW1 5381   5.859   1.609   5.476
 1494SOL    HW2 5382   5.809   1.469   5.543
 1495SOL     OW 5383   6.438   2.543   5.096
 1495SOL    HW1 5384   6.499   2.515   5.022
 1495SOL    HW2 5385   6.388   2.625   5.068
 1496SOL     OW 5386   0.689   1.596   2.396
 1496SOL    HW1 5387   0.747   1.514   2.398
 1496SOL    HW2 5388   0.628   1.591   2.316
 1497SOL     OW 5389   6.909   3.103   3.439
 1497SOL    HW1 5390   6.998   3.096   3.485
 1497SOL    HW2 5391   6.837   3.076   3.502
 1498SOL     OW 5392   2.112   4.613   6.214
 1498SOL    HW1 5393   2.090   4.575   6.125
 1498SOL    HW2 5394   2.207   4.645   6.215
 1499SOL     OW 5395   0.966   3.652   6.313
 1499SOL    HW1 5396   0.990   3.650   6.410
 1499SOL    HW2 5397   1.050   3.658   6.259
 1500SOL     OW 5398   6.564   6.432   0.174
 1500SOL    HW1 5399   6.477   6.387   0.156
 1500SOL    HW2 5400   6.618   6.436   0.090
 1501SOL     OW 5401   5.623   1.792   6.052
 1501SOL    HW1 5402   5.678   1.715   6.086
 1501SOL    HW2 5403   5.612   1.784   5.953
 1502SOL     OW 5404   5.782   0.351   1.195
 1502SOL    HW1 5405   5.815   0.263   1.230
 1502SOL    HW2 5406   5.685   0.362   1.220
 1503SOL     OW 5407   2.205   1.885   2.177
 1503SOL    HW1 5408   2.130   1.935   2.132
 1503SOL    HW2 5409   2.239   1.815   2.115
 1504SOL     OW 5410   0.800   0.585   5.187
 1504SOL    HW1 5411   0.721   0.570   5.246
 1504SOL    HW2 5412   0.772   0.582   5.091
 1505SOL     OW 5413   6.043   0.375   5.893
 1505SOL    HW1 5414   6.136   0.412   5.889
 1505SOL    HW2 5415   6.034   0.316   5.972
 1506SOL     OW 5416   1.765   5.178   1.147
 1506SOL    HW1 5417   1.816   5.173   1.233
 1506SOL    HW2 5418   1.824   5.215   1.075
 1507SOL     OW 5419   0.937   1.814   5.588
 1507SOL    HW1 5420   0.885   1.841   5.508
 1507SOL    HW2 5421   0.959   1.717   5.583
 1508SOL     OW 5422   6.660   0.193   1.855
 1508SOL    HW1 5423   6.630   0.283   1.886
 1508SOL    HW2 5424   6.755   0.178   1.881
 1509SOL     OW 5425   4.697   2.656   5.940
 1509SOL    HW1 5426   4.683   2.716   6.018
 1509SOL    HW2 5427   4.718   2.710   5.859
 1510SOL     OW 5428   5.401   2.602   4.963
 1510SOL    HW1 5429   5.499   2.585   4.978
 1510SOL    HW2 5430   5.370   2.672   5.027
 1511SOL     OW 5431   3.098   3.151   1.340
 1511SOL    HW1 5432   3.147   3.201   1.412
 1511SOL    HW2 5433   3.090   3.054   1.366
 1512SOL     OW 5434   0.740   5.249   1.371
 1512SOL    HW1 5435   0.688   5.190   1.310
 1512SOL    HW2 5436   0.682   5.280   1.446
 1513SOL     OW 5437   3.292   1.001   3.687
 1513SOL    HW1 5438   3.366   0.946   3.649
 1513SOL    HW2 5439   3.229   1.027   3.614
 1514SOL     OW 5440   4.878   2.446   5.980
 1514SOL    HW1 5441   4.846   2.357   6.010
 1514SOL    HW2 5442   4.800   2.509   5.973
 1515SOL     OW 5443   5.716   2.184   5.215
 1515SOL    HW1 5444   5.629   2.145   5.246
 1515SOL    HW2 5445   5.736   2.151   5.123
 1516SOL     OW 5446   0.229   7.018   0.682
 1516SOL    HW1 5447   0.155   0.047   0.724
 1516SOL    HW2 5448   0.190   6.955   0.615
 1517SOL     OW 5449   4.110   6.231   3.439
 1517SOL    HW1 5450   4.015   6.219   3.468
 1517SOL    HW2 5451   4.115   6.299   3.366
 1518SOL     OW 5452   0.892   3.031   0.034
 1518SOL    HW1 5453   0.862   2.936   0.042
 1518SOL    HW2 5454   0.978   3.044   0.083
 1519SOL     OW 5455   6.214   4.848   2.017
 1519SOL    HW1 5456   6.232   4.892   1.929
 1519SOL    HW2 5457   6.137   4.893   2.061
 1520SOL     OW 5458   0.310   3.941   2.394
 1520SOL    HW1 5459   0.230   3.891   2.361
 1520SOL    HW2 5460   0.301   3.960   2.492
 1521SOL     OW 5461   2.147   3.704   0.502
 1521SOL    HW1 5462   2.151   3.731   0.406
 1521SOL    HW2 5463   2.206   3.764   0.556
 1522SOL     OW 5464   6.388   6.965   4.802
 1522SOL    HW1 5465   6.465   6.908   4.774
 1522SOL    HW2 5466   6.387   6.975   4.901
 1523SOL     OW 5467   4.941   4.392   0.046
 1523SOL    HW1 5468   5.032   4.402   0.005
 1523SOL    HW2 5469   4.947   4.333   0.127
 1524SOL     OW 5470   1.658   2.141   2.014
 1524SOL    HW1 5471   1.632   2.190   2.097
 1524SOL    HW2 5472   1.625   2.047   2.018
 1525SOL     OW 5473   6.805   2.591   0.098
 1525SOL    HW1 5474   6.831   2.617   0.191
 1525SOL    HW2 5475   6.833   2.497   0.081
 1526SOL     OW 5476   0.786   7.020   6.758
 1526SOL    HW1 5477   0.819   6.927   6.741
 1526SOL    HW2 5478   0.790   0.048   6.673
 1527SOL     OW 5479   3.853   0.704   5.826
 1527SOL    HW1 5480   3.779   0.769   5.810
 1527SOL    HW2 5481   3.939   0.753   5.837
 1528SOL     OW 5482   5.000   5.808   2.646
 1528SOL    HW1 5483   4.950   5.755   2.578
 1528SOL    HW2 5484   5.084   5.761   2.670
 1529SOL     OW 5485   4.219   0.178   0.489
 1529SOL    HW1 5486   4.163   0.166   0.571
 1529SOL    HW2 5487   4.316   0.176   0.515
 1530SOL     OW 5488   3.256   1.214   2.966
 1530SOL    HW1 5489   3.232   1.299   2.921
 1530SOL    HW2 5490   3.203   1.204   3.050
 1531SOL     OW 5491   5.285   0.956   4.986
 1531SOL    HW1 5492   5.239   0.906   4.913
 1531SOL    HW2 5493   5.279   1.054   4.969
 1532SOL     OW 5494   2.799   3.760   5.804
 1532SOL    HW1 5495   2.721   3.774   5.865
 1532SOL    HW2 5496   2.884   3.787   5.851
 1533SOL     OW 5497   6.779   3.241   0.138
 1533SOL    HW1 5498   6.725   3.266   0.219
 1533SOL    HW2 5499   6.872   3.218   0.166
 1534SOL     OW 5500   1.725   5.058   6.604
 1534SOL    HW1 5501   1.817   5.093   6.627
 1534SOL    HW2 5502   1.709   5.069   6.506
 1535SOL     OW 5503   4.714   6.086   4.788
 1535SOL    HW1 5504   4.690   6.163   4.847
 1535SOL    HW2 5505   4.787   6.114   4.725
 1536SOL     OW 5506   4.164   4.223   5.284
 1536SOL    HW1 5507   4.192   4.128   5.272
 1536SOL    HW2 5508   4.208   4.280   5.214
 1537SOL     OW 5509   3.850   6.209   3.496
 1537SOL    HW1 5510   3.809   6.127   3.537
 1537SOL    HW2 5511   3.786   6.285   3.504
 1538SOL     OW 5512   3.700   5.835   5.418
 1538SOL    HW1 5513   3.702   5.795   5.509
 1538SOL    HW2 5514   3.743   5.926   5.421
 1539SOL     OW 5515   4.284   3.650   1.791
 1539SOL    HW1 5516   4.346   3.573   1.796
 1539SOL    HW2 5517   4.288   3.691   1.700
 1540SOL     OW 5518   1.937   6.527   6.098
 1540SOL    HW1 5519   1.903   6.434   6.082
 1540SOL    HW2 5520   1.868   6.578   6.150
 1541SOL     OW 5521   3.436   2.962   2.469
 1541SOL    HW1 5522   3.338   2.979   2.481
 1541SOL    HW2 5523   3.479   2.958   2.559
 1542SOL     OW 5524   6.655   5.976   1.411
 1542SOL    HW1 5525   6.594   5.972   1.332
 1542SOL    HW2 5526   6.675   6.071   1.433
 1543SOL     OW 5527   3.305   3.780   4.506
 1543SOL    HW1 5528   3.260   3.707   4.454
 1543SOL    HW2 5529   3.253   3.798   4.590
 1544SOL     OW 5530   3.440   3.840   2.334
 1544SOL    HW1 5531   3.355   3.789   2.318
 1544SOL    HW2 5532   3.419   3.937   2.350
 1545SOL     OW 5533   5.463   0.991   4.418
 1545SOL    HW1 5534   5.491   0.922   4.484
 1545SOL    HW2 5535   5.465   0.951   4.326
 1546SOL     OW 5536   4.870   6.584   6.238
 1546SOL    HW1 5537   4.811   6.627   6.307
 1546SOL    HW2 5538   4.903   6.496   6.273
 1547SOL     OW 5539   1.809   4.073   3.038
 1547SOL    HW1 5540   1.764   4.162   3.028
 1547SOL    HW2 5541   1.831   4.036   2.948
 1548SOL     OW 5542   4.623   4.250   5.639
 1548SOL    HW1 5543   4.620   4.155   5.607
 1548SOL    HW2 5544   4.545   4.300   5.600
 1549SOL     OW 5545   4.301   1.057   2.807
 1549SOL    HW1 5546   4.263   1.014   2.725
 1549SOL    HW2 5547   4.306   0.990   2.881
 1550SOL     OW 5548   2.778   4.834   6.013
 1550SOL    HW1 5549   2.766   4.881   5.925
 1550SOL    HW2 5550   2.842   4.758   6.001
 1551SOL     OW 5551   2.420   3.923   6.868
 1551SOL    HW1 5552   2.397   3.978   6.949
 1551SOL    HW2 5553   2.463   3.982   6.800
 1552SOL     OW 5554   0.540   0.105   1.261
 1552SOL    HW1 5555   0.462   0.124   1.201
 1552SOL    HW2 5556   0.574   0.191   1.300
 1553SOL     OW 5557   0.155   0.590   5.765
 1553SOL    HW1 5558   0.102   0.522   5.714
 1553SOL    HW2 5559   0.195   0.546   5.846
 1554SOL     OW 5560   3.827   1.590   3.585
 1554SOL    HW1 5561   3.749   1.642   3.551
 1554SOL    HW2 5562   3.828   1.500   3.542
 1555SOL     OW 5563   5.065   2.227   6.990
 1555SOL    HW1 5564   5.125   2.168   0.019
 1555SOL    HW2 5565   4.970   2.197   7.000
 1556SOL     OW 5566   3.875   0.880   0.565
 1556SOL    HW1 5567   3.795   0.855   0.619
 1556SOL    HW2 5568   3.932   0.943   0.617
 1557SOL     OW 5569   2.365   1.225   6.712
 1557SOL    HW1 5570   2.395   1.308   6.759
 1557SOL    HW2 5571   2.373   1.238   6.613
 1558SOL     OW 5572   5.243   1.199   3.956
 1558SOL    HW1 5573   5.161   1.143   3.947
 1558SOL    HW2 5574   5.271   1.202   4.052
 1559SOL     OW 5575   0.072   2.666   0.169
 1559SOL    HW1 5576   0.063   2.737   0.099
 1559SOL    HW2 5577   7.018   2.668   0.230
 1560SOL     OW 5578   3.277   1.304   5.906
 1560SOL    HW1 5579   3.358   1.273   5.955
 1560SOL    HW2 5580   3.299   1.385   5.852
 1561SOL     OW 5581   6.314   6.479   2.518
 1561SOL    HW1 5582   6.341   6.436   2.432
 1561SOL    HW2 5583   6.214   6.485   2.522
 1562SOL     OW 5584   4.179   6.197   1.206
 1562SOL    HW1 5585   4.271   6.218   1.175
 1562SOL    HW2 5586   4.136   6.131   1.144
 1563SOL     OW 5587   2.502   0.865   5.959
 1563SOL    HW1 5588   2.409   0.896   5.939
 1563SOL    HW2 5589   2.568   0.927   5.916
 1564SOL     OW 5590   1.319   2.669   2.580
 1564SOL    HW1 5591   1.307   2.685   2.678
 1564SOL    HW2 5592   1.385   2.734   2.543
 1565SOL     OW 5593   4.297   5.730   3.828
 1565SOL    HW1 5594   4.241   5.796   3.777
 1565SOL    HW2 5595   4.251   5.641   3.828
 1566SOL     OW 5596   5.611   4.770   4.381
 1566SOL    HW1 5597   5.684   4.801   4.442
 1566SOL    HW2 5598   5.622   4.673   4.363
 1567SOL     OW 5599   6.704   5.995   0.160
 1567SOL    HW1 5600   6.788   5.957   0.121
 1567SOL    HW2 5601   6.637   6.009   0.087
 1568SOL     OW 5602   2.109   6.457   1.735
 1568SOL    HW1 5603   2.103   6.466   1.835
 1568SOL    HW2 5604   2.205   6.466   1.707
 1569SOL     OW 5605   2.821   0.084   3.498
 1569SOL    HW1 5606   2.837   0.080   3.400
 1569SOL    HW2 5607   2.730   0.121   3.516
 1570SOL     OW 5608   2.367   6.720   0.403
 1570SOL    HW1 5609   2.465   6.729   0.385
 1570SOL    HW2 5610   2.346   6.764   0.491
 1571SOL     OW 5611   6.255   1.907   2.701
 1571SOL    HW1 5612   6.193   1.976   2.738
 1571SOL    HW2 5613   6.343   1.949   2.679
 1572SOL     OW 5614   1.451   5.873   0.862
 1572SOL    HW1 5615   1.399   5.799   0.903
 1572SOL    HW2 5616   1.469   5.944   0.930
 1573SOL     OW 5617   6.153   3.997   1.926
 1573SOL    HW1 5618   6.164   3.911   1.877
 1573SOL    HW2 5619   6.221   4.063   1.893
 1574SOL     OW 5620   6.320   1.776   3.811
 1574SOL    HW1 5621   6.283   1.695   3.765
 1574SOL    HW2 5622   6.400   1.809   3.762
 1575SOL     OW 5623   2.301   2.143   1.494
 1575SOL    HW1 5624   2.373   2.179   1.435
 1575SOL    HW2 5625   2.239   2.218   1.519
 1576SOL     OW 5626   1.223   0.597   3.085
 1576SOL    HW1 5627   1.178   0.677   3.044
 1576SOL    HW2 5628   1.155   0.525   3.098
 1577SOL     OW 5629   2.631   0.466   6.014
 1577SOL    HW1 5630   2.550   0.511   5.976
 1577SOL    HW2 5631   2.668   0.402   5.948
 1578SOL     OW 5632   5.889   2.355   5.567
 1578SOL    HW1 5633   5.863   2.403   5.484
 1578SOL    HW2 5634   5.809   2.310   5.606
 1579SOL     OW 5635   0.094   1.894   2.143
 1579SOL    HW1 5636   0.179   1.916   2.191
 1579SOL    HW2 5637   0.090   1.795   2.126
 1580SOL     OW 5638   3.706   3.900   4.114
 1580SOL    HW1 5639   3.675   3.992   4.140
 1580SOL    HW2 5640   3.657   3.832   4.169
 1581SOL     OW 5641   6.045   4.360   4.409
 1581SOL    HW1 5642   6.001   4.270   4.413
 1581SOL    HW2 5643   6.125   4.361   4.468
 1582SOL     OW 5644   1.759   6.431   4.511
 1582SOL    HW1 5645   1.778   6.451   4.415
 1582SOL    HW2 5646   1.735   6.335   4.522
 1583SOL     OW 5647   0.713   5.862   2.817
 1583SOL    HW1 5648   0.761   5.923   2.754
 1583SOL    HW2 5649   0.681   5.782   2.767
 1584SOL     OW 5650   0.724   5.874   6.590
 1584SOL    HW1 5651   0.803   5.901   6.535
 1584SOL    HW2 5652   0.693   5.783   6.561
 1585SOL     OW 5653   4.218   1.884   2.919
 1585SOL    HW1 5654   4.144   1.870   2.854
 1585SOL    HW2 5655   4.222   1.980   2.947
 1586SOL     OW 5656   3.149   4.868   2.018
 1586SOL    HW1 5657   3.205   4.908   2.091
 1586SOL    HW2 5658   3.206   4.808   1.962
 1587SOL     OW 5659   2.571   5.793   5.803
 1587SOL    HW1 5660   2.565   5.730   5.880
 1587SOL    HW2 5661   2.558   5.743   5.717
 1588SOL     OW 5662   4.037   0.912   2.372
 1588SOL    HW1 5663   3.949   0.876   2.402
 1588SOL    HW2 5664   4.067   0.866   2.289
 1589SOL     OW 5665   0.225   3.059   1.922
 1589SOL    HW1 5666   0.217   2.964   1.892
 1589SOL    HW2 5667   0.260   3.115   1.847
 1590SOL     OW 5668   4.263   0.339   4.569
 1590SOL    HW1 5669   4.164   0.335   4.580
 1590SOL    HW2 5670   4.306   0.269   4.626
 1591SOL     OW 5671   0.051   5.295   1.339
 1591SOL    HW1 5672   0.097   5.209   1.363
 1591SOL    HW2 5673   0.020   5.341   1.422
 1592SOL     OW 5674   2.518   4.082   6.675
 1592SOL    HW1 5675   2.613   4.085   6.647
 1592SOL    HW2 5676   2.459   4.107   6.598
 1593SOL     OW 5677   0.936   6.296   5.603
 1593SOL    HW1 5678   0.892   6.377   5.564
 1593SOL    HW2 5679   0.937   6.222   5.535
 1594SOL     OW 5680   1.350   6.615   1.556
 1594SOL    HW1 5681   1.386   6.698   1.514
 1594SOL    HW2 5682   1.384   6.607   1.650
 1595SOL     OW 5683   1.620   5.186   0.707
 1595SOL    HW1 5684   1.591   5.103   0.659
 1595SOL    HW2 5685   1.618   5.263   0.645
 1596SOL     OW 5686   0.504   2.837   3.792
 1596SOL    HW1 5687   0.428   2.820   3.854
 1596SOL    HW2 5688   0.550   2.750   3.770
 1597SOL     OW 5689   1.589   6.160   0.301
 1597SOL    HW1 5690   1.547   6.245   0.269
 1597SOL    HW2 5691   1.689   6.168   0.295
 1598SOL     OW 5692   6.929   4.525   5.385
 1598SOL    HW1 5693   6.999   4.572   5.439
 1598SOL    HW2 5694   6.873   4.593   5.339
 1599SOL     OW 5695   4.804   5.437   4.764
 1599SOL    HW1 5696   4.763   5.380   4.835
 1599SOL    HW2 5697   4.899   5.456   4.786
 1600SOL     OW 5698   3.932   1.349   3.872
 1600SOL    HW1 5699   3.856   1.379   3.815
 1600SOL    HW2 5700   3.917   1.381   3.966
 1601SOL     OW 5701   6.837   6.178   4.257
 1601SOL    HW1 5702   6.855   6.272   4.286
 1601SOL    HW2 5703   6.778   6.133   4.325
 1602SOL     OW 5704   3.581   5.164   4.284
 1602SOL    HW1 5705   3.519   5.088   4.299
 1602SOL    HW2 5706   3.630   5.151   4.197
 1603SOL     OW 5707   1.718   6.554   3.116
 1603SOL    HW1 5708   1.696   6.482   3.051
 1603SOL    HW2 5709   1.714   6.518   3.209
 1604SOL     OW 5710   5.310   4.091   0.732
 1604SOL    HW1 5711   5.249   4.107   0.655
 1604SOL    HW2 5712   5.332   4.179   0.776
 1605SOL     OW 5713   6.353   5.367   1.352
 1605SOL    HW1 5714   6.443   5.367   1.398
 1605SOL    HW2 5715   6.312   5.457   1.361
 1606SOL     OW 5716   3.558   6.815   5.671
 1606SOL    HW1 5717   3.636   6.802   5.611
 1606SOL    HW2 5718   3.473   6.802   5.620
 1607SOL     OW 5719   4.555   1.394   0.618
 1607SOL    HW1 5720   4.622   1.330   0.655
 1607SOL    HW2 5721   4.573   1.485   0.654
 1608SOL     OW 5722   0.433   0.912   3.689
 1608SOL    HW1 5723   0.339   0.940   3.710
 1608SOL    HW2 5724   0.445   0.906   3.590
 1609SOL     OW 5725   4.806   0.011   0.002
 1609SOL    HW1 5726   4.716   0.031   0.040
 1609SOL    HW2 5727   4.854   0.096   7.006
 1610SOL     OW 5728   6.137   4.450   6.801
 1610SOL    HW1 5729   6.194   4.456   6.882
 1610SOL    HW2 5730   6.051   4.404   6.824
 1611SOL     OW 5731   2.455   3.941   0.332
 1611SOL    HW1 5732   2.499   3.851   0.326
 1611SOL    HW2 5733   2.369   3.940   0.281
 1612SOL     OW 5734   2.920   0.248   0.483
 1612SOL    HW1 5735   2.975   0.195   0.418
 1612SOL    HW2 5736   2.833   0.202   0.498
 1613SOL     OW 5737   1.535   5.798   2.412
 1613SOL    HW1 5738   1.611   5.830   2.355
 1613SOL    HW2 5739   1.463   5.868   2.414
 1614SOL     OW 5740   5.080   2.756   6.600
 1614SOL    HW1 5741   4.995   2.800   6.570
 1614SOL    HW2 5742   5.084   2.756   6.700
 1615SOL     OW 5743   6.079   5.555   0.512
 1615SOL    HW1 5744   6.056   5.458   0.511
 1615SOL    HW2 5745   6.170   5.569   0.473
 1616SOL     OW 5746   3.511   1.134   5.144
 1616SOL    HW1 5747   3.428   1.079   5.149
 1616SOL    HW2 5748   3.494   1.224   5.185
 1617SOL     OW 5749   5.667   6.685   2.646
 1617SOL    HW1 5750   5.766   6.681   2.659
 1617SOL    HW2 5751   5.629   6.760   2.700
 1618SOL     OW 5752   1.184   5.860   2.690
 1618SOL    HW1 5753   1.175   5.761   2.683
 1618SOL    HW2 5754   1.260   5.890   2.633
 1619SOL     OW 5755   0.831   4.006   1.561
 1619SOL    HW1 5756   0.817   3.909   1.582
 1619SOL    HW2 5757   0.791   4.027   1.472
 1620SOL     OW 5758   2.698   4.630   1.739
 1620SOL    HW1 5759   2.782   4.648   1.686
 1620SOL    HW2 5760   2.722   4.616   1.835
 1621SOL     OW 5761   6.601   1.172   0.627
 1621SOL    HW1 5762   6.588   1.073   0.630
 1621SOL    HW2 5763   6.691   1.195   0.663
 1622SOL     OW 5764   0.548   2.927   4.913
 1622SOL    HW1 5765   0.581   2.851   4.857
 1622SOL    HW2 5766   0.449   2.921   4.922
 1623SOL     OW 5767   1.883   2.905   4.876
 1623SOL    HW1 5768   1.885   3.005   4.879
 1623SOL    HW2 5769   1.853   2.875   4.786
 1624SOL     OW 5770   3.319   1.526   5.471
 1624SOL    HW1 5771   3.363   1.614   5.453
 1624SOL    HW2 5772   3.369   1.478   5.544
 1625SOL     OW 5773   1.640   4.799   0.447
 1625SOL    HW1 5774   1.704   4.875   0.436
 1625SOL    HW2 5775   1.552   4.835   0.479
 1626SOL     OW 5776   4.340   1.332   0.208
 1626SOL    HW1 5777   4.251   1.365   0.239
 1626SOL    HW2 5778   4.412   1.393   0.239
 1627SOL     OW 5779   6.282   2.955   3.554
 1627SOL    HW1 5780   6.250   3.048   3.574
 1627SOL    HW2 5781   6.216   2.888   3.587
 1628SOL     OW 5782   4.728   4.624   0.391
 1628SOL    HW1 5783   4.676   4.604   0.308
 1628SOL    HW2 5784   4.666   4.655   0.463
 1629SOL     OW 5785   3.097   1.015   3.895
 1629SOL    HW1 5786   3.148   0.994   3.811
 1629SOL    HW2 5787   3.154   0.994   3.974
 1630SOL     OW 5788   0.993   4.723   6.023
 1630SOL    HW1 5789   1.086   4.760   6.031
 1630SOL    HW2 5790   0.948   4.762   5.943
 1631SOL     OW 5791   1.030   3.026   0.454
 1631SOL    HW1 5792   1.072   3.048   0.366
 1631SOL    HW2 5793   0.969   3.100   0.482
 1632SOL     OW 5794   5.895   2.361   0.837
 1632SOL    HW1 5795   5.800   2.387   0.825
 1632SOL    HW2 5796   5.900   2.267   0.872
 1633SOL     OW 5797   5.438   4.127   4.592
 1633SOL    HW1 5798   5.432   4.195   4.665
 1633SOL    HW2 5799   5.499   4.053   4.620
 1634SOL     OW 5800   4.204   5.893   4.125
 1634SOL    HW1 5801   4.249   5.830   4.061
 1634SOL    HW2 5802   4.201   5.985   4.085
 1635SOL     OW 5803   0.220   4.805   6.922
 1635SOL    HW1 5804   0.149   4.859   6.967
 1635SOL    HW2 5805   0.305   4.857   6.920
 1636SOL     OW 5806   2.868   4.634   1.461
 1636SOL    HW1 5807   2.777   4.617   1.424
 1636SOL    HW2 5808   2.895   4.559   1.520
 1637SOL     OW 5809   0.571   0.878   2.999
 1637SOL    HW1 5810   0.616   0.801   2.953
 1637SOL    HW2 5811   0.481   0.850   3.031
 1638SOL     OW 5812   6.836   4.609   3.645
 1638SOL    HW1 5813   6.782   4.682   3.603
 1638SOL    HW2 5814   6.874   4.641   3.731
 1639SOL     OW 5815   5.069   6.539   2.066
 1639SOL    HW1 5816   5.042   6.444   2.082
 1639SOL    HW2 5817   5.022   6.599   2.131
 1640SOL     OW 5818   6.050   0.201   0.002
 1640SOL    HW1 5819   6.144   0.213   0.035
 1640SOL    HW2 5820   5.987   0.202   0.079
 1641SOL     OW 5821   4.515   1.494   3.115
 1641SOL    HW1 5822   4.464   1.469   3.197
 1641SOL    HW2 5823   4.462   1.560   3.062
 1642SOL     OW 5824   6.886   3.683   6.388
 1642SOL    HW1 5825   6.850   3.759   6.334
 1642SOL    HW2 5826   6.983   3.700   6.407
 1643SOL     OW 5827   2.832   5.112   4.741
 1643SOL    HW1 5828   2.849   5.014   4.727
 1643SOL    HW2 5829   2.827   5.131   4.839
 1644SOL     OW 5830   5.943   3.646   6.902
 1644SOL    HW1 5831   5.928   3.712   6.828
 1644SOL    HW2 5832   5.858   3.597   6.922
 1645SOL     OW 5833   2.943   5.174   6.646
 1645SOL    HW1 5834   3.014   5.214   6.588
 1645SOL    HW2 5835   2.983   5.099   6.700
 1646SOL     OW 5836   2.873   6.908   0.021
 1646SOL    HW1 5837   2.856   6.892   6.949
 1646SOL    HW2 5838   2.788   6.937   0.065
 1647SOL     OW 5839   5.915   3.312   4.082
 1647SOL    HW1 5840   5.974   3.231   4.076
 1647SOL    HW2 5841   5.824   3.290   4.048
 1648SOL     OW 5842   5.450   5.443   0.527
 1648SOL    HW1 5843   5.406   5.360   0.494
 1648SOL    HW2 5844   5.549   5.430   0.530
 1649SOL     OW 5845   3.368   1.497   3.913
 1649SOL    HW1 5846   3.351   1.595   3.921
 1649SOL    HW2 5847   3.299   1.445   3.963
 1650SOL     OW 5848   1.490   6.290   5.701
 1650SOL    HW1 5849   1.520   6.278   5.796
 1650SOL    HW2 5850   1.391   6.303   5.699
 1651SOL     OW 5851   0.271   1.794   1.692
 1651SOL    HW1 5852   0.209   1.761   1.622
 1651SOL    HW2 5853   0.264   1.894   1.698
 1652SOL     OW 5854   1.182   3.362   2.335
 1652SOL    HW1 5855   1.153   3.369   2.239
 1652SOL    HW2 5856   1.259   3.424   2.351
 1653SOL     OW 5857   0.580   6.860   0.349
 1653SOL    HW1 5858   0.599   6.954   0.378
 1653SOL    HW2 5859   0.492   6.831   0.385
 1654SOL     OW 5860   0.281   3.452   1.617
 1654SOL    HW1 5861   0.316   3.435   1.525
 1654SOL    HW2 5862   0.323   3.535   1.654
 1655SOL     OW 5863   0.645   2.284   4.831
 1655SOL    HW1 5864   0.621   2.262   4.926
 1655SOL    HW2 5865   0.610   2.212   4.771
 1656SOL     OW 5866   2.394   4.507   2.530
 1656SOL    HW1 5867   2.407   4.606   2.522
 1656SOL    HW2 5868   2.480   4.460   2.508
 1657SOL     OW 5869   6.856   1.027   4.198
 1657SOL    HW1 5870   6.768   1.037   4.152
 1657SOL    HW2 5871   6.888   1.117   4.229
 1658SOL     OW 5872   0.116   6.571   1.240
 1658SOL    HW1 5873   0.136   6.483   1.195
 1658SOL    HW2 5874   0.202   6.615   1.267
 1659SOL     OW 5875   3.906   6.925   6.914
 1659SOL    HW1 5876   3.881   6.913   7.010
 1659SOL    HW2 5877   3.932   6.837   6.875
 1660SOL     OW 5878   1.496   5.752   3.472
 1660SOL    HW1 5879   1.469   5.694   3.395
 1660SOL    HW2 5880   1.527   5.694   3.548
 1661SOL     OW 5881   3.453   7.021   0.919
 1661SOL    HW1 5882   3.430   0.089   0.888
 1661SOL    HW2 5883   3.542   7.023   0.966
 1662SOL     OW 5884   6.823   0.467   4.141
 1662SOL    HW1 5885   6.842   0.425   4.052
 1662SOL    HW2 5886   6.778   0.400   4.200
 1663SOL     OW 5887   4.173   6.571   3.425
 1663SOL    HW1 5888   4.237   6.591   3.499
 1663SOL    HW2 5889   4.197   6.626   3.345
 1664SOL     OW 5890   1.975   6.277   5.031
 1664SOL    HW1 5891   2.034   6.303   4.955
 1664SOL    HW2 5892   2.028   6.279   5.116
 1665SOL     OW 5893   0.287   2.487   2.540
 1665SOL    HW1 5894   0.336   2.457   2.458
 1665SOL    HW2 5895   0.267   2.585   2.533
 1666SOL     OW 5896   5.865   1.776   6.522
 1666SOL    HW1 5897   5.859   1.791   6.621
 1666SOL    HW2 5898   5.782   1.729   6.491
 1667SOL     OW 5899   0.003   6.147   0.894
 1667SOL    HW1 5900   0.066   6.223   0.878
 1667SOL    HW2 5901   6.966   6.137   0.816
 1668SOL     OW 5902   5.286   6.563   3.944
 1668SOL    HW1 5903   5.280   6.570   3.845
 1668SOL    HW2 5904   5.210   6.509   3.979
 1669SOL     OW 5905   6.889   5.212   6.645
 1669SOL    HW1 5906   6.920   5.179   6.735
 1669SOL    HW2 5907   6.824   5.147   6.606
 1670SOL     OW 5908   0.204   4.027   5.782
 1670SOL    HW1 5909   0.158   3.964   5.719
 1670SOL    HW2 5910   0.236   3.976   5.862
 1671SOL     OW 5911   5.746   1.314   2.900
 1671SOL    HW1 5912   5.708   1.241   2.843
 1671SOL    HW2 5913   5.843   1.327   2.878
 1672SOL     OW 5914   1.249   2.535   0.763
 1672SOL    HW1 5915   1.304   2.500   0.839
 1672SOL    HW2 5916   1.297   2.611   0.719
 1673SOL     OW 5917   1.247   1.135   4.989
 1673SOL    HW1 5918   1.279   1.119   4.895
 1673SOL    HW2 5919   1.147   1.136   4.991
 1674SOL     OW 5920   0.866   3.083   2.468
 1674SOL    HW1 5921   0.807   3.027   2.410
 1674SOL    HW2 5922   0.832   3.177   2.468
 1675SOL     OW 5923   5.761   0.051   0.643
 1675SOL    HW1 5924   5.834   0.002   0.596
 1675SOL    HW2 5925   5.797   0.135   0.684
 1676SOL     OW 5926   2.043   2.724   1.900
 1676SOL    HW1 5927   2.081   2.735   1.808
 1676SOL    HW2 5928   2.087   2.647   1.946
 1677SOL     OW 5929   3.641   3.521   4.215
 1677SOL    HW1 5930   3.601   3.584   4.283
 1677SOL    HW2 5931   3.575   3.449   4.194
 1678SOL     OW 5932   5.534   4.353   3.415
 1678SOL    HW1 5933   5.527   4.294   3.334
 1678SOL    HW2 5934   5.555   4.447   3.386
 1679SOL     OW 5935   2.502   2.473   4.464
 1679SOL    HW1 5936   2.461   2.534   4.396
 1679SOL    HW2 5937   2.526   2.526   4.546
 1680SOL     OW 5938   6.783   2.806   5.148
 1680SOL    HW1 5939   6.764   2.730   5.085
 1680SOL    HW2 5940   6.799   2.889   5.095
 1681SOL     OW 5941   6.904   5.511   6.855
 1681SOL    HW1 5942   6.840   5.587   6.862
 1681SOL    HW2 5943   6.895   5.469   6.765
 1682SOL     OW 5944   1.853   0.727   5.048
 1682SOL    HW1 5945   1.811   0.669   5.118
 1682SOL    HW2 5946   1.831   0.692   4.957
 1683SOL     OW 5947   4.552   4.602   1.666
 1683SOL    HW1 5948   4.588   4.672   1.604
 1683SOL    HW2 5949   4.458   4.626   1.691
 1684SOL     OW 5950   1.409   6.175   2.065
 1684SOL    HW1 5951   1.421   6.085   2.106
 1684SOL    HW2 5952   1.350   6.231   2.123
 1685SOL     OW 5953   2.567   1.232   4.967
 1685SOL    HW1 5954   2.626   1.312   4.978
 1685SOL    HW2 5955   2.623   1.152   4.948
 1686SOL     OW 5956   2.506   6.084   4.450
 1686SOL    HW1 5957   2.487   6.000   4.499
 1686SOL    HW2 5958   2.459   6.083   4.361
 1687SOL     OW 5959   2.161   3.145   1.848
 1687SOL    HW1 5960   2.206   3.235   1.850
 1687SOL    HW2 5961   2.077   3.152   1.793
 1688SOL     OW 5962   2.297   2.551   4.267
 1688SOL    HW1 5963   2.233   2.627   4.283
 1688SOL    HW2 5964   2.246   2.468   4.245
 1689SOL     OW 5965   5.957   1.589   2.631
 1689SOL    HW1 5966   6.045   1.630   2.657
 1689SOL    HW2 5967   5.973   1.503   2.583
 1690SOL     OW 5968   1.795   2.642   4.271
 1690SOL    HW1 5969   1.811   2.598   4.183
 1690SOL    HW2 5970   1.788   2.573   4.343
 1691SOL     OW 5971   5.939   3.802   3.352
 1691SOL    HW1 5972   5.948   3.703   3.363
 1691SOL    HW2 5973   5.910   3.843   3.438
 1692SOL     OW 5974   5.188   6.469   1.582
 1692SOL    HW1 5975   5.140   6.506   1.503
 1692SOL    HW2 5976   5.245   6.541   1.622
 1693SOL     OW 5977   6.750   1.897   2.408
 1693SOL    HW1 5978   6.793   1.916   2.496
 1693SOL    HW2 5979   6.807   1.832   2.357
 1694SOL     OW 5980   5.465   1.280   2.517
 1694SOL    HW1 5981   5.378   1.306   2.560
 1694SOL    HW2 5982   5.516   1.220   2.579
 1695SOL     OW 5983   4.086   0.682   6.152
 1695SOL    HW1 5984   4.160   0.747   6.137
 1695SOL    HW2 5985   4.063   0.679   6.249
 1696SOL     OW 5986   4.124   5.115   1.041
 1696SOL    HW1 5987   4.155   5.077   0.954
 1696SOL    HW2 5988   4.100   5.211   1.029
 1697SOL     OW 5989   5.936   0.950   0.597
 1697SOL    HW1 5990   5.923   0.853   0.619
 1697SOL    HW2 5991   6.033   0.973   0.599
 1698SOL     OW 5992   3.572   6.984   0.142
 1698SOL    HW1 5993   3.650   7.002   0.202
 1698SOL    HW2 5994   3.606   6.950   0.054
 1699SOL     OW 5995   2.132   1.348   6.728
 1699SOL    HW1 5996   2.125   1.365   6.827
 1699SOL    HW2 5997   2.215   1.296   6.710
 1700SOL     OW 5998   6.367   3.598   3.707
 1700SOL    HW1 5999   6.358   3.666   3.635
 1700SOL    HW2 6000   6.449   3.543   3.690
 1701SOL     OW 6001   4.896   4.327   5.909
 1701SOL    HW1 6002   4.978   4.363   5.954
 1701SOL    HW2 6003   4.913   4.232   5.881
 1702SOL     OW 6004   6.355   1.397   0.379
 1702SOL    HW1 6005   6.367   1.459   0.456
 1702SOL    HW2 6006   6.435   1.337   0.372
 1703SOL     OW 6007   3.424   2.865   0.979
 1703SOL    HW1 6008   3.349   2.930   0.967
 1703SOL    HW2 6009   3.409   2.785   0.921
 1704SOL     OW 6010   0.970   2.071   1.242
 1704SOL    HW1 6011   1.069   2.064   1.256
 1704SOL    HW2 6012   0.925   2.085   1.330
 1705SOL     OW 6013   2.985   1.893   2.321
 1705SOL    HW1 6014   2.887   1.875   2.322
 1705SOL    HW2 6015   3.004   1.969   2.260
 1706SOL     OW 6016   5.062   1.331   2.113
 1706SOL    HW1 6017   5.107   1.420   2.108
 1706SOL    HW2 6018   5.115   1.270   2.172
 1707SOL     OW 6019   4.717   1.743   1.796
 1707SOL    HW1 6020   4.695   1.699   1.883
 1707SOL    HW2 6021   4.795   1.804   1.809
 1708SOL     OW 6022   4.773   5.538   2.175
 1708SOL    HW1 6023   4.747   5.468   2.109
 1708SOL    HW2 6024   4.754   5.506   2.267
 1709SOL     OW 6025   3.148   6.228   2.391
 1709SOL    HW1 6026   3.124   6.227   2.294
 1709SOL    HW2 6027   3.224   6.292   2.406
 1710SOL     OW 6028   5.096   4.661   3.961
 1710SOL    HW1 6029   5.035   4.618   3.895
 1710SOL    HW2 6030   5.187   4.671   3.920
 1711SOL     OW 6031   1.664   4.266   4.379
 1711SOL    HW1 6032   1.633   4.190   4.436
 1711SOL    HW2 6033   1.764   4.268   4.376
 1712SOL     OW 6034   6.370   2.192   4.883
 1712SOL    HW1 6035   6.309   2.115   4.864
 1712SOL    HW2 6036   6.459   2.176   4.842
 1713SOL     OW 6037   4.674   2.378   1.295
 1713SOL    HW1 6038   4.577   2.383   1.269
 1713SOL    HW2 6039   4.725   2.329   1.225
 1714SOL     OW 6040   3.632   0.900   5.826
 1714SOL    HW1 6041   3.641   0.939   5.918
 1714SOL    HW2 6042   3.662   0.968   5.759
 1715SOL     OW 6043   0.734   5.305   3.029
 1715SOL    HW1 6044   0.738   5.209   3.057
 1715SOL    HW2 6045   0.675   5.355   3.092
 1716SOL     OW 6046   5.171   6.996   3.163
 1716SOL    HW1 6047   5.256   0.006   3.203
 1716SOL    HW2 6048   5.121   6.943   3.231
 1717SOL     OW 6049   2.703   6.294   6.487
 1717SOL    HW1 6050   2.666   6.236   6.415
 1717SOL    HW2 6051   2.748   6.373   6.447
 1718SOL     OW 6052   2.264   1.536   1.601
 1718SOL    HW1 6053   2.166   1.558   1.604
 1718SOL    HW2 6054   2.280   1.450   1.649
 1719SOL     OW 6055   2.212   2.950   1.178
 1719SOL    HW1 6056   2.169   2.866   1.144
 1719SOL    HW2 6057   2.217   2.946   1.278
 1720SOL     OW 6058   7.023   3.097   0.219
 1720SOL    HW1 6059   0.096   3.119   0.213
 1720SOL    HW2 6060   7.002   3.063   0.311
 1721SOL     OW 6061   1.637   6.832   1.776
 1721SOL    HW1 6062   1.711   6.820   1.842
 1721SOL    HW2 6063   1.674   6.829   1.683
 1722SOL     OW 6064   3.405   1.307   3.387
 1722SOL    HW1 6065   3.321   1.329   3.337
 1722SOL    HW2 6066   3.381   1.270   3.477
 1723SOL     OW 6067   5.621   2.347   2.290
 1723SOL    HW1 6068   5.604   2.420   2.223
 1723SOL    HW2 6069   5.633   2.260   2.243
 1724SOL     OW 6070   6.699   2.674   1.698
 1724SOL    HW1 6071   6.695   2.764   1.739
 1724SOL    HW2 6072   6.649   2.674   1.611
 1725SOL     OW 6073   2.265   5.015   6.495
 1725SOL    HW1 6074   2.188   4.954   6.480
 1725SOL    HW2 6075   2.327   4.975   6.562
 1726SOL     OW 6076   6.678   4.626   4.925
 1726SOL    HW1 6077   6.687   4.527   4.912
 1726SOL    HW2 6078   6.692   4.672   4.837
 1727SOL     OW 6079   3.456   2.895   3.924
 1727SOL    HW1 6080   3.357   2.913   3.928
 1727SOL    HW2 6081   3.477   2.843   3.841
 1728SOL     OW 6082   5.002   5.099   4.530
 1728SOL    HW1 6083   4.925   5.162   4.520
 1728SOL    HW2 6084   4.987   5.019   4.471
 1729SOL     OW 6085   2.081   4.410   3.043
 1729SOL    HW1 6086   2.094   4.447   2.951
 1729SOL    HW2 6087   1.984   4.408   3.064
 1730SOL     OW 6088   1.223   6.457   5.931
 1730SOL    HW1 6089   1.151   6.526   5.923
 1730SOL    HW2 6090   1.182   6.366   5.937
 1731SOL     OW 6091   0.055   3.882   3.288
 1731SOL    HW1 6092   0.145   3.843   3.272
 1731SOL    HW2 6093   0.047   3.910   3.384
 1732SOL     OW 6094   2.626   5.304   5.269
 1732SOL    HW1 6095   2.552   5.351   5.316
 1732SOL    HW2 6096   2.599   5.283   5.175
 1733SOL     OW 6097   1.686   4.890   1.965
 1733SOL    HW1 6098   1.710   4.960   1.898
 1733SOL    HW2 6099   1.613   4.833   1.928
 1734SOL     OW 6100   4.888   3.459   1.337
 1734SOL    HW1 6101   4.842   3.450   1.425
 1734SOL    HW2 6102   4.866   3.379   1.280
 1735SOL     OW 6103   4.830   5.477   0.572
 1735SOL    HW1 6104   4.877   5.476   0.484
 1735SOL    HW2 6105   4.748   5.534   0.565
 1736SOL     OW 6106   3.528   3.741   0.601
 1736SOL    HW1 6107   3.585   3.730   0.520
 1736SOL    HW2 6108   3.469   3.821   0.589
 1737SOL     OW 6109   3.597   1.465   4.271
 1737SOL    HW1 6110   3.672   1.455   4.206
 1737SOL    HW2 6111   3.598   1.389   4.336
 1738SOL     OW 6112   1.385   2.924   4.309
 1738SOL    HW1 6113   1.480   2.951   4.294
 1738SOL    HW2 6114   1.324   3.000   4.285
 1739SOL     OW 6115   0.136   1.886   5.108
 1739SOL    HW1 6116   0.124   1.981   5.082
 1739SOL    HW2 6117   0.068   1.862   5.178
 1740SOL     OW 6118   0.142   2.185   5.792
 1740SOL    HW1 6119   0.058   2.233   5.765
 1740SOL    HW2 6120   0.179   2.135   5.713
 1741SOL     OW 6121   2.141   0.511   3.937
 1741SOL    HW1 6122   2.234   0.478   3.924
 1741SOL    HW2 6123   2.122   0.521   4.034
 1742SOL     OW 6124   5.551   0.805   6.551
 1742SOL    HW1 6125   5.465   0.850   6.529
 1742SOL    HW2 6126   5.600   0.785   6.466
 1743SOL     OW 6127   0.622   2.183   1.983
 1743SOL    HW1 6128   0.631   2.099   1.929
 1743SOL    HW2 6129   0.683   2.253   1.945
 1744SOL     OW 6130   6.337   2.488   3.448
 1744SOL    HW1 6131   6.244   2.494   3.483
 1744SOL    HW2 6132   6.341   2.528   3.356
 1745SOL     OW 6133   5.701   5.446   2.337
 1745SOL    HW1 6134   5.678   5.357   2.376
 1745SOL    HW2 6135   5.645   5.462   2.255
 1746SOL     OW 6136   1.652   3.995   4.569
 1746SOL    HW1 6137   1.591   3.950   4.504
 1746SOL    HW2 6138   1.639   3.956   4.660
 1747SOL     OW 6139   4.736   1.157   3.378
 1747SOL    HW1 6140   4.662   1.154   3.311
 1747SOL    HW2 6141   4.771   1.065   3.393
 1748SOL     OW 6142   0.725   0.956   5.188
 1748SOL    HW1 6143   0.717   0.886   5.259
 1748SOL    HW2 6144   0.661   1.031   5.207
 1749SOL     OW 6145   2.137   6.810   5.127
 1749SOL    HW1 6146   2.081   6.868   5.068
 1749SOL    HW2 6147   2.140   6.717   5.089
 1750SOL     OW 6148   4.983   6.302   4.358
 1750SOL    HW1 6149   4.950   6.348   4.276
 1750SOL    HW2 6150   5.077   6.270   4.342
 1751SOL     OW 6151   3.884   6.857   4.590
 1751SOL    HW1 6152   3.820   6.846   4.515
 1751SOL    HW2 6153   3.838   6.900   4.668
 1752SOL     OW 6154   6.482   1.874   2.368
 1752SOL    HW1 6155   6.452   1.955   2.317
 1752SOL    HW2 6156   6.581   1.873   2.374
 1753SOL     OW 6157   6.376   1.223   1.314
 1753SOL    HW1 6158   6.295   1.167   1.334
 1753SOL    HW2 6159   6.457   1.181   1.355
 1754SOL     OW 6160   1.620   4.499   6.984
 1754SOL    HW1 6161   1.600   4.423   6.922
 1754SOL    HW2 6162   1.564   4.490   0.041
 1755SOL     OW 6163   6.885   6.233   1.600
 1755SOL    HW1 6164   6.942   6.163   1.556
 1755SOL    HW2 6165   6.808   6.255   1.541
 1756SOL     OW 6166   4.520   5.346   5.716
 1756SOL    HW1 6167   4.544   5.430   5.667
 1756SOL    HW2 6168   4.524   5.362   5.814
 1757SOL     OW 6169   2.422   4.974   4.607
 1757SOL    HW1 6170   2.481   4.985   4.687
 1757SOL    HW2 6171   2.473   5.000   4.525
 1758SOL     OW 6172   2.375   0.334   4.361
 1758SOL    HW1 6173   2.417   0.306   4.275
 1758SOL    HW2 6174   2.365   0.254   4.420
 1759SOL     OW 6175   1.443   6.280   5.209
 1759SOL    HW1 6176   1.441   6.312   5.304
 1759SOL    HW2 6177   1.537   6.261   5.182
 1760SOL     OW 6178   5.312   1.324   2.828
 1760SOL    HW1 6179   5.290   1.410   2.782
 1760SOL    HW2 6180   5.380   1.341   2.899
 1761SOL     OW 6181   0.064   0.764   1.202
 1761SOL    HW1 6182   0.043   0.666   1.198
 1761SOL    HW2 6183   0.145   0.778   1.259
 1762SOL     OW 6184   0.497   1.036   4.476
 1762SOL    HW1 6185   0.434   0.971   4.520
 1762SOL    HW2 6186   0.574   0.986   4.438
 1763SOL     OW 6187   1.143   4.211   4.129
 1763SOL    HW1 6188   1.053   4.251   4.115
 1763SOL    HW2 6189   1.196   4.215   4.044
 1764SOL     OW 6190   2.092   3.298   2.215
 1764SOL    HW1 6191   2.018   3.341   2.163
 1764SOL    HW2 6192   2.165   3.365   2.231
 1765SOL     OW 6193   3.708   0.772   1.405
 1765SOL    HW1 6194   3.772   0.770   1.483
 1765SOL    HW2 6195   3.689   0.679   1.376
 1766SOL     OW 6196   5.037   4.630   2.785
 1766SOL    HW1 6197   4.974   4.553   2.782
 1766SOL    HW2 6198   5.122   4.606   2.736
 1767SOL     OW 6199   0.582   3.896   2.352
 1767SOL    HW1 6200   0.572   3.816   2.293
 1767SOL    HW2 6201   0.492   3.927   2.382
 1768SOL     OW 6202   3.918   1.474   6.448
 1768SOL    HW1 6203   3.926   1.486   6.547
 1768SOL    HW2 6204   3.890   1.380   6.428
 1769SOL     OW 6205   4.907   1.218   6.596
 1769SOL    HW1 6206   4.880   1.291   6.658
 1769SOL    HW2 6207   4.999   1.236   6.561
 1770SOL     OW 6208   6.806   4.543   4.498
 1770SOL    HW1 6209   6.746   4.500   4.431
 1770SOL    HW2 6210   6.751   4.599   4.561
 1771SOL     OW 6211   2.330   5.688   0.682
 1771SOL    HW1 6212   2.387   5.753   0.733
 1771SOL    HW2 6213   2.329   5.600   0.730
 1772SOL     OW 6214   3.333   7.004   3.512
 1772SOL    HW1 6215   3.409   0.044   3.506
 1772SOL    HW2 6216   3.319   6.977   3.607
 1773SOL     OW 6217   2.594   3.407   6.204
 1773SOL    HW1 6218   2.694   3.399   6.206
 1773SOL    HW2 6219   2.567   3.472   6.133
 1774SOL     OW 6220   4.738   6.705   1.827
 1774SOL    HW1 6221   4.805   6.741   1.763
 1774SOL    HW2 6222   4.771   6.618   1.865
 1775SOL     OW 6223   1.762   5.064   5.308
 1775SOL    HW1 6224   1.828   5.133   5.279
 1775SOL    HW2 6225   1.809   4.979   5.329
 1776SOL     OW 6226   5.130   1.244   6.328
 1776SOL    HW1 6227   5.034   1.257   6.305
 1776SOL    HW2 6228   5.187   1.306   6.274
 1777SOL     OW 6229   3.298   5.806   5.703
 1777SOL    HW1 6230   3.296   5.892   5.755
 1777SOL    HW2 6231   3.212   5.797   5.653
 1778SOL     OW 6232   4.548   1.830   4.596
 1778SOL    HW1 6233   4.517   1.740   4.626
 1778SOL    HW2 6234   4.606   1.870   4.667
 1779SOL     OW 6235   3.875   1.388   4.995
 1779SOL    HW1 6236   3.931   1.328   4.937
 1779SOL    HW2 6237   3.894   1.368   5.091
 1780SOL     OW 6238   2.397   4.008   6.197
 1780SOL    HW1 6239   2.298   4.023   6.199
 1780SOL    HW2 6240   2.437   4.062   6.123
 1781SOL     OW 6241   4.946   5.209   3.778
 1781SOL    HW1 6242   5.027   5.151   3.789
 1781SOL    HW2 6243   4.879   5.187   3.849
 1782SOL     OW 6244   3.041   1.844   3.338
 1782SOL    HW1 6245   2.983   1.912   3.294
 1782SOL    HW2 6246   3.109   1.890   3.396
 1783SOL     OW 6247   2.328   3.358   6.281
 1783SOL    HW1 6248   2.423   3.385   6.270
 1783SOL    HW2 6249   2.269   3.417   6.226
 1784SOL     OW 6250   2.691   1.420   2.106
 1784SOL    HW1 6251   2.726   1.491   2.167
 1784SOL    HW2 6252   2.654   1.463   2.024
 1785SOL     OW 6253   5.826   5.811   3.373
 1785SOL    HW1 6254   5.732   5.838   3.394
 1785SOL    HW2 6255   5.826   5.738   3.305
 1786SOL     OW 6256   1.327   3.476   0.593
 1786SOL    HW1 6257   1.236   3.453   0.627
 1786SOL    HW2 6258   1.319   3.529   0.508
 1787SOL     OW 6259   2.220   1.083   5.472
 1787SOL    HW1 6260   2.262   1.138   5.400
 1787SOL    HW2 6261   2.129   1.118   5.492
 1788SOL     OW 6262   3.703   4.114   0.110
 1788SOL    HW1 6263   3.790   4.080   0.072
 1788SOL    HW2 6264   3.629   4.055   0.080
 1789SOL     OW 6265   5.466   2.739   2.197
 1789SOL    HW1 6266   5.427   2.811   2.140
 1789SOL    HW2 6267   5.535   2.778   2.258
 1790SOL     OW 6268   3.886   0.172   4.729
 1790SOL    HW1 6269   3.819   0.164   4.802
 1790SOL    HW2 6270   3.913   0.081   4.699
 1791SOL     OW 6271   6.821   1.140   4.588
 1791SOL    HW1 6272   6.899   1.082   4.609
 1791SOL    HW2 6273   6.767   1.099   4.515
 1792SOL     OW 6274   0.760   1.008   4.674
 1792SOL    HW1 6275   0.708   1.092   4.656
 1792SOL    HW2 6276   0.719   0.960   4.752
 1793SOL     OW 6277   6.199   0.839   3.871
 1793SOL    HW1 6278   6.139   0.783   3.813
 1793SOL    HW2 6279   6.283   0.861   3.821
 1794SOL     OW 6280   5.044   6.095   6.157
 1794SOL    HW1 6281   5.125   6.153   6.158
 1794SOL    HW2 6282   4.972   6.138   6.104
 1795SOL     OW 6283   6.242   5.049   2.366
 1795SOL    HW1 6284   6.258   5.002   2.453
 1795SOL    HW2 6285   6.153   5.097   2.370
 1796SOL     OW 6286   1.987   0.618   4.663
 1796SOL    HW1 6287   1.935   0.595   4.580
 1796SOL    HW2 6288   2.081   0.641   4.638
 1797SOL     OW 6289   1.274   6.688   5.630
 1797SOL    HW1 6290   1.360   6.665   5.674
 1797SOL    HW2 6291   1.271   6.646   5.539
 1798SOL     OW 6292   4.238   3.038   5.297
 1798SOL    HW1 6293   4.229   3.137   5.285
 1798SOL    HW2 6294   4.327   3.008   5.263
 1799SOL     OW 6295   5.842   2.873   6.405
 1799SOL    HW1 6296   5.927   2.907   6.445
 1799SOL    HW2 6297   5.860   2.841   6.312
 1800SOL     OW 6298   4.952   4.648   3.636
 1800SOL    HW1 6299   5.050   4.663   3.623
 1800SOL    HW2 6300   4.938   4.576   3.703
 1801SOL     OW 6301   1.400   1.645   2.862
 1801SOL    HW1 6302   1.402   1.592   2.947
 1801SOL    HW2 6303   1.326   1.712   2.867
 1802SOL     OW 6304   6.135   6.327   2.895
 1802SOL    HW1 6305   6.229   6.315   2.926
 1802SOL    HW2 6306   6.124   6.417   2.854
 1803SOL     OW 6307   6.996   6.448   2.013
 1803SOL    HW1 6308   6.968   6.530   2.063
 1803SOL    HW2 6309   0.064   6.422   2.042
 1804SOL     OW 6310   3.693   3.366   5.422
 1804SOL    HW1 6311   3.701   3.465   5.412
 1804SOL    HW2 6312   3.772   3.322   5.380
 1805SOL     OW 6313   1.352   4.526   6.177
 1805SOL    HW1 6314   1.304   4.509   6.091
 1805SOL    HW2 6315   1.320   4.462   6.247
 1806SOL     OW 6316   0.943   2.554   1.779
 1806SOL    HW1 6317   0.891   2.584   1.699
 1806SOL    HW2 6318   1.037   2.532   1.752
 1807SOL     OW 6319   6.201   2.171   6.293
 1807SOL    HW1 6320   6.136   2.124   6.234
 1807SOL    HW2 6321   6.189   2.270   6.284
 1808SOL     OW 6322   5.628   4.526   4.260
 1808SOL    HW1 6323   5.530   4.542   4.256
 1808SOL    HW2 6324   5.647   4.446   4.317
 1809SOL     OW 6325   2.378   2.460   4.992
 1809SOL    HW1 6326   2.472   2.433   5.011
 1809SOL    HW2 6327   2.373   2.560   4.984
 1810SOL     OW 6328   1.318   0.099   4.500
 1810SOL    HW1 6329   1.398   0.047   4.532
 1810SOL    HW2 6330   1.282   0.154   4.575
 1811SOL     OW 6331   4.686   4.731   2.847
 1811SOL    HW1 6332   4.728   4.734   2.756
 1811SOL    HW2 6333   4.635   4.646   2.858
 1812SOL     OW 6334   5.006   6.720   6.058
 1812SOL    HW1 6335   4.942   6.677   6.122
 1812SOL    HW2 6336   5.085   6.660   6.044
 1813SOL     OW 6337   5.079   5.186   1.431
 1813SOL    HW1 6338   5.084   5.258   1.361
 1813SOL    HW2 6339   5.041   5.224   1.515
 1814SOL     OW 6340   6.043   0.501   0.837
 1814SOL    HW1 6341   6.036   0.500   0.937
 1814SOL    HW2 6342   6.139   0.504   0.810
 1815SOL     OW 6343   5.907   0.680   3.164
 1815SOL    HW1 6344   5.888   0.625   3.082
 1815SOL    HW2 6345   5.852   0.763   3.162
 1816SOL     OW 6346   2.960   4.913   0.428
 1816SOL    HW1 6347   2.880   4.859   0.402
 1816SOL    HW2 6348   3.018   4.860   0.490
 1817SOL     OW 6349   3.950   0.545   3.377
 1817SOL    HW1 6350   3.917   0.627   3.422
 1817SOL    HW2 6351   3.877   0.505   3.321
 1818SOL     OW 6352   2.154   6.428   1.179
 1818SOL    HW1 6353   2.231   6.466   1.231
 1818SOL    HW2 6354   2.069   6.446   1.228
 1819SOL     OW 6355   1.248   6.783   1.904
 1819SOL    HW1 6356   1.312   6.707   1.891
 1819SOL    HW2 6357   1.216   6.815   1.814
 1820SOL     OW 6358   3.514   0.338   2.611
 1820SOL    HW1 6359   3.542   0.431   2.584
 1820SOL    HW2 6360   3.583   0.273   2.580
 1821SOL     OW 6361   2.721   0.734   1.433
 1821SOL    HW1 6362   2.628   0.701   1.418
 1821SOL    HW2 6363   2.782   0.696   1.363
 1822SOL     OW 6364   0.745   2.660   1.565
 1822SOL    HW1 6365   0.704   2.627   1.480
 1822SOL    HW2 6366   0.674   2.663   1.637
 1823SOL     OW 6367   3.226   6.445   2.945
 1823SOL    HW1 6368   3.260   6.385   2.872
 1823SOL    HW2 6369   3.286   6.439   3.024
 1824SOL     OW 6370   3.965   3.810   0.437
 1824SOL    HW1 6371   3.881   3.848   0.398
 1824SOL    HW2 6372   4.044   3.858   0.398
 1825SOL     OW 6373   1.101   2.560   4.502
 1825SOL    HW1 6374   1.070   2.616   4.578
 1825SOL    HW2 6375   1.117   2.618   4.422
 1826SOL     OW 6376   3.073   1.649   1.784
 1826SOL    HW1 6377   3.140   1.711   1.741
 1826SOL    HW2 6378   2.982   1.669   1.748
 1827SOL     OW 6379   6.530   5.386   1.101
 1827SOL    HW1 6380   6.543   5.299   1.149
 1827SOL    HW2 6381   6.575   5.460   1.151
 1828SOL     OW 6382   1.255   2.606   6.935
 1828SOL    HW1 6383   1.197   2.562   6.867
 1828SOL    HW2 6384   1.344   2.626   6.894
 1829SOL     OW 6385   4.173   0.944   3.202
 1829SOL    HW1 6386   4.246   0.937   3.134
 1829SOL    HW2 6387   4.098   0.884   3.175
 1830SOL     OW 6388   5.718   5.866   4.675
 1830SOL    HW1 6389   5.800   5.916   4.703
 1830SOL    HW2 6390   5.712   5.865   4.576
 1831SOL     OW 6391   5.554   6.184   1.825
 1831SOL    HW1 6392   5.637   6.224   1.785
 1831SOL    HW2 6393   5.473   6.229   1.786
 1832SOL     OW 6394   4.258   1.649   0.474
 1832SOL    HW1 6395   4.305   1.664   0.561
 1832SOL    HW2 6396   4.177   1.592   0.489
 1833SOL     OW 6397   5.348   0.549   2.031
 1833SOL    HW1 6398   5.276   0.599   1.983
 1833SOL    HW2 6399   5.308   0.475   2.085
 1834SOL     OW 6400   1.946   3.807   0.653
 1834SOL    HW1 6401   1.848   3.800   0.633
 1834SOL    HW2 6402   1.999   3.772   0.575
 1835SOL     OW 6403   0.350   4.673   1.876
 1835SOL    HW1 6404   0.366   4.609   1.801
 1835SOL    HW2 6405   0.412   4.651   1.951
 1836SOL     OW 6406   5.599   2.549   1.370
 1836SOL    HW1 6407   5.576   2.534   1.467
 1836SOL    HW2 6408   5.638   2.640   1.360
 1837SOL     OW 6409   0.853   6.537   5.460
 1837SOL    HW1 6410   0.798   6.554   5.378
 1837SOL    HW2 6411   0.904   6.620   5.483
 1838SOL     OW 6412   6.621   0.875   5.195
 1838SOL    HW1 6413   6.715   0.890   5.225
 1838SOL    HW2 6414   6.615   0.891   5.096
 1839SOL     OW 6415   0.531   1.137   5.304
 1839SOL    HW1 6416   0.476   1.163   5.225
 1839SOL    HW2 6417   0.475   1.143   5.387
 1840SOL     OW 6418   4.107   0.033   2.007
 1840SOL    HW1 6419   4.052   7.016   1.934
 1840SOL    HW2 6420   4.055   0.107   2.050
 1841SOL     OW 6421   2.367   1.011   3.276
 1841SOL    HW1 6422   2.387   0.973   3.185
 1841SOL    HW2 6423   2.351   0.936   3.340
 1842SOL     OW 6424   1.599   5.882   1.173
 1842SOL    HW1 6425   1.693   5.901   1.146
 1842SOL    HW2 6426   1.561   5.962   1.220
 1843SOL     OW 6427   6.112   0.519   4.850
 1843SOL    HW1 6428   6.070   0.555   4.767
 1843SOL    HW2 6429   6.120   0.593   4.918
 1844SOL     OW 6430   3.461   6.869   5.278
 1844SOL    HW1 6431   3.448   6.805   5.354
 1844SOL    HW2 6432   3.377   6.873   5.225
 1845SOL     OW 6433   2.444   6.772   4.617
 1845SOL    HW1 6434   2.495   6.829   4.682
 1845SOL    HW2 6435   2.506   6.707   4.574
 1846SOL     OW 6436   3.719   1.277   2.380
 1846SOL    HW1 6437   3.816   1.251   2.382
 1846SOL    HW2 6438   3.693   1.316   2.469
 1847SOL     OW 6439   1.509   6.875   5.589
 1847SOL    HW1 6440   1.477   6.891   5.683
 1847SOL    HW2 6441   1.590   6.931   5.572
 1848SOL     OW 6442   1.987   6.474   2.916
 1848SOL    HW1 6443   2.073   6.461   2.966
 1848SOL    HW2 6444   1.949   6.384   2.892
 1849SOL     OW 6445   4.185   2.764   1.436
 1849SOL    HW1 6446   4.213   2.860   1.445
 1849SOL    HW2 6447   4.260   2.711   1.397
 1850SOL     OW 6448   6.947   2.449   2.283
 1850SOL    HW1 6449   6.892   2.366   2.297
 1850SOL    HW2 6450   6.946   2.504   2.366
 1851SOL     OW 6451   0.518   3.475   6.487
 1851SOL    HW1 6452   0.448   3.407   6.468
 1851SOL    HW2 6453   0.595   3.433   6.533
 1852SOL     OW 6454   0.198   4.426   2.776
 1852SOL    HW1 6455   0.111   4.380   2.795
 1852SOL    HW2 6456   0.195   4.468   2.686
 1853SOL     OW 6457   0.049   2.835   3.123
 1853SOL    HW1 6458   0.121   2.887   3.169
 1853SOL    HW2 6459   0.088   2.779   3.051
 1854SOL     OW 6460   1.954   5.521   2.983
 1854SOL    HW1 6461   2.038   5.506   2.931
 1854SOL    HW2 6462   1.907   5.602   2.948
 1855SOL     OW 6463   5.607   3.630   5.315
 1855SOL    HW1 6464   5.629   3.708   5.374
 1855SOL    HW2 6465   5.569   3.664   5.229
 1856SOL     OW 6466   4.934   3.458   5.879
 1856SOL    HW1 6467   5.026   3.470   5.842
 1856SOL    HW2 6468   4.934   3.480   5.976
 1857SOL     OW 6469   4.176   2.037   7.006
 1857SOL    HW1 6470   4.095   1.995   0.023
 1857SOL    HW2 6471   4.150   2.078   6.919
 1858SOL     OW 6472   5.428   3.355   3.176
 1858SOL    HW1 6473   5.406   3.269   3.131
 1858SOL    HW2 6474   5.455   3.337   3.271
 1859SOL     OW 6475   5.309   1.904   3.539
 1859SOL    HW1 6476   5.265   1.985   3.501
 1859SOL    HW2 6477   5.263   1.822   3.505
 1860SOL     OW 6478   0.371   1.195   5.101
 1860SOL    HW1 6479   0.340   1.108   5.062
 1860SOL    HW2 6480   0.422   1.246   5.032
 1861SOL     OW 6481   6.145   0.440   2.613
 1861SOL    HW1 6482   6.113   0.380   2.539
 1861SOL    HW2 6483   6.193   0.385   2.681
 1862SOL     OW 6484   2.456   0.504   6.393
 1862SOL    HW1 6485   2.494   0.433   6.333
 1862SOL    HW2 6486   2.500   0.591   6.372
 1863SOL     OW 6487   0.122   2.726   3.822
 1863SOL    HW1 6488   0.037   2.683   3.851
 1863SOL    HW2 6489   0.180   2.742   3.903
 1864SOL     OW 6490   2.651   5.861   4.819
 1864SOL    HW1 6491   2.572   5.860   4.758
 1864SOL    HW2 6492   2.732   5.888   4.768
 1865SOL     OW 6493   3.804   0.331   0.079
 1865SOL    HW1 6494   3.857   0.323   7.019
 1865SOL    HW2 6495   3.798   0.241   0.123
 1866SOL     OW 6496   6.501   4.800   3.821
 1866SOL    HW1 6497   6.530   4.875   3.762
 1866SOL    HW2 6498   6.403   4.784   3.809
 1867SOL     OW 6499   1.723   4.036   1.257
 1867SOL    HW1 6500   1.705   4.131   1.230
 1867SOL    HW2 6501   1.643   3.980   1.234
 1868SOL     OW 6502   4.780   3.411   6.669
 1868SOL    HW1 6503   4.807   3.469   6.592
 1868SOL    HW2 6504   4.817   3.319   6.656
 1869SOL     OW 6505   6.484   3.315   4.418
 1869SOL    HW1 6506   6.567   3.366   4.437
 1869SOL    HW2 6507   6.494   3.264   4.332
 1870SOL     OW 6508   1.189   3.296   5.196
 1870SOL    HW1 6509   1.110   3.253   5.239
 1870SOL    HW2 6510   1.188   3.279   5.098
 1871SOL     OW 6511   0.183   0.797   0.336
 1871SOL    HW1 6512   0.146   0.759   0.251
 1871SOL    HW2 6513   0.240   0.728   0.381
 1872SOL     OW 6514   4.832   2.090   0.057
 1872SOL    HW1 6515   4.791   2.008   0.018
 1872SOL    HW2 6516   4.777   2.122   0.134
 1873SOL     OW 6517   6.102   0.831   5.913
 1873SOL    HW1 6518   6.193   0.833   5.955
 1873SOL    HW2 6519   6.034   0.809   5.983
 1874SOL     OW 6520   1.634   1.103   6.748
 1874SOL    HW1 6521   1.594   1.136   6.663
 1874SOL    HW2 6522   1.667   1.181   6.801
 1875SOL     OW 6523   6.309   0.499   0.872
 1875SOL    HW1 6524   6.349   0.503   0.781
 1875SOL    HW2 6525   6.381   0.493   0.940
 1876SOL     OW 6526   3.445   5.715   6.099
 1876SOL    HW1 6527   3.464   5.742   6.193
 1876SOL    HW2 6528   3.531   5.695   6.052
 1877SOL     OW 6529   1.137   1.516   3.282
 1877SOL    HW1 6530   1.100   1.606   3.302
 1877SOL    HW2 6531   1.185   1.481   3.363
 1878SOL     OW 6532   0.025   2.771   4.217
 1878SOL    HW1 6533   7.008   2.684   4.192
 1878SOL    HW2 6534   6.991   2.820   4.281
 1879SOL     OW 6535   2.233   6.176   3.864
 1879SOL    HW1 6536   2.249   6.245   3.934
 1879SOL    HW2 6537   2.163   6.208   3.800
 1880SOL     OW 6538   0.393   1.800   3.188
 1880SOL    HW1 6539   0.468   1.805   3.254
 1880SOL    HW2 6540   0.369   1.893   3.158
 1881SOL     OW 6541   1.357   1.604   3.845
 1881SOL    HW1 6542   1.306   1.604   3.759
 1881SOL    HW2 6543   1.306   1.657   3.913
 1882SOL     OW 6544   1.095   4.717   6.510
 1882SOL    HW1 6545   1.095   4.807   6.554
 1882SOL    HW2 6546   1.175   4.665   6.540
 1883SOL     OW 6547   1.277   3.453   3.393
 1883SOL    HW1 6548   1.352   3.489   3.337
 1883SOL    HW2 6549   1.314   3.388   3.459
 1884SOL     OW 6550   6.116   2.531   0.820
 1884SOL    HW1 6551   6.147   2.532   0.725
 1884SOL    HW2 6552   6.033   2.475   0.827
 1885SOL     OW 6553   0.036   2.185   0.251
 1885SOL    HW1 6554   0.068   2.236   0.331
 1885SOL    HW2 6555   0.101   2.112   0.229
 1886SOL     OW 6556   2.942   1.461   0.936
 1886SOL    HW1 6557   2.856   1.452   0.886
 1886SOL    HW2 6558   3.014   1.494   0.875
 1887SOL     OW 6559   0.642   4.874   6.039
 1887SOL    HW1 6560   0.670   4.778   6.047
 1887SOL    HW2 6561   0.634   4.914   6.130
 1888SOL     OW 6562   3.238   2.003   6.127
 1888SOL    HW1 6563   3.178   2.082   6.113
 1888SOL    HW2 6564   3.277   2.008   6.219
 1889SOL     OW 6565   5.540   2.292   5.953
 1889SOL    HW1 6566   5.632   2.285   5.991
 1889SOL    HW2 6567   5.484   2.350   6.012
 1890SOL     OW 6568   1.440   5.497   5.203
 1890SOL    HW1 6569   1.481   5.444   5.278
 1890SOL    HW2 6570   1.361   5.447   5.168
 1891SOL     OW 6571   5.373   3.196   4.121
 1891SOL    HW1 6572   5.361   3.192   4.022
 1891SOL    HW2 6573   5.301   3.142   4.165
 1892SOL     OW 6574   3.937   0.384   0.971
 1892SOL    HW1 6575   3.844   0.348   0.968
 1892SOL    HW2 6576   4.002   0.309   0.960
 1893SOL     OW 6577   3.407   1.659   5.814
 1893SOL    HW1 6578   3.464   1.740   5.804
 1893SOL    HW2 6579   3.380   1.649   5.909
 1894SOL     OW 6580   3.755   4.052   2.412
 1894SOL    HW1 6581   3.759   4.073   2.314
 1894SOL    HW2 6582   3.760   4.137   2.464
 1895SOL     OW 6583   5.448   0.941   2.537
 1895SOL    HW1 6584   5.392   0.995   2.599
 1895SOL    HW2 6585   5.415   0.954   2.443
 1896SOL     OW 6586   0.988   0.428   3.139
 1896SOL    HW1 6587   0.905   0.424   3.083
 1896SOL    HW2 6588   0.983   0.507   3.200
 1897SOL     OW 6589   0.814   5.178   2.396
 1897SOL    HW1 6590   0.820   5.245   2.321
 1897SOL    HW2 6591   0.727   5.130   2.391
 1898SOL     OW 6592   3.309   4.851   2.240
 1898SOL    HW1 6593   3.242   4.827   2.310
 1898SOL    HW2 6594   3.398   4.863   2.282
 1899SOL     OW 6595   0.919   2.215   2.511
 1899SOL    HW1 6596   0.990   2.147   2.490
 1899SOL    HW2 6597   0.925   2.290   2.444
 1900SOL     OW 6598   1.324   0.285   5.267
 1900SOL    HW1 6599   1.347   0.378   5.296
 1900SOL    HW2 6600   1.335   0.277   5.168
 1901SOL     OW 6601   2.233   1.098   1.410
 1901SOL    HW1 6602   2.284   1.159   1.349
 1901SOL    HW2 6603   2.234   1.135   1.503
 1902SOL     OW 6604   2.237   2.343   4.533
 1902SOL    HW1 6605   2.298   2.286   4.588
 1902SOL    HW2 6606   2.276   2.434   4.523
 1903SOL     OW 6607   6.384   3.841   3.582
 1903SOL    HW1 6608   6.475   3.848   3.540
 1903SOL    HW2 6609   6.380   3.898   3.664
 1904SOL     OW 6610   6.222   6.539   4.045
 1904SOL    HW1 6611   6.183   6.448   4.062
 1904SOL    HW2 6612   6.148   6.604   4.027
 1905SOL     OW 6613   1.893   0.919   4.413
 1905SOL    HW1 6614   1.942   0.994   4.369
 1905SOL    HW2 6615   1.875   0.847   4.345
 1906SOL     OW 6616   2.701   0.333   5.155
 1906SOL    HW1 6617   2.728   0.403   5.089
 1906SOL    HW2 6618   2.784   0.293   5.196
 1907SOL     OW 6619   3.688   0.179   3.422
 1907SOL    HW1 6620   3.639   0.171   3.509
 1907SOL    HW2 6621   3.647   0.117   3.355
 1908SOL     OW 6622   4.167   0.745   4.951
 1908SOL    HW1 6623   4.267   0.743   4.943
 1908SOL    HW2 6624   4.132   0.826   4.903
 1909SOL     OW 6625   0.962   4.417   2.503
 1909SOL    HW1 6626   1.042   4.378   2.457
 1909SOL    HW2 6627   0.941   4.363   2.584
 1910SOL     OW 6628   0.279   2.518   6.892
 1910SOL    HW1 6629   0.242   2.611   6.892
 1910SOL    HW2 6630   0.245   2.468   6.971
 1911SOL     OW 6631   6.099   3.069   5.842
 1911SOL    HW1 6632   6.167   3.004   5.879
 1911SOL    HW2 6633   6.134   3.108   5.757
 1912SOL     OW 6634   3.672   0.045   1.212
 1912SOL    HW1 6635   3.591   0.093   1.245
 1912SOL    HW2 6636   3.664   6.972   1.231
 1913SOL     OW 6637   1.289   5.614   5.491
 1913SOL    HW1 6638   1.346   5.696   5.495
 1913SOL    HW2 6639   1.274   5.580   5.584
 1914SOL     OW 6640   3.361   2.742   6.623
 1914SOL    HW1 6641   3.272   2.702   6.648
 1914SOL    HW2 6642   3.356   2.780   6.531
 1915SOL     OW 6643   3.687   1.707   5.612
 1915SOL    HW1 6644   3.727   1.618   5.634
 1915SOL    HW2 6645   3.714   1.773   5.682
 1916SOL     OW 6646   3.140   6.333   1.314
 1916SOL    HW1 6647   3.098   6.399   1.376
 1916SOL    HW2 6648   3.156   6.377   1.225
 1917SOL     OW 6649   3.295   2.938   4.479
 1917SOL    HW1 6650   3.322   2.845   4.504
 1917SOL    HW2 6651   3.307   2.999   4.558
 1918SOL     OW 6652   0.658   1.064   6.935
 1918SOL    HW1 6653   0.635   1.158   6.912
 1918SOL    HW2 6654   0.615   1.039   7.022
 1919SOL     OW 6655   2.063   0.332   1.605
 1919SOL    HW1 6656   2.141   0.391   1.582
 1919SOL    HW2 6657   2.072   0.299   1.699
 1920SOL     OW 6658   1.118   5.112   3.024
 1920SOL    HW1 6659   1.059   5.033   3.014
 1920SOL    HW2 6660   1.073   5.193   2.987
 1921SOL     OW 6661   1.508   4.433   0.190
 1921SOL    HW1 6662   1.504   4.335   0.213
 1921SOL    HW2 6663   1.437   4.481   0.242
 1922SOL     OW 6664   3.137   4.066   0.715
 1922SOL    HW1 6665   3.092   4.110   0.792
 1922SOL    HW2 6666   3.116   4.115   0.630
 1923SOL     OW 6667   3.419   0.952   6.131
 1923SOL    HW1 6668   3.361   0.995   6.200
 1923SOL    HW2 6669   3.362   0.900   6.067
 1924SOL     OW 6670   4.966   5.323   1.647
 1924SOL    HW1 6671   5.028   5.402   1.651
 1924SOL    HW2 6672   4.919   5.313   1.734
 1925SOL     OW 6673   2.281   3.533   0.855
 1925SOL    HW1 6674   2.341   3.589   0.797
 1925SOL    HW2 6675   2.191   3.575   0.860
 1926SOL     OW 6676   1.409   6.741   2.802
 1926SOL    HW1 6677   1.480   6.677   2.773
 1926SOL    HW2 6678   1.450   6.829   2.825
 1927SOL     OW 6679   3.327   4.719   6.172
 1927SOL    HW1 6680   3.336   4.621   6.159
 1927SOL    HW2 6681   3.417   4.760   6.183
 1928SOL     OW 6682   6.865   3.568   5.650
 1928SOL    HW1 6683   6.835   3.555   5.555
 1928SOL    HW2 6684   6.829   3.494   5.707
 1929SOL     OW 6685   0.829   5.896   1.750
 1929SOL    HW1 6686   0.843   5.819   1.687
 1929SOL    HW2 6687   0.748   5.879   1.805
 1930SOL     OW 6688   3.393   3.978   6.571
 1930SOL    HW1 6689   3.398   3.909   6.499
 1930SOL    HW2 6690   3.444   3.947   6.651
 1931SOL     OW 6691   0.127   2.795   2.255
 1931SOL    HW1 6692   0.106   2.891   2.272
 1931SOL    HW2 6693   0.190   2.763   2.326
 1932SOL     OW 6694   4.962   3.204   3.315
 1932SOL    HW1 6695   4.973   3.172   3.410
 1932SOL    HW2 6696   4.954   3.303   3.315
 1933SOL     OW 6697   2.859   4.516   0.557
 1933SOL    HW1 6698   2.853   4.537   0.459
 1933SOL    HW2 6699   2.790   4.447   0.579
 1934SOL     OW 6700   1.015   0.403   5.046
 1934SOL    HW1 6701   0.952   0.420   5.121
 1934SOL    HW2 6702   1.008   0.477   4.978
 1935SOL     OW 6703   3.274   6.499   4.777
 1935SOL    HW1 6704   3.175   6.505   4.776
 1935SOL    HW2 6705   3.305   6.446   4.697
 1936SOL     OW 6706   6.673   3.883   3.816
 1936SOL    HW1 6707   6.696   3.949   3.888
 1936SOL    HW2 6708   6.575   3.884   3.799
 1937SOL     OW 6709   4.880   0.242   1.014
 1937SOL    HW1 6710   4.903   0.173   0.946
 1937SOL    HW2 6711   4.886   0.202   1.105
 1938SOL     OW 6712   2.407   1.014   1.718
 1938SOL    HW1 6713   2.423   0.966   1.804
 1938SOL    HW2 6714   2.485   0.999   1.656
 1939SOL     OW 6715   6.926   0.337   4.829
 1939SOL    HW1 6716   6.839   0.386   4.820
 1939SOL    HW2 6717   6.975   0.341   4.742
 1940SOL     OW 6718   4.651   4.854   0.034
 1940SOL    HW1 6719   4.747   4.841   0.011
 1940SOL    HW2 6720   4.636   4.950   0.058
 1941SOL     OW 6721   0.047   4.468   3.587
 1941SOL    HW1 6722   0.114   4.535   3.620
 1941SOL    HW2 6723   6.984   4.513   3.572
 1942SOL     OW 6724   5.239   0.531   1.624
 1942SOL    HW1 6725   5.244   0.444   1.672
 1942SOL    HW2 6726   5.199   0.600   1.684
 1943SOL     OW 6727   2.682   6.312   2.227
 1943SOL    HW1 6728   2.738   6.285   2.149
 1943SOL    HW2 6729   2.706   6.405   2.254
 1944SOL     OW 6730   5.995   2.462   0.358
 1944SOL    HW1 6731   6.028   2.531   0.293
 1944SOL    HW2 6732   5.923   2.407   0.315
 1945SOL     OW 6733   3.389   5.622   1.681
 1945SOL    HW1 6734   3.367   5.607   1.584
 1945SOL    HW2 6735   3.330   5.565   1.738
 1946SOL     OW 6736   6.234   0.245   1.421
 1946SOL    HW1 6737   6.244   0.343   1.405
 1946SOL    HW2 6738   6.172   0.231   1.498
 1947SOL     OW 6739   4.542   7.009   5.334
 1947SOL    HW1 6740   4.455   0.032   5.344
 1947SOL    HW2 6741   4.537   6.946   5.256
 1948SOL     OW 6742   5.666   5.306   3.670
 1948SOL    HW1 6743   5.730   5.303   3.593
 1948SOL    HW2 6744   5.698   5.245   3.742
 1949SOL     OW 6745   3.401   4.461   6.731
 1949SOL    HW1 6746   3.302   4.448   6.735
 1949SOL    HW2 6747   3.448   4.375   6.753
 1950SOL     OW 6748   4.034   4.470   0.610
 1950SOL    HW1 6749   3.985   4.447   0.694
 1950SOL    HW2 6750   3.977   4.449   0.531
 1951SOL     OW 6751   5.675   4.209   6.897
 1951SOL    HW1 6752   5.689   4.110   6.901
 1951SOL    HW2 6753   5.693   4.241   6.804
 1952SOL     OW 6754   4.418   2.402   0.316
 1952SOL    HW1 6755   4.412   2.435   0.410
 1952SOL    HW2 6756   4.505   2.431   0.276
 1953SOL     OW 6757   5.757   1.825   6.784
 1953SOL    HW1 6758   5.724   1.910   6.826
 1953SOL    HW2 6759   5.848   1.804   6.818
 1954SOL     OW 6760   5.477   1.527   3.290
 1954SOL    HW1 6761   5.541   1.524   3.367
 1954SOL    HW2 6762   5.503   1.600   3.227
 1955SOL     OW 6763   0.978   1.509   2.291
 1955SOL    HW1 6764   1.064   1.508   2.341
 1955SOL    HW2 6765   0.965   1.421   2.246
 1956SOL     OW 6766   4.933   6.767   2.871
 1956SOL    HW1 6767   4.996   6.842   2.890
 1956SOL    HW2 6768   4.893   6.779   2.781
 1957SOL     OW 6769   6.124   4.823   4.456
 1957SOL    HW1 6770   6.051   4.859   4.399
 1957SOL    HW2 6771   6.213   4.850   4.419
 1958SOL     OW 6772   4.595   2.450   2.519
 1958SOL    HW1 6773   4.566   2.494   2.434
 1958SOL    HW2 6774   4.612   2.353   2.502
 1959SOL     OW 6775   0.273   0.949   5.034
 1959SOL    HW1 6776   0.315   0.875   5.086
 1959SOL    HW2 6777   0.265   0.922   4.938
 1960SOL     OW 6778   6.936   4.401   1.851
 1960SOL    HW1 6779   7.002   4.458   1.899
 1960SOL    HW2 6780   6.874   4.459   1.798
 1961SOL     OW 6781   5.591   4.159   4.194
 1961SOL    HW1 6782   5.662   4.201   4.139
 1961SOL    HW2 6783   5.545   4.088   4.141
 1962SOL     OW 6784   2.063   6.669   3.852
 1962SOL    HW1 6785   1.997   6.657   3.779
 1962SOL    HW2 6786   2.080   6.581   3.897
 1963SOL     OW 6787   0.817   1.896   1.696
 1963SOL    HW1 6788   0.867   1.849   1.769
 1963SOL    HW2 6789   0.853   1.868   1.608
 1964SOL     OW 6790   4.645   4.210   0.517
 1964SOL    HW1 6791   4.608   4.148   0.587
 1964SOL    HW2 6792   4.571   4.241   0.458
 1965SOL     OW 6793   1.405   3.318   4.681
 1965SOL    HW1 6794   1.364   3.227   4.673
 1965SOL    HW2 6795   1.503   3.309   4.699
 1966SOL     OW 6796   6.604   6.642   0.341
 1966SOL    HW1 6797   6.683   6.682   0.295
 1966SOL    HW2 6798   6.580   6.555   0.296
 1967SOL     OW 6799   5.632   2.769   5.669
 1967SOL    HW1 6800   5.597   2.860   5.686
 1967SOL    HW2 6801   5.625   2.714   5.752
 1968SOL     OW 6802   2.417   0.116   6.923
 1968SOL    HW1 6803   2.465   0.047   6.868
 1968SOL    HW2 6804   2.357   0.170   6.864
 1969SOL     OW 6805   1.020   1.794   1.865
 1969SOL    HW1 6806   0.989   1.820   1.957
 1969SOL    HW2 6807   1.091   1.724   1.873
 1970SOL     OW 6808   2.389   6.406   6.040
 1970SOL    HW1 6809   2.470   6.422   6.097
 1970SOL    HW2 6810   2.307   6.413   6.096
 1971SOL     OW 6811   6.918   0.323   5.806
 1971SOL    HW1 6812   6.966   0.359   5.726
 1971SOL    HW2 6813   6.983   0.276   5.865
 1972SOL     OW 6814   5.102   2.508   2.066
 1972SOL    HW1 6815   5.112   2.409   2.077
 1972SOL    HW2 6816   5.088   2.529   1.970
 1973SOL     OW 6817   2.838   2.217   0.485
 1973SOL    HW1 6818   2.761   2.184   0.429
 1973SOL    HW2 6819   2.836   2.170   0.573
 1974SOL     OW 6820   6.053   6.729   4.643
 1974SOL    HW1 6821   6.116   6.803   4.620
 1974SOL    HW2 6822   5.994   6.758   4.719
 1975SOL     OW 6823   2.080   1.650   3.743
 1975SOL    HW1 6824   2.047   1.603   3.661
 1975SOL    HW2 6825   2.148   1.718   3.718
 1976SOL     OW 6826   0.215   6.492   6.895
 1976SOL    HW1 6827   0.280   6.470   6.822
 1976SOL    HW2 6828   0.183   6.586   6.884
 1977SOL     OW 6829   0.731   3.488   4.436
 1977SOL    HW1 6830   0.711   3.410   4.376
 1977SOL    HW2 6831   0.735   3.456   4.531
 1978SOL     OW 6832   1.670   0.296   3.089
 1978SOL    HW1 6833   1.701   0.390   3.073
 1978SOL    HW2 6834   1.645   0.254   3.002
 1979SOL     OW 6835   6.309   4.247   6.386
 1979SOL    HW1 6836   6.312   4.162   6.438
 1979SOL    HW2 6837   6.392   4.257   6.332
 1980SOL     OW 6838   2.877   0.408   4.746
 1980SOL    HW1 6839   2.967   0.378   4.778
 1980SOL    HW2 6840   2.889   0.471   4.669
 1981SOL     OW 6841   6.495   2.017   2.602
 1981SOL    HW1 6842   6.478   1.968   2.516
 1981SOL    HW2 6843   6.534   1.955   2.669
 1982SOL     OW 6844   0.111   4.001   4.911
 1982SOL    HW1 6845   0.040   4.027   4.977
 1982SOL    HW2 6846   0.140   4.082   4.861
 1983SOL     OW 6847   0.328   1.325   2.879
 1983SOL    HW1 6848   0.340   1.420   2.907
 1983SOL    HW2 6849   0.398   1.301   2.812
 1984SOL     OW 6850   5.844   1.545   4.980
 1984SOL    HW1 6851   5.787   1.625   4.995
 1984SOL    HW2 6852   5.866   1.501   5.068
 1985SOL     OW 6853   1.299   6.341   2.254
 1985SOL    HW1 6854   1.227   6.408   2.270
 1985SOL    HW2 6855   1.323   6.297   2.340
 1986SOL     OW 6856   1.679   0.977   0.214
 1986SOL    HW1 6857   1.641   1.031   0.139
 1986SOL    HW2 6858   1.637   0.886   0.213
 1987SOL     OW 6859   1.940   2.502   2.477
 1987SOL    HW1 6860   2.028   2.482   2.519
 1987SOL    HW2 6861   1.954   2.557   2.394
 1988SOL     OW 6862   6.292   4.555   0.778
 1988SOL    HW1 6863   6.321   4.602   0.695
 1988SOL    HW2 6864   6.215   4.604   0.819
 1989SOL     OW 6865   2.774   5.569   4.619
 1989SOL    HW1 6866   2.724   5.656   4.619
 1989SOL    HW2 6867   2.708   5.494   4.628
 1990SOL     OW 6868   3.684   6.612   0.849
 1990SOL    HW1 6869   3.586   6.632   0.843
 1990SOL    HW2 6870   3.707   6.543   0.780
 1991SOL     OW 6871   3.800   4.723   6.776
 1991SOL    HW1 6872   3.789   4.662   6.697
 1991SOL    HW2 6873   3.861   4.798   6.752
 1992SOL     OW 6874   1.114   0.972   0.810
 1992SOL    HW1 6875   1.121   0.956   0.712
 1992SOL    HW2 6876   1.203   0.954   0.853
 1993SOL     OW 6877   3.608   2.834   5.075
 1993SOL    HW1 6878   3.528   2.892   5.094
 1993SOL    HW2 6879   3.608   2.757   5.137
 1994SOL     OW 6880   0.645   0.859   1.031
 1994SOL    HW1 6881   0.700   0.905   0.961
 1994SOL    HW2 6882   0.705   0.817   1.099
 1995SOL     OW 6883   4.929   2.323   3.410
 1995SOL    HW1 6884   4.989   2.399   3.430
 1995SOL    HW2 6885   4.883   2.293   3.494
 1996SOL     OW 6886   2.387   3.322   0.692
 1996SOL    HW1 6887   2.359   3.411   0.728
 1996SOL    HW2 6888   2.306   3.267   0.673
 1997SOL     OW 6889   3.942   1.262   4.465
 1997SOL    HW1 6890   3.876   1.199   4.505
 1997SOL    HW2 6891   4.021   1.271   4.525
 1998SOL     OW 6892   2.058   4.508   6.460
 1998SOL    HW1 6893   2.006   4.423   6.446
 1998SOL    HW2 6894   2.079   4.550   6.372
 1999SOL     OW 6895   2.605   6.885   0.592
 1999SOL    HW1 6896   2.623   6.840   0.680
 1999SOL    HW2 6897   2.507   6.897   0.579
 2000SOL     OW 6898   4.325   2.250   5.276
 2000SOL    HW1 6899   4.422   2.257   5.300
 2000SOL    HW2 6900   4.316   2.235   5.178
 2001SOL     OW 6901   2.995   1.019   1.919
 2001SOL    HW1 6902   2.907   1.065   1.931
 2001SOL    HW2 6903   3.024   1.026   1.824
 2002SOL     OW 6904   0.928   4.517   6.606
 2002SOL    HW1 6905   0.977   4.596   6.644
 2002SOL    HW2 6906   0.925   4.524   6.507
 2003SOL     OW 6907   6.211   5.657   2.118
 2003SOL    HW1 6908   6.280   5.630   2.185
 2003SOL    HW2 6909   6.133   5.698   2.165
 2004SOL     OW 6910   5.462   0.484   5.887
 2004SOL    HW1 6911   5.413   0.571   5.881
 2004SOL    HW2 6912   5.535   0.492   5.955
 2005SOL     OW 6913   1.105   4.815   0.494
 2005SOL    HW1 6914   1.027   4.798   0.434
 2005SOL    HW2 6915   1.105   4.911   0.522
 2006SOL     OW 6916   4.901   6.618   4.039
 2006SOL    HW1 6917   4.890   6.519   4.040
 2006SOL    HW2 6918   4.928   6.650   4.129
 2007SOL     OW 6919   4.205   4.723   0.641
 2007SOL    HW1 6920   4.139   4.659   0.602
 2007SOL    HW2 6921   4.227   4.794   0.574
 2008SOL     OW 6922   2.766   5.230   4.011
 2008SOL    HW1 6923   2.684   5.247   4.066
 2008SOL    HW2 6924   2.829   5.172   4.063
 2009SOL     OW 6925   5.937   1.354   2.468
 2009SOL    HW1 6926   5.840   1.348   2.445
 2009SOL    HW2 6927   5.991   1.308   2.398
 2010SOL     OW 6928   2.080   1.707   0.551
 2010SOL    HW1 6929   2.178   1.723   0.538
 2010SOL    HW2 6930   2.030   1.793   0.546
 2011SOL     OW 6931   6.720   6.900   5.003
 2011SOL    HW1 6932   6.695   6.987   5.045
 2011SOL    HW2 6933   6.819   6.894   4.994
 2012SOL     OW 6934   1.693   3.680   1.859
 2012SOL    HW1 6935   1.765   3.716   1.801
 2012SOL    HW2 6936   1.605   3.720   1.833
 2013SOL     OW 6937   6.457   2.213   3.616
 2013SOL    HW1 6938   6.413   2.158   3.687
 2013SOL    HW2 6939   6.484   2.302   3.654
 2014SOL     OW 6940   2.626   5.199   3.548
 2014SOL    HW1 6941   2.536   5.215   3.509
 2014SOL    HW2 6942   2.665   5.285   3.580
 2015SOL     OW 6943   2.090   0.645   6.742
 2015SOL    HW1 6944   2.025   0.702   6.792
 2015SOL    HW2 6945   2.056   0.551   6.737
 2016SOL     OW 6946   0.911   5.910   5.232
 2016SOL    HW1 6947   0.924   5.862   5.319
 2016SOL    HW2 6948   0.965   5.865   5.161
 2017SOL     OW 6949   2.948   6.923   4.431
 2017SOL    HW1 6950   2.986   6.837   4.399
 2017SOL    HW2 6951   2.891   6.964   4.360
 2018SOL     OW 6952   5.710   6.794   5.690
 2018SOL    HW1 6953   5.742   6.836   5.605
 2018SOL    HW2 6954   5.686   6.698   5.672
 2019SOL     OW 6955   5.567   2.974   0.041
 2019SOL    HW1 6956   5.491   3.033   0.016
 2019SOL    HW2 6957   5.544   2.922   0.123
 2020SOL     OW 6958   1.048   6.234   4.993
 2020SOL    HW1 6959   1.080   6.312   4.938
 2020SOL    HW2 6960   0.949   6.232   4.993
 2021SOL     OW 6961   1.208   6.136   4.061
 2021SOL    HW1 6962   1.122   6.180   4.035
 2021SOL    HW2 6963   1.223   6.056   4.003
 2022SOL     OW 6964   1.683   3.904   3.238
 2022SOL    HW1 6965   1.730   3.963   3.173
 2022SOL    HW2 6966   1.746   3.835   3.273
 2023SOL     OW 6967   6.311   0.905   6.369
 2023SOL    HW1 6968   6.245   0.862   6.308
 2023SOL    HW2 6969   6.330   0.998   6.337
 2024SOL     OW 6970   0.442   0.035   4.021
 2024SOL    HW1 6971   0.466   6.971   4.062
 2024SOL    HW2 6972   0.524   0.092   4.015
 2025SOL     OW 6973   2.881   2.016   3.228
 2025SOL    HW1 6974   2.973   2.055   3.224
 2025SOL    HW2 6975   2.842   2.013   3.136
 2026SOL     OW 6976   0.104   2.622   5.849
 2026SOL    HW1 6977   0.159   2.683   5.793
 2026SOL    HW2 6978   0.018   2.667   5.873
 2027SOL     OW 6979   0.843   0.770   0.388
 2027SOL    HW1 6980   0.855   0.868   0.406
 2027SOL    HW2 6981   0.792   0.728   0.462
 2028SOL     OW 6982   2.966   6.752   5.222
 2028SOL    HW1 6983   2.922   6.738   5.311
 2028SOL    HW2 6984   2.963   6.667   5.170
 2029SOL     OW 6985   6.630   0.655   0.538
 2029SOL    HW1 6986   6.686   0.639   0.618
 2029SOL    HW2 6987   6.688   0.661   0.457
 2030SOL     OW 6988   2.265   1.299   2.790
 2030SOL    HW1 6989   2.335   1.323   2.724
 2030SOL    HW2 6990   2.175   1.311   2.749
 2031SOL     OW 6991   6.339   5.511   0.953
 2031SOL    HW1 6992   6.402   5.473   1.021
 2031SOL    HW2 6993   6.374   5.491   0.861
 2032SOL     OW 6994   4.799   0.102   2.028
 2032SOL    HW1 6995   4.871   0.104   2.098
 2032SOL    HW2 6996   4.751   0.015   2.032
 2033SOL     OW 6997   3.276   4.199   6.460
 2033SOL    HW1 6998   3.331   4.118   6.478
 2033SOL    HW2 6999   3.215   4.217   6.538
 2034SOL     OW 7000   2.947   5.871   5.303
 2034SOL    HW1 7001   2.972   5.774   5.308
 2034SOL    HW2 7002   2.857   5.880   5.260
 2035SOL     OW 7003   0.053   0.573   3.129
 2035SOL    HW1 7004   0.115   0.498   3.153
 2035SOL    HW2 7005   6.985   0.549   3.156
 2036SOL     OW 7006   1.479   4.260   2.966
 2036SOL    HW1 7007   1.503   4.185   2.904
 2036SOL    HW2 7008   1.394   4.302   2.935
 2037SOL     OW 7009   6.329   2.828   5.525
 2037SOL    HW1 7010   6.233   2.843   5.501
 2037SOL    HW2 7011   6.351   2.732   5.515
 2038SOL     OW 7012   1.531   2.481   6.946
 2038SOL    HW1 7013   1.529   2.392   6.902
 2038SOL    HW2 7014   1.624   2.500   6.978
 2039SOL     OW 7015   0.348   5.390   3.712
 2039SOL    HW1 7016   0.417   5.458   3.738
 2039SOL    HW2 7017   0.382   5.299   3.733
 2040SOL     OW 7018   3.142   3.447   5.144
 2040SOL    HW1 7019   3.163   3.495   5.229
 2040SOL    HW2 7020   3.224   3.400   5.111
 2041SOL     OW 7021   0.772   5.960   6.312
 2041SOL    HW1 7022   0.782   6.024   6.236
 2041SOL    HW2 7023   0.678   5.926   6.314
 2042SOL     OW 7024   4.912   6.053   0.096
 2042SOL    HW1 7025   4.866   6.114   0.032
 2042SOL    HW2 7026   5.010   6.070   0.093
 2043SOL     OW 7027   0.154   3.638   3.658
 2043SOL    HW1 7028   0.207   3.588   3.726
 2043SOL    HW2 7029   0.143   3.733   3.688
 2044SOL     OW 7030   6.469   7.002   1.878
 2044SOL    HW1 7031   6.549   0.037   1.869
 2044SOL    HW2 7032   6.494   6.920   1.930
 2045SOL     OW 7033   2.348   5.133   3.863
 2045SOL    HW1 7034   2.378   5.076   3.786
 2045SOL    HW2 7035   2.398   5.106   3.946
 2046SOL     OW 7036   6.530   2.293   3.998
 2046SOL    HW1 7037   6.491   2.358   4.063
 2046SOL    HW2 7038   6.554   2.340   3.914
 2047SOL     OW 7039   6.682   2.313   6.669
 2047SOL    HW1 7040   6.727   2.366   6.741
 2047SOL    HW2 7041   6.752   2.267   6.614
 2048SOL     OW 7042   2.150   6.397   6.203
 2048SOL    HW1 7043   2.121   6.309   6.165
 2048SOL    HW2 7044   2.084   6.467   6.179
 2049SOL     OW 7045   5.953   1.460   5.224
 2049SOL    HW1 7046   5.919   1.504   5.307
 2049SOL    HW2 7047   6.053   1.467   5.221
 2050SOL     OW 7048   6.490   2.783   4.196
 2050SOL    HW1 7049   6.404   2.781   4.248
 2050SOL    HW2 7050   6.484   2.851   4.123
 2051SOL     OW 7051   0.869   5.205   0.706
 2051SOL    HW1 7052   0.786   5.181   0.756
 2051SOL    HW2 7053   0.844   5.234   0.613
 2052SOL     OW 7054   1.500   3.550   1.028
 2052SOL    HW1 7055   1.550   3.633   1.053
 2052SOL    HW2 7056   1.418   3.542   1.084
 2053SOL     OW 7057   5.554   6.942   4.708
 2053SOL    HW1 7058   5.606   6.878   4.652
 2053SOL    HW2 7059   5.609   7.024   4.724
 2054SOL     OW 7060   3.412   4.135   3.183
 2054SOL    HW1 7061   3.471   4.173   3.255
 2054SOL    HW2 7062   3.354   4.064   3.222
 2055SOL     OW 7063   6.051   3.356   3.082
 2055SOL    HW1 7064   5.986   3.427   3.108
 2055SOL    HW2 7065   6.002   3.273   3.055
 2056SOL     OW 7066   3.868   5.762   2.675
 2056SOL    HW1 7067   3.958   5.773   2.717
 2056SOL    HW2 7068   3.878   5.749   2.576
 2057SOL     OW 7069   5.487   4.122   5.239
 2057SOL    HW1 7070   5.512   4.043   5.182
 2057SOL    HW2 7071   5.569   4.174   5.261
 2058SOL     OW 7072   0.757   1.964   3.237
 2058SOL    HW1 7073   0.671   1.989   3.280
 2058SOL    HW2 7074   0.743   1.949   3.139
 2059SOL     OW 7075   1.906   5.893   6.455
 2059SOL    HW1 7076   1.849   5.961   6.501
 2059SOL    HW2 7077   1.974   5.858   6.520
 2060SOL     OW 7078   0.218   4.357   1.842
 2060SOL    HW1 7079   0.158   4.291   1.797
 2060SOL    HW2 7080   0.233   4.435   1.781
 2061SOL     OW 7081   1.007   1.937   3.360
 2061SOL    HW1 7082   0.995   1.966   3.455
 2061SOL    HW2 7083   0.921   1.949   3.310
 2062SOL     OW 7084   6.318   6.457   3.746
 2062SOL    HW1 7085   6.388   6.399   3.705
 2062SOL    HW2 7086   6.348   6.485   3.838
 2063SOL     OW 7087   1.954   6.751   6.633
 2063SOL    HW1 7088   1.890   6.789   6.699
 2063SOL    HW2 7089   2.004   6.674   6.673
 2064SOL     OW 7090   1.214   2.605   5.385
 2064SOL    HW1 7091   1.305   2.623   5.346
 2064SOL    HW2 7092   1.147   2.665   5.342
 2065SOL     OW 7093   6.245   2.321   5.096
 2065SOL    HW1 7094   6.284   2.279   5.014
 2065SOL    HW2 7095   6.299   2.401   5.121
 2066SOL     OW 7096   0.338   4.672   4.255
 2066SOL    HW1 7097   0.338   4.581   4.298
 2066SOL    HW2 7098   0.251   4.717   4.273
 2067SOL     OW 7099   6.452   4.993   0.953
 2067SOL    HW1 7100   6.390   4.916   0.934
 2067SOL    HW2 7101   6.418   5.044   1.032
 2068SOL     OW 7102   2.350   0.115   4.523
 2068SOL    HW1 7103   2.316   0.095   4.615
 2068SOL    HW2 7104   2.425   0.053   4.501
 2069SOL     OW 7105   0.238   2.425   3.814
 2069SOL    HW1 7106   0.233   2.517   3.775
 2069SOL    HW2 7107   0.238   2.358   3.740
 2070SOL     OW 7108   0.530   1.140   1.685
 2070SOL    HW1 7109   0.432   1.157   1.678
 2070SOL    HW2 7110   0.576   1.176   1.604
 2071SOL     OW 7111   6.475   6.915   5.988
 2071SOL    HW1 7112   6.414   6.846   5.948
 2071SOL    HW2 7113   6.429   6.958   6.065
 2072SOL     OW 7114   4.239   6.392   4.250
 2072SOL    HW1 7115   4.153   6.350   4.280
 2072SOL    HW2 7116   4.284   6.435   4.328
 2073SOL     OW 7117   3.993   0.144   5.209
 2073SOL    HW1 7118   3.997   0.180   5.116
 2073SOL    HW2 7119   4.065   0.186   5.264
 2074SOL     OW 7120   1.938   2.602   6.799
 2074SOL    HW1 7121   1.927   2.693   6.760
 2074SOL    HW2 7122   1.922   2.533   6.728
 2075SOL     OW 7123   0.040   2.934   2.567
 2075SOL    HW1 7124   0.082   2.974   2.648
 2075SOL    HW2 7125   0.006   3.007   2.507
 2076SOL     OW 7126   6.286   0.057   6.527
 2076SOL    HW1 7127   6.290   0.157   6.526
 2076SOL    HW2 7128   6.195   0.027   6.499
 2077SOL     OW 7129   5.841   2.805   3.375
 2077SOL    HW1 7130   5.885   2.854   3.300
 2077SOL    HW2 7131   5.784   2.732   3.338
 2078SOL     OW 7132   1.626   5.869   6.139
 2078SOL    HW1 7133   1.555   5.883   6.070
 2078SOL    HW2 7134   1.715   5.895   6.102
 2079SOL     OW 7135   5.282   2.353   3.569
 2079SOL    HW1 7136   5.372   2.378   3.532
 2079SOL    HW2 7137   5.219   2.429   3.557
 2080SOL     OW 7138   1.684   6.745   4.536
 2080SOL    HW1 7139   1.702   6.775   4.442
 2080SOL    HW2 7140   1.690   6.645   4.540
 2081SOL     OW 7141   1.227   5.271   4.496
 2081SOL    HW1 7142   1.296   5.248   4.564
 2081SOL    HW2 7143   1.269   5.326   4.423
 2082SOL     OW 7144   0.347   0.147   3.022
 2082SOL    HW1 7145   0.403   0.230   3.018
 2082SOL    HW2 7146   0.407   0.068   3.037
 2083SOL     OW 7147   6.787   4.872   5.543
 2083SOL    HW1 7148   6.772   4.787   5.594
 2083SOL    HW2 7149   6.755   4.861   5.449
 2084SOL     OW 7150   0.589   4.534   3.166
 2084SOL    HW1 7151   0.616   4.481   3.247
 2084SOL    HW2 7152   0.503   4.499   3.130
 2085SOL     OW 7153   4.843   0.434   0.196
 2085SOL    HW1 7154   4.820   0.384   0.112
 2085SOL    HW2 7155   4.935   0.410   0.225
 2086SOL     OW 7156   4.170   6.392   6.065
 2086SOL    HW1 7157   4.262   6.388   6.026
 2086SOL    HW2 7158   4.166   6.467   6.132
 2087SOL     OW 7159   4.898   0.682   1.690
 2087SOL    HW1 7160   4.899   0.711   1.594
 2087SOL    HW2 7161   4.812   0.711   1.732
 2088SOL     OW 7162   1.825   5.997   0.581
 2088SOL    HW1 7163   1.874   5.999   0.668
 2088SOL    HW2 7164   1.733   6.034   0.592
 2089SOL     OW 7165   5.112   2.450   6.551
 2089SOL    HW1 7166   5.116   2.550   6.557
 2089SOL    HW2 7167   5.075   2.423   6.462
 2090SOL     OW 7168   4.363   3.577   5.504
 2090SOL    HW1 7169   4.327   3.662   5.543
 2090SOL    HW2 7170   4.367   3.585   5.404
 2091SOL     OW 7171   0.137   5.564   0.889
 2091SOL    HW1 7172   0.192   5.619   0.951
 2091SOL    HW2 7173   0.051   5.540   0.933
 2092SOL     OW 7174   4.655   3.829   6.854
 2092SOL    HW1 7175   4.615   3.920   6.856
 2092SOL    HW2 7176   4.606   3.769   6.917
 2093SOL     OW 7177   2.912   2.219   1.121
 2093SOL    HW1 7178   2.891   2.194   1.215
 2093SOL    HW2 7179   2.981   2.292   1.121
 2094SOL     OW 7180   5.837   1.739   3.165
 2094SOL    HW1 7181   5.842   1.838   3.150
 2094SOL    HW2 7182   5.829   1.721   3.263
 2095SOL     OW 7183   5.869   6.975   5.515
 2095SOL    HW1 7184   5.938   6.909   5.541
 2095SOL    HW2 7185   5.911   0.041   5.506
 2096SOL     OW 7186   4.665   4.268   3.205
 2096SOL    HW1 7187   4.656   4.199   3.134
 2096SOL    HW2 7188   4.731   4.337   3.176
 2097SOL     OW 7189   2.465   3.535   6.730
 2097SOL    HW1 7190   2.495   3.447   6.692
 2097SOL    HW2 7191   2.520   3.557   6.811
 2098SOL     OW 7192   3.676   6.018   1.858
 2098SOL    HW1 7193   3.752   5.954   1.873
 2098SOL    HW2 7194   3.605   5.975   1.804
 2099SOL     OW 7195   3.387   2.811   6.350
 2099SOL    HW1 7196   3.344   2.862   6.276
 2099SOL    HW2 7197   3.481   2.841   6.362
 2100SOL     OW 7198   5.407   2.503   6.883
 2100SOL    HW1 7199   5.308   2.508   6.898
 2100SOL    HW2 7200   5.425   2.470   6.791
 2101SOL     OW 7201   1.084   0.051   1.475
 2101SOL    HW1 7202   1.095   0.148   1.497
 2101SOL    HW2 7203   1.091   0.038   1.376
 2102SOL     OW 7204   5.396   4.988   2.731
 2102SOL    HW1 7205   5.495   4.979   2.731
 2102SOL    HW2 7206   5.364   5.002   2.825
 2103SOL     OW 7207   3.061   3.509   6.426
 2103SOL    HW1 7208   3.146   3.497   6.478
 2103SOL    HW2 7209   2.996   3.438   6.452
 2104SOL     OW 7210   1.858   4.362   1.707
 2104SOL    HW1 7211   1.814   4.383   1.795
 2104SOL    HW2 7212   1.942   4.415   1.699
 2105SOL     OW 7213   5.330   4.858   5.225
 2105SOL    HW1 7214   5.383   4.809   5.294
 2105SOL    HW2 7215   5.379   4.856   5.138
 2106SOL     OW 7216   5.085   3.736   0.954
 2106SOL    HW1 7217   5.167   3.793   0.954
 2106SOL    HW2 7218   5.030   3.757   0.873
 2107SOL     OW 7219   5.980   2.344   5.072
 2107SOL    HW1 7220   6.072   2.336   5.110
 2107SOL    HW2 7221   5.929   2.259   5.089
 2108SOL     OW 7222   6.319   6.012   4.429
 2108SOL    HW1 7223   6.395   6.074   4.447
 2108SOL    HW2 7224   6.351   5.918   4.433
 2109SOL     OW 7225   4.687   5.842   2.161
 2109SOL    HW1 7226   4.615   5.881   2.218
 2109SOL    HW2 7227   4.740   5.777   2.214
 2110SOL     OW 7228   2.586   1.611   0.273
 2110SOL    HW1 7229   2.674   1.563   0.280
 2110SOL    HW2 7230   2.560   1.617   0.177
 2111SOL     OW 7231   1.977   2.745   6.418
 2111SOL    HW1 7232   2.069   2.783   6.410
 2111SOL    HW2 7233   1.937   2.772   6.505
 2112SOL     OW 7234   5.310   2.956   0.479
 2112SOL    HW1 7235   5.363   2.892   0.534
 2112SOL    HW2 7236   5.213   2.930   0.480
 2113SOL     OW 7237   2.439   2.027   4.496
 2113SOL    HW1 7238   2.476   2.104   4.444
 2113SOL    HW2 7239   2.402   2.060   4.583
 2114SOL     OW 7240   2.207   1.715   6.475
 2114SOL    HW1 7241   2.169   1.808   6.473
 2114SOL    HW2 7242   2.197   1.677   6.566
 2115SOL     OW 7243   1.162   4.530   3.282
 2115SOL    HW1 7244   1.217   4.594   3.228
 2115SOL    HW2 7245   1.068   4.564   3.290
 2116SOL     OW 7246   0.582   4.790   2.952
 2116SOL    HW1 7247   0.585   4.699   2.994
 2116SOL    HW2 7248   0.552   4.781   2.857
 2117SOL     OW 7249   6.881   4.813   1.866
 2117SOL    HW1 7250   6.815   4.782   1.934
 2117SOL    HW2 7251   6.871   4.912   1.853
 2118SOL     OW 7252   6.265   2.610   2.938
 2118SOL    HW1 7253   6.212   2.568   2.864
 2118SOL    HW2 7254   6.299   2.699   2.908
 2119SOL     OW 7255   1.240   0.475   0.933
 2119SOL    HW1 7256   1.316   0.480   0.998
 2119SOL    HW2 7257   1.180   0.399   0.959
 2120SOL     OW 7258   0.389   4.735   3.991
 2120SOL    HW1 7259   0.489   4.735   3.979
 2120SOL    HW2 7260   0.367   4.715   4.086
 2121SOL     OW 7261   1.448   3.485   6.073
 2121SOL    HW1 7262   1.525   3.428   6.043
 2121SOL    HW2 7263   1.415   3.450   6.161
 2122SOL     OW 7264   5.717   4.697   5.848
 2122SOL    HW1 7265   5.684   4.790   5.830
 2122SOL    HW2 7266   5.780   4.699   5.926
 2123SOL     OW 7267   6.701   5.138   2.266
 2123SOL    HW1 7268   6.603   5.160   2.270
 2123SOL    HW2 7269   6.718   5.053   2.316
 2124SOL     OW 7270   3.082   2.408   0.947
 2124SOL    HW1 7271   3.099   2.495   0.994
 2124SOL    HW2 7272   3.005   2.419   0.884
 2125SOL     OW 7273   1.979   0.678   2.425
 2125SOL    HW1 7274   1.902   0.640   2.476
 2125SOL    HW2 7275   1.959   0.673   2.327
 2126SOL     OW 7276   4.131   2.631   6.524
 2126SOL    HW1 7277   4.151   2.728   6.535
 2126SOL    HW2 7278   4.198   2.577   6.575
 2127SOL     OW 7279   1.226   2.140   5.192
 2127SOL    HW1 7280   1.237   2.235   5.163
 2127SOL    HW2 7281   1.287   2.081   5.138
 2128SOL     OW 7282   6.561   3.477   4.089
 2128SOL    HW1 7283   6.633   3.428   4.138
 2128SOL    HW2 7284   6.527   3.552   4.145
 2129SOL     OW 7285   4.731   3.108   5.255
 2129SOL    HW1 7286   4.741   3.207   5.249
 2129SOL    HW2 7287   4.662   3.085   5.323
 2130SOL     OW 7288   3.612   0.688   2.837
 2130SOL    HW1 7289   3.550   0.705   2.761
 2130SOL    HW2 7290   3.572   0.724   2.922
 2131SOL     OW 7291   4.611   1.392   6.727
 2131SOL    HW1 7292   4.622   1.361   6.821
 2131SOL    HW2 7293   4.538   1.459   6.721
 2132SOL     OW 7294   4.192   0.760   0.896
 2132SOL    HW1 7295   4.200   0.679   0.838
 2132SOL    HW2 7296   4.156   0.836   0.843
 2133SOL     OW 7297   3.320   3.436   1.197
 2133SOL    HW1 7298   3.397   3.433   1.133
 2133SOL    HW2 7299   3.248   3.375   1.166
 2134SOL     OW 7300   1.024   0.648   5.582
 2134SOL    HW1 7301   1.045   0.727   5.524
 2134SOL    HW2 7302   1.107   0.618   5.629
 2135SOL     OW 7303   1.562   3.106   5.170
 2135SOL    HW1 7304   1.600   3.029   5.120
 2135SOL    HW2 7305   1.511   3.165   5.107
 2136SOL     OW 7306   0.482   4.362   4.578
 2136SOL    HW1 7307   0.521   4.270   4.580
 2136SOL    HW2 7308   0.500   4.408   4.665
 2137SOL     OW 7309   0.646   5.589   4.191
 2137SOL    HW1 7310   0.737   5.552   4.210
 2137SOL    HW2 7311   0.641   5.683   4.227
 2138SOL     OW 7312   6.891   0.798   2.351
 2138SOL    HW1 7313   6.889   0.896   2.371
 2138SOL    HW2 7314   6.983   0.762   2.367
 2139SOL     OW 7315   3.128   1.163   2.561
 2139SOL    HW1 7316   3.080   1.085   2.521
 2139SOL    HW2 7317   3.177   1.212   2.489
 2140SOL     OW 7318   3.850   6.337   4.272
 2140SOL    HW1 7319   3.833   6.392   4.354
 2140SOL    HW2 7320   3.868   6.397   4.195
 2141SOL     OW 7321   6.079   4.479   1.980
 2141SOL    HW1 7322   6.168   4.503   2.019
 2141SOL    HW2 7323   6.092   4.438   1.890
 2142SOL     OW 7324   1.392   2.006   2.973
 2142SOL    HW1 7325   1.353   2.091   3.006
 2142SOL    HW2 7326   1.434   1.956   3.049
 2143SOL     OW 7327   3.064   4.420   1.369
 2143SOL    HW1 7328   3.047   4.514   1.338
 2143SOL    HW2 7329   3.026   4.356   1.302
 2144SOL     OW 7330   1.399   5.654   3.957
 2144SOL    HW1 7331   1.354   5.569   3.982
 2144SOL    HW2 7332   1.486   5.661   4.006
 2145SOL     OW 7333   4.482   6.020   4.164
 2145SOL    HW1 7334   4.403   6.080   4.164
 2145SOL    HW2 7335   4.528   6.025   4.075
 2146SOL     OW 7336   2.475   3.970   0.945
 2146SOL    HW1 7337   2.547   3.910   0.979
 2146SOL    HW2 7338   2.386   3.936   0.975
 2147SOL     OW 7339   6.958   1.529   6.156
 2147SOL    HW1 7340   6.941   1.597   6.227
 2147SOL    HW2 7341   6.873   1.507   6.109
 2148SOL     OW 7342   5.159   2.347   5.125
 2148SOL    HW1 7343   5.161   2.286   5.046
 2148SOL    HW2 7344   5.169   2.442   5.094
 2149SOL     OW 7345   3.389   2.491   1.271
 2149SOL    HW1 7346   3.471   2.445   1.303
 2149SOL    HW2 7347   3.382   2.582   1.313
 2150SOL     OW 7348   3.098   1.854   2.575
 2150SOL    HW1 7349   3.052   1.873   2.489
 2150SOL    HW2 7350   3.145   1.937   2.607
 2151SOL     OW 7351   1.899   0.979   4.937
 2151SOL    HW1 7352   1.879   0.897   4.990
 2151SOL    HW2 7353   1.996   1.002   4.947
 2152SOL     OW 7354   4.024   6.164   1.726
 2152SOL    HW1 7355   4.004   6.259   1.746
 2152SOL    HW2 7356   4.099   6.159   1.660
 2153SOL     OW 7357   3.500   0.793   3.072
 2153SOL    HW1 7358   3.545   0.824   3.156
 2153SOL    HW2 7359   3.490   0.869   3.009
 2154SOL     OW 7360   4.793   0.189   4.997
 2154SOL    HW1 7361   4.889   0.216   5.004
 2154SOL    HW2 7362   4.754   0.183   5.089
 2155SOL     OW 7363   1.900   5.912   0.322
 2155SOL    HW1 7364   1.886   5.920   0.421
 2155SOL    HW2 7365   1.812   5.912   0.276
 2156SOL     OW 7366   2.826   0.758   4.353
 2156SOL    HW1 7367   2.747   0.737   4.294
 2156SOL    HW2 7368   2.886   0.822   4.305
 2157SOL     OW 7369   6.138   1.417   3.404
 2157SOL    HW1 7370   6.135   1.459   3.314
 2157SOL    HW2 7371   6.047   1.418   3.444
 2158SOL     OW 7372   4.072   6.325   0.828
 2158SOL    HW1 7373   4.054   6.384   0.907
 2158SOL    HW2 7374   4.165   6.290   0.832
 2159SOL     OW 7375   1.850   6.255   5.582
 2159SOL    HW1 7376   1.797   6.193   5.524
 2159SOL    HW2 7377   1.847   6.347   5.543
 2160SOL     OW 7378   4.568   4.069   0.770
 2160SOL    HW1 7379   4.610   4.141   0.825
 2160SOL    HW2 7380   4.547   3.991   0.829
 2161SOL     OW 7381   5.030   4.145   3.131
 2161SOL    HW1 7382   4.946   4.200   3.131
 2161SOL    HW2 7383   5.036   4.094   3.045
 2162SOL     OW 7384   2.641   0.632   0.977
 2162SOL    HW1 7385   2.569   0.697   0.953
 2162SOL    HW2 7386   2.616   0.582   1.059
 2163SOL     OW 7387   0.326   4.125   6.498
 2163SOL    HW1 7388   0.251   4.150   6.559
 2163SOL    HW2 7389   0.291   4.064   6.426
 2164SOL     OW 7390   1.530   2.918   6.960
 2164SOL    HW1 7391   1.532   2.832   6.910
 2164SOL    HW2 7392   1.575   2.906   0.024
 2165SOL     OW 7393   0.458   2.004   2.887
 2165SOL    HW1 7394   0.437   2.061   2.807
 2165SOL    HW2 7395   0.437   2.056   2.970
 2166SOL     OW 7396   1.230   2.372   5.033
 2166SOL    HW1 7397   1.282   2.338   4.954
 2166SOL    HW2 7398   1.222   2.471   5.027
 2167SOL     OW 7399   1.618   1.253   3.985
 2167SOL    HW1 7400   1.707   1.224   3.949
 2167SOL    HW2 7401   1.626   1.343   4.026
 2168SOL     OW 7402   1.010   1.778   3.788
 2168SOL    HW1 7403   0.944   1.850   3.811
 2168SOL    HW2 7404   0.986   1.694   3.837
 2169SOL     OW 7405   5.630   1.964   5.590
 2169SOL    HW1 7406   5.720   1.921   5.582
 2169SOL    HW2 7407   5.641   2.057   5.627
 2170SOL     OW 7408   6.306   5.481   5.354
 2170SOL    HW1 7409   6.343   5.420   5.285
 2170SOL    HW2 7410   6.226   5.438   5.397
 2171SOL     OW 7411   0.080   3.804   1.689
 2171SOL    HW1 7412   0.012   3.733   1.704
 2171SOL    HW2 7413   0.067   3.878   1.755
 2172SOL     OW 7414   2.499   2.270   0.559
 2172SOL    HW1 7415   2.572   2.328   0.524
 2172SOL    HW2 7416   2.529   2.174   0.558
 2173SOL     OW 7417   4.073   0.271   4.940
 2173SOL    HW1 7418   4.007   0.318   4.881
 2173SOL    HW2 7419   4.107   0.190   4.893
 2174SOL     OW 7420   5.541   5.425   5.226
 2174SOL    HW1 7421   5.585   5.336   5.219
 2174SOL    HW2 7422   5.611   5.496   5.236
 2175SOL     OW 7423   2.489   2.239   4.343
 2175SOL    HW1 7424   2.545   2.241   4.261
 2175SOL    HW2 7425   2.494   2.327   4.389
 2176SOL     OW 7426   0.732   3.016   6.808
 2176SOL    HW1 7427   0.822   2.995   6.845
 2176SOL    HW2 7428   0.689   2.931   6.778
 2177SOL     OW 7429   6.205   1.554   3.697
 2177SOL    HW1 7430   6.261   1.504   3.631
 2177SOL    HW2 7431   6.171   1.490   3.767
 2178SOL     OW 7432   1.163   3.524   6.963
 2178SOL    HW1 7433   1.163   3.555   0.034
 2178SOL    HW2 7434   1.182   3.601   6.903
 2179SOL     OW 7435   1.853   5.306   4.660
 2179SOL    HW1 7436   1.914   5.343   4.590
 2179SOL    HW2 7437   1.836   5.210   4.643
 2180SOL     OW 7438   2.333   2.759   1.722
 2180SOL    HW1 7439   2.396   2.788   1.649
 2180SOL    HW2 7440   2.253   2.819   1.721
 2181SOL     OW 7441   4.791   4.663   5.539
 2181SOL    HW1 7442   4.748   4.659   5.449
 2181SOL    HW2 7443   4.849   4.582   5.552
 2182SOL     OW 7444   0.434   3.366   4.530
 2182SOL    HW1 7445   0.384   3.343   4.614
 2182SOL    HW2 7446   0.532   3.356   4.547
 2183SOL     OW 7447   2.947   4.166   5.579
 2183SOL    HW1 7448   3.003   4.139   5.658
 2183SOL    HW2 7449   2.953   4.265   5.566
 2184SOL     OW 7450   4.911   1.739   6.707
 2184SOL    HW1 7451   4.938   1.797   6.631
 2184SOL    HW2 7452   4.819   1.764   6.737
 2185SOL     OW 7453   1.426   2.062   0.796
 2185SOL    HW1 7454   1.486   1.983   0.806
 2185SOL    HW2 7455   1.389   2.064   0.703
 2186SOL     OW 7456   0.071   5.328   2.382
 2186SOL    HW1 7457   0.070   5.413   2.329
 2186SOL    HW2 7458   0.151   5.326   2.442
 2187SOL     OW 7459   6.696   1.538   2.046
 2187SOL    HW1 7460   6.650   1.604   1.986
 2187SOL    HW2 7461   6.637   1.459   2.060
 2188SOL     OW 7462   5.822   6.312   4.193
 2188SOL    HW1 7463   5.764   6.368   4.253
 2188SOL    HW2 7464   5.766   6.270   4.122
 2189SOL     OW 7465   1.681   6.938   0.333
 2189SOL    HW1 7466   1.731   7.006   0.387
 2189SOL    HW2 7467   1.706   6.947   0.237
 2190SOL     OW 7468   0.527   2.742   1.720
 2190SOL    HW1 7469   0.551   2.764   1.814
 2190SOL    HW2 7470   0.466   2.662   1.719
 2191SOL     OW 7471   3.302   2.017   6.402
 2191SOL    HW1 7472   3.284   1.929   6.447
 2191SOL    HW2 7473   3.305   2.090   6.470
 2192SOL     OW 7474   3.997   0.741   3.148
 2192SOL    HW1 7475   3.928   0.770   3.082
 2192SOL    HW2 7476   3.955   0.679   3.214
 2193SOL     OW 7477   6.595   5.749   5.857
 2193SOL    HW1 7478   6.636   5.792   5.777
 2193SOL    HW2 7479   6.627   5.655   5.864
 2194SOL     OW 7480   2.028   4.876   6.535
 2194SOL    HW1 7481   1.974   4.801   6.574
 2194SOL    HW2 7482   2.003   4.889   6.439
 2195SOL     OW 7483   6.826   0.627   3.422
 2195SOL    HW1 7484   6.782   0.552   3.372
 2195SOL    HW2 7485   6.891   0.589   3.487
 2196SOL     OW 7486   3.379   0.160   5.001
 2196SOL    HW1 7487   3.280   0.159   5.011
 2196SOL    HW2 7488   3.410   0.254   4.986
 2197SOL     OW 7489   2.953   3.583   0.911
 2197SOL    HW1 7490   2.987   3.528   0.987
 2197SOL    HW2 7491   3.021   3.651   0.886
 2198SOL     OW 7492   6.787   1.125   0.241
 2198SOL    HW1 7493   6.795   1.165   0.150
 2198SOL    HW2 7494   6.698   1.148   0.280
 2199SOL     OW 7495   5.076   1.303   2.936
 2199SOL    HW1 7496   5.173   1.317   2.918
 2199SOL    HW2 7497   5.053   1.340   3.026
 2200SOL     OW 7498   3.319   0.299   4.595
 2200SOL    HW1 7499   3.368   0.212   4.592
 2200SOL    HW2 7500   3.381   0.373   4.573
 2201SOL     OW 7501   6.203   2.100   3.255
 2201SOL    HW1 7502   6.222   2.198   3.257
 2201SOL    HW2 7503   6.229   2.063   3.166
 2202SOL     OW 7504   2.940   4.962   2.628
 2202SOL    HW1 7505   3.002   5.039   2.640
 2202SOL    HW2 7506   2.921   4.920   2.716
 2203SOL     OW 7507   2.042   2.720   1.366
 2203SOL    HW1 7508   2.128   2.675   1.389
 2203SOL    HW2 7509   1.979   2.654   1.326
 2204SOL     OW 7510   4.184   1.339   6.883
 2204SOL    HW1 7511   4.192   1.385   6.971
 2204SOL    HW2 7512   4.242   1.258   6.882
 2205SOL     OW 7513   1.614   6.691   5.984
 2205SOL    HW1 7514   1.516   6.713   5.992
 2205SOL    HW2 7515   1.668   6.770   6.013
 2206SOL     OW 7516   2.317   4.422   6.123
 2206SOL    HW1 7517   2.227   4.450   6.088
 2206SOL    HW2 7518   2.386   4.488   6.093
 2207SOL     OW 7519   3.146   3.702   6.728
 2207SOL    HW1 7520   3.108   3.709   6.636
 2207SOL    HW2 7521   3.073   3.677   6.792
 2208SOL     OW 7522   1.335   6.255   2.517
 2208SOL    HW1 7523   1.428   6.237   2.485
 2208SOL    HW2 7524   1.335   6.258   2.617
 2209SOL     OW 7525   1.419   5.938   5.922
 2209SOL    HW1 7526   1.360   5.949   6.003
 2209SOL    HW2 7527   1.375   5.980   5.843
 2210SOL     OW 7528   6.867   5.090   4.086
 2210SOL    HW1 7529   6.965   5.108   4.095
 2210SOL    HW2 7530   6.836   5.037   4.164
 2211SOL     OW 7531   5.591   0.215   0.047
 2211SOL    HW1 7532   5.645   0.216   6.987
 2211SOL    HW2 7533   5.639   0.268   0.117
 2212SOL     OW 7534   2.021   6.157   7.019
 2212SOL    HW1 7535   2.072   6.239   6.991
 2212SOL    HW2 7536   1.923   6.177   7.017
 2213SOL     OW 7537   3.875   2.860   5.205
 2213SOL    HW1 7538   3.914   2.768   5.213
 2213SOL    HW2 7539   3.778   2.853   5.184
 2214SOL     OW 7540   4.014   2.633   5.742
 2214SOL    HW1 7541   3.962   2.684   5.674
 2214SOL    HW2 7542   4.079   2.693   5.788
 2215SOL     OW 7543   6.581   1.673   6.735
 2215SOL    HW1 7544   6.524   1.747   6.700
 2215SOL    HW2 7545   6.610   1.695   6.828
 2216SOL     OW 7546   1.770   0.166   6.251
 2216SOL    HW1 7547   1.758   0.249   6.306
 2216SOL    HW2 7548   1.688   0.152   6.194
 2217SOL     OW 7549   4.165   6.759   1.661
 2217SOL    HW1 7550   4.177   6.692   1.734
 2217SOL    HW2 7551   4.149   6.713   1.574
 2218SOL     OW 7552   0.179   6.701   0.882
 2218SOL    HW1 7553   0.140   6.733   0.796
 2218SOL    HW2 7554   0.112   6.647   0.932
 2219SOL     OW 7555   6.563   2.422   2.133
 2219SOL    HW1 7556   6.599   2.445   2.042
 2219SOL    HW2 7557   6.621   2.353   2.175
 2220SOL     OW 7558   0.900   0.532   3.966
 2220SOL    HW1 7559   0.880   0.494   4.056
 2220SOL    HW2 7560   0.955   0.615   3.975
 2221SOL     OW 7561   6.109   1.000   5.308
 2221SOL    HW1 7562   6.201   1.003   5.268
 2221SOL    HW2 7563   6.068   1.091   5.304
 2222SOL     OW 7564   4.438   0.283   0.732
 2222SOL    HW1 7565   4.465   0.261   0.639
 2222SOL    HW2 7566   4.517   0.314   0.784
 2223SOL     OW 7567   6.112   0.552   3.974
 2223SOL    HW1 7568   6.138   0.543   4.070
 2223SOL    HW2 7569   6.053   0.632   3.962
 2224SOL     OW 7570   1.857   4.434   1.228
 2224SOL    HW1 7571   1.934   4.410   1.288
 2224SOL    HW2 7572   1.782   4.471   1.283
 2225SOL     OW 7573   6.371   6.074   2.675
 2225SOL    HW1 7574   6.377   6.111   2.768
 2225SOL    HW2 7575   6.343   5.978   2.679
 2226SOL     OW 7576   3.929   5.477   0.701
 2226SOL    HW1 7577   3.836   5.468   0.736
 2226SOL    HW2 7578   3.938   5.565   0.653
 2227SOL     OW 7579   5.422   3.902   0.239
 2227SOL    HW1 7580   5.380   3.855   0.317
 2227SOL    HW2 7581   5.520   3.914   0.257
 2228SOL     OW 7582   2.786   5.074   1.286
 2228SOL    HW1 7583   2.723   5.098   1.213
 2228SOL    HW2 7584   2.778   4.977   1.307
 2229SOL     OW 7585   4.082   1.576   4.667
 2229SOL    HW1 7586   4.034   1.574   4.579
 2229SOL    HW2 7587   4.018   1.601   4.739
 2230SOL     OW 7588   5.970   5.494   5.492
 2230SOL    HW1 7589   5.954   5.587   5.524
 2230SOL    HW2 7590   5.964   5.491   5.392
 2231SOL     OW 7591   0.259   0.876   1.896
 2231SOL    HW1 7592   0.353   0.903   1.914
 2231SOL    HW2 7593   0.209   0.871   1.983
 2232SOL     OW 7594   0.731   3.215   4.331
 2232SOL    HW1 7595   0.708   3.210   4.233
 2232SOL    HW2 7596   0.750   3.123   4.365
 2233SOL     OW 7597   2.431   4.338   1.256
 2233SOL    HW1 7598   2.406   4.243   1.237
 2233SOL    HW2 7599   2.352   4.386   1.295
 2234SOL     OW 7600   4.071   1.836   2.135
 2234SOL    HW1 7601   4.070   1.877   2.226
 2234SOL    HW2 7602   3.990   1.866   2.084
 2235SOL     OW 7603   1.900   0.803   1.189
 2235SOL    HW1 7604   1.888   0.851   1.102
 2235SOL    HW2 7605   1.846   0.719   1.189
 2236SOL     OW 7606   0.781   4.148   6.685
 2236SOL    HW1 7607   0.758   4.129   6.590
 2236SOL    HW2 7608   0.793   4.062   6.734
 2237SOL     OW 7609   5.571   4.856   3.648
 2237SOL    HW1 7610   5.544   4.950   3.624
 2237SOL    HW2 7611   5.582   4.803   3.564
 2238SOL     OW 7612   5.256   4.877   1.939
 2238SOL    HW1 7613   5.206   4.956   1.976
 2238SOL    HW2 7614   5.289   4.898   1.847
 2239SOL     OW 7615   3.515   5.380   3.390
 2239SOL    HW1 7616   3.454   5.409   3.317
 2239SOL    HW2 7617   3.461   5.358   3.472
 2240SOL     OW 7618   5.268   6.084   4.034
 2240SOL    HW1 7619   5.172   6.057   4.030
 2240SOL    HW2 7620   5.326   6.006   4.009
 2241SOL     OW 7621   0.408   0.209   2.410
 2241SOL    HW1 7622   0.338   0.186   2.478
 2241SOL    HW2 7623   0.396   0.304   2.381
 2242SOL     OW 7624   5.009   2.155   2.900
 2242SOL    HW1 7625   5.040   2.237   2.948
 2242SOL    HW2 7626   4.984   2.085   2.967
 2243SOL     OW 7627   2.608   6.667   5.242
 2243SOL    HW1 7628   2.549   6.741   5.276
 2243SOL    HW2 7629   2.684   6.654   5.306
 2244SOL     OW 7630   2.367   0.090   1.967
 2244SOL    HW1 7631   2.398   0.041   2.048
 2244SOL    HW2 7632   2.303   0.162   1.993
 2245SOL     OW 7633   0.318   1.945   2.264
 2245SOL    HW1 7634   0.323   1.887   2.345
 2245SOL    HW2 7635   0.398   1.927   2.206
 2246SOL     OW 7636   1.010   1.177   6.065
 2246SOL    HW1 7637   1.007   1.098   6.003
 2246SOL    HW2 7638   0.934   1.239   6.043
 2247SOL     OW 7639   2.711   3.049   5.776
 2247SOL    HW1 7640   2.710   3.149   5.769
 2247SOL    HW2 7641   2.802   3.018   5.805
 2248SOL     OW 7642   3.705   3.876   6.436
 2248SOL    HW1 7643   3.682   3.888   6.532
 2248SOL    HW2 7644   3.691   3.962   6.387
 2249SOL     OW 7645   6.038   6.469   2.536
 2249SOL    HW1 7646   6.085   6.382   2.526
 2249SOL    HW2 7647   5.955   6.469   2.480
 2250SOL     OW 7648   4.373   3.707   0.193
 2250SOL    HW1 7649   4.421   3.665   0.116
 2250SOL    HW2 7650   4.305   3.642   0.228
 2251SOL     OW 7651   4.940   0.837   0.372
 2251SOL    HW1 7652   4.955   0.917   0.430
 2251SOL    HW2 7653   4.905   0.761   0.427
 2252SOL     OW 7654   5.245   2.357   2.746
 2252SOL    HW1 7655   5.229   2.396   2.656
 2252SOL    HW2 7656   5.260   2.258   2.738
 2253SOL     OW 7657   1.196   3.953   6.366
 2253SOL    HW1 7658   1.214   3.864   6.324
 2253SOL    HW2 7659   1.108   3.988   6.334
 2254SOL     OW 7660   2.690   3.426   5.586
 2254SOL    HW1 7661   2.753   3.498   5.555
 2254SOL    HW2 7662   2.616   3.416   5.519
 2255SOL     OW 7663   4.598   2.816   6.688
 2255SOL    HW1 7664   4.600   2.719   6.663
 2255SOL    HW2 7665   4.577   2.825   6.785
 2256SOL     OW 7666   4.760   6.206   1.702
 2256SOL    HW1 7667   4.673   6.253   1.711
 2256SOL    HW2 7668   4.749   6.109   1.725
 2257SOL     OW 7669   0.266   2.130   4.164
 2257SOL    HW1 7670   0.168   2.111   4.171
 2257SOL    HW2 7671   0.282   2.227   4.183
 2258SOL     OW 7672   1.510   5.627   6.031
 2258SOL    HW1 7673   1.547   5.692   6.098
 2258SOL    HW2 7674   1.573   5.550   6.021
 2259SOL     OW 7675   4.624   4.152   6.426
 2259SOL    HW1 7676   4.594   4.093   6.351
 2259SOL    HW2 7677   4.670   4.233   6.388
 2260SOL     OW 7678   5.747   4.566   3.123
 2260SOL    HW1 7679   5.776   4.492   3.184
 2260SOL    HW2 7680   5.729   4.648   3.177
 2261SOL     OW 7681   6.831   6.354   0.580
 2261SOL    HW1 7682   6.829   6.277   0.644
 2261SOL    HW2 7683   6.795   6.325   0.492
 2262SOL     OW 7684   5.330   2.072   1.976
 2262SOL    HW1 7685   5.267   2.143   2.006
 2262SOL    HW2 7686   5.292   1.982   2.000
 2263SOL     OW 7687   2.915   5.989   6.615
 2263SOL    HW1 7688   2.867   6.045   6.682
 2263SOL    HW2 7689   2.931   5.897   6.652
 2264SOL     OW 7690   3.700   3.257   0.846
 2264SOL    HW1 7691   3.694   3.179   0.785
 2264SOL    HW2 7692   3.731   3.227   0.936
 2265SOL     OW 7693   0.391   0.579   3.948
 2265SOL    HW1 7694   0.303   0.615   3.979
 2265SOL    HW2 7695   0.390   0.479   3.951
 2266SOL     OW 7696   6.364   2.093   1.215
 2266SOL    HW1 7697   6.341   2.172   1.158
 2266SOL    HW2 7698   6.450   2.110   1.263
 2267SOL     OW 7699   4.909   2.559   4.991
 2267SOL    HW1 7700   4.818   2.530   4.960
 2267SOL    HW2 7701   4.974   2.549   4.916
 2268SOL     OW 7702   6.692   3.957   5.872
 2268SOL    HW1 7703   6.706   3.897   5.793
 2268SOL    HW2 7704   6.703   4.052   5.843
 2269SOL     OW 7705   5.897   5.994   4.874
 2269SOL    HW1 7706   5.815   5.937   4.876
 2269SOL    HW2 7707   5.906   6.043   4.961
 2270SOL     OW 7708   3.549   2.462   6.393
 2270SOL    HW1 7709   3.535   2.394   6.464
 2270SOL    HW2 7710   3.572   2.550   6.435
 2271SOL     OW 7711   6.235   4.191   0.593
 2271SOL    HW1 7712   6.320   4.217   0.639
 2271SOL    HW2 7713   6.198   4.109   0.636
 2272SOL     OW 7714   6.004   1.446   4.786
 2272SOL    HW1 7715   5.956   1.371   4.741
 2272SOL    HW2 7716   5.960   1.466   4.874
 2273SOL     OW 7717   1.557   0.806   2.206
 2273SOL    HW1 7718   1.600   0.874   2.266
 2273SOL    HW2 7719   1.479   0.847   2.159
 2274SOL     OW 7720   1.694   2.233   5.677
 2274SOL    HW1 7721   1.607   2.226   5.725
 2274SOL    HW2 7722   1.721   2.329   5.671
 2275SOL     OW 7723   5.987   0.797   4.560
 2275SOL    HW1 7724   5.912   0.825   4.499
 2275SOL    HW2 7725   5.991   0.697   4.564
 2276SOL     OW 7726   3.117   4.690   1.200
 2276SOL    HW1 7727   3.093   4.620   1.133
 2276SOL    HW2 7728   3.058   4.770   1.188
 2277SOL     OW 7729   3.801   3.826   5.619
 2277SOL    HW1 7730   3.756   3.789   5.700
 2277SOL    HW2 7731   3.859   3.904   5.645
 2278SOL     OW 7732   6.551   5.558   3.808
 2278SOL    HW1 7733   6.599   5.485   3.858
 2278SOL    HW2 7734   6.536   5.528   3.714
 2279SOL     OW 7735   4.463   6.183   4.701
 2279SOL    HW1 7736   4.391   6.176   4.770
 2279SOL    HW2 7737   4.545   6.137   4.733
 2280SOL     OW 7738   0.126   6.077   4.697
 2280SOL    HW1 7739   0.187   6.004   4.726
 2280SOL    HW2 7740   0.039   6.068   4.746
 2281SOL     OW 7741   3.771   1.663   1.351
 2281SOL    HW1 7742   3.762   1.761   1.335
 2281SOL    HW2 7743   3.812   1.647   1.441
 2282SOL     OW 7744   4.735   6.638   5.201
 2282SOL    HW1 7745   4.826   6.671   5.176
 2282SOL    HW2 7746   4.666   6.687   5.148
 2283SOL     OW 7747   6.557   4.723   1.876
 2283SOL    HW1 7748   6.543   4.803   1.818
 2283SOL    HW2 7749   6.601   4.752   1.962
 2284SOL     OW 7750   2.448   1.911   0.332
 2284SOL    HW1 7751   2.450   1.920   0.233
 2284SOL    HW2 7752   2.420   1.819   0.357
 2285SOL     OW 7753   1.821   1.925   0.678
 2285SOL    HW1 7754   1.859   2.014   0.704
 2285SOL    HW2 7755   1.826   1.914   0.579
 2286SOL     OW 7756   0.371   0.016   4.887
 2286SOL    HW1 7757   0.399   0.063   4.971
 2286SOL    HW2 7758   0.437   6.969   4.865
 2287SOL     OW 7759   1.823   1.677   2.401
 2287SOL    HW1 7760   1.815   1.585   2.438
 2287SOL    HW2 7761   1.884   1.732   2.459
 2288SOL     OW 7762   6.277   5.117   4.424
 2288SOL    HW1 7763   6.211   5.155   4.490
 2288SOL    HW2 7764   6.355   5.078   4.473
 2289SOL     OW 7765   6.832   4.493   2.825
 2289SOL    HW1 7766   6.798   4.560   2.891
 2289SOL    HW2 7767   6.857   4.538   2.740
 2290SOL     OW 7768   1.443   3.540   2.141
 2290SOL    HW1 7769   1.382   3.584   2.075
 2290SOL    HW2 7770   1.506   3.479   2.093
 2291SOL     OW 7771   2.215   2.508   6.768
 2291SOL    HW1 7772   2.123   2.536   6.794
 2291SOL    HW2 7773   2.279   2.534   6.840
 2292SOL     OW 7774   5.766   2.817   3.659
 2292SOL    HW1 7775   5.793   2.900   3.708
 2292SOL    HW2 7776   5.789   2.826   3.562
 2293SOL     OW 7777   6.147   6.781   1.336
 2293SOL    HW1 7778   6.110   6.812   1.248
 2293SOL    HW2 7779   6.129   6.851   1.405
 2294SOL     OW 7780   3.734   0.935   6.527
 2294SOL    HW1 7781   3.702   0.841   6.531
 2294SOL    HW2 7782   3.661   0.994   6.493
 2295SOL     OW 7783   0.521   1.810   2.715
 2295SOL    HW1 7784   0.495   1.869   2.792
 2295SOL    HW2 7785   0.603   1.848   2.671
 2296SOL     OW 7786   3.625   5.869   2.753
 2296SOL    HW1 7787   3.695   5.828   2.694
 2296SOL    HW2 7788   3.612   5.965   2.727
 2297SOL     OW 7789   5.102   4.475   5.424
 2297SOL    HW1 7790   5.025   4.461   5.487
 2297SOL    HW2 7791   5.176   4.412   5.448
 2298SOL     OW 7792   4.140   3.652   2.274
 2298SOL    HW1 7793   4.237   3.646   2.251
 2298SOL    HW2 7794   4.092   3.572   2.238
 2299SOL     OW 7795   4.628   4.483   5.338
 2299SOL    HW1 7796   4.717   4.461   5.299
 2299SOL    HW2 7797   4.581   4.398   5.364
 2300SOL     OW 7798   1.938   6.015   2.995
 2300SOL    HW1 7799   1.948   6.029   3.093
 2300SOL    HW2 7800   2.025   5.986   2.956
 2301SOL     OW 7801   3.425   2.924   3.293
 2301SOL    HW1 7802   3.379   2.863   3.357
 2301SOL    HW2 7803   3.383   3.014   3.297
 2302SOL     OW 7804   3.974   0.482   1.395
 2302SOL    HW1 7805   3.947   0.421   1.470
 2302SOL    HW2 7806   3.899   0.491   1.330
 2303SOL     OW 7807   2.528   3.700   0.002
 2303SOL    HW1 7808   2.495   3.782   6.980
 2303SOL    HW2 7809   2.452   3.654   0.047
 2304SOL     OW 7810   5.453   6.753   4.260
 2304SOL    HW1 7811   5.475   6.656   4.255
 2304SOL    HW2 7812   5.490   6.800   4.180
 2305SOL     OW 7813   1.816   0.526   2.991
 2305SOL    HW1 7814   1.765   0.555   2.910
 2305SOL    HW2 7815   1.885   0.595   3.013
 2306SOL     OW 7816   2.596   5.528   2.126
 2306SOL    HW1 7817   2.643   5.611   2.153
 2306SOL    HW2 7818   2.612   5.456   2.194
 2307SOL     OW 7819   6.868   2.846   4.417
 2307SOL    HW1 7820   6.916   2.928   4.450
 2307SOL    HW2 7821   6.770   2.860   4.426
 2308SOL     OW 7822   2.105   4.846   2.053
 2308SOL    HW1 7823   2.078   4.929   2.004
 2308SOL    HW2 7824   2.169   4.793   1.998
 2309SOL     OW 7825   1.732   0.515   5.428
 2309SOL    HW1 7826   1.747   0.503   5.330
 2309SOL    HW2 7827   1.725   0.425   5.472
 2310SOL     OW 7828   5.435   5.374   0.828
 2310SOL    HW1 7829   5.530   5.386   0.855
 2310SOL    HW2 7830   5.403   5.455   0.779
 2311SOL     OW 7831   2.330   0.030   1.232
 2311SOL    HW1 7832   2.380   0.085   1.299
 2311SOL    HW2 7833   2.286   0.091   1.166
 2312SOL     OW 7834   4.594   6.307   3.306
 2312SOL    HW1 7835   4.601   6.302   3.405
 2312SOL    HW2 7836   4.538   6.385   3.280
 2313SOL     OW 7837   5.356   5.763   2.040
 2313SOL    HW1 7838   5.388   5.858   2.034
 2313SOL    HW2 7839   5.274   5.753   1.984
 2314SOL     OW 7840   5.368   5.852   3.951
 2314SOL    HW1 7841   5.451   5.824   3.902
 2314SOL    HW2 7842   5.288   5.834   3.893
 2315SOL     OW 7843   5.324   2.865   6.610
 2315SOL    HW1 7844   5.342   2.854   6.708
 2315SOL    HW2 7845   5.273   2.786   6.577
 2316SOL     OW 7846   4.202   1.820   3.838
 2316SOL    HW1 7847   4.134   1.843   3.769
 2316SOL    HW2 7848   4.217   1.899   3.898
 2317SOL     OW 7849   0.322   6.137   3.304
 2317SOL    HW1 7850   0.416   6.165   3.285
 2317SOL    HW2 7851   0.288   6.081   3.229
 2318SOL     OW 7852   0.699   2.705   3.451
 2318SOL    HW1 7853   0.760   2.651   3.394
 2318SOL    HW2 7854   0.655   2.775   3.395
 2319SOL     OW 7855   1.871   4.776   3.132
 2319SOL    HW1 7856   1.840   4.871   3.135
 2319SOL    HW2 7857   1.876   4.739   3.225
 2320SOL     OW 7858   0.775   2.538   3.988
 2320SOL    HW1 7859   0.735   2.628   3.971
 2320SOL    HW2 7860   0.875   2.545   3.992
 2321SOL     OW 7861   2.867   0.287   6.238
 2321SOL    HW1 7862   2.769   0.301   6.227
 2321SOL    HW2 7863   2.906   0.254   6.152
 2322SOL     OW 7864   2.493   1.875   5.041
 2322SOL    HW1 7865   2.555   1.838   4.971
 2322SOL    HW2 7866   2.420   1.927   4.997
 2323SOL     OW 7867   2.819   5.119   2.189
 2323SOL    HW1 7868   2.907   5.165   2.206
 2323SOL    HW2 7869   2.781   5.088   2.276
 2324SOL     OW 7870   6.610   6.686   2.169
 2324SOL    HW1 7871   6.599   6.728   2.259
 2324SOL    HW2 7872   6.539   6.722   2.108
 2325SOL     OW 7873   1.037   4.731   1.923
 2325SOL    HW1 7874   0.987   4.779   1.851
 2325SOL    HW2 7875   0.972   4.687   1.985
 2326SOL     OW 7876   3.351   4.729   5.392
 2326SOL    HW1 7877   3.300   4.653   5.433
 2326SOL    HW2 7878   3.292   4.810   5.387
 2327SOL     OW 7879   6.364   3.572   5.007
 2327SOL    HW1 7880   6.333   3.665   4.987
 2327SOL    HW2 7881   6.366   3.519   4.922
 2328SOL     OW 7882   3.325   2.141   3.056
 2328SOL    HW1 7883   3.308   2.145   2.958
 2328SOL    HW2 7884   3.241   2.165   3.106
 2329SOL     OW 7885   1.530   4.269   5.272
 2329SOL    HW1 7886   1.450   4.212   5.254
 2329SOL    HW2 7887   1.572   4.296   5.185
 2330SOL     OW 7888   0.984   3.640   2.061
 2330SOL    HW1 7889   0.889   3.651   2.089
 2330SOL    HW2 7890   0.990   3.639   1.961
 2331SOL     OW 7891   6.265   3.723   0.342
 2331SOL    HW1 7892   6.340   3.700   0.281
 2331SOL    HW2 7893   6.273   3.818   0.371
 2332SOL     OW 7894   4.567   1.914   5.982
 2332SOL    HW1 7895   4.562   1.912   5.883
 2332SOL    HW2 7896   4.658   1.883   6.012
 2333SOL     OW 7897   6.993   5.857   3.146
 2333SOL    HW1 7898   6.916   5.822   3.199
 2333SOL    HW2 7899   6.986   5.957   3.140
 2334SOL     OW 7900   2.555   0.295   0.093
 2334SOL    HW1 7901   2.639   0.343   0.070
 2334SOL    HW2 7902   2.530   0.234   0.017
 2335SOL     OW 7903   5.653   1.098   3.400
 2335SOL    HW1 7904   5.643   1.178   3.459
 2335SOL    HW2 7905   5.567   1.046   3.401
 2336SOL     OW 7906   3.909   1.969   5.264
 2336SOL    HW1 7907   3.992   1.931   5.223
 2336SOL    HW2 7908   3.858   1.895   5.310
 2337SOL     OW 7909   4.650   1.082   3.787
 2337SOL    HW1 7910   4.581   1.131   3.841
 2337SOL    HW2 7911   4.732   1.139   3.778
 2338SOL     OW 7912   0.919   1.111   0.027
 2338SOL    HW1 7913   0.834   1.089   7.004
 2338SOL    HW2 7914   0.983   1.154   6.988
 2339SOL     OW 7915   3.775   3.685   5.174
 2339SOL    HW1 7916   3.860   3.726   5.140
 2339SOL    HW2 7917   3.698   3.745   5.152
 2340SOL     OW 7918   5.547   5.342   5.966
 2340SOL    HW1 7919   5.624   5.312   5.910
 2340SOL    HW2 7920   5.554   5.299   6.057
 2341SOL     OW 7921   5.153   4.287   1.484
 2341SOL    HW1 7922   5.053   4.290   1.494
 2341SOL    HW2 7923   5.177   4.273   1.388
 2342SOL     OW 7924   0.615   5.770   5.281
 2342SOL    HW1 7925   0.698   5.731   5.240
 2342SOL    HW2 7926   0.638   5.809   5.370
 2343SOL     OW 7927   2.055   6.691   2.192
 2343SOL    HW1 7928   2.151   6.715   2.175
 2343SOL    HW2 7929   2.045   6.661   2.287
 2344SOL     OW 7930   1.753   1.169   1.207
 2344SOL    HW1 7931   1.831   1.220   1.243
 2344SOL    HW2 7932   1.786   1.093   1.151
 2345SOL     OW 7933   2.005   5.497   5.462
 2345SOL    HW1 7934   2.008   5.420   5.526
 2345SOL    HW2 7935   1.947   5.569   5.500
 2346SOL     OW 7936   4.938   3.220   4.898
 2346SOL    HW1 7937   4.893   3.287   4.957
 2346SOL    HW2 7938   4.904   3.129   4.918
 2347SOL     OW 7939   2.135   3.999   1.513
 2347SOL    HW1 7940   2.126   4.066   1.587
 2347SOL    HW2 7941   2.182   3.918   1.547
 2348SOL     OW 7942   3.403   6.176   3.689
 2348SOL    HW1 7943   3.421   6.173   3.787
 2348SOL    HW2 7944   3.374   6.086   3.657
 2349SOL     OW 7945   0.812   5.226   6.339
 2349SOL    HW1 7946   0.796   5.268   6.428
 2349SOL    HW2 7947   0.909   5.232   6.316
 2350SOL     OW 7948   5.540   6.572   6.586
 2350SOL    HW1 7949   5.610   6.502   6.578
 2350SOL    HW2 7950   5.465   6.538   6.642
 2351SOL     OW 7951   3.797   4.885   2.701
 2351SOL    HW1 7952   3.828   4.974   2.667
 2351SOL    HW2 7953   3.704   4.867   2.669
 2352SOL     OW 7954   1.013   3.604   2.367
 2352SOL    HW1 7955   1.047   3.523   2.414
 2352SOL    HW2 7956   1.012   3.588   2.268
 2353SOL     OW 7957   2.940   4.858   4.472
 2353SOL    HW1 7958   2.986   4.942   4.443
 2353SOL    HW2 7959   3.001   4.806   4.532
 2354SOL     OW 7960   3.139   2.463   6.886
 2354SOL    HW1 7961   3.224   2.410   6.883
 2354SOL    HW2 7962   3.095   2.450   6.975
 2355SOL     OW 7963   1.200   5.012   6.793
 2355SOL    HW1 7964   1.240   4.980   6.707
 2355SOL    HW2 7965   1.139   5.089   6.775
 2356SOL     OW 7966   2.517   4.219   0.388
 2356SOL    HW1 7967   2.490   4.123   0.385
 2356SOL    HW2 7968   2.511   4.259   0.297
 2357SOL     OW 7969   3.687   5.306   4.035
 2357SOL    HW1 7970   3.762   5.240   4.031
 2357SOL    HW2 7971   3.723   5.399   4.032
 2358SOL     OW 7972   2.643   5.316   4.617
 2358SOL    HW1 7973   2.646   5.292   4.520
 2358SOL    HW2 7974   2.713   5.264   4.666
 2359SOL     OW 7975   0.535   1.446   5.974
 2359SOL    HW1 7976   0.628   1.436   6.010
 2359SOL    HW2 7977   0.539   1.473   5.878
 2360SOL     OW 7978   4.864   6.090   5.479
 2360SOL    HW1 7979   4.824   6.061   5.566
 2360SOL    HW2 7980   4.882   6.010   5.422
 2361SOL     OW 7981   2.638   0.249   4.859
 2361SOL    HW1 7982   2.683   0.289   4.779
 2361SOL    HW2 7983   2.659   0.304   4.940
 2362SOL     OW 7984   3.785   6.998   5.588
 2362SOL    HW1 7985   3.867   0.019   5.622
 2362SOL    HW2 7986   3.723   6.980   5.665
 2363SOL     OW 7987   4.653   2.778   5.031
 2363SOL    HW1 7988   4.574   2.717   5.021
 2363SOL    HW2 7989   4.734   2.723   5.049
 2364SOL     OW 7990   0.226   2.412   3.125
 2364SOL    HW1 7991   0.130   2.382   3.121
 2364SOL    HW2 7992   0.269   2.395   3.036
 2365SOL     OW 7993   6.053   2.823   6.179
 2365SOL    HW1 7994   6.032   2.917   6.151
 2365SOL    HW2 7995   6.020   2.760   6.108
 2366SOL     OW 7996   1.164   3.835   5.342
 2366SOL    HW1 7997   1.119   3.866   5.426
 2366SOL    HW2 7998   1.245   3.781   5.366
 2367SOL     OW 7999   2.067   3.757   6.414
 2367SOL    HW1 8000   2.165   3.753   6.431
 2367SOL    HW2 8001   2.047   3.829   6.348
 2368SOL     OW 8002   5.426   1.226   4.292
 2368SOL    HW1 8003   5.487   1.209   4.214
 2368SOL    HW2 8004   5.436   1.153   4.359
 2369SOL     OW 8005   2.165   3.191   4.695
 2369SOL    HW1 8006   2.101   3.154   4.628
 2369SOL    HW2 8007   2.231   3.120   4.722
 2370SOL     OW 8008   4.382   4.311   6.784
 2370SOL    HW1 8009   4.289   4.348   6.782
 2370SOL    HW2 8010   4.440   4.369   6.841
 2371SOL     OW 8011   1.331   6.298   1.818
 2371SOL    HW1 8012   1.238   6.292   1.782
 2371SOL    HW2 8013   1.335   6.254   1.908
 2372SOL     OW 8014   1.056   2.087   0.659
 2372SOL    HW1 8015   0.986   2.131   0.715
 2372SOL    HW2 8016   1.062   1.990   0.684
 2373SOL     OW 8017   5.781   0.211   6.860
 2373SOL    HW1 8018   5.774   0.302   6.818
 2373SOL    HW2 8019   5.877   0.186   6.870
 2374SOL     OW 8020   6.205   6.698   3.621
 2374SOL    HW1 8021   6.172   6.659   3.535
 2374SOL    HW2 8022   6.282   6.645   3.655
 2375SOL     OW 8023   1.268   6.845   3.567
 2375SOL    HW1 8024   1.368   6.850   3.571
 2375SOL    HW2 8025   1.235   6.904   3.493
 2376SOL     OW 8026   6.455   2.929   3.951
 2376SOL    HW1 8027   6.457   2.873   3.868
 2376SOL    HW2 8028   6.368   2.977   3.956
 2377SOL     OW 8029   3.264   3.804   3.745
 2377SOL    HW1 8030   3.179   3.797   3.796
 2377SOL    HW2 8031   3.329   3.735   3.777
 2378SOL     OW 8032   5.137   2.077   6.624
 2378SOL    HW1 8033   5.076   2.155   6.638
 2378SOL    HW2 8034   5.113   2.030   6.539
 2379SOL     OW 8035   6.957   2.580   6.752
 2379SOL    HW1 8036   0.009   2.533   6.796
 2379SOL    HW2 8037   6.908   2.635   6.820
 2380SOL     OW 8038   6.458   0.346   6.110
 2380SOL    HW1 8039   6.379   0.315   6.058
 2380SOL    HW2 8040   6.534   0.364   6.047
 2381SOL     OW 8041   2.095   4.201   4.067
 2381SOL    HW1 8042   2.153   4.199   4.147
 2381SOL    HW2 8043   2.139   4.152   3.992
 2382SOL     OW 8044   2.462   5.315   2.521
 2382SOL    HW1 8045   2.365   5.335   2.535
 2382SOL    HW2 8046   2.496   5.261   2.598
 2383SOL     OW 8047   5.442   6.278   6.777
 2383SOL    HW1 8048   5.394   6.204   6.731
 2383SOL    HW2 8049   5.377   6.350   6.801
 2384SOL     OW 8050   1.252   1.348   2.129
 2384SOL    HW1 8051   1.297   1.263   2.157
 2384SOL    HW2 8052   1.210   1.336   2.039
 2385SOL     OW 8053   6.189   0.259   1.027
 2385SOL    HW1 8054   6.138   0.344   1.043
 2385SOL    HW2 8055   6.223   0.259   0.933
 2386SOL     OW 8056   3.888   4.866   4.014
 2386SOL    HW1 8057   3.889   4.791   4.081
 2386SOL    HW2 8058   3.887   4.954   4.061
 2387SOL     OW 8059   6.886   2.442   4.069
 2387SOL    HW1 8060   6.829   2.360   4.060
 2387SOL    HW2 8061   6.848   2.500   4.141
 2388SOL     OW 8062   1.079   1.848   4.959
 2388SOL    HW1 8063   1.105   1.815   5.049
 2388SOL    HW2 8064   1.139   1.806   4.890
 2389SOL     OW 8065   4.793   4.059   3.954
 2389SOL    HW1 8066   4.835   3.981   4.001
 2389SOL    HW2 8067   4.772   4.131   4.021
 2390SOL     OW 8068   3.473   3.833   4.810
 2390SOL    HW1 8069   3.438   3.758   4.755
 2390SOL    HW2 8070   3.567   3.854   4.784
 2391SOL     OW 8071   3.450   4.348   5.511
 2391SOL    HW1 8072   3.528   4.341   5.449
 2391SOL    HW2 8073   3.382   4.278   5.488
 2392SOL     OW 8074   3.296   5.549   5.581
 2392SOL    HW1 8075   3.207   5.528   5.623
 2392SOL    HW2 8076   3.342   5.620   5.634
 2393SOL     OW 8077   3.678   5.373   1.259
 2393SOL    HW1 8078   3.606   5.432   1.222
 2393SOL    HW2 8079   3.640   5.281   1.273
 2394SOL     OW 8080   1.363   3.877   4.701
 2394SOL    HW1 8081   1.300   3.901   4.627
 2394SOL    HW2 8082   1.374   3.777   4.704
 2395SOL     OW 8083   7.017   2.220   6.731
 2395SOL    HW1 8084   0.011   2.203   6.828
 2395SOL    HW2 8085   6.956   2.149   6.696
 2396SOL     OW 8086   5.343   6.015   0.971
 2396SOL    HW1 8087   5.344   5.923   1.008
 2396SOL    HW2 8088   5.423   6.066   1.004
 2397SOL     OW 8089   6.767   4.808   0.529
 2397SOL    HW1 8090   6.717   4.800   0.443
 2397SOL    HW2 8091   6.725   4.750   0.598
 2398SOL     OW 8092   2.496   4.769   5.813
 2398SOL    HW1 8093   2.507   4.860   5.775
 2398SOL    HW2 8094   2.399   4.744   5.814
 2399SOL     OW 8095   4.310   1.834   2.362
 2399SOL    HW1 8096   4.342   1.835   2.267
 2399SOL    HW2 8097   4.248   1.911   2.376
 2400SOL     OW 8098   3.810   4.378   0.401
 2400SOL    HW1 8099   3.787   4.468   0.363
 2400SOL    HW2 8100   3.772   4.371   0.494
 2401SOL     OW 8101   3.637   0.579   5.471
 2401SOL    HW1 8102   3.718   0.608   5.420
 2401SOL    HW2 8103   3.664   0.511   5.539
 2402SOL     OW 8104   6.870   2.107   4.460
 2402SOL    HW1 8105   6.896   2.061   4.375
 2402SOL    HW2 8106   6.944   2.168   4.489
 2403SOL     OW 8107   2.752   2.767   6.854
 2403SOL    HW1 8108   2.672   2.806   6.898
 2403SOL    HW2 8109   2.782   2.686   6.905
 2404SOL     OW 8110   5.295   1.674   2.413
 2404SOL    HW1 8111   5.286   1.579   2.381
 2404SOL    HW2 8112   5.373   1.717   2.368
 2405SOL     OW 8113   3.955   3.497   5.492
 2405SOL    HW1 8114   3.959   3.596   5.506
 2405SOL    HW2 8115   4.006   3.451   5.565
 2406SOL     OW 8116   1.930   0.511   3.556
 2406SOL    HW1 8117   1.937   0.494   3.458
 2406SOL    HW2 8118   1.836   0.495   3.586
 2407SOL     OW 8119   4.469   1.907   2.822
 2407SOL    HW1 8120   4.375   1.910   2.859
 2407SOL    HW2 8121   4.465   1.902   2.722
 2408SOL     OW 8122   3.634   5.456   2.575
 2408SOL    HW1 8123   3.680   5.408   2.650
 2408SOL    HW2 8124   3.676   5.432   2.488
 2409SOL     OW 8125   2.397   2.721   1.986
 2409SOL    HW1 8126   2.358   2.796   2.039
 2409SOL    HW2 8127   2.373   2.732   1.890
 2410SOL     OW 8128   6.351   2.504   5.839
 2410SOL    HW1 8129   6.262   2.546   5.821
 2410SOL    HW2 8130   6.420   2.547   5.780
 2411SOL     OW 8131   3.650   4.353   5.333
 2411SOL    HW1 8132   3.633   4.449   5.311
 2411SOL    HW2 8133   3.747   4.333   5.323
 2412SOL     OW 8134   2.776   3.806   0.140
 2412SOL    HW1 8135   2.825   3.770   0.219
 2412SOL    HW2 8136   2.715   3.735   0.104
 2413SOL     OW 8137   6.316   3.322   6.704
 2413SOL    HW1 8138   6.258   3.360   6.775
 2413SOL    HW2 8139   6.264   3.256   6.650
 2414SOL     OW 8140   6.035   3.842   2.846
 2414SOL    HW1 8141   6.120   3.890   2.824
 2414SOL    HW2 8142   6.012   3.779   2.772
 2415SOL     OW 8143   1.661   0.229   0.874
 2415SOL    HW1 8144   1.706   0.142   0.852
 2415SOL    HW2 8145   1.612   0.262   0.794
 2416SOL     OW 8146   2.989   1.255   4.899
 2416SOL    HW1 8147   2.969   1.192   4.825
 2416SOL    HW2 8148   3.081   1.238   4.934
 2417SOL     OW 8149   4.347   2.459   0.012
 2417SOL    HW1 8150   4.303   2.424   0.095
 2417SOL    HW2 8151   4.414   2.393   7.004
 2418SOL     OW 8152   3.348   3.599   4.755
 2418SOL    HW1 8153   3.351   3.616   4.853
 2418SOL    HW2 8154   3.408   3.521   4.733
 2419SOL     OW 8155   0.439   6.589   4.516
 2419SOL    HW1 8156   0.423   6.490   4.515
 2419SOL    HW2 8157   0.384   6.632   4.587
 2420SOL     OW 8158   3.996   7.002   2.514
 2420SOL    HW1 8159   4.081   6.960   2.483
 2420SOL    HW2 8160   3.976   6.972   2.608
 2421SOL     OW 8161   2.735   0.875   4.630
 2421SOL    HW1 8162   2.688   0.821   4.560
 2421SOL    HW2 8163   2.825   0.902   4.598
 2422SOL     OW 8164   5.569   0.415   1.346
 2422SOL    HW1 8165   5.617   0.496   1.381
 2422SOL    HW2 8166   5.553   0.351   1.421
 2423SOL     OW 8167   0.607   6.084   2.996
 2423SOL    HW1 8168   0.647   5.998   2.963
 2423SOL    HW2 8169   0.521   6.100   2.948
 2424SOL     OW 8170   5.587   5.751   5.827
 2424SOL    HW1 8171   5.588   5.724   5.923
 2424SOL    HW2 8172   5.573   5.850   5.820
 2425SOL     OW 8173   6.215   0.164   4.351
 2425SOL    HW1 8174   6.127   0.201   4.322
 2425SOL    HW2 8175   6.222   0.069   4.320
 2426SOL     OW 8176   1.143   4.176   4.386
 2426SOL    HW1 8177   1.057   4.203   4.428
 2426SOL    HW2 8178   1.148   4.214   4.293
 2427SOL     OW 8179   6.465   5.407   6.944
 2427SOL    HW1 8180   6.556   5.447   6.953
 2427SOL    HW2 8181   6.462   5.349   6.862
 2428SOL     OW 8182   1.108   0.209   3.486
 2428SOL    HW1 8183   1.050   0.174   3.560
 2428SOL    HW2 8184   1.078   0.302   3.462
 2429SOL     OW 8185   6.741   5.450   3.262
 2429SOL    HW1 8186   6.741   5.377   3.331
 2429SOL    HW2 8187   6.775   5.534   3.303
 2430SOL     OW 8188   5.608   2.442   0.767
 2430SOL    HW1 8189   5.600   2.411   0.673
 2430SOL    HW2 8190   5.539   2.512   0.785
 2431SOL     OW 8191   4.377   0.649   1.996
 2431SOL    HW1 8192   4.457   0.600   2.028
 2431SOL    HW2 8193   4.368   0.735   2.046
 2432SOL     OW 8194   4.060   6.218   2.975
 2432SOL    HW1 8195   3.975   6.193   2.929
 2432SOL    HW2 8196   4.039   6.268   3.059
 2433SOL     OW 8197   2.858   6.637   0.346
 2433SOL    HW1 8198   2.898   6.562   0.399
 2433SOL    HW2 8199   2.931   6.689   0.302
 2434SOL     OW 8200   4.936   1.721   3.632
 2434SOL    HW1 8201   4.933   1.723   3.532
 2434SOL    HW2 8202   4.942   1.815   3.667
 2435SOL     OW 8203   4.418   5.909   0.013
 2435SOL    HW1 8204   4.366   5.986   0.050
 2435SOL    HW2 8205   4.503   5.942   6.997
 2436SOL     OW 8206   2.145   6.980   0.739
 2436SOL    HW1 8207   2.055   6.951   0.707
 2436SOL    HW2 8208   2.135   0.032   0.803
 2437SOL     OW 8209   5.289   5.890   1.262
 2437SOL    HW1 8210   5.388   5.886   1.276
 2437SOL    HW2 8211   5.251   5.797   1.265
 2438SOL     OW 8212   4.226   0.761   5.535
 2438SOL    HW1 8213   4.306   0.705   5.558
 2438SOL    HW2 8214   4.143   0.706   5.542
 2439SOL     OW 8215   1.258   3.755   6.850
 2439SOL    HW1 8216   1.199   3.791   6.922
 2439SOL    HW2 8217   1.311   3.829   6.809
 2440SOL     OW 8218   3.538   6.289   5.210
 2440SOL    HW1 8219   3.539   6.192   5.234
 2440SOL    HW2 8220   3.474   6.304   5.134
 2441SOL     OW 8221   6.661   1.352   0.039
 2441SOL    HW1 8222   6.632   1.279   7.002
 2441SOL    HW2 8223   6.580   1.397   0.077
 2442SOL     OW 8224   5.876   5.804   3.644
 2442SOL    HW1 8225   5.889   5.810   3.545
 2442SOL    HW2 8226   5.943   5.743   3.684
 2443SOL     OW 8227   2.957   0.310   6.502
 2443SOL    HW1 8228   3.020   0.387   6.499
 2443SOL    HW2 8229   2.906   0.305   6.416
 2444SOL     OW 8230   3.991   4.429   6.274
 2444SOL    HW1 8231   4.084   4.465   6.268
 2444SOL    HW2 8232   3.983   4.347   6.216
 2445SOL     OW 8233   6.820   0.714   2.040
 2445SOL    HW1 8234   6.795   0.784   2.107
 2445SOL    HW2 8235   6.863   0.758   1.961
 2446SOL     OW 8236   0.171   3.227   4.055
 2446SOL    HW1 8237   0.139   3.314   4.091
 2446SOL    HW2 8238   0.105   3.155   4.077
 2447SOL     OW 8239   3.125   0.909   1.395
 2447SOL    HW1 8240   3.105   1.005   1.380
 2447SOL    HW2 8241   3.115   0.859   1.309
 2448SOL     OW 8242   6.403   0.460   4.226
 2448SOL    HW1 8243   6.360   0.446   4.315
 2448SOL    HW2 8244   6.424   0.371   4.185
 2449SOL     OW 8245   6.595   4.339   2.850
 2449SOL    HW1 8246   6.568   4.356   2.945
 2449SOL    HW2 8247   6.680   4.388   2.830
 2450SOL     OW 8248   3.570   5.471   5.511
 2450SOL    HW1 8249   3.482   5.510   5.540
 2450SOL    HW2 8250   3.555   5.380   5.473
 2451SOL     OW 8251   0.658   0.672   3.961
 2451SOL    HW1 8252   0.589   0.611   3.923
 2451SOL    HW2 8253   0.745   0.624   3.969
 2452SOL     OW 8254   2.675   1.921   3.381
 2452SOL    HW1 8255   2.596   1.981   3.369
 2452SOL    HW2 8256   2.753   1.958   3.330
 2453SOL     OW 8257   6.305   3.766   1.026
 2453SOL    HW1 8258   6.392   3.720   1.009
 2453SOL    HW2 8259   6.230   3.699   1.023
 2454SOL     OW 8260   3.551   1.056   0.337
 2454SOL    HW1 8261   3.571   1.061   0.239
 2454SOL    HW2 8262   3.546   0.960   0.365
 2455SOL     OW 8263   4.652   0.371   0.873
 2455SOL    HW1 8264   4.622   0.394   0.965
 2455SOL    HW2 8265   4.749   0.347   0.875
 2456SOL     OW 8266   6.001   1.861   0.371
 2456SOL    HW1 8267   5.997   1.933   0.440
 2456SOL    HW2 8268   6.055   1.892   0.293
 2457SOL     OW 8269   0.092   6.664   6.233
 2457SOL    HW1 8270   7.023   6.675   6.200
 2457SOL    HW2 8271   0.140   6.751   6.228
 2458SOL     OW 8272   2.112   6.027   4.368
 2458SOL    HW1 8273   2.204   6.058   4.343
 2458SOL    HW2 8274   2.118   5.935   4.406
 2459SOL     OW 8275   2.786   5.882   6.213
 2459SOL    HW1 8276   2.850   5.933   6.270
 2459SOL    HW2 8277   2.741   5.811   6.267
 2460SOL     OW 8278   2.042   1.741   1.736
 2460SOL    HW1 8279   2.022   1.676   1.810
 2460SOL    HW2 8280   2.120   1.798   1.761
 2461SOL     OW 8281   4.674   0.795   2.904
 2461SOL    HW1 8282   4.719   0.768   2.989
 2461SOL    HW2 8283   4.708   0.884   2.874
 2462SOL     OW 8284   2.089   5.893   0.686
 2462SOL    HW1 8285   2.097   5.807   0.636
 2462SOL    HW2 8286   2.118   5.881   0.781
 2463SOL     OW 8287   6.548   2.041   5.771
 2463SOL    HW1 8288   6.559   1.949   5.735
 2463SOL    HW2 8289   6.467   2.044   5.830
 2464SOL     OW 8290   1.992   4.154   1.845
 2464SOL    HW1 8291   1.972   4.064   1.885
 2464SOL    HW2 8292   1.913   4.186   1.794
 2465SOL     OW 8293   0.364   0.599   1.872
 2465SOL    HW1 8294   0.314   0.679   1.904
 2465SOL    HW2 8295   0.424   0.566   1.944
 2466SOL     OW 8296   2.607   2.031   2.549
 2466SOL    HW1 8297   2.509   2.049   2.545
 2466SOL    HW2 8298   2.656   2.116   2.567
 2467SOL     OW 8299   5.128   1.041   5.319
 2467SOL    HW1 8300   5.159   0.983   5.395
 2467SOL    HW2 8301   5.103   0.983   5.241
 2468SOL     OW 8302   4.965   6.277   2.095
 2468SOL    HW1 8303   5.030   6.251   2.167
 2468SOL    HW2 8304   4.916   6.196   2.064
 2469SOL     OW 8305   4.023   3.844   5.438
 2469SOL    HW1 8306   3.928   3.824   5.413
 2469SOL    HW2 8307   4.024   3.902   5.520
 2470SOL     OW 8308   3.724   4.760   6.460
 2470SOL    HW1 8309   3.719   4.681   6.522
 2470SOL    HW2 8310   3.811   4.807   6.473
 2471SOL     OW 8311   2.829   6.165   1.008
 2471SOL    HW1 8312   2.898   6.197   0.943
 2471SOL    HW2 8313   2.867   6.092   1.064
 2472SOL     OW 8314   4.991   2.485   4.744
 2472SOL    HW1 8315   5.084   2.515   4.719
 2472SOL    HW2 8316   4.988   2.385   4.748
 2473SOL     OW 8317   2.260   4.190   4.722
 2473SOL    HW1 8318   2.160   4.191   4.722
 2473SOL    HW2 8319   2.292   4.132   4.796
 2474SOL     OW 8320   0.545   5.992   1.035
 2474SOL    HW1 8321   0.518   6.086   1.053
 2474SOL    HW2 8322   0.605   5.989   0.954
 2475SOL     OW 8323   4.655   1.595   2.028
 2475SOL    HW1 8324   4.658   1.656   2.106
 2475SOL    HW2 8325   4.679   1.502   2.057
 2476SOL     OW 8326   0.122   1.746   3.420
 2476SOL    HW1 8327   0.091   1.807   3.493
 2476SOL    HW2 8328   0.214   1.713   3.440
 2477SOL     OW 8329   4.790   1.287   2.082
 2477SOL    HW1 8330   4.890   1.287   2.083
 2477SOL    HW2 8331   4.756   1.287   2.176
 2478SOL     OW 8332   6.310   1.421   2.245
 2478SOL    HW1 8333   6.329   1.352   2.315
 2478SOL    HW2 8334   6.224   1.467   2.265
 2479SOL     OW 8335   1.515   3.684   1.430
 2479SOL    HW1 8336   1.484   3.767   1.384
 2479SOL    HW2 8337   1.468   3.604   1.391
 2480SOL     OW 8338   5.867   4.211   0.687
 2480SOL    HW1 8339   5.895   4.216   0.591
 2480SOL    HW2 8340   5.822   4.123   0.703
 2481SOL     OW 8341   2.336   0.821   0.218
 2481SOL    HW1 8342   2.378   0.796   0.130
 2481SOL    HW2 8343   2.245   0.780   0.224
 2482SOL     OW 8344   4.710   3.262   5.879
 2482SOL    HW1 8345   4.755   3.173   5.878
 2482SOL    HW2 8346   4.771   3.331   5.843
 2483SOL     OW 8347   1.792   2.147   6.573
 2483SOL    HW1 8348   1.710   2.156   6.516
 2483SOL    HW2 8349   1.870   2.121   6.515
 2484SOL     OW 8350   2.995   0.651   0.602
 2484SOL    HW1 8351   2.944   0.623   0.521
 2484SOL    HW2 8352   2.979   0.586   0.676
 2485SOL     OW 8353   5.881   3.570   1.552
 2485SOL    HW1 8354   5.940   3.541   1.627
 2485SOL    HW2 8355   5.819   3.495   1.527
 2486SOL     OW 8356   1.939   4.341   4.876
 2486SOL    HW1 8357   2.028   4.374   4.907
 2486SOL    HW2 8358   1.892   4.413   4.825
 2487SOL     OW 8359   3.576   5.860   0.126
 2487SOL    HW1 8360   3.496   5.805   0.149
 2487SOL    HW2 8361   3.646   5.801   0.085
 2488SOL     OW 8362   2.135   4.385   2.181
 2488SOL    HW1 8363   2.076   4.304   2.183
 2488SOL    HW2 8364   2.099   4.454   2.245
 2489SOL     OW 8365   1.083   5.572   3.196
 2489SOL    HW1 8366   1.018   5.617   3.134
 2489SOL    HW2 8367   1.033   5.536   3.275
 2490SOL     OW 8368   6.180   5.098   1.543
 2490SOL    HW1 8369   6.208   5.073   1.635
 2490SOL    HW2 8370   6.210   5.191   1.523
 2491SOL     OW 8371   3.003   5.357   0.990
 2491SOL    HW1 8372   3.002   5.397   0.899
 2491SOL    HW2 8373   2.918   5.307   1.005
 2492SOL     OW 8374   4.288   2.718   0.112
 2492SOL    HW1 8375   4.315   2.627   0.081
 2492SOL    HW2 8376   4.230   2.760   0.044
 2493SOL     OW 8377   6.275   0.651   2.519
 2493SOL    HW1 8378   6.224   0.566   2.532
 2493SOL    HW2 8379   6.277   0.673   2.421
 2494SOL     OW 8380   6.000   4.237   2.087
 2494SOL    HW1 8381   5.973   4.329   2.058
 2494SOL    HW2 8382   6.095   4.239   2.118
 2495SOL     OW 8383   5.031   0.319   4.624
 2495SOL    HW1 8384   5.059   0.311   4.528
 2495SOL    HW2 8385   5.013   0.415   4.645
 2496SOL     OW 8386   0.311   4.283   5.777
 2496SOL    HW1 8387   0.243   4.317   5.711
 2496SOL    HW2 8388   0.300   4.184   5.786
 2497SOL     OW 8389   0.101   0.732   0.925
 2497SOL    HW1 8390   0.105   0.771   1.017
 2497SOL    HW2 8391   0.093   0.632   0.931
 2498SOL     OW 8392   3.443   1.964   4.232
 2498SOL    HW1 8393   3.452   1.987   4.135
 2498SOL    HW2 8394   3.514   1.898   4.258
 2499SOL     OW 8395   5.227   2.213   4.078
 2499SOL    HW1 8396   5.163   2.154   4.127
 2499SOL    HW2 8397   5.210   2.309   4.102
 2500SOL     OW 8398   4.188   3.156   6.995
 2500SOL    HW1 8399   4.212   3.214   0.048
 2500SOL    HW2 8400   4.093   3.126   7.004
 2501SOL     OW 8401   6.459   5.720   6.871
 2501SOL    HW1 8402   6.403   5.758   6.945
 2501SOL    HW2 8403   6.400   5.702   6.792
 2502SOL     OW 8404   1.899   5.855   3.272
 2502SOL    HW1 8405   1.915   5.756   3.262
 2502SOL    HW2 8406   1.982   5.898   3.308
 2503SOL     OW 8407   3.279   5.631   4.720
 2503SOL    HW1 8408   3.264   5.707   4.784
 2503SOL    HW2 8409   3.216   5.557   4.740
 2504SOL     OW 8410   2.776   5.183   4.997
 2504SOL    HW1 8411   2.702   5.249   4.985
 2504SOL    HW2 8412   2.849   5.224   5.052
 2505SOL     OW 8413   1.872   5.702   4.276
 2505SOL    HW1 8414   1.959   5.665   4.308
 2505SOL    HW2 8415   1.868   5.695   4.176
 2506SOL     OW 8416   6.034   3.275   6.599
 2506SOL    HW1 8417   6.079   3.359   6.569
 2506SOL    HW2 8418   5.970   3.296   6.673
 2507SOL     OW 8419   1.050   4.326   0.801
 2507SOL    HW1 8420   1.088   4.402   0.748
 2507SOL    HW2 8421   1.045   4.244   0.743
 2508SOL     OW 8422   2.834   1.218   1.988
 2508SOL    HW1 8423   2.791   1.199   1.900
 2508SOL    HW2 8424   2.772   1.274   2.043
 2509SOL     OW 8425   6.078   2.495   2.783
 2509SOL    HW1 8426   6.002   2.559   2.768
 2509SOL    HW2 8427   6.042   2.406   2.812
 2510SOL     OW 8428   3.359   4.240   1.408
 2510SOL    HW1 8429   3.444   4.250   1.355
 2510SOL    HW2 8430   3.320   4.149   1.391
 2511SOL     OW 8431   2.802   1.317   3.634
 2511SOL    HW1 8432   2.735   1.282   3.569
 2511SOL    HW2 8433   2.853   1.240   3.673
 2512SOL     OW 8434   5.033   5.004   4.815
 2512SOL    HW1 8435   4.993   5.039   4.730
 2512SOL    HW2 8436   5.067   4.911   4.800
 2513SOL     OW 8437   1.431   3.336   5.020
 2513SOL    HW1 8438   1.349   3.299   4.975
 2513SOL    HW2 8439   1.485   3.386   4.953
 2514SOL     OW 8440   6.713   3.601   4.325
 2514SOL    HW1 8441   6.618   3.614   4.299
 2514SOL    HW2 8442   6.723   3.513   4.372
 2515SOL     OW 8443   1.163   6.597   0.438
 2515SOL    HW1 8444   1.251   6.551   0.427
 2515SOL    HW2 8445   1.176   6.696   0.438
 2516SOL     OW 8446   5.690   0.452   3.998
 2516SOL    HW1 8447   5.607   0.397   3.998
 2516SOL    HW2 8448   5.703   0.495   3.909
 2517SOL     OW 8449   1.245   5.579   6.068
 2517SOL    HW1 8450   1.239   5.482   6.092
 2517SOL    HW2 8451   1.342   5.606   6.065
 2518SOL     OW 8452   2.092   3.369   6.648
 2518SOL    HW1 8453   2.029   3.340   6.577
 2518SOL    HW2 8454   2.180   3.323   6.636
 2519SOL     OW 8455   4.978   6.249   3.780
 2519SOL    HW1 8456   4.986   6.348   3.769
 2519SOL    HW2 8457   4.977   6.206   3.690
 2520SOL     OW 8458   1.318   2.857   0.127
 2520SOL    HW1 8459   1.381   2.784   0.154
 2520SOL    HW2 8460   1.366   2.920   0.065
 2521SOL     OW 8461   1.250   6.059   6.162
 2521SOL    HW1 8462   1.163   6.057   6.211
 2521SOL    HW2 8463   1.305   6.135   6.196
 2522SOL     OW 8464   0.068   3.177   5.765
 2522SOL    HW1 8465   0.120   3.174   5.850
 2522SOL    HW2 8466   7.016   3.114   5.771
 2523SOL     OW 8467   0.003   2.886   1.681
 2523SOL    HW1 8468   6.975   2.839   1.610
 2523SOL    HW2 8469   0.047   2.818   1.740
 2524SOL     OW 8470   0.872   5.101   4.768
 2524SOL    HW1 8471   0.918   5.181   4.728
 2524SOL    HW2 8472   0.940   5.034   4.796
 2525SOL     OW 8473   0.555   2.741   4.167
 2525SOL    HW1 8474   0.484   2.672   4.182
 2525SOL    HW2 8475   0.548   2.812   4.237
 2526SOL     OW 8476   1.861   4.399   5.625
 2526SOL    HW1 8477   1.853   4.303   5.652
 2526SOL    HW2 8478   1.947   4.436   5.661
 2527SOL     OW 8479   5.372   6.165   5.313
 2527SOL    HW1 8480   5.284   6.195   5.276
 2527SOL    HW2 8481   5.443   6.231   5.291
 2528SOL     OW 8482   5.737   4.451   0.728
 2528SOL    HW1 8483   5.751   4.481   0.823
 2528SOL    HW2 8484   5.751   4.352   0.723
 2529SOL     OW 8485   6.929   6.440   6.625
 2529SOL    HW1 8486   6.917   6.539   6.619
 2529SOL    HW2 8487   7.019   6.419   6.663
 2530SOL     OW 8488   1.262   6.660   4.621
 2530SOL    HW1 8489   1.205   6.727   4.573
 2530SOL    HW2 8490   1.310   6.603   4.554
 2531SOL     OW 8491   4.890   6.044   4.326
 2531SOL    HW1 8492   4.922   6.137   4.306
 2531SOL    HW2 8493   4.917   5.983   4.251
 2532SOL     OW 8494   0.899   5.768   0.662
 2532SOL    HW1 8495   0.943   5.818   0.588
 2532SOL    HW2 8496   0.908   5.819   0.747
 2533SOL     OW 8497   3.612   0.367   3.004
 2533SOL    HW1 8498   3.689   0.382   2.942
 2533SOL    HW2 8499   3.536   0.325   2.954
 2534SOL     OW 8500   2.503   0.961   3.034
 2534SOL    HW1 8501   2.572   0.984   2.965
 2534SOL    HW2 8502   2.539   0.889   3.093
 2535SOL     OW 8503   2.645   2.585   6.681
 2535SOL    HW1 8504   2.704   2.662   6.706
 2535SOL    HW2 8505   2.695   2.522   6.622
 2536SOL     OW 8506   6.624   1.731   3.953
 2536SOL    HW1 8507   6.715   1.710   3.916
 2536SOL    HW2 8508   6.566   1.767   3.881
 2537SOL     OW 8509   5.174   6.267   6.548
 2537SOL    HW1 8510   5.133   6.290   6.459
 2537SOL    HW2 8511   5.121   6.310   6.621
 2538SOL     OW 8512   1.215   3.951   4.486
 2538SOL    HW1 8513   1.206   4.047   4.459
 2538SOL    HW2 8514   1.231   3.895   4.405
 2539SOL     OW 8515   5.183   0.496   6.209
 2539SOL    HW1 8516   5.218   0.435   6.137
 2539SOL    HW2 8517   5.235   0.581   6.208
 2540SOL     OW 8518   4.464   0.846   2.342
 2540SOL    HW1 8519   4.383   0.788   2.347
 2540SOL    HW2 8520   4.446   0.922   2.279
 2541SOL     OW 8521   1.812   6.502   5.420
 2541SOL    HW1 8522   1.793   6.573   5.488
 2541SOL    HW2 8523   1.838   6.545   5.334
 2542SOL     OW 8524   5.013   1.434   5.877
 2542SOL    HW1 8525   4.922   1.477   5.877
 2542SOL    HW2 8526   5.008   1.346   5.923
 2543SOL     OW 8527   2.042   1.658   2.650
 2543SOL    HW1 8528   1.952   1.694   2.675
 2543SOL    HW2 8529   2.109   1.683   2.720
 2544SOL     OW 8530   0.089   5.009   1.440
 2544SOL    HW1 8531   0.087   4.938   1.510
 2544SOL    HW2 8532   0.160   4.988   1.373
 2545SOL     OW 8533   1.896   0.959   0.961
 2545SOL    HW1 8534   1.896   1.051   0.923
 2545SOL    HW2 8535   1.890   0.892   0.887
 2546SOL     OW 8536   0.048   2.592   2.089
 2546SOL    HW1 8537   0.100   2.646   2.155
 2546SOL    HW2 8538   7.000   2.542   2.137
 2547SOL     OW 8539   5.911   4.805   6.923
 2547SOL    HW1 8540   5.934   4.871   6.995
 2547SOL    HW2 8541   5.984   4.805   6.855
 2548SOL     OW 8542   3.050   0.067   5.409
 2548SOL    HW1 8543   3.112   0.016   5.348
 2548SOL    HW2 8544   2.975   0.007   5.437
 2549SOL     OW 8545   2.026   1.254   1.212
 2549SOL    HW1 8546   1.991   1.316   1.142
 2549SOL    HW2 8547   2.121   1.232   1.193
 2550SOL     OW 8548   6.913   0.646   6.406
 2550SOL    HW1 8549   6.857   0.690   6.336
 2550SOL    HW2 8550   7.009   0.672   6.393
 2551SOL     OW 8551   2.800   5.678   0.205
 2551SOL    HW1 8552   2.709   5.698   0.169
 2551SOL    HW2 8553   2.806   5.581   0.230
 2552SOL     OW 8554   1.268   5.854   6.410
 2552SOL    HW1 8555   1.325   5.774   6.395
 2552SOL    HW2 8556   1.210   5.870   6.331
 2553SOL     OW 8557   3.540   3.868   6.781
 2553SOL    HW1 8558   3.522   3.773   6.753
 2553SOL    HW2 8559   3.628   3.872   6.829
 2554SOL     OW 8560   1.384   5.801   6.932
 2554SOL    HW1 8561   1.473   5.847   6.926
 2554SOL    HW2 8562   1.389   5.727   6.999
 2555SOL     OW 8563   6.533   6.389   6.217
 2555SOL    HW1 8564   6.619   6.392   6.166
 2555SOL    HW2 8565   6.474   6.464   6.185
 2556SOL     OW 8566   3.867   6.048   0.405
 2556SOL    HW1 8567   3.954   6.004   0.384
 2556SOL    HW2 8568   3.883   6.126   0.466
 2557SOL     OW 8569   2.406   2.495   6.290
 2557SOL    HW1 8570   2.391   2.541   6.378
 2557SOL    HW2 8571   2.379   2.555   6.215
 2558SOL     OW 8572   3.864   3.512   5.958
 2558SOL    HW1 8573   3.909   3.441   5.904
 2558SOL    HW2 8574   3.928   3.587   5.976
 2559SOL     OW 8575   6.368   3.513   4.559
 2559SOL    HW1 8576   6.336   3.585   4.498
 2559SOL    HW2 8577   6.394   3.433   4.505
 2560SOL     OW 8578   5.376   3.776   4.364
 2560SOL    HW1 8579   5.407   3.694   4.413
 2560SOL    HW2 8580   5.388   3.762   4.266
 2561SOL     OW 8581   3.014   0.264   3.958
 2561SOL    HW1 8582   2.968   0.321   4.026
 2561SOL    HW2 8583   3.074   0.321   3.902
 2562SOL     OW 8584   2.000   5.797   2.463
 2562SOL    HW1 8585   2.094   5.816   2.433
 2562SOL    HW2 8586   1.949   5.758   2.386
 2563SOL     OW 8587   4.249   1.716   6.891
 2563SOL    HW1 8588   4.284   1.737   6.982
 2563SOL    HW2 8589   4.149   1.723   6.891
 2564SOL     OW 8590   1.125   6.671   6.488
 2564SOL    HW1 8591   1.122   6.771   6.489
 2564SOL    HW2 8592   1.120   6.638   6.394
 2565SOL     OW 8593   0.084   0.681   0.066
 2565SOL    HW1 8594   0.057   0.723   7.004
 2565SOL    HW2 8595   0.005   0.634   0.106
 2566SOL     OW 8596   1.711   6.968   0.811
 2566SOL    HW1 8597   1.617   6.963   0.777
 2566SOL    HW2 8598   1.769   6.905   0.759
 2567SOL     OW 8599   1.163   1.342   1.891
 2567SOL    HW1 8600   1.205   1.305   1.809
 2567SOL    HW2 8601   1.070   1.374   1.870
 2568SOL     OW 8602   3.061   0.142   6.877
 2568SOL    HW1 8603   2.965   0.169   6.881
 2568SOL    HW2 8604   3.094   0.123   6.970
 2569SOL     OW 8605   3.015   0.302   1.707
 2569SOL    HW1 8606   3.063   0.291   1.620
 2569SOL    HW2 8607   2.985   0.397   1.715
 2570SOL     OW 8608   6.095   0.586   6.989
 2570SOL    HW1 8609   6.154   0.548   0.035
 2570SOL    HW2 8610   6.010   0.618   0.005
 2571SOL     OW 8611   2.221   3.485   5.585
 2571SOL    HW1 8612   2.267   3.444   5.664
 2571SOL    HW2 8613   2.265   3.573   5.564
 2572SOL     OW 8614   1.924   6.261   0.943
 2572SOL    HW1 8615   1.865   6.182   0.961
 2572SOL    HW2 8616   1.905   6.333   1.010
 2573SOL     OW 8617   6.417   1.630   2.501
 2573SOL    HW1 8618   6.511   1.601   2.518
 2573SOL    HW2 8619   6.417   1.717   2.452
 2574SOL     OW 8620   0.026   3.405   0.243
 2574SOL    HW1 8621   7.019   3.349   0.319
 2574SOL    HW2 8622   0.112   3.368   0.208
 2575SOL     OW 8623   5.120   4.899   0.061
 2575SOL    HW1 8624   5.158   4.853   0.141
 2575SOL    HW2 8625   5.043   4.846   0.026
 2576SOL     OW 8626   4.245   6.779   4.354
 2576SOL    HW1 8627   4.170   6.833   4.317
 2576SOL    HW2 8628   4.307   6.839   4.404
 2577SOL     OW 8629   4.272   5.971   2.228
 2577SOL    HW1 8630   4.222   6.056   2.212
 2577SOL    HW2 8631   4.297   5.965   2.325
 2578SOL     OW 8632   4.745   2.524   4.663
 2578SOL    HW1 8633   4.719   2.460   4.590
 2578SOL    HW2 8634   4.841   2.509   4.687
 2579SOL     OW 8635   0.968   0.655   3.283
 2579SOL    HW1 8636   0.904   0.721   3.244
 2579SOL    HW2 8637   1.036   0.703   3.338
 2580SOL     OW 8638   2.306   2.911   6.874
 2580SOL    HW1 8639   2.248   2.919   6.955
 2580SOL    HW2 8640   2.402   2.915   6.902
 2581SOL     OW 8641   6.932   4.256   0.984
 2581SOL    HW1 8642   0.005   4.273   0.968
 2581SOL    HW2 8643   6.898   4.189   0.918
 2582SOL     OW 8644   0.868   4.194   2.205
 2582SOL    HW1 8645   0.905   4.105   2.180
 2582SOL    HW2 8646   0.942   4.262   2.206
 2583SOL     OW 8647   0.412   2.020   1.263
 2583SOL    HW1 8648   0.398   2.108   1.218
 2583SOL    HW2 8649   0.323   1.977   1.281
 2584SOL     OW 8650   3.790   5.684   0.023
 2584SOL    HW1 8651   3.850   5.764   0.028
 2584SOL    HW2 8652   3.821   5.623   6.975
 2585SOL     OW 8653   4.172   1.669   0.213
 2585SOL    HW1 8654   4.243   1.721   0.167
 2585SOL    HW2 8655   4.188   1.671   0.312
 2586SOL     OW 8656   3.628   1.404   3.866
 2586SOL    HW1 8657   3.641   1.351   3.783
 2586SOL    HW2 8658   3.530   1.414   3.884
 2587SOL     OW 8659   6.769   0.925   3.684
 2587SOL    HW1 8660   6.765   0.885   3.592
 2587SOL    HW2 8661   6.778   1.024   3.677
 2588SOL     OW 8662   4.837   6.778   6.794
 2588SOL    HW1 8663   4.843   6.748   6.889
 2588SOL    HW2 8664   4.928   6.804   6.761
 2589SOL     OW 8665   0.482   5.834   6.232
 2589SOL    HW1 8666   0.410   5.896   6.264
 2589SOL    HW2 8667   0.508   5.773   6.307
 2590SOL     OW 8668   3.268   6.245   1.885
 2590SOL    HW1 8669   3.220   6.215   1.968
 2590SOL    HW2 8670   3.257   6.177   1.814
 2591SOL     OW 8671   6.660   5.561   1.767
 2591SOL    HW1 8672   6.668   5.629   1.695
 2591SOL    HW2 8673   6.669   5.605   1.857
 2592SOL     OW 8674   3.356   6.599   1.132
 2592SOL    HW1 8675   3.429   6.580   1.197
 2592SOL    HW2 8676   3.393   6.652   1.055
 2593SOL     OW 8677   2.696   6.031   1.399
 2593SOL    HW1 8678   2.663   6.099   1.333
 2593SOL    HW2 8679   2.653   6.049   1.488
 2594SOL     OW 8680   0.580   5.940   5.993
 2594SOL    HW1 8681   0.672   5.914   5.962
 2594SOL    HW2 8682   0.559   5.892   6.078
 2595SOL     OW 8683   6.490   1.366   4.799
 2595SOL    HW1 8684   6.399   1.386   4.833
 2595SOL    HW2 8685   6.483   1.315   4.713
 2596SOL     OW 8686   3.762   2.111   1.745
 2596SOL    HW1 8687   3.752   2.201   1.787
 2596SOL    HW2 8688   3.750   2.119   1.646
 2597SOL     OW 8689   1.628   3.799   6.414
 2597SOL    HW1 8690   1.667   3.742   6.342
 2597SOL    HW2 8691   1.666   3.892   6.407
 2598SOL     OW 8692   6.358   1.321   4.526
 2598SOL    HW1 8693   6.364   1.420   4.528
 2598SOL    HW2 8694   6.298   1.293   4.450
 2599SOL     OW 8695   3.041   0.356   0.712
 2599SOL    HW1 8696   2.964   0.362   0.775
 2599SOL    HW2 8697   3.012   0.312   0.627
 2600SOL     OW 8698   4.887   3.497   4.262
 2600SOL    HW1 8699   4.800   3.545   4.252
 2600SOL    HW2 8700   4.870   3.406   4.301
 2601SOL     OW 8701   2.055   2.056   6.813
 2601SOL    HW1 8702   2.042   2.115   6.733
 2601SOL    HW2 8703   1.985   2.076   6.881
 2602SOL     OW 8704   6.605   4.552   3.804
 2602SOL    HW1 8705   6.652   4.559   3.716
 2602SOL    HW2 8706   6.584   4.644   3.838
 2603SOL     OW 8707   2.307   1.745   1.966
 2603SOL    HW1 8708   2.391   1.777   2.009
 2603SOL    HW2 8709   2.289   1.798   1.884
 2604SOL     OW 8710   4.767   1.413   3.320
 2604SOL    HW1 8711   4.689   1.433   3.261
 2604SOL    HW2 8712   4.764   1.318   3.349
 2605SOL     OW 8713   2.307   4.322   2.743
 2605SOL    HW1 8714   2.223   4.374   2.760
 2605SOL    HW2 8715   2.309   4.293   2.647
 2606SOL     OW 8716   6.874   4.689   1.168
 2606SOL    HW1 8717   6.829   4.604   1.140
 2606SOL    HW2 8718   6.805   4.751   1.207
 2607SOL     OW 8719   7.005   1.249   0.025
 2607SOL    HW1 8720   7.020   1.323   0.090
 2607SOL    HW2 8721   6.975   1.287   6.962
 2608SOL     OW 8722   4.827   4.859   1.469
 2608SOL    HW1 8723   4.826   4.955   1.443
 2608SOL    HW2 8724   4.797   4.850   1.564
 2609SOL     OW 8725   6.787   1.591   1.568
 2609SOL    HW1 8726   6.802   1.595   1.667
 2609SOL    HW2 8727   6.707   1.535   1.549
 2610SOL     OW 8728   0.056   4.813   4.279
 2610SOL    HW1 8729   7.002   4.859   4.237
 2610SOL    HW2 8730   0.103   4.876   4.341
 2611SOL     OW 8731   4.540   6.138   0.953
 2611SOL    HW1 8732   4.533   6.046   0.991
 2611SOL    HW2 8733   4.465   6.195   0.988
 2612SOL     OW 8734   6.509   0.171   5.695
 2612SOL    HW1 8735   6.471   0.087   5.655
 2612SOL    HW2 8736   6.595   0.194   5.650
 2613SOL     OW 8737   2.639   6.788   0.358
 2613SOL    HW1 8738   2.622   6.821   0.451
 2613SOL    HW2 8739   2.721   6.731   0.358
 2614SOL     OW 8740   6.809   0.717   6.053
 2614SOL    HW1 8741   6.726   0.723   6.108
 2614SOL    HW2 8742   6.787   0.732   5.957
 2615SOL     OW 8743   0.128   3.368   2.985
 2615SOL    HW1 8744   0.167   3.438   2.925
 2615SOL    HW2 8745   0.050   3.407   3.035
 2616SOL     OW 8746   3.747   2.945   4.867
 2616SOL    HW1 8747   3.677   2.901   4.923
 2616SOL    HW2 8748   3.787   3.022   4.917
 2617SOL     OW 8749   3.643   6.582   1.140
 2617SOL    HW1 8750   3.686   6.497   1.169
 2617SOL    HW2 8751   3.649   6.590   1.040
 2618SOL     OW 8752   0.383   0.325   4.430
 2618SOL    HW1 8753   0.446   0.355   4.357
 2618SOL    HW2 8754   0.346   0.235   4.407
 2619SOL     OW 8755   4.127   1.718   3.283
 2619SOL    HW1 8756   4.219   1.755   3.293
 2619SOL    HW2 8757   4.124   1.626   3.323
 2620SOL     OW 8758   0.106   6.823   2.756
 2620SOL    HW1 8759   0.147   6.895   2.812
 2620SOL    HW2 8760   0.028   6.861   2.706
 2621SOL     OW 8761   1.276   6.086   3.094
 2621SOL    HW1 8762   1.233   6.177   3.098
 2621SOL    HW2 8763   1.245   6.032   3.172
 2622SOL     OW 8764   2.033   2.723   5.733
 2622SOL    HW1 8765   2.116   2.758   5.691
 2622SOL    HW2 8766   2.029   2.754   5.829
 2623SOL     OW 8767   2.260   1.648   5.615
 2623SOL    HW1 8768   2.321   1.708   5.563
 2623SOL    HW2 8769   2.247   1.562   5.567
 2624SOL     OW 8770   6.632   2.270   5.563
 2624SOL    HW1 8771   6.639   2.198   5.494
 2624SOL    HW2 8772   6.619   2.229   5.653
 2625SOL     OW 8773   2.411   2.126   5.246
 2625SOL    HW1 8774   2.480   2.188   5.210
 2625SOL    HW2 8775   2.331   2.126   5.187
 2626SOL     OW 8776   0.698   6.821   5.465
 2626SOL    HW1 8777   0.602   6.844   5.477
 2626SOL    HW2 8778   0.717   6.803   5.368
 2627SOL     OW 8779   1.474   1.474   5.671
 2627SOL    HW1 8780   1.467   1.429   5.582
 2627SOL    HW2 8781   1.401   1.542   5.680
 2628SOL     OW 8782   2.353   5.040   6.059
 2628SOL    HW1 8783   2.393   5.071   6.146
 2628SOL    HW2 8784   2.366   5.110   5.989
 2629SOL     OW 8785   2.568   3.337   1.532
 2629SOL    HW1 8786   2.584   3.256   1.475
 2629SOL    HW2 8787   2.602   3.320   1.624
 2630SOL     OW 8788   2.984   1.918   2.926
 2630SOL    HW1 8789   3.007   2.004   2.880
 2630SOL    HW2 8790   2.891   1.924   2.963
 2631SOL     OW 8791   5.505   0.461   5.476
 2631SOL    HW1 8792   5.480   0.423   5.565
 2631SOL    HW2 8793   5.605   0.470   5.471
 2632SOL     OW 8794   3.888   2.513   6.465
 2632SOL    HW1 8795   3.942   2.589   6.501
 2632SOL    HW2 8796   3.864   2.531   6.370
 2633SOL     OW 8797   0.005   0.981   4.612
 2633SOL    HW1 8798   0.018   0.938   4.522
 2633SOL    HW2 8799   0.072   1.054   4.624
 2634SOL     OW 8800   0.855   4.560   3.152
 2634SOL    HW1 8801   0.870   4.609   3.238
 2634SOL    HW2 8802   0.756   4.553   3.135
 2635SOL     OW 8803   6.151   6.201   5.732
 2635SOL    HW1 8804   6.149   6.168   5.637
 2635SOL    HW2 8805   6.246   6.211   5.761
 2636SOL     OW 8806   4.607   0.272   5.495
 2636SOL    HW1 8807   4.650   0.306   5.579
 2636SOL    HW2 8808   4.510   0.255   5.512
 2637SOL     OW 8809   5.053   1.949   3.759
 2637SOL    HW1 8810   5.147   1.980   3.775
 2637SOL    HW2 8811   5.006   1.939   3.847
 2638SOL     OW 8812   6.575   0.538   3.187
 2638SOL    HW1 8813   6.578   0.632   3.152
 2638SOL    HW2 8814   6.526   0.480   3.123
 2639SOL     OW 8815   0.669   6.527   1.038
 2639SOL    HW1 8816   0.758   6.566   1.060
 2639SOL    HW2 8817   0.602   6.600   1.029
 2640SOL     OW 8818   0.749   5.864   4.851
 2640SOL    HW1 8819   0.836   5.913   4.851
 2640SOL    HW2 8820   0.687   5.907   4.917
 2641SOL     OW 8821   4.877   3.101   2.253
 2641SOL    HW1 8822   4.816   3.067   2.181
 2641SOL    HW2 8823   4.839   3.080   2.343
 2642SOL     OW 8824   4.038   6.589   4.143
 2642SOL    HW1 8825   4.086   6.675   4.124
 2642SOL    HW2 8826   4.104   6.513   4.145
 2643SOL     OW 8827   0.491   3.895   2.882
 2643SOL    HW1 8828   0.470   3.974   2.940
 2643SOL    HW2 8829   0.479   3.811   2.935
 2644SOL     OW 8830   6.299   5.969   6.027
 2644SOL    HW1 8831   6.330   5.896   6.088
 2644SOL    HW2 8832   6.235   5.931   5.959
 2645SOL     OW 8833   4.560   5.566   4.674
 2645SOL    HW1 8834   4.650   5.530   4.700
 2645SOL    HW2 8835   4.565   5.666   4.667
 2646SOL     OW 8836   6.151   0.528   6.719
 2646SOL    HW1 8837   6.131   0.557   6.812
 2646SOL    HW2 8838   6.154   0.428   6.715
 2647SOL     OW 8839   6.582   7.001   2.231
 2647SOL    HW1 8840   6.647   0.020   2.169
 2647SOL    HW2 8841   6.489   0.003   2.206
 2648SOL     OW 8842   0.552   0.434   4.164
 2648SOL    HW1 8843   0.624   0.365   4.169
 2648SOL    HW2 8844   0.483   0.405   4.098
 2649SOL     OW 8845   5.773   3.109   0.109
 2649SOL    HW1 8846   5.839   3.038   0.135
 2649SOL    HW2 8847   5.690   3.066   0.075
 2650SOL     OW 8848   0.903   4.238   4.519
 2650SOL    HW1 8849   0.938   4.251   4.612
 2650SOL    HW2 8850   0.829   4.171   4.520
 2651SOL     OW 8851   0.973   1.017   0.457
 2651SOL    HW1 8852   1.021   1.025   0.369
 2651SOL    HW2 8853   0.986   1.101   0.509
 2652SOL     OW 8854   3.565   3.680   4.408
 2652SOL    HW1 8855   3.482   3.714   4.453
 2652SOL    HW2 8856   3.644   3.696   4.468
 2653SOL     OW 8857   5.032   6.756   5.336
 2653SOL    HW1 8858   5.099   6.824   5.366
 2653SOL    HW2 8859   4.989   6.787   5.251
 2654SOL     OW 8860   4.730   5.804   1.481
 2654SOL    HW1 8861   4.805   5.772   1.424
 2654SOL    HW2 8862   4.694   5.890   1.444
 2655SOL     OW 8863   4.227   6.167   4.035
 2655SOL    HW1 8864   4.177   6.187   4.119
 2655SOL    HW2 8865   4.176   6.203   3.957
 2656SOL     OW 8866   3.433   4.914   4.304
 2656SOL    HW1 8867   3.403   4.891   4.397
 2656SOL    HW2 8868   3.369   4.877   4.237
 2657SOL     OW 8869   0.972   4.015   6.226
 2657SOL    HW1 8870   0.888   4.053   6.187
 2657SOL    HW2 8871   1.007   3.942   6.167
 2658SOL     OW 8872   4.886   4.087   0.617
 2658SOL    HW1 8873   4.799   4.128   0.592
 2658SOL    HW2 8874   4.960   4.150   0.594
 2659SOL     OW 8875   5.646   3.086   4.132
 2659SOL    HW1 8876   5.677   3.074   4.226
 2659SOL    HW2 8877   5.547   3.105   4.132
 2660SOL     OW 8878   1.202   0.640   1.299
 2660SOL    HW1 8879   1.155   0.554   1.319
 2660SOL    HW2 8880   1.227   0.685   1.385
 2661SOL     OW 8881   2.700   6.798   1.265
 2661SOL    HW1 8882   2.647   6.834   1.189
 2661SOL    HW2 8883   2.645   6.799   1.348
 2662SOL     OW 8884   5.089   6.500   5.222
 2662SOL    HW1 8885   5.031   6.526   5.145
 2662SOL    HW2 8886   5.080   6.569   5.294
 2663SOL     OW 8887   3.221   4.013   6.996
 2663SOL    HW1 8888   3.180   3.980   6.911
 2663SOL    HW2 8889   3.210   4.112   7.003
 2664SOL     OW 8890   4.210   3.951   5.289
 2664SOL    HW1 8891   4.150   3.919   5.362
 2664SOL    HW2 8892   4.293   3.896   5.288
 2665SOL     OW 8893   2.543   2.750   5.243
 2665SOL    HW1 8894   2.571   2.700   5.161
 2665SOL    HW2 8895   2.526   2.846   5.220
 2666SOL     OW 8896   5.591   4.267   1.062
 2666SOL    HW1 8897   5.675   4.311   1.030
 2666SOL    HW2 8898   5.584   4.279   1.161
 2667SOL     OW 8899   0.551   6.515   3.753
 2667SOL    HW1 8900   0.542   6.580   3.678
 2667SOL    HW2 8901   0.605   6.436   3.723
 2668SOL     OW 8902   0.018   3.062   4.475
 2668SOL    HW1 8903   0.106   3.066   4.427
 2668SOL    HW2 8904   0.018   3.129   4.549
 2669SOL     OW 8905   2.664   4.331   5.314
 2669SOL    HW1 8906   2.743   4.380   5.277
 2669SOL    HW2 8907   2.690   4.238   5.338
 2670SOL     OW 8908   6.473   3.240   6.230
 2670SOL    HW1 8909   6.416   3.230   6.148
 2670SOL    HW2 8910   6.568   3.224   6.206
 2671SOL     OW 8911   4.056   5.196   5.745
 2671SOL    HW1 8912   4.032   5.227   5.653
 2671SOL    HW2 8913   3.977   5.204   5.805
 2672SOL     OW 8914   1.474   4.887   0.831
 2672SOL    HW1 8915   1.493   4.975   0.874
 2672SOL    HW2 8916   1.530   4.816   0.874
 2673SOL     OW 8917   6.030   0.681   3.694
 2673SOL    HW1 8918   6.085   0.716   3.618
 2673SOL    HW2 8919   6.003   0.587   3.675
 2674SOL     OW 8920   1.369   4.410   4.024
 2674SOL    HW1 8921   1.348   4.394   3.928
 2674SOL    HW2 8922   1.458   4.454   4.032
 2675SOL     OW 8923   6.534   5.458   3.548
 2675SOL    HW1 8924   6.541   5.540   3.492
 2675SOL    HW2 8925   6.477   5.390   3.501
 2676SOL     OW 8926   4.193   2.295   0.763
 2676SOL    HW1 8927   4.134   2.351   0.706
 2676SOL    HW2 8928   4.144   2.212   0.790
 2677SOL     OW 8929   3.196   3.264   0.182
 2677SOL    HW1 8930   3.244   3.347   0.211
 2677SOL    HW2 8931   3.157   3.219   0.262
 2678SOL     OW 8932   0.300   2.881   1.039
 2678SOL    HW1 8933   0.282   2.817   1.114
 2678SOL    HW2 8934   0.396   2.909   1.041
 2679SOL     OW 8935   3.498   4.462   1.213
 2679SOL    HW1 8936   3.433   4.525   1.255
 2679SOL    HW2 8937   3.588   4.505   1.207
 2680SOL     OW 8938   1.086   1.828   0.725
 2680SOL    HW1 8939   1.122   1.735   0.725
 2680SOL    HW2 8940   0.991   1.827   0.756
 2681SOL     OW 8941   1.279   2.670   4.050
 2681SOL    HW1 8942   1.368   2.623   4.056
 2681SOL    HW2 8943   1.245   2.686   4.143
 2682SOL     OW 8944   4.836   4.154   2.444
 2682SOL    HW1 8945   4.929   4.133   2.413
 2682SOL    HW2 8946   4.777   4.167   2.364
 2683SOL     OW 8947   2.438   5.039   1.544
 2683SOL    HW1 8948   2.512   4.975   1.524
 2683SOL    HW2 8949   2.475   5.132   1.550
 2684SOL     OW 8950   4.087   5.551   1.326
 2684SOL    HW1 8951   4.067   5.647   1.306
 2684SOL    HW2 8952   4.004   5.506   1.360
 2685SOL     OW 8953   6.531   6.501   6.487
 2685SOL    HW1 8954   6.564   6.435   6.554
 2685SOL    HW2 8955   6.534   6.461   6.396
 2686SOL     OW 8956   1.565   1.656   5.909
 2686SOL    HW1 8957   1.606   1.639   5.998
 2686SOL    HW2 8958   1.623   1.616   5.837
 2687SOL     OW 8959   4.535   4.428   2.387
 2687SOL    HW1 8960   4.557   4.393   2.478
 2687SOL    HW2 8961   4.526   4.527   2.391
 2688SOL     OW 8962   3.940   4.283   6.941
 2688SOL    HW1 8963   3.857   4.295   6.887
 2688SOL    HW2 8964   3.962   4.369   6.988
 2689SOL     OW 8965   1.499   3.939   3.486
 2689SOL    HW1 8966   1.431   3.866   3.479
 2689SOL    HW2 8967   1.529   3.965   3.394
 2690SOL     OW 8968   3.544   3.276   3.834
 2690SOL    HW1 8969   3.576   3.370   3.841
 2690SOL    HW2 8970   3.582   3.233   3.752
 2691SOL     OW 8971   1.574   5.220   2.172
 2691SOL    HW1 8972   1.560   5.300   2.230
 2691SOL    HW2 8973   1.659   5.174   2.197
 2692SOL     OW 8974   3.572   5.504   3.080
 2692SOL    HW1 8975   3.601   5.558   3.001
 2692SOL    HW2 8976   3.651   5.477   3.134
 2693SOL     OW 8977   2.355   5.364   3.073
 2693SOL    HW1 8978   2.310   5.276   3.056
 2693SOL    HW2 8979   2.344   5.390   3.168
 2694SOL     OW 8980   3.764   6.519   2.857
 2694SOL    HW1 8981   3.686   6.466   2.825
 2694SOL    HW2 8982   3.848   6.487   2.812
 2695SOL     OW 8983   5.532   0.282   2.578
 2695SOL    HW1 8984   5.535   0.373   2.536
 2695SOL    HW2 8985   5.580   0.284   2.665
 2696SOL     OW 8986   3.676   3.666   5.415
 2696SOL    HW1 8987   3.716   3.689   5.326
 2696SOL    HW2 8988   3.716   3.723   5.486
 2697SOL     OW 8989   3.365   1.712   2.670
 2697SOL    HW1 8990   3.312   1.681   2.591
 2697SOL    HW2 8991   3.335   1.805   2.695
 2698SOL     OW 8992   2.289   6.738   0.161
 2698SOL    HW1 8993   2.286   6.744   0.261
 2698SOL    HW2 8994   2.234   6.661   0.130
 2699SOL     OW 8995   2.676   6.665   0.798
 2699SOL    HW1 8996   2.589   6.660   0.847
 2699SOL    HW2 8997   2.712   6.572   0.784
 2700SOL     OW 8998   2.000   3.439   0.497
 2700SOL    HW1 8999   2.051   3.524   0.488
 2700SOL    HW2 9000   1.942   3.426   0.417
 2701SOL     OW 9001   5.683   1.346   6.133
 2701SOL    HW1 9002   5.600   1.401   6.126
 2701SOL    HW2 9003   5.695   1.294   6.049
 2702SOL     OW 9004   0.765   3.119   3.508
 2702SOL    HW1 9005   0.737   3.214   3.493
 2702SOL    HW2 9006   0.742   3.092   3.601
 2703SOL     OW 9007   1.613   0.048   1.136
 2703SOL    HW1 9008   1.639   0.016   1.045
 2703SOL    HW2 9009   1.566   0.136   1.128
 2704SOL     OW 9010   6.787   5.806   1.164
 2704SOL    HW1 9011   6.717   5.863   1.120
 2704SOL    HW2 9012   6.863   5.863   1.194
 2705SOL     OW 9013   6.955   5.803   4.615
 2705SOL    HW1 9014   6.904   5.868   4.671
 2705SOL    HW2 9015   7.016   5.853   4.552
 2706SOL     OW 9016   0.361   6.507   1.650
 2706SOL    HW1 9017   0.412   6.480   1.568
 2706SOL    HW2 9018   0.424   6.514   1.727
 2707SOL     OW 9019   3.722   0.039   4.413
 2707SOL    HW1 9020   3.742   0.131   4.379
 2707SOL    HW2 9021   3.747   6.996   4.343
 2708SOL     OW 9022   0.368   2.112   6.853
 2708SOL    HW1 9023   0.408   2.170   6.783
 2708SOL    HW2 9024   0.350   2.021   6.815
 2709SOL     OW 9025   6.090   6.769   0.028
 2709SOL    HW1 9026   6.012   6.787   0.088
 2709SOL    HW2 9027   6.165   6.732   0.082
 2710SOL     OW 9028   1.292   3.735   3.502
 2710SOL    HW1 9029   1.221   3.747   3.572
 2710SOL    HW2 9030   1.278   3.648   3.455
 2711SOL     OW 9031   2.393   1.147   3.895
 2711SOL    HW1 9032   2.422   1.186   3.982
 2711SOL    HW2 9033   2.447   1.066   3.874
 2712SOL     OW 9034   3.004   4.557   0.995
 2712SOL    HW1 9035   3.047   4.532   0.908
 2712SOL    HW2 9036   2.962   4.476   1.035
 2713SOL     OW 9037   2.421   2.192   4.737
 2713SOL    HW1 9038   2.440   2.264   4.804
 2713SOL    HW2 9039   2.506   2.144   4.715
 2714SOL     OW 9040   4.009   2.468   0.607
 2714SOL    HW1 9041   4.056   2.492   0.522
 2714SOL    HW2 9042   3.911   2.481   0.596
 2715SOL     OW 9043   5.056   1.895   0.793
 2715SOL    HW1 9044   5.103   1.915   0.879
 2715SOL    HW2 9045   5.098   1.816   0.749
 2716SOL     OW 9046   5.016   4.384   2.538
 2716SOL    HW1 9047   4.963   4.464   2.511
 2716SOL    HW2 9048   5.110   4.392   2.503
 2717SOL     OW 9049   0.877   6.388   2.528
 2717SOL    HW1 9050   0.786   6.351   2.508
 2717SOL    HW2 9051   0.921   6.333   2.599
 2718SOL     OW 9052   2.158   2.165   5.140
 2718SOL    HW1 9053   2.145   2.263   5.125
 2718SOL    HW2 9054   2.075   2.127   5.182
 2719SOL     OW 9055   6.738   5.519   0.487
 2719SOL    HW1 9056   6.803   5.595   0.492
 2719SOL    HW2 9057   6.660   5.538   0.545
 2720SOL     OW 9058   1.790   6.702   2.052
 2720SOL    HW1 9059   1.700   6.694   2.096
 2720SOL    HW2 9060   1.860   6.712   2.123
 2721SOL     OW 9061   2.213   0.265   3.514
 2721SOL    HW1 9062   2.199   0.364   3.516
 2721SOL    HW2 9063   2.278   0.242   3.441
 2722SOL     OW 9064   6.687   5.559   1.222
 2722SOL    HW1 9065   6.732   5.645   1.200
 2722SOL    HW2 9066   6.718   5.526   1.311
 2723SOL     OW 9067   0.490   6.873   6.151
 2723SOL    HW1 9068   0.504   6.815   6.070
 2723SOL    HW2 9069   0.566   6.858   6.216
 2724SOL     OW 9070   1.890   6.633   0.095
 2724SOL    HW1 9071   1.866   6.645   0.191
 2724SOL    HW2 9072   1.901   6.723   0.052
 2725SOL     OW 9073   5.456   5.302   4.233
 2725SOL    HW1 9074   5.439   5.336   4.325
 2725SOL    HW2 9075   5.456   5.378   4.168
 2726SOL     OW 9076   6.953   2.834   1.076
 2726SOL    HW1 9077   0.005   2.841   1.140
 2726SOL    HW2 9078   6.937   2.923   1.033
 2727SOL     OW 9079   0.184   5.165   2.994
 2727SOL    HW1 9080   0.221   5.233   2.931
 2727SOL    HW2 9081   0.251   5.146   3.066
 2728SOL     OW 9082   4.859   6.198   5.996
 2728SOL    HW1 9083   4.920   6.248   5.934
 2728SOL    HW2 9084   4.778   6.253   6.015
 2729SOL     OW 9085   0.098   5.908   0.955
 2729SOL    HW1 9086   0.081   5.863   0.868
 2729SOL    HW2 9087   0.073   6.004   0.948
 2730SOL     OW 9088   1.512   5.666   1.296
 2730SOL    HW1 9089   1.529   5.750   1.244
 2730SOL    HW2 9090   1.595   5.610   1.297
 2731SOL     OW 9091   4.022   3.330   2.993
 2731SOL    HW1 9092   4.008   3.236   2.963
 2731SOL    HW2 9093   4.025   3.333   3.093
 2732SOL     OW 9094   5.460   2.129   1.698
 2732SOL    HW1 9095   5.406   2.085   1.627
 2732SOL    HW2 9096   5.408   2.130   1.784
 2733SOL     OW 9097   6.651   0.427   4.818
 2733SOL    HW1 9098   6.660   0.526   4.828
 2733SOL    HW2 9099   6.652   0.403   4.720
 2734SOL     OW 9100   2.396   6.356   1.891
 2734SOL    HW1 9101   2.425   6.268   1.928
 2734SOL    HW2 9102   2.394   6.351   1.791
 2735SOL     OW 9103   1.429   3.447   2.738
 2735SOL    HW1 9104   1.371   3.527   2.721
 2735SOL    HW2 9105   1.509   3.450   2.678
 2736SOL     OW 9106   4.828   6.856   5.627
 2736SOL    HW1 9107   4.877   6.938   5.597
 2736SOL    HW2 9108   4.844   6.782   5.562
 2737SOL     OW 9109   3.440   3.906   5.936
 2737SOL    HW1 9110   3.454   3.936   5.842
 2737SOL    HW2 9111   3.398   3.815   5.936
 2738SOL     OW 9112   4.852   5.988   2.813
 2738SOL    HW1 9113   4.880   5.907   2.761
 2738SOL    HW2 9114   4.756   6.008   2.794
 2739SOL     OW 9115   6.836   5.068   1.392
 2739SOL    HW1 9116   6.857   5.074   1.294
 2739SOL    HW2 9117   6.921   5.061   1.444
 2740SOL     OW 9118   6.739   4.000   2.412
 2740SOL    HW1 9119   6.679   4.065   2.365
 2740SOL    HW2 9120   6.832   4.035   2.413
 2741SOL     OW 9121   6.352   7.020   5.069
 2741SOL    HW1 9122   6.400   0.076   5.102
 2741SOL    HW2 9123   6.310   6.972   5.146
 2742SOL     OW 9124   2.518   5.608   6.887
 2742SOL    HW1 9125   2.464   5.528   6.860
 2742SOL    HW2 9126   2.511   5.678   6.816
 2743SOL     OW 9127   0.100   4.993   2.094
 2743SOL    HW1 9128   0.145   5.046   2.166
 2743SOL    HW2 9129   0.058   5.056   2.028
 2744SOL     OW 9130   5.372   2.159   6.357
 2744SOL    HW1 9131   5.439   2.097   6.314
 2744SOL    HW2 9132   5.406   2.186   6.447
 2745SOL     OW 9133   6.963   6.677   5.809
 2745SOL    HW1 9134   6.887   6.622   5.843
 2745SOL    HW2 9135   0.022   6.652   5.857
 2746SOL     OW 9136   2.458   2.139   3.696
 2746SOL    HW1 9137   2.484   2.228   3.659
 2746SOL    HW2 9138   2.369   2.112   3.660
 2747SOL     OW 9139   6.117   3.850   6.445
 2747SOL    HW1 9140   6.184   3.805   6.386
 2747SOL    HW2 9141   6.164   3.903   6.516
 2748SOL     OW 9142   5.461   1.337   1.179
 2748SOL    HW1 9143   5.382   1.276   1.187
 2748SOL    HW2 9144   5.544   1.286   1.201
 2749SOL     OW 9145   0.191   5.093   2.314
 2749SOL    HW1 9146   0.137   5.168   2.352
 2749SOL    HW2 9147   0.222   5.033   2.387
 2750SOL     OW 9148   0.961   5.375   0.941
 2750SOL    HW1 9149   0.934   5.385   0.845
 2750SOL    HW2 9150   0.966   5.466   0.984
 2751SOL     OW 9151   1.002   6.025   1.386
 2751SOL    HW1 9152   1.042   6.031   1.294
 2751SOL    HW2 9153   1.023   5.935   1.425
 2752SOL     OW 9154   3.966   5.158   6.213
 2752SOL    HW1 9155   3.982   5.088   6.144
 2752SOL    HW2 9156   4.033   5.232   6.203
 2753SOL     OW 9157   0.476   6.145   5.251
 2753SOL    HW1 9158   0.468   6.109   5.344
 2753SOL    HW2 9159   0.454   6.242   5.251
 2754SOL     OW 9160   0.313   0.719   2.852
 2754SOL    HW1 9161   0.412   0.718   2.858
 2754SOL    HW2 9162   0.282   0.808   2.819
 2755SOL     OW 9163   1.975   6.874   3.063
 2755SOL    HW1 9164   1.943   6.968   3.077
 2755SOL    HW2 9165   2.060   6.860   3.114
 2756SOL     OW 9166   6.036   4.888   6.523
 2756SOL    HW1 9167   6.054   4.865   6.618
 2756SOL    HW2 9168   6.078   4.820   6.463
 2757SOL     OW 9169   2.498   0.802   6.641
 2757SOL    HW1 9170   2.505   0.886   6.695
 2757SOL    HW2 9171   2.438   0.737   6.689
 2758SOL     OW 9172   4.347   6.791   3.588
 2758SOL    HW1 9173   4.351   6.862   3.658
 2758SOL    HW2 9174   4.299   6.826   3.507
 2759SOL     OW 9175   4.765   5.718   5.415
 2759SOL    HW1 9176   4.792   5.686   5.324
 2759SOL    HW2 9177   4.846   5.730   5.472
 2760SOL     OW 9178   0.460   6.067   2.565
 2760SOL    HW1 9179   0.489   5.972   2.554
 2760SOL    HW2 9180   0.360   6.070   2.574
 2761SOL     OW 9181   1.753   4.445   5.056
 2761SOL    HW1 9182   1.832   4.411   5.004
 2761SOL    HW2 9183   1.670   4.397   5.026
 2762SOL     OW 9184   2.034   0.317   6.368
 2762SOL    HW1 9185   2.107   0.384   6.360
 2762SOL    HW2 9186   2.009   0.285   6.276
 2763SOL     OW 9187   4.739   2.347   4.434
 2763SOL    HW1 9188   4.780   2.261   4.464
 2763SOL    HW2 9189   4.712   2.340   4.338
 2764SOL     OW 9190   6.840   1.379   1.319
 2764SOL    HW1 9191   6.804   1.468   1.291
 2764SOL    HW2 9192   6.892   1.339   1.243
 2765SOL     OW 9193   6.486   0.053   0.368
 2765SOL    HW1 9194   6.432   0.134   0.391
 2765SOL    HW2 9195   6.491   0.044   0.268
 2766SOL     OW 9196   4.903   2.693   0.270
 2766SOL    HW1 9197   4.812   2.721   0.302
 2766SOL    HW2 9198   4.959   2.668   0.349
 2767SOL     OW 9199   6.548   4.873   0.360
 2767SOL    HW1 9200   6.488   4.851   0.437
 2767SOL    HW2 9201   6.567   4.972   0.360
 2768SOL     OW 9202   4.334   0.498   1.062
 2768SOL    HW1 9203   4.421   0.514   1.109
 2768SOL    HW2 9204   4.285   0.585   1.051
 2769SOL     OW 9205   1.863   4.492   6.176
 2769SOL    HW1 9206   1.865   4.413   6.237
 2769SOL    HW2 9207   1.945   4.548   6.190
 2770SOL     OW 9208   4.567   5.476   5.962
 2770SOL    HW1 9209   4.546   5.568   5.995
 2770SOL    HW2 9210   4.621   5.427   6.031
 2771SOL     OW 9211   6.014   0.918   4.114
 2771SOL    HW1 9212   6.014   0.892   4.018
 2771SOL    HW2 9213   6.109   0.924   4.146
 2772SOL     OW 9214   3.951   1.561   0.437
 2772SOL    HW1 9215   3.936   1.645   0.386
 2772SOL    HW2 9216   3.990   1.492   0.377
 2773SOL     OW 9217   6.114   1.679   5.036
 2773SOL    HW1 9218   6.162   1.623   5.103
 2773SOL    HW2 9219   6.078   1.621   4.963
 2774SOL     OW 9220   5.214   2.665   2.896
 2774SOL    HW1 9221   5.168   2.586   2.938
 2774SOL    HW2 9222   5.249   2.640   2.806
 2775SOL     OW 9223   6.763   4.077   5.435
 2775SOL    HW1 9224   6.804   4.150   5.381
 2775SOL    HW2 9225   6.726   4.007   5.375
 2776SOL     OW 9226   4.764   4.602   6.061
 2776SOL    HW1 9227   4.804   4.637   5.976
 2776SOL    HW2 9228   4.707   4.523   6.041
 2777SOL     OW 9229   2.928   1.876   1.462
 2777SOL    HW1 9230   2.886   1.823   1.536
 2777SOL    HW2 9231   3.006   1.928   1.498
 2778SOL     OW 9232   1.743   6.823   5.308
 2778SOL    HW1 9233   1.812   6.895   5.306
 2778SOL    HW2 9234   1.778   6.742   5.260
 2779SOL     OW 9235   5.196   6.248   2.276
 2779SOL    HW1 9236   5.199   6.299   2.362
 2779SOL    HW2 9237   5.281   6.195   2.266
 2780SOL     OW 9238   0.739   6.604   6.985
 2780SOL    HW1 9239   0.683   6.559   0.029
 2780SOL    HW2 9240   0.770   6.693   7.020
 2781SOL     OW 9241   5.816   0.296   2.251
 2781SOL    HW1 9242   5.910   0.306   2.282
 2781SOL    HW2 9243   5.770   0.225   2.305
 2782SOL     OW 9244   4.786   1.194   5.368
 2782SOL    HW1 9245   4.821   1.261   5.302
 2782SOL    HW2 9246   4.709   1.232   5.417
 2783SOL     OW 9247   5.002   4.233   2.778
 2783SOL    HW1 9248   5.032   4.290   2.702
 2783SOL    HW2 9249   4.908   4.205   2.764
 2784SOL     OW 9250   3.220   1.279   2.225
 2784SOL    HW1 9251   3.317   1.302   2.238
 2784SOL    HW2 9252   3.164   1.361   2.236
 2785SOL     OW 9253   5.374   2.735   0.613
 2785SOL    HW1 9254   5.282   2.695   0.608
 2785SOL    HW2 9255   5.409   2.728   0.706
 2786SOL     OW 9256   4.619   6.879   2.660
 2786SOL    HW1 9257   4.588   6.808   2.596
 2786SOL    HW2 9258   4.543   6.907   2.718
 2787SOL     OW 9259   5.760   0.335   6.143
 2787SOL    HW1 9260   5.670   0.316   6.181
 2787SOL    HW2 9261   5.771   0.434   6.132
 2788SOL     OW 9262   1.992   5.483   5.982
 2788SOL    HW1 9263   2.061   5.519   6.044
 2788SOL    HW2 9264   1.970   5.551   5.912
 2789SOL     OW 9265   1.453   2.199   4.031
 2789SOL    HW1 9266   1.465   2.236   3.939
 2789SOL    HW2 9267   1.464   2.099   4.027
 2790SOL     OW 9268   3.371   5.835   2.091
 2790SOL    HW1 9269   3.440   5.906   2.106
 2790SOL    HW2 9270   3.378   5.766   2.162
 2791SOL     OW 9271   0.628   2.557   2.804
 2791SOL    HW1 9272   0.703   2.524   2.748
 2791SOL    HW2 9273   0.606   2.651   2.778
 2792SOL     OW 9274   1.643   0.698   3.902
 2792SOL    HW1 9275   1.675   0.767   3.967
 2792SOL    HW2 9276   1.694   0.613   3.915
 2793SOL     OW 9277   5.265   3.607   1.592
 2793SOL    HW1 9278   5.220   3.687   1.632
 2793SOL    HW2 9279   5.350   3.635   1.547
 2794SOL     OW 9280   6.951   2.006   6.287
 2794SOL    HW1 9281   0.006   2.028   6.231
 2794SOL    HW2 9282   6.917   2.090   6.331
 2795SOL     OW 9283   0.582   3.810   0.787
 2795SOL    HW1 9284   0.604   3.771   0.877
 2795SOL    HW2 9285   0.585   3.737   0.718
 2796SOL     OW 9286   0.049   6.585   2.839
 2796SOL    HW1 9287   6.999   6.600   2.903
 2796SOL    HW2 9288   0.093   6.672   2.819
 2797SOL     OW 9289   5.202   5.514   5.142
 2797SOL    HW1 9290   5.214   5.609   5.115
 2797SOL    HW2 9291   5.254   5.455   5.081
 2798SOL     OW 9292   6.979   5.283   2.125
 2798SOL    HW1 9293   6.920   5.212   2.163
 2798SOL    HW2 9294   0.027   5.305   2.191
 2799SOL     OW 9295   6.132   5.345   5.659
 2799SOL    HW1 9296   6.059   5.407   5.628
 2799SOL    HW2 9297   6.150   5.277   5.589
 2800SOL     OW 9298   4.739   6.178   6.439
 2800SOL    HW1 9299   4.785   6.112   6.499
 2800SOL    HW2 9300   4.641   6.159   6.438
 2801SOL     OW 9301   0.109   5.691   5.676
 2801SOL    HW1 9302   0.075   5.645   5.594
 2801SOL    HW2 9303   0.045   5.676   5.752
 2802SOL     OW 9304   5.608   6.077   5.493
 2802SOL    HW1 9305   5.557   5.993   5.474
 2802SOL    HW2 9306   5.600   6.139   5.415
 2803SOL     OW 9307   4.383   5.405   6.274
 2803SOL    HW1 9308   4.382   5.321   6.220
 2803SOL    HW2 9309   4.476   5.422   6.308
 2804SOL     OW 9310   0.349   4.722   5.465
 2804SOL    HW1 9311   0.307   4.641   5.504
 2804SOL    HW2 9312   0.447   4.705   5.450
 2805SOL     OW 9313   6.235   3.226   2.525
 2805SOL    HW1 9314   6.277   3.316   2.541
 2805SOL    HW2 9315   6.148   3.238   2.477
 2806SOL     OW 9316   0.699   4.378   5.507
 2806SOL    HW1 9317   0.633   4.432   5.559
 2806SOL    HW2 9318   0.770   4.343   5.569
 2807SOL     OW 9319   3.425   6.870   4.237
 2807SOL    HW1 9320   3.367   6.946   4.267
 2807SOL    HW2 9321   3.432   6.803   4.311
 2808SOL     OW 9322   6.464   5.153   1.992
 2808SOL    HW1 9323   6.447   5.231   2.053
 2808SOL    HW2 9324   6.480   5.071   2.046
 2809SOL     OW 9325   5.581   2.756   1.052
 2809SOL    HW1 9326   5.578   2.854   1.033
 2809SOL    HW2 9327   5.675   2.723   1.044
 2810SOL     OW 9328   2.875   5.903   2.954
 2810SOL    HW1 9329   2.837   5.947   3.035
 2810SOL    HW2 9330   2.881   5.969   2.880
 2811SOL     OW 9331   1.422   2.163   4.327
 2811SOL    HW1 9332   1.459   2.188   4.238
 2811SOL    HW2 9333   1.391   2.068   4.324
 2812SOL     OW 9334   5.218   3.260   7.010
 2812SOL    HW1 9335   5.312   3.274   0.015
 2812SOL    HW2 9336   5.156   3.314   0.042
 2813SOL     OW 9337   0.689   0.658   6.366
 2813SOL    HW1 9338   0.690   0.641   6.464
 2813SOL    HW2 9339   0.766   0.610   6.323
 2814SOL     OW 9340   3.385   3.704   5.393
 2814SOL    HW1 9341   3.425   3.769   5.327
 2814SOL    HW2 9342   3.457   3.651   5.436
 2815SOL     OW 9343   0.092   5.613   6.563
 2815SOL    HW1 9344   0.095   5.667   6.480
 2815SOL    HW2 9345   0.001   5.570   6.572
 2816SOL     OW 9346   6.563   6.101   3.291
 2816SOL    HW1 9347   6.531   6.196   3.289
 2816SOL    HW2 9348   6.639   6.092   3.355
 2817SOL     OW 9349   3.048   6.960   1.873
 2817SOL    HW1 9350   3.074   6.880   1.928
 2817SOL    HW2 9351   3.077   6.947   1.779
 2818SOL     OW 9352   0.489   0.867   2.233
 2818SOL    HW1 9353   0.496   0.876   2.134
 2818SOL    HW2 9354   0.394   0.880   2.261
 2819SOL     OW 9355   2.256   0.797   1.594
 2819SOL    HW1 9356   2.305   0.882   1.613
 2819SOL    HW2 9357   2.171   0.817   1.546
 2820SOL     OW 9358   1.117   2.186   3.816
 2820SOL    HW1 9359   1.034   2.176   3.870
 2820SOL    HW2 9360   1.136   2.283   3.801
 2821SOL     OW 9361   3.578   4.826   6.242
 2821SOL    HW1 9362   3.636   4.851   6.164
 2821SOL    HW2 9363   3.635   4.791   6.316
 2822SOL     OW 9364   3.627   1.853   0.489
 2822SOL    HW1 9365   3.668   1.791   0.556
 2822SOL    HW2 9366   3.606   1.941   0.533
 2823SOL     OW 9367   5.468   1.027   1.191
 2823SOL    HW1 9368   5.532   1.053   1.264
 2823SOL    HW2 9369   5.378   1.010   1.231
 2824SOL     OW 9370   2.560   1.519   4.279
 2824SOL    HW1 9371   2.509   1.472   4.351
 2824SOL    HW2 9372   2.562   1.618   4.298
 2825SOL     OW 9373   4.809   5.946   6.684
 2825SOL    HW1 9374   4.788   5.893   6.602
 2825SOL    HW2 9375   4.905   5.974   6.682
 2826SOL     OW 9376   4.879   1.482   6.719
 2826SOL    HW1 9377   4.895   1.580   6.724
 2826SOL    HW2 9378   4.781   1.464   6.705
 2827SOL     OW 9379   0.504   1.517   6.498
 2827SOL    HW1 9380   0.439   1.451   6.460
 2827SOL    HW2 9381   0.454   1.586   6.550
 2828SOL     OW 9382   2.240   2.358   0.542
 2828SOL    HW1 9383   2.199   2.330   0.455
 2828SOL    HW2 9384   2.338   2.341   0.541
 2829SOL     OW 9385   3.241   3.044   4.211
 2829SOL    HW1 9386   3.246   3.004   4.302
 2829SOL    HW2 9387   3.215   2.973   4.145
 2830SOL     OW 9388   3.262   4.137   5.416
 2830SOL    HW1 9389   3.223   4.080   5.489
 2830SOL    HW2 9390   3.194   4.202   5.384
 2831SOL     OW 9391   0.772   3.903   3.127
 2831SOL    HW1 9392   0.681   3.938   3.150
 2831SOL    HW2 9393   0.801   3.838   3.197
 2832SOL     OW 9394   0.973   3.262   1.889
 2832SOL    HW1 9395   0.979   3.241   1.791
 2832SOL    HW2 9396   0.891   3.220   1.927
 2833SOL     OW 9397   2.875   1.696   2.628
 2833SOL    HW1 9398   2.809   1.687   2.553
 2833SOL    HW2 9399   2.960   1.736   2.593
 2834SOL     OW 9400   3.960   6.539   5.879
 2834SOL    HW1 9401   3.992   6.619   5.930
 2834SOL    HW2 9402   4.018   6.460   5.902
 2835SOL     OW 9403   0.205   6.161   1.331
 2835SOL    HW1 9404   0.269   6.208   1.393
 2835SOL    HW2 9405   0.122   6.138   1.381
 2836SOL     OW 9406   0.680   6.560   1.631
 2836SOL    HW1 9407   0.663   6.618   1.711
 2836SOL    HW2 9408   0.681   6.464   1.659
 2837SOL     OW 9409   4.666   4.334   2.605
 2837SOL    HW1 9410   4.691   4.349   2.700
 2837SOL    HW2 9411   4.743   4.294   2.555
 2838SOL     OW 9412   4.047   3.917   0.706
 2838SOL    HW1 9413   4.076   3.855   0.779
 2838SOL    HW2 9414   4.010   3.863   0.630
 2839SOL     OW 9415   0.036   2.295   3.354
 2839SOL    HW1 9416   0.002   2.273   3.263
 2839SOL    HW2 9417   0.062   2.392   3.358
 2840SOL     OW 9418   1.898   0.292   2.032
 2840SOL    HW1 9419   1.913   0.387   2.002
 2840SOL    HW2 9420   1.926   0.283   2.127
 2841SOL     OW 9421   6.215   1.543   6.120
 2841SOL    HW1 9422   6.148   1.591   6.176
 2841SOL    HW2 9423   6.221   1.587   6.030
 2842SOL     OW 9424   6.902   4.707   3.874
 2842SOL    HW1 9425   6.935   4.623   3.918
 2842SOL    HW2 9426   6.811   4.729   3.909
 2843SOL     OW 9427   1.870   2.141   2.732
 2843SOL    HW1 9428   1.873   2.234   2.770
 2843SOL    HW2 9429   1.852   2.145   2.634
 2844SOL     OW 9430   6.358   5.243   6.717
 2844SOL    HW1 9431   6.363   5.223   6.619
 2844SOL    HW2 9432   6.314   5.166   6.764
 2845SOL     OW 9433   5.699   3.731   2.365
 2845SOL    HW1 9434   5.676   3.658   2.429
 2845SOL    HW2 9435   5.770   3.790   2.405
 2846SOL     OW 9436   3.879   0.441   0.451
 2846SOL    HW1 9437   3.951   0.440   0.382
 2846SOL    HW2 9438   3.918   0.459   0.541
 2847SOL     OW 9439   5.503   4.271   2.740
 2847SOL    HW1 9440   5.426   4.216   2.773
 2847SOL    HW2 9441   5.516   4.350   2.799
 2848SOL     OW 9442   1.984   2.404   4.786
 2848SOL    HW1 9443   1.917   2.450   4.844
 2848SOL    HW2 9444   1.972   2.305   4.793
 2849SOL     OW 9445   3.984   0.529   0.690
 2849SOL    HW1 9446   4.058   0.593   0.666
 2849SOL    HW2 9447   3.986   0.511   0.788
 2850SOL     OW 9448   1.763   0.295   2.666
 2850SOL    HW1 9449   1.858   0.325   2.675
 2850SOL    HW2 9450   1.731   0.313   2.573
 2851SOL     OW 9451   5.408   2.398   6.184
 2851SOL    HW1 9452   5.426   2.476   6.243
 2851SOL    HW2 9453   5.359   2.328   6.234
 2852SOL     OW 9454   6.962   4.363   6.773
 2852SOL    HW1 9455   7.016   4.432   6.724
 2852SOL    HW2 9456   7.023   4.311   6.833
 2853SOL     OW 9457   1.925   1.954   5.805
 2853SOL    HW1 9458   1.933   2.020   5.730
 2853SOL    HW2 9459   1.829   1.940   5.827
 2854SOL     OW 9460   4.646   1.246   5.992
 2854SOL    HW1 9461   4.632   1.218   6.087
 2854SOL    HW2 9462   4.696   1.174   5.944
 2855SOL     OW 9463   2.187   1.600   5.877
 2855SOL    HW1 9464   2.219   1.597   5.782
 2855SOL    HW2 9465   2.225   1.522   5.927
 2856SOL     OW 9466   0.553   3.313   5.327
 2856SOL    HW1 9467   0.484   3.358   5.270
 2856SOL    HW2 9468   0.525   3.316   5.423
 2857SOL     OW 9469   1.511   2.579   1.455
 2857SOL    HW1 9470   1.423   2.569   1.410
 2857SOL    HW2 9471   1.496   2.601   1.552
 2858SOL     OW 9472   4.399   5.063   1.783
 2858SOL    HW1 9473   4.400   5.144   1.841
 2858SOL    HW2 9474   4.415   4.982   1.839
 2859SOL     OW 9475   6.307   6.682   0.208
 2859SOL    HW1 9476   6.277   6.590   0.231
 2859SOL    HW2 9477   6.389   6.705   0.260
 2860SOL     OW 9478   1.869   1.602   1.939
 2860SOL    HW1 9479   1.923   1.522   1.915
 2860SOL    HW2 9480   1.790   1.574   1.993
 2861SOL     OW 9481   2.940   5.213   6.259
 2861SOL    HW1 9482   2.899   5.122   6.254
 2861SOL    HW2 9483   2.928   5.259   6.171
 2862SOL     OW 9484   4.194   1.525   1.528
 2862SOL    HW1 9485   4.167   1.495   1.619
 2862SOL    HW2 9486   4.237   1.449   1.479
 2863SOL     OW 9487   4.401   1.557   6.729
 2863SOL    HW1 9488   4.385   1.535   6.633
 2863SOL    HW2 9489   4.328   1.617   6.761
 2864SOL     OW 9490   4.850   2.234   1.126
 2864SOL    HW1 9491   4.931   2.292   1.120
 2864SOL    HW2 9492   4.876   2.138   1.109
 2865SOL     OW 9493   4.118   6.583   4.488
 2865SOL    HW1 9494   4.142   6.665   4.436
 2865SOL    HW2 9495   4.194   6.518   4.487
 2866SOL     OW 9496   5.366   5.082   6.515
 2866SOL    HW1 9497   5.462   5.085   6.543
 2866SOL    HW2 9498   5.309   5.114   6.591
 2867SOL     OW 9499   5.876   6.233   2.835
 2867SOL    HW1 9500   5.825   6.294   2.896
 2867SOL    HW2 9501   5.973   6.255   2.840
 2868SOL     OW 9502   2.024   1.332   5.988
 2868SOL    HW1 9503   1.961   1.282   5.929
 2868SOL    HW2 9504   2.115   1.333   5.947
 2869SOL     OW 9505   6.903   1.080   2.682
 2869SOL    HW1 9506   6.843   1.129   2.746
 2869SOL    HW2 9507   6.911   0.984   2.710
 2870SOL     OW 9508   0.503   1.756   5.684
 2870SOL    HW1 9509   0.555   1.717   5.608
 2870SOL    HW2 9510   0.407   1.764   5.658
 2871SOL     OW 9511   6.016   1.027   6.933
 2871SOL    HW1 9512   5.924   0.989   6.934
 2871SOL    HW2 9513   6.082   0.956   6.957
 2872SOL     OW 9514   2.551   2.427   1.615
 2872SOL    HW1 9515   2.465   2.458   1.656
 2872SOL    HW2 9516   2.627   2.452   1.675
 2873SOL     OW 9517   6.664   5.754   2.013
 2873SOL    HW1 9518   6.568   5.750   1.986
 2873SOL    HW2 9519   6.721   5.765   1.931
 2874SOL     OW 9520   4.753   0.020   2.925
 2874SOL    HW1 9521   4.752   0.107   2.974
 2874SOL    HW2 9522   4.693   6.980   2.973
 2875SOL     OW 9523   5.505   0.181   1.763
 2875SOL    HW1 9524   5.411   0.187   1.796
 2875SOL    HW2 9525   5.550   0.101   1.803
 2876SOL     OW 9526   2.138   0.616   2.647
 2876SOL    HW1 9527   2.234   0.639   2.661
 2876SOL    HW2 9528   2.114   0.630   2.551
 2877SOL     OW 9529   2.748   1.344   5.311
 2877SOL    HW1 9530   2.661   1.368   5.355
 2877SOL    HW2 9531   2.812   1.419   5.320
 2878SOL     OW 9532   3.901   4.269   5.327
 2878SOL    HW1 9533   3.868   4.175   5.338
 2878SOL    HW2 9534   3.996   4.266   5.293
 2879SOL     OW 9535   5.070   4.968   6.327
 2879SOL    HW1 9536   5.088   5.001   6.234
 2879SOL    HW2 9537   5.142   4.904   6.353
 2880SOL     OW 9538   0.390   2.148   2.657
 2880SOL    HW1 9539   0.324   2.122   2.587
 2880SOL    HW2 9540   0.436   2.233   2.630
 2881SOL     OW 9541   4.037   6.025   6.500
 2881SOL    HW1 9542   4.062   5.953   6.435
 2881SOL    HW2 9543   3.985   5.985   6.575
 2882SOL     OW 9544   0.241   5.543   1.585
 2882SOL    HW1 9545   0.266   5.544   1.488
 2882SOL    HW2 9546   0.192   5.459   1.606
 2883SOL     OW 9547   6.060   0.320   3.848
 2883SOL    HW1 9548   6.049   0.365   3.759
 2883SOL    HW2 9549   6.091   0.387   3.916
 2884SOL     OW 9550   0.459   6.717   3.027
 2884SOL    HW1 9551   0.484   6.708   2.930
 2884SOL    HW2 9552   0.475   6.630   3.073
 2885SOL     OW 9553   1.900   4.003   3.843
 2885SOL    HW1 9554   1.892   3.990   3.744
 2885SOL    HW2 9555   1.959   3.933   3.881
 2886SOL     OW 9556   1.071   2.791   5.855
 2886SOL    HW1 9557   1.118   2.869   5.815
 2886SOL    HW2 9558   1.066   2.717   5.789
 2887SOL     OW 9559   0.627   6.484   5.595
 2887SOL    HW1 9560   0.689   6.534   5.533
 2887SOL    HW2 9561   0.542   6.463   5.547
 2888SOL     OW 9562   6.932   4.255   6.319
 2888SOL    HW1 9563   6.996   4.314   6.269
 2888SOL    HW2 9564   6.935   4.278   6.416
 2889SOL     OW 9565   2.926   6.244   2.550
 2889SOL    HW1 9566   2.998   6.239   2.481
 2889SOL    HW2 9567   2.839   6.215   2.509
 2890SOL     OW 9568   1.514   5.767   0.617
 2890SOL    HW1 9569   1.503   5.801   0.710
 2890SOL    HW2 9570   1.541   5.671   0.618
 2891SOL     OW 9571   0.493   4.822   3.249
 2891SOL    HW1 9572   0.551   4.757   3.201
 2891SOL    HW2 9573   0.501   4.808   3.347
 2892SOL     OW 9574   6.222   3.549   0.858
 2892SOL    HW1 9575   6.191   3.459   0.886
 2892SOL    HW2 9576   6.260   3.545   0.766
 2893SOL     OW 9577   0.298   5.574   4.569
 2893SOL    HW1 9578   0.355   5.548   4.491
 2893SOL    HW2 9579   0.220   5.511   4.576
 2894SOL     OW 9580   0.120   2.764   1.902
 2894SOL    HW1 9581   0.102   2.709   1.983
 2894SOL    HW2 9582   0.175   2.711   1.836
 2895SOL     OW 9583   4.983   1.179   5.582
 2895SOL    HW1 9584   4.933   1.166   5.497
 2895SOL    HW2 9585   4.975   1.096   5.638
 2896SOL     OW 9586   4.420   6.680   5.844
 2896SOL    HW1 9587   4.423   6.590   5.887
 2896SOL    HW2 9588   4.447   6.672   5.748
 2897SOL     OW 9589   3.866   4.882   2.967
 2897SOL    HW1 9590   3.787   4.863   3.026
 2897SOL    HW2 9591   3.834   4.890   2.872
 2898SOL     OW 9592   4.730   4.679   4.490
 2898SOL    HW1 9593   4.638   4.708   4.463
 2898SOL    HW2 9594   4.751   4.715   4.581
 2899SOL     OW 9595   0.666   1.759   0.377
 2899SOL    HW1 9596   0.738   1.716   0.431
 2899SOL    HW2 9597   0.675   1.859   0.383
 2900SOL     OW 9598   2.683   4.326   6.318
 2900SOL    HW1 9599   2.664   4.394   6.389
 2900SOL    HW2 9600   2.683   4.370   6.229
 2901SOL     OW 9601   2.247   4.698   2.846
 2901SOL    HW1 9602   2.320   4.630   2.855
 2901SOL    HW2 9603   2.208   4.717   2.937
 2902SOL     OW 9604   6.078   5.653   3.043
 2902SOL    HW1 9605   6.071   5.621   3.138
 2902SOL    HW2 9606   6.011   5.604   2.986
 2903SOL     OW 9607   4.023   0.154   0.678
 2903SOL    HW1 9608   4.050   0.206   0.759
 2903SOL    HW2 9609   3.924   0.163   0.664
 2904SOL     OW 9610   2.535   4.978   4.052
 2904SOL    HW1 9611   2.575   4.996   3.962
 2904SOL    HW2 9612   2.572   4.893   4.089
 2905SOL     OW 9613   1.369   3.589   4.590
 2905SOL    HW1 9614   1.462   3.626   4.593
 2905SOL    HW2 9615   1.372   3.490   4.602
 2906SOL     OW 9616   4.678   4.979   2.320
 2906SOL    HW1 9617   4.777   4.982   2.334
 2906SOL    HW2 9618   4.632   5.036   2.388
 2907SOL     OW 9619   0.330   1.699   3.818
 2907SOL    HW1 9620   0.247   1.648   3.795
 2907SOL    HW2 9621   0.337   1.779   3.758
 2908SOL     OW 9622   4.887   6.578   3.452
 2908SOL    HW1 9623   4.795   6.546   3.477
 2908SOL    HW2 9624   4.946   6.499   3.436
 2909SOL     OW 9625   1.485   5.549   3.729
 2909SOL    HW1 9626   1.438   5.599   3.801
 2909SOL    HW2 9627   1.552   5.487   3.770
 2910SOL     OW 9628   5.849   1.359   4.199
 2910SOL    HW1 9629   5.846   1.457   4.176
 2910SOL    HW2 9630   5.897   1.310   4.127
 2911SOL     OW 9631   1.521   5.980   3.606
 2911SOL    HW1 9632   1.604   6.029   3.580
 2911SOL    HW2 9633   1.508   5.902   3.544
 2912SOL     OW 9634   5.349   6.746   0.464
 2912SOL    HW1 9635   5.349   6.692   0.380
 2912SOL    HW2 9636   5.442   6.774   0.487
 2913SOL     OW 9637   3.421   5.015   1.974
 2913SOL    HW1 9638   3.482   5.078   1.925
 2913SOL    HW2 9639   3.413   4.930   1.921
 2914SOL     OW 9640   6.759   6.259   6.545
 2914SOL    HW1 9641   6.804   6.204   6.475
 2914SOL    HW2 9642   6.811   6.344   6.558
 2915SOL     OW 9643   3.703   1.672   3.929
 2915SOL    HW1 9644   3.675   1.579   3.904
 2915SOL    HW2 9645   3.682   1.734   3.854
 2916SOL     OW 9646   1.623   5.394   0.509
 2916SOL    HW1 9647   1.543   5.447   0.480
 2916SOL    HW2 9648   1.637   5.317   0.447
 2917SOL     OW 9649   2.163   0.462   3.199
 2917SOL    HW1 9650   2.168   0.516   3.283
 2917SOL    HW2 9651   2.238   0.396   3.197
 2918SOL     OW 9652   6.233   4.544   5.116
 2918SOL    HW1 9653   6.235   4.553   5.215
 2918SOL    HW2 9654   6.207   4.450   5.092
 2919SOL     OW 9655   5.646   0.511   2.417
 2919SOL    HW1 9656   5.690   0.436   2.368
 2919SOL    HW2 9657   5.715   0.561   2.470
 2920SOL     OW 9658   3.376   1.409   1.487
 2920SOL    HW1 9659   3.287   1.452   1.473
 2920SOL    HW2 9660   3.399   1.355   1.407
 2921SOL     OW 9661   0.902   6.530   4.531
 2921SOL    HW1 9662   0.915   6.607   4.469
 2921SOL    HW2 9663   0.906   6.563   4.626
 2922SOL     OW 9664   4.571   0.038   1.425
 2922SOL    HW1 9665   4.528   0.083   1.347
 2922SOL    HW2 9666   4.652   7.013   1.395
 2923SOL     OW 9667   6.165   5.064   2.976
 2923SOL    HW1 9668   6.199   5.078   2.883
 2923SOL    HW2 9669   6.072   5.029   2.973
 2924SOL     OW 9670   6.410   1.787   5.517
 2924SOL    HW1 9671   6.314   1.807   5.538
 2924SOL    HW2 9672   6.456   1.757   5.600
 2925SOL     OW 9673   4.971   1.913   1.599
 2925SOL    HW1 9674   5.042   1.848   1.575
 2925SOL    HW2 9675   4.937   1.894   1.691
 2926SOL     OW 9676   5.857   1.426   5.727
 2926SOL    HW1 9677   5.773   1.481   5.726
 2926SOL    HW2 9678   5.857   1.366   5.807
 2927SOL     OW 9679   1.531   3.998   1.545
 2927SOL    HW1 9680   1.615   3.949   1.565
 2927SOL    HW2 9681   1.454   3.952   1.589
 2928SOL     OW 9682   0.575   0.657   6.902
 2928SOL    HW1 9683   0.614   0.713   6.975
 2928SOL    HW2 9684   0.586   0.560   6.926
 2929SOL     OW 9685   1.222   2.329   6.364
 2929SOL    HW1 9686   1.180   2.390   6.297
 2929SOL    HW2 9687   1.239   2.379   6.449
 2930SOL     OW 9688   5.593   6.647   5.297
 2930SOL    HW1 9689   5.515   6.630   5.236
 2930SOL    HW2 9690   5.605   6.568   5.358
 2931SOL     OW 9691   5.611   4.828   6.688
 2931SOL    HW1 9692   5.655   4.743   6.716
 2931SOL    HW2 9693   5.590   4.825   6.590
 2932SOL     OW 9694   1.146   5.723   2.311
 2932SOL    HW1 9695   1.165   5.782   2.389
 2932SOL    HW2 9696   1.174   5.768   2.227
 2933SOL     OW 9697   0.913   5.684   2.627
 2933SOL    HW1 9698   0.897   5.774   2.667
 2933SOL    HW2 9699   1.011   5.663   2.631
 2934SOL     OW 9700   5.238   1.229   0.003
 2934SOL    HW1 9701   5.274   1.322   0.009
 2934SOL    HW2 9702   5.145   1.231   6.991
 2935SOL     OW 9703   0.182   2.765   6.576
 2935SOL    HW1 9704   0.153   2.675   6.544
 2935SOL    HW2 9705   0.164   2.773   6.674
 2936SOL     OW 9706   4.314   6.509   0.719
 2936SOL    HW1 9707   4.287   6.529   0.814
 2936SOL    HW2 9708   4.349   6.416   0.714
 2937SOL     OW 9709   5.743   4.525   1.579
 2937SOL    HW1 9710   5.757   4.510   1.481
 2937SOL    HW2 9711   5.740   4.437   1.626
 2938SOL     OW 9712   4.873   5.124   6.717
 2938SOL    HW1 9713   4.839   5.200   6.772
 2938SOL    HW2 9714   4.796   5.073   6.679
 2939SOL     OW 9715   2.204   0.868   2.289
 2939SOL    HW1 9716   2.122   0.814   2.309
 2939SOL    HW2 9717   2.272   0.854   2.360
 2940SOL     OW 9718   5.948   4.705   5.533
 2940SOL    HW1 9719   5.951   4.608   5.511
 2940SOL    HW2 9720   6.021   4.753   5.485
 2941SOL     OW 9721   1.618   2.203   4.504
 2941SOL    HW1 9722   1.540   2.199   4.442
 2941SOL    HW2 9723   1.660   2.113   4.512
 2942SOL     OW 9724   3.738   2.519   0.617
 2942SOL    HW1 9725   3.755   2.609   0.657
 2942SOL    HW2 9726   3.640   2.497   0.623
 2943SOL     OW 9727   5.166   3.770   3.891
 2943SOL    HW1 9728   5.247   3.774   3.832
 2943SOL    HW2 9729   5.142   3.675   3.907
 2944SOL     OW 9730   2.425   6.340   4.197
 2944SOL    HW1 9731   2.415   6.241   4.190
 2944SOL    HW2 9732   2.398   6.382   4.111
 2945SOL     OW 9733   3.327   3.733   3.012
 2945SOL    HW1 9734   3.290   3.800   3.077
 2945SOL    HW2 9735   3.403   3.684   3.055
 2946SOL     OW 9736   1.406   4.699   5.528
 2946SOL    HW1 9737   1.491   4.675   5.482
 2946SOL    HW2 9738   1.424   4.770   5.596
 2947SOL     OW 9739   0.285   4.793   1.530
 2947SOL    HW1 9740   0.357   4.850   1.490
 2947SOL    HW2 9741   0.256   4.833   1.617
 2948SOL     OW 9742   0.532   3.850   4.285
 2948SOL    HW1 9743   0.558   3.800   4.367
 2948SOL    HW2 9744   0.523   3.787   4.209
 2949SOL     OW 9745   2.359   5.125   0.969
 2949SOL    HW1 9746   2.302   5.045   0.951
 2949SOL    HW2 9747   2.428   5.133   0.897
 2950SOL     OW 9748   5.401   5.236   3.800
 2950SOL    HW1 9749   5.416   5.332   3.823
 2950SOL    HW2 9750   5.434   5.178   3.875
 2951SOL     OW 9751   5.345   1.412   2.291
 2951SOL    HW1 9752   5.400   1.443   2.214
 2951SOL    HW2 9753   5.400   1.354   2.351
 2952SOL     OW 9754   6.817   5.302   4.701
 2952SOL    HW1 9755   6.771   5.386   4.726
 2952SOL    HW2 9756   6.850   5.256   4.783
 2953SOL     OW 9757   5.817   3.975   2.579
 2953SOL    HW1 9758   5.887   3.904   2.583
 2953SOL    HW2 9759   5.844   4.046   2.513
 2954SOL     OW 9760   1.057   5.332   2.164
 2954SOL    HW1 9761   1.046   5.367   2.257
 2954SOL    HW2 9762   1.068   5.233   2.166
 2955SOL     OW 9763   0.642   3.768   1.660
 2955SOL    HW1 9764   0.647   3.698   1.589
 2955SOL    HW2 9765   0.551   3.765   1.703
 2956SOL     OW 9766   5.622   5.827   3.057
 2956SOL    HW1 9767   5.532   5.870   3.062
 2956SOL    HW2 9768   5.626   5.750   3.120
 2957SOL     OW 9769   5.614   3.940   1.574
 2957SOL    HW1 9770   5.713   3.936   1.557
 2957SOL    HW2 9771   5.595   4.012   1.641
 2958SOL     OW 9772   2.230   4.479   3.289
 2958SOL    HW1 9773   2.321   4.520   3.285
 2958SOL    HW2 9774   2.183   4.493   3.202
 2959SOL     OW 9775   5.023   3.435   0.914
 2959SOL    HW1 9776   5.045   3.421   0.818
 2959SOL    HW2 9777   5.028   3.533   0.936
 2960SOL     OW 9778   2.867   0.525   0.860
 2960SOL    HW1 9779   2.819   0.566   0.938
 2960SOL    HW2 9780   2.818   0.545   0.776
 2961SOL     OW 9781   5.501   3.810   2.947
 2961SOL    HW1 9782   5.518   3.842   3.040
 2961SOL    HW2 9783   5.452   3.723   2.950
 2962SOL     OW 9784   4.336   6.665   2.942
 2962SOL    HW1 9785   4.277   6.586   2.954
 2962SOL    HW2 9786   4.323   6.703   2.851
 2963SOL     OW 9787   1.987   0.844   6.060
 2963SOL    HW1 9788   1.901   0.823   6.013
 2963SOL    HW2 9789   1.983   0.936   6.098
 2964SOL     OW 9790   0.264   0.827   4.507
 2964SOL    HW1 9791   0.304   0.739   4.482
 2964SOL    HW2 9792   0.190   0.850   4.444
 2965SOL     OW 9793   0.384   0.596   4.425
 2965SOL    HW1 9794   0.469   0.585   4.477
 2965SOL    HW2 9795   0.345   0.505   4.406
 2966SOL     OW 9796   4.200   5.208   3.416
 2966SOL    HW1 9797   4.255   5.204   3.499
 2966SOL    HW2 9798   4.232   5.139   3.351
 2967SOL     OW 9799   6.265   0.823   4.893
 2967SOL    HW1 9800   6.229   0.896   4.834
 2967SOL    HW2 9801   6.191   0.782   4.945
 2968SOL     OW 9802   0.881   2.836   0.608
 2968SOL    HW1 9803   0.817   2.795   0.543
 2968SOL    HW2 9804   0.940   2.901   0.561
 2969SOL     OW 9805   5.133   2.383   4.381
 2969SOL    HW1 9806   5.089   2.341   4.301
 2969SOL    HW2 9807   5.065   2.436   4.432
 2970SOL     OW 9808   2.673   2.760   5.677
 2970SOL    HW1 9809   2.611   2.731   5.750
 2970SOL    HW2 9810   2.679   2.859   5.676
 2971SOL     OW 9811   5.163   4.300   6.920
 2971SOL    HW1 9812   5.240   4.239   6.937
 2971SOL    HW2 9813   5.106   4.263   6.846
 2972SOL     OW 9814   6.820   4.584   6.422
 2972SOL    HW1 9815   6.776   4.507   6.469
 2972SOL    HW2 9816   6.750   4.646   6.387
 2973SOL     OW 9817   5.363   6.048   2.521
 2973SOL    HW1 9818   5.293   5.980   2.497
 2973SOL    HW2 9819   5.414   6.016   2.601
 2974SOL     OW 9820   0.684   4.514   3.904
 2974SOL    HW1 9821   0.775   4.481   3.879
 2974SOL    HW2 9822   0.692   4.602   3.949
 2975SOL     OW 9823   5.134   3.495   3.913
 2975SOL    HW1 9824   5.130   3.421   3.980
 2975SOL    HW2 9825   5.106   3.460   3.823
 2976SOL     OW 9826   3.893   2.114   3.010
 2976SOL    HW1 9827   3.794   2.118   2.997
 2976SOL    HW2 9828   3.915   2.039   3.072
 2977SOL     OW 9829   2.235   0.269   2.658
 2977SOL    HW1 9830   2.239   0.327   2.740
 2977SOL    HW2 9831   2.213   0.175   2.685
 2978SOL     OW 9832   4.204   5.079   6.988
 2978SOL    HW1 9833   4.220   4.981   6.989
 2978SOL    HW2 9834   4.127   5.099   6.926
 2979SOL     OW 9835   3.699   1.055   4.020
 2979SOL    HW1 9836   3.620   1.044   3.960
 2979SOL    HW2 9837   3.774   1.099   3.970
 2980SOL     OW 9838   1.488   5.509   4.545
 2980SOL    HW1 9839   1.535   5.512   4.457
 2980SOL    HW2 9840   1.551   5.475   4.615
 2981SOL     OW 9841   2.560   1.797   6.533
 2981SOL    HW1 9842   2.631   1.866   6.523
 2981SOL    HW2 9843   2.506   1.791   6.448
 2982SOL     OW 9844   3.047   5.483   2.067
 2982SOL    HW1 9845   2.986   5.405   2.080
 2982SOL    HW2 9846   2.996   5.568   2.079
 2983SOL     OW 9847   6.470   2.273   2.692
 2983SOL    HW1 9848   6.503   2.352   2.640
 2983SOL    HW2 9849   6.497   2.189   2.645
 2984SOL     OW 9850   5.734   4.477   0.278
 2984SOL    HW1 9851   5.679   4.487   0.195
 2984SOL    HW2 9852   5.825   4.445   0.254
 2985SOL     OW 9853   1.798   2.498   4.935
 2985SOL    HW1 9854   1.821   2.568   5.003
 2985SOL    HW2 9855   1.720   2.445   4.966
 2986SOL     OW 9856   3.561   4.164   3.450
 2986SOL    HW1 9857   3.645   4.110   3.454
 2986SOL    HW2 9858   3.511   4.155   3.537
 2987SOL     OW 9859   0.860   1.621   3.977
 2987SOL    HW1 9860   0.766   1.630   3.944
 2987SOL    HW2 9861   0.878   1.691   4.047
 2988SOL     OW 9862   1.637   6.067   2.739
 2988SOL    HW1 9863   1.624   5.969   2.726
 2988SOL    HW2 9864   1.607   6.093   2.831
 2989SOL     OW 9865   5.439   5.500   5.790
 2989SOL    HW1 9866   5.473   5.429   5.851
 2989SOL    HW2 9867   5.490   5.584   5.803
 2990SOL     OW 9868   3.574   1.932   4.770
 2990SOL    HW1 9869   3.517   1.951   4.690
 2990SOL    HW2 9870   3.655   1.990   4.767
 2991SOL     OW 9871   6.872   4.060   5.099
 2991SOL    HW1 9872   6.785   4.078   5.054
 2991SOL    HW2 9873   6.903   4.143   5.146
 2992SOL     OW 9874   1.728   5.835   4.459
 2992SOL    HW1 9875   1.771   5.759   4.411
 2992SOL    HW2 9876   1.679   5.893   4.393
 2993SOL     OW 9877   0.789   4.626   1.180
 2993SOL    HW1 9878   0.858   4.698   1.172
 2993SOL    HW2 9879   0.701   4.662   1.152
 2994SOL     OW 9880   3.854   6.649   6.698
 2994SOL    HW1 9881   3.945   6.623   6.729
 2994SOL    HW2 9882   3.837   6.611   6.607
 2995SOL     OW 9883   2.899   1.600   6.298
 2995SOL    HW1 9884   2.883   1.515   6.249
 2995SOL    HW2 9885   2.933   1.669   6.234
 2996SOL     OW 9886   1.400   1.283   5.177
 2996SOL    HW1 9887   1.352   1.229   5.108
 2996SOL    HW2 9888   1.402   1.379   5.149
 2997SOL     OW 9889   5.550   6.876   3.120
 2997SOL    HW1 9890   5.465   6.825   3.135
 2997SOL    HW2 9891   5.538   6.971   3.150
 2998SOL     OW 9892   4.710   0.090   3.972
 2998SOL    HW1 9893   4.653   0.043   4.040
 2998SOL    HW2 9894   4.704   0.189   3.986
 2999SOL     OW 9895   2.518   5.318   4.998
 2999SOL    HW1 9896   2.497   5.239   4.941
 2999SOL    HW2 9897   2.433   5.360   5.030
 3000SOL     OW 9898   3.043   3.827   5.962
 3000SOL    HW1 9899   3.030   3.846   6.059
 3000SOL    HW2 9900   3.139   3.837   5.938
 3001SOL     OW 9901   0.259   0.445   5.954
 3001SOL    HW1 9902   0.307   0.436   6.042
 3001SOL    HW2 9903   0.185   0.378   5.950
 3002SOL     OW 9904   3.080   1.730   6.946
 3002SOL    HW1 9905   3.178   1.724   6.926
 3002SOL    HW2 9906   3.060   1.817   6.989
 3003SOL     OW 9907   1.455   6.981   0.722
 3003SOL    HW1 9908   1.411   6.924   0.653
 3003SOL    HW2 9909   1.393   0.031   0.748
 3004SOL     OW 9910   0.539   3.858   2.622
 3004SOL    HW1 9911   0.539   3.859   2.722
 3004SOL    HW2 9912   0.624   3.817   2.589
 3005SOL     OW 9913   1.862   2.147   6.998
 3005SOL    HW1 9914   1.846   2.224   0.035
 3005SOL    HW2 9915   1.775   2.112   6.964
 3006SOL     OW 9916   5.243   1.302   4.574
 3006SOL    HW1 9917   5.243   1.203   4.559
 3006SOL    HW2 9918   5.192   1.348   4.501
 3007SOL     OW 9919   5.552   4.012   0.585
 3007SOL    HW1 9920   5.463   4.041   0.620
 3007SOL    HW2 9921   5.571   4.062   0.500
 3008SOL     OW 9922   3.860   2.232   6.015
 3008SOL    HW1 9923   3.866   2.328   5.988
 3008SOL    HW2 9924   3.798   2.223   6.094
 3009SOL     OW 9925   6.973   1.943   2.836
 3009SOL    HW1 9926   0.037   1.922   2.794
 3009SOL    HW2 9927   6.917   1.992   2.769
 3010SOL     OW 9928   3.537   5.775   3.696
 3010SOL    HW1 9929   3.500   5.683   3.707
 3010SOL    HW2 9930   3.462   5.841   3.693
 3011SOL     OW 9931   6.242   1.651   2.707
 3011SOL    HW1 9932   6.297   1.635   2.625
 3011SOL    HW2 9933   6.247   1.748   2.732
 3012SOL     OW 9934   1.932   3.438   6.151
 3012SOL    HW1 9935   1.970   3.377   6.082
 3012SOL    HW2 9936   1.928   3.391   6.239
 3013SOL     OW 9937   5.172   5.717   3.794
 3013SOL    HW1 9938   5.218   5.631   3.814
 3013SOL    HW2 9939   5.120   5.709   3.710
 3014SOL     OW 9940   4.535   2.129   4.980
 3014SOL    HW1 9941   4.613   2.190   4.973
 3014SOL    HW2 9942   4.451   2.181   4.965
 3015SOL     OW 9943   2.968   1.972   0.062
 3015SOL    HW1 9944   3.024   1.940   0.137
 3015SOL    HW2 9945   2.881   2.006   0.097
 3016SOL     OW 9946   2.635   6.324   3.769
 3016SOL    HW1 9947   2.718   6.356   3.723
 3016SOL    HW2 9948   2.593   6.252   3.713
 3017SOL     OW 9949   5.954   5.510   2.205
 3017SOL    HW1 9950   5.955   5.576   2.129
 3017SOL    HW2 9951   5.863   5.508   2.246
 3018SOL     OW 9952   2.652   0.245   5.869
 3018SOL    HW1 9953   2.594   0.272   5.792
 3018SOL    HW2 9954   2.646   0.146   5.883
 3019SOL     OW 9955   0.498   6.744   0.090
 3019SOL    HW1 9956   0.553   6.745   0.006
 3019SOL    HW2 9957   0.558   6.748   0.170
 3020SOL     OW 9958   3.753   2.560   1.441
 3020SOL    HW1 9959   3.843   2.598   1.418
 3020SOL    HW2 9960   3.742   2.560   1.540
 3021SOL     OW 9961   2.923   0.243   5.963
 3021SOL    HW1 9962   2.853   0.259   5.894
 3021SOL    HW2 9963   3.001   0.198   5.921
 3022SOL     OW 9964   4.058   5.232   4.850
 3022SOL    HW1 9965   4.062   5.132   4.853
 3022SOL    HW2 9966   4.148   5.269   4.876
 3023SOL     OW 9967   3.954   6.892   3.035
 3023SOL    HW1 9968   3.990   6.932   3.119
 3023SOL    HW2 9969   3.855   6.902   3.033
 3024SOL     OW 9970   4.945   6.815   5.095
 3024SOL    HW1 9971   4.909   6.889   5.038
 3024SOL    HW2 9972   5.028   6.777   5.052
 3025SOL     OW 9973   3.998   6.691   0.379
 3025SOL    HW1 9974   4.061   6.736   0.317
 3025SOL    HW2 9975   4.039   6.607   0.414
 3026SOL     OW 9976   1.432   0.349   6.348
 3026SOL    HW1 9977   1.355   0.327   6.408
 3026SOL    HW2 9978   1.403   0.341   6.252
 3027SOL     OW 9979   4.515   1.171   2.945
 3027SOL    HW1 9980   4.579   1.096   2.926
 3027SOL    HW2 9981   4.428   1.153   2.899
 3028SOL     OW 9982   1.468   4.079   5.949
 3028SOL    HW1 9983   1.543   4.053   5.888
 3028SOL    HW2 9984   1.393   4.014   5.939
 3029SOL     OW 9985   0.365   2.600   5.203
 3029SOL    HW1 9986   0.381   2.693   5.172
 3029SOL    HW2 9987   0.444   2.543   5.180
 3030SOL     OW 9988   0.665   3.464   0.070
 3030SOL    HW1 9989   0.628   3.473   0.162
 3030SOL    HW2 9990   0.760   3.496   0.069
 3031SOL     OW 9991   0.116   4.591   1.565
 3031SOL    HW1 9992   0.174   4.668   1.539
 3031SOL    HW2 9993   0.158   4.505   1.534
 3032SOL     OW 9994   2.821   6.367   1.373
 3032SOL    HW1 9995   2.768   6.342   1.292
 3032SOL    HW2 9996   2.850   6.463   1.365
 3033SOL     OW 9997   5.574   1.770   1.221
 3033SOL    HW1 9998   5.635   1.691   1.218
 3033SOL    HW2 9999   5.479   1.739   1.212
 3034SOL     OW10000   1.346   6.865   2.571
 3034SOL    HW110001   1.276   6.818   2.517
 3034SOL    HW210002   1.356   6.819   2.659
 3035SOL     OW10003   6.916   3.015   6.530
 3035SOL    HW110004   6.843   2.970   6.582
 3035SOL    HW210005   6.989   2.949   6.512
 3036SOL     OW10006   2.438   1.747   6.300
 3036SOL    HW110007   2.418   1.750   6.202
 3036SOL    HW210008   2.352   1.740   6.351
 3037SOL     OW10009   6.307   5.776   6.284
 3037SOL    HW110010   6.318   5.689   6.236
 3037SOL    HW210011   6.211   5.788   6.309
 3038SOL     OW10012   4.903   5.712   5.890
 3038SOL    HW110013   4.890   5.672   5.800
 3038SOL    HW210014   4.927   5.639   5.955
 3039SOL     OW10015   0.272   3.672   0.869
 3039SOL    HW110016   0.216   3.612   0.925
 3039SOL    HW210017   0.232   3.764   0.868
 3040SOL     OW10018   3.673   4.127   5.626
 3040SOL    HW110019   3.578   4.103   5.646
 3040SOL    HW210020   3.682   4.227   5.626
 3041SOL     OW10021   1.919   3.055   5.216
 3041SOL    HW110022   1.921   3.155   5.211
 3041SOL    HW210023   2.001   3.019   5.172
 3042SOL     OW10024   5.479   5.666   2.614
 3042SOL    HW110025   5.554   5.682   2.550
 3042SOL    HW210026   5.469   5.744   2.675
 3043SOL     OW10027   2.876   4.398   1.588
 3043SOL    HW110028   2.953   4.355   1.541
 3043SOL    HW210029   2.894   4.400   1.686
 3044SOL     OW10030   3.519   4.710   5.643
 3044SOL    HW110031   3.531   4.632   5.704
 3044SOL    HW210032   3.457   4.685   5.568
 3045SOL     OW10033   5.026   6.863   3.336
 3045SOL    HW110034   5.032   6.820   3.426
 3045SOL    HW210035   4.932   6.894   3.321
 3046SOL     OW10036   2.345   1.135   5.721
 3046SOL    HW110037   2.316   1.069   5.790
 3046SOL    HW210038   2.302   1.113   5.634
 3047SOL     OW10039   5.813   0.180   1.840
 3047SOL    HW110040   5.794   0.184   1.743
 3047SOL    HW210041   5.806   0.271   1.880
 3048SOL     OW10042   3.984   2.324   1.697
 3048SOL    HW110043   3.919   2.334   1.772
 3048SOL    HW210044   3.974   2.401   1.634
 3049SOL     OW10045   1.108   0.205   2.783
 3049SOL    HW110046   1.167   0.175   2.708
 3049SOL    HW210047   1.040   0.270   2.748
 3050SOL     OW10048   3.173   1.382   1.761
 3050SOL    HW110049   3.145   1.475   1.738
 3050SOL    HW210050   3.241   1.385   1.834
 3051SOL     OW10051   1.778   5.458   6.330
 3051SOL    HW110052   1.745   5.552   6.340
 3051SOL    HW210053   1.788   5.416   6.420
 3052SOL     OW10054   4.920   5.424   2.435
 3052SOL    HW110055   4.996   5.423   2.370
 3052SOL    HW210056   4.904   5.331   2.468
 3053SOL     OW10057   0.230   2.506   0.804
 3053SOL    HW110058   0.155   2.528   0.741
 3053SOL    HW210059   0.194   2.492   0.896
 3054SOL     OW10060   6.602   2.551   0.919
 3054SOL    HW110061   6.530   2.519   0.857
 3054SOL    HW210062   6.622   2.480   0.987
 3055SOL     OW10063   5.005   0.319   4.901
 3055SOL    HW110064   5.103   0.324   4.920
 3055SOL    HW210065   4.991   0.307   4.802
 3056SOL     OW10066   6.309   0.750   5.707
 3056SOL    HW110067   6.358   0.772   5.622
 3056SOL    HW210068   6.340   0.811   5.780
 3057SOL     OW10069   4.374   5.607   3.192
 3057SOL    HW110070   4.449   5.595   3.257
 3057SOL    HW210071   4.317   5.684   3.221
 3058SOL     OW10072   0.057   4.903   1.063
 3058SOL    HW110073   0.013   4.990   1.085
 3058SOL    HW210074   0.058   4.845   1.145
 3059SOL     OW10075   3.003   2.154   3.905
 3059SOL    HW110076   2.948   2.198   3.834
 3059SOL    HW210077   2.975   2.189   3.995
 3060SOL     OW10078   1.453   4.954   0.563
 3060SOL    HW110079   1.364   5.001   0.567
 3060SOL    HW210080   1.478   4.921   0.654
 3061SOL     OW10081   0.136   5.970   5.728
 3061SOL    HW110082   0.109   6.031   5.653
 3061SOL    HW210083   0.089   5.882   5.719
 3062SOL     OW10084   2.363   0.334   1.027
 3062SOL    HW110085   2.395   0.405   0.965
 3062SOL    HW210086   2.275   0.361   1.066
 3063SOL     OW10087   2.010   5.107   2.449
 3063SOL    HW110088   2.064   5.130   2.530
 3063SOL    HW210089   2.067   5.116   2.368
 3064SOL     OW10090   4.972   3.743   1.656
 3064SOL    HW110091   4.963   3.671   1.726
 3064SOL    HW210092   4.905   3.815   1.674
 3065SOL     OW10093   1.882   1.573   6.795
 3065SOL    HW110094   1.929   1.506   6.736
 3065SOL    HW210095   1.899   1.665   6.761
 3066SOL     OW10096   5.135   4.553   0.673
 3066SOL    HW110097   5.229   4.562   0.706
 3066SOL    HW210098   5.086   4.639   0.689
 3067SOL     OW10099   4.055   0.530   5.910
 3067SOL    HW110100   3.981   0.578   5.864
 3067SOL    HW210101   4.093   0.589   5.981
 3068SOL     OW10102   6.743   6.590   0.724
 3068SOL    HW110103   6.780   6.518   0.666
 3068SOL    HW210104   6.690   6.655   0.668
 3069SOL     OW10105   6.685   6.247   1.435
 3069SOL    HW110106   6.652   6.313   1.368
 3069SOL    HW210107   6.622   6.246   1.513
 3070SOL     OW10108   3.343   1.147   0.503
 3070SOL    HW110109   3.420   1.118   0.446
 3070SOL    HW210110   3.270   1.079   0.498
 3071SOL     OW10111   6.962   6.527   3.537
 3071SOL    HW110112   6.957   6.447   3.478
 3071SOL    HW210113   0.030   6.539   3.570
 3072SOL     OW10114   2.332   5.809   6.272
 3072SOL    HW110115   2.249   5.852   6.237
 3072SOL    HW210116   2.412   5.851   6.229
 3073SOL     OW10117   6.439   3.678   4.224
 3073SOL    HW110118   6.346   3.660   4.255
 3073SOL    HW210119   6.445   3.772   4.189
 3074SOL     OW10120   6.089   3.941   1.275
 3074SOL    HW110121   6.048   3.869   1.219
 3074SOL    HW210122   6.116   3.904   1.364
 3075SOL     OW10123   2.964   5.666   1.595
 3075SOL    HW110124   2.934   5.578   1.631
 3075SOL    HW210125   2.889   5.709   1.544
 3076SOL     OW10126   6.198   0.836   3.516
 3076SOL    HW110127   6.179   0.810   3.421
 3076SOL    HW210128   6.175   0.932   3.530
 3077SOL     OW10129   5.921   4.894   1.390
 3077SOL    HW110130   5.918   4.859   1.484
 3077SOL    HW210131   6.016   4.917   1.367
 3078SOL     OW10132   0.337   2.997   2.842
 3078SOL    HW110133   0.348   3.038   2.933
 3078SOL    HW210134   0.246   3.018   2.807
 3079SOL     OW10135   2.611   2.358   2.720
 3079SOL    HW110136   2.540   2.413   2.764
 3079SOL    HW210137   2.586   2.343   2.624
 3080SOL     OW10138   5.373   5.124   2.503
 3080SOL    HW110139   5.378   5.079   2.592
 3080SOL    HW210140   5.386   5.223   2.514
 3081SOL     OW10141   0.932   2.679   5.378
 3081SOL    HW110142   0.886   2.759   5.338
 3081SOL    HW210143   0.870   2.601   5.378
 3082SOL     OW10144   2.144   5.627   4.043
 3082SOL    HW110145   2.164   5.640   3.946
 3082SOL    HW210146   2.141   5.716   4.089
 3083SOL     OW10147   2.902   6.479   3.713
 3083SOL    HW110148   2.946   6.391   3.727
 3083SOL    HW210149   2.934   6.520   3.627
 3084SOL     OW10150   6.996   3.843   4.171
 3084SOL    HW110151   0.038   3.833   4.245
 3084SOL    HW210152   6.904   3.844   4.209
 3085SOL     OW10153   5.411   4.173   6.964
 3085SOL    HW110154   5.416   4.165   0.039
 3085SOL    HW210155   5.504   4.179   6.928
 3086SOL     OW10156   5.235   1.230   1.436
 3086SOL    HW110157   5.233   1.162   1.363
 3086SOL    HW210158   5.156   1.218   1.496
 3087SOL     OW10159   1.627   5.693   4.098
 3087SOL    HW110160   1.627   5.783   4.141
 3087SOL    HW210161   1.705   5.685   4.037
 3088SOL     OW10162   2.152   4.931   5.032
 3088SOL    HW110163   2.121   4.852   5.084
 3088SOL    HW210164   2.080   4.961   4.970
 3089SOL     OW10165   2.628   2.285   5.456
 3089SOL    HW110166   2.575   2.317   5.535
 3089SOL    HW210167   2.667   2.364   5.408
 3090SOL     OW10168   2.523   1.668   1.680
 3090SOL    HW110169   2.427   1.641   1.694
 3090SOL    HW210170   2.526   1.755   1.631
 3091SOL     OW10171   1.766   0.575   1.309
 3091SOL    HW110172   1.790   0.556   1.404
 3091SOL    HW210173   1.686   0.520   1.283
 3092SOL     OW10174   5.736   1.508   0.290
 3092SOL    HW110175   5.708   1.461   0.374
 3092SOL    HW210176   5.705   1.455   0.211
 3093SOL     OW10177   5.684   6.313   6.636
 3093SOL    HW110178   5.616   6.288   6.705
 3093SOL    HW210179   5.776   6.293   6.671
 3094SOL     OW10180   2.140   0.069   4.345
 3094SOL    HW110181   2.219   0.093   4.402
 3094SOL    HW210182   2.101   7.007   4.376
 3095SOL     OW10183   2.133   4.867   5.495
 3095SOL    HW110184   2.181   4.909   5.573
 3095SOL    HW210185   2.192   4.798   5.453
 3096SOL     OW10186   0.879   5.287   5.451
 3096SOL    HW110187   0.853   5.384   5.453
 3096SOL    HW210188   0.806   5.232   5.491
 3097SOL     OW10189   5.590   2.550   0.110
 3097SOL    HW110190   5.545   2.521   0.026
 3097SOL    HW210191   5.548   2.636   0.142
 3098SOL     OW10192   1.938   2.123   1.061
 3098SOL    HW110193   1.892   2.145   0.975
 3098SOL    HW210194   1.939   2.023   1.072
 3099SOL     OW10195   0.698   0.115   4.007
 3099SOL    HW110196   0.724   0.128   3.911
 3099SOL    HW210197   0.776   0.080   4.058
 3100SOL     OW10198   6.837   6.969   3.535
 3100SOL    HW110199   6.910   6.909   3.567
 3100SOL    HW210200   6.869   0.039   3.535
 3101SOL     OW10201   6.010   6.128   0.148
 3101SOL    HW110202   6.050   6.181   0.222
 3101SOL    HW210203   5.942   6.065   0.185
 3102SOL     OW10204   6.416   5.606   2.300
 3102SOL    HW110205   6.381   5.584   2.392
 3102SOL    HW210206   6.494   5.667   2.308
 3103SOL     OW10207   4.229   1.017   1.910
 3103SOL    HW110208   4.200   1.066   1.828
 3103SOL    HW210209   4.238   0.919   1.888
 3104SOL     OW10210   5.226   0.841   5.514
 3104SOL    HW110211   5.231   0.788   5.429
 3104SOL    HW210212   5.317   0.846   5.555
 3105SOL     OW10213   5.676   4.253   1.422
 3105SOL    HW110214   5.597   4.235   1.481
 3105SOL    HW210215   5.665   4.342   1.379
 3106SOL     OW10216   4.889   0.522   3.644
 3106SOL    HW110217   4.935   0.531   3.556
 3106SOL    HW210218   4.957   0.511   3.716
 3107SOL     OW10219   4.243   1.406   5.406
 3107SOL    HW110220   4.306   1.382   5.332
 3107SOL    HW210221   4.292   1.461   5.475
 3108SOL     OW10222   1.558   6.021   4.356
 3108SOL    HW110223   1.465   6.056   4.362
 3108SOL    HW210224   1.581   6.004   4.260
 3109SOL     OW10225   5.474   6.166   4.171
 3109SOL    HW110226   5.545   6.148   4.103
 3109SOL    HW210227   5.384   6.146   4.131
 3110SOL     OW10228   1.120   3.357   2.850
 3110SOL    HW110229   1.153   3.439   2.898
 3110SOL    HW210230   1.143   3.276   2.904
 3111SOL     OW10231   0.390   4.743   3.517
 3111SOL    HW110232   0.318   4.782   3.575
 3111SOL    HW210233   0.431   4.665   3.563
 3112SOL     OW10234   3.903   3.132   0.046
 3112SOL    HW110235   3.839   3.207   0.065
 3112SOL    HW210236   3.871   3.080   6.992
 3113SOL     OW10237   2.595   4.694   3.672
 3113SOL    HW110238   2.605   4.680   3.573
 3113SOL    HW210239   2.541   4.619   3.710
 3114SOL     OW10240   3.725   2.209   0.576
 3114SOL    HW110241   3.753   2.239   0.667
 3114SOL    HW210242   3.729   2.286   0.513
 3115SOL     OW10243   4.182   4.699   6.469
 3115SOL    HW110244   4.235   4.615   6.456
 3115SOL    HW210245   4.187   4.755   6.385
 3116SOL     OW10246   6.872   2.679   0.326
 3116SOL    HW110247   6.947   2.715   0.382
 3116SOL    HW210248   6.788   2.677   0.380
 3117SOL     OW10249   4.909   3.791   5.247
 3117SOL    HW110250   4.872   3.719   5.188
 3117SOL    HW210251   5.009   3.794   5.236
 3118SOL     OW10252   0.321   5.885   2.291
 3118SOL    HW110253   0.260   5.813   2.322
 3118SOL    HW210254   0.402   5.845   2.248
 3119SOL     OW10255   2.169   2.871   6.625
 3119SOL    HW110256   2.070   2.869   6.640
 3119SOL    HW210257   2.216   2.842   6.709
 3120SOL     OW10258   3.320   0.297   6.075
 3120SOL    HW110259   3.268   0.335   5.999
 3120SOL    HW210260   3.264   0.231   6.124
 3121SOL     OW10261   6.920   1.078   3.871
 3121SOL    HW110262   6.995   1.053   3.931
 3121SOL    HW210263   6.890   0.998   3.819
 3122SOL     OW10264   4.001   5.449   6.377
 3122SOL    HW110265   3.902   5.443   6.366
 3122SOL    HW210266   4.045   5.433   6.288
 3123SOL     OW10267   1.851   1.876   3.245
 3123SOL    HW110268   1.854   1.906   3.340
 3123SOL    HW210269   1.762   1.834   3.226
 3124SOL     OW10270   4.787   6.758   4.832
 3124SOL    HW110271   4.838   6.844   4.839
 3124SOL    HW210272   4.834   6.695   4.771
 3125SOL     OW10273   0.836   2.971   5.107
 3125SOL    HW110274   0.810   2.882   5.069
 3125SOL    HW210275   0.810   3.043   5.042
 3126SOL     OW10276   5.832   3.966   5.609
 3126SOL    HW110277   5.754   3.936   5.553
 3126SOL    HW210278   5.899   4.013   5.551
 3127SOL     OW10279   1.335   2.693   5.631
 3127SOL    HW110280   1.350   2.635   5.711
 3127SOL    HW210281   1.270   2.649   5.569
 3128SOL     OW10282   3.010   0.580   6.782
 3128SOL    HW110283   3.071   0.656   6.805
 3128SOL    HW210284   3.065   0.505   6.744
 3129SOL     OW10285   6.479   3.373   6.992
 3129SOL    HW110286   6.399   3.426   6.966
 3129SOL    HW210287   6.554   3.392   6.929
 3130SOL     OW10288   2.079   4.539   1.763
 3130SOL    HW110289   2.056   4.550   1.859
 3130SOL    HW210290   2.164   4.589   1.743
 3131SOL     OW10291   0.505   3.213   2.290
 3131SOL    HW110292   0.438   3.241   2.222
 3131SOL    HW210293   0.594   3.253   2.268
 3132SOL     OW10294   4.284   5.577   6.722
 3132SOL    HW110295   4.238   5.488   6.730
 3132SOL    HW210296   4.290   5.603   6.626
 3133SOL     OW10297   3.133   1.286   3.236
 3133SOL    HW110298   3.094   1.345   3.165
 3133SOL    HW210299   3.091   1.308   3.324
 3134SOL     OW10300   4.892   4.032   1.531
 3134SOL    HW110301   4.939   3.998   1.449
 3134SOL    HW210302   4.932   3.990   1.612
 3135SOL     OW10303   4.616   0.807   5.263
 3135SOL    HW110304   4.549   0.733   5.261
 3135SOL    HW210305   4.708   0.769   5.269
 3136SOL     OW10306   5.323   0.991   2.307
 3136SOL    HW110307   5.275   0.923   2.251
 3136SOL    HW210308   5.256   1.055   2.345
 3137SOL     OW10309   6.356   0.648   2.031
 3137SOL    HW110310   6.440   0.624   2.079
 3137SOL    HW210311   6.297   0.567   2.024
 3138SOL     OW10312   6.340   4.667   3.268
 3138SOL    HW110313   6.254   4.684   3.220
 3138SOL    HW210314   6.361   4.745   3.327
 3139SOL     OW10315   4.874   5.870   0.679
 3139SOL    HW110316   4.793   5.928   0.681
 3139SOL    HW210317   4.907   5.860   0.585
 3140SOL     OW10318   6.770   0.074   0.389
 3140SOL    HW110319   6.797   7.017   0.441
 3140SOL    HW210320   6.670   0.082   0.389
 3141SOL     OW10321   0.562   6.900   6.629
 3141SOL    HW110322   0.484   6.852   6.669
 3141SOL    HW210323   0.626   6.925   6.702
 3142SOL     OW10324   3.247   7.017   2.624
 3142SOL    HW110325   3.328   7.008   2.565
 3142SOL    HW210326   3.247   0.083   2.666
 3143SOL     OW10327   6.487   2.000   0.424
 3143SOL    HW110328   6.388   1.996   0.416
 3143SOL    HW210329   6.514   2.093   0.449
 3144SOL     OW10330   3.399   3.930   1.513
 3144SOL    HW110331   3.452   3.865   1.459
 3144SOL    HW210332   3.457   3.969   1.585
 3145SOL     OW10333   2.207   6.044   1.811
 3145SOL    HW110334   2.217   6.128   1.758
 3145SOL    HW210335   2.238   5.966   1.758
 3146SOL     OW10336   1.383   1.103   4.499
 3146SOL    HW110337   1.483   1.098   4.490
 3146SOL    HW210338   1.359   1.130   4.592
 3147SOL     OW10339   3.171   5.840   0.947
 3147SOL    HW110340   3.092   5.858   1.006
 3147SOL    HW210341   3.190   5.922   0.893
 3148SOL     OW10342   6.029   6.864   3.794
 3148SOL    HW110343   5.952   6.805   3.820
 3148SOL    HW210344   6.100   6.808   3.751
 3149SOL     OW10345   2.805   0.664   5.350
 3149SOL    HW110346   2.810   0.761   5.374
 3149SOL    HW210347   2.858   0.646   5.268
 3150SOL     OW10348   6.136   5.449   4.553
 3150SOL    HW110349   6.132   5.486   4.461
 3150SOL    HW210350   6.076   5.369   4.560
 3151SOL     OW10351   6.923   0.705   5.125
 3151SOL    HW110352   6.941   0.772   5.196
 3151SOL    HW210353   6.858   0.743   5.059
 3152SOL     OW10354   1.065   5.196   1.107
 3152SOL    HW110355   1.163   5.188   1.087
 3152SOL    HW210356   1.024   5.264   1.046
 3153SOL     OW10357   6.364   5.103   0.299
 3153SOL    HW110358   6.293   5.039   0.270
 3153SOL    HW210359   6.416   5.135   0.219
 3154SOL     OW10360   0.204   1.507   6.837
 3154SOL    HW110361   0.199   1.560   6.922
 3154SOL    HW210362   0.154   1.422   6.848
 3155SOL     OW10363   6.299   3.982   0.355
 3155SOL    HW110364   6.397   3.988   0.336
 3155SOL    HW210365   6.279   4.033   0.439
 3156SOL     OW10366   3.474   2.872   3.012
 3156SOL    HW110367   3.441   2.879   3.106
 3156SOL    HW210368   3.398   2.843   2.953
 3157SOL     OW10369   2.693   2.069   5.091
 3157SOL    HW110370   2.665   2.085   5.186
 3157SOL    HW210371   2.632   2.002   5.049
 3158SOL     OW10372   3.418   1.559   3.614
 3158SOL    HW110373   3.423   1.531   3.710
 3158SOL    HW210374   3.376   1.486   3.560
 3159SOL     OW10375   6.548   1.186   0.365
 3159SOL    HW110376   6.567   1.188   0.463
 3159SOL    HW210377   6.490   1.108   0.343
 3160SOL     OW10378   0.743   5.847   5.535
 3160SOL    HW110379   0.687   5.847   5.618
 3160SOL    HW210380   0.812   5.919   5.542
 3161SOL     OW10381   2.420   2.514   2.859
 3161SOL    HW110382   2.340   2.564   2.827
 3161SOL    HW210383   2.413   2.500   2.958
 3162SOL     OW10384   1.376   6.131   1.594
 3162SOL    HW110385   1.383   6.209   1.656
 3162SOL    HW210386   1.340   6.052   1.643
 3163SOL     OW10387   4.726   2.937   6.194
 3163SOL    HW110388   4.761   2.870   6.260
 3163SOL    HW210389   4.755   3.029   6.222
 3164SOL     OW10390   4.244   5.214   1.248
 3164SOL    HW110391   4.199   5.168   1.172
 3164SOL    HW210392   4.248   5.312   1.231
 3165SOL     OW10393   0.963   6.547   1.088
 3165SOL    HW110394   1.018   6.525   1.008
 3165SOL    HW210395   0.961   6.468   1.150
 3166SOL     OW10396   4.172   2.001   4.453
 3166SOL    HW110397   4.169   1.992   4.552
 3166SOL    HW210398   4.260   1.969   4.419
 3167SOL     OW10399   6.839   4.675   0.885
 3167SOL    HW110400   6.890   4.741   0.941
 3167SOL    HW210401   6.805   4.602   0.944
 3168SOL     OW10402   5.370   2.788   6.860
 3168SOL    HW110403   5.309   2.798   6.939
 3168SOL    HW210404   5.402   2.693   6.855
 3169SOL     OW10405   2.086   3.829   4.240
 3169SOL    HW110406   2.102   3.745   4.291
 3169SOL    HW210407   2.029   3.891   4.293
 3170SOL     OW10408   4.650   6.249   1.325
 3170SOL    HW110409   4.661   6.287   1.233
 3170SOL    HW210410   4.639   6.323   1.391
 3171SOL     OW10411   0.200   0.703   2.168
 3171SOL    HW110412   0.164   0.720   2.259
 3171SOL    HW210413   0.187   0.607   2.143
 3172SOL     OW10414   6.920   5.270   0.351
 3172SOL    HW110415   7.010   5.287   0.311
 3172SOL    HW210416   6.884   5.354   0.390
 3173SOL     OW10417   2.863   1.847   0.513
 3173SOL    HW110418   2.866   1.749   0.532
 3173SOL    HW210419   2.894   1.897   0.593
 3174SOL     OW10420   2.796   2.395   0.867
 3174SOL    HW110421   2.737   2.446   0.930
 3174SOL    HW210422   2.790   2.298   0.888
 3175SOL     OW10423   6.261   1.280   1.692
 3175SOL    HW110424   6.170   1.322   1.692
 3175SOL    HW210425   6.253   1.181   1.678
 3176SOL     OW10426   1.634   3.954   5.694
 3176SOL    HW110427   1.563   4.022   5.674
 3176SOL    HW210428   1.671   3.918   5.608
 3177SOL     OW10429   4.881   3.649   3.887
 3177SOL    HW110430   4.869   3.727   3.948
 3177SOL    HW210431   4.952   3.588   3.924
 3178SOL     OW10432   6.383   2.293   0.638
 3178SOL    HW110433   6.389   2.391   0.657
 3178SOL    HW210434   6.291   2.260   0.659
 3179SOL     OW10435   1.285   3.191   1.800
 3179SOL    HW110436   1.378   3.195   1.763
 3179SOL    HW210437   1.245   3.283   1.798
 3180SOL     OW10438   4.672   1.187   6.918
 3180SOL    HW110439   4.580   1.163   6.949
 3180SOL    HW210440   4.721   1.104   6.891
 3181SOL     OW10441   6.936   2.103   3.538
 3181SOL    HW110442   7.011   2.072   3.596
 3181SOL    HW210443   6.968   2.174   3.475
 3182SOL     OW10444   3.166   0.166   6.268
 3182SOL    HW110445   3.096   0.238   6.268
 3182SOL    HW210446   3.128   0.083   6.228
 3183SOL     OW10447   4.259   4.051   1.729
 3183SOL    HW110448   4.237   4.061   1.632
 3183SOL    HW210449   4.336   4.111   1.753
 3184SOL     OW10450   0.852   4.005   2.664
 3184SOL    HW110451   0.843   4.064   2.584
 3184SOL    HW210452   0.840   4.059   2.747
 3185SOL     OW10453   5.436   5.750   6.964
 3185SOL    HW110454   5.415   5.727   6.869
 3185SOL    HW210455   5.516   5.809   6.968
 3186SOL     OW10456   3.290   2.202   1.693
 3186SOL    HW110457   3.359   2.263   1.654
 3186SOL    HW210458   3.329   2.154   1.772
 3187SOL     OW10459   4.624   4.683   0.640
 3187SOL    HW110460   4.616   4.775   0.678
 3187SOL    HW210461   4.593   4.615   0.707
 3188SOL     OW10462   2.147   0.457   4.222
 3188SOL    HW110463   2.132   0.372   4.171
 3188SOL    HW210464   2.193   0.436   4.309
 3189SOL     OW10465   1.138   1.257   1.290
 3189SOL    HW110466   1.215   1.269   1.353
 3189SOL    HW210467   1.170   1.213   1.206
 3190SOL     OW10468   0.288   5.972   0.373
 3190SOL    HW110469   0.221   5.914   0.325
 3190SOL    HW210470   0.271   5.969   0.471
 3191SOL     OW10471   5.111   5.464   0.643
 3191SOL    HW110472   5.023   5.451   0.689
 3191SOL    HW210473   5.178   5.495   0.710
 3192SOL     OW10474   6.992   2.319   1.194
 3192SOL    HW110475   6.923   2.249   1.210
 3192SOL    HW210476   7.018   2.360   1.282
 3193SOL     OW10477   3.730   1.497   6.862
 3193SOL    HW110478   3.664   1.510   6.936
 3193SOL    HW210479   3.682   1.475   6.777
 3194SOL     OW10480   1.823   2.366   6.236
 3194SOL    HW110481   1.821   2.273   6.199
 3194SOL    HW210482   1.745   2.418   6.199
 3195SOL     OW10483   2.964   1.450   3.104
 3195SOL    HW110484   2.992   1.499   3.022
 3195SOL    HW210485   2.883   1.494   3.144
 3196SOL     OW10486   0.432   1.160   6.582
 3196SOL    HW110487   0.349   1.115   6.612
 3196SOL    HW210488   0.480   1.198   6.661
 3197SOL     OW10489   2.469   6.594   3.313
 3197SOL    HW110490   2.560   6.570   3.346
 3197SOL    HW210491   2.453   6.550   3.225
 3198SOL     OW10492   5.681   3.233   4.832
 3198SOL    HW110493   5.738   3.237   4.750
 3198SOL    HW210494   5.599   3.179   4.813
 3199SOL     OW10495   5.178   3.771   2.416
 3199SOL    HW110496   5.088   3.729   2.430
 3199SOL    HW210497   5.226   3.722   2.343
 3200SOL     OW10498   6.144   2.977   1.931
 3200SOL    HW110499   6.085   2.905   1.896
 3200SOL    HW210500   6.239   2.960   1.902
 3201SOL     OW10501   5.841   4.593   4.064
 3201SOL    HW110502   5.778   4.625   3.994
 3201SOL    HW210503   5.799   4.603   4.154
 3202SOL     OW10504   0.067   4.638   1.954
 3202SOL    HW110505   0.160   4.672   1.939
 3202SOL    HW210506   0.004   4.686   1.893
 3203SOL     OW10507   6.562   2.483   0.233
 3203SOL    HW110508   6.652   2.522   0.214
 3203SOL    HW210509   6.544   2.409   0.169
 3204SOL     OW10510   4.569   6.321   2.466
 3204SOL    HW110511   4.645   6.260   2.487
 3204SOL    HW210512   4.592   6.414   2.492
 3205SOL     OW10513   6.504   2.954   6.230
 3205SOL    HW110514   6.598   2.971   6.198
 3205SOL    HW210515   6.466   3.039   6.267
 3206SOL     OW10516   1.018   5.788   6.546
 3206SOL    HW110517   0.950   5.720   6.516
 3206SOL    HW210518   1.095   5.789   6.482
 3207SOL     OW10519   1.039   0.299   5.773
 3207SOL    HW110520   0.982   0.223   5.741
 3207SOL    HW210521   1.083   0.343   5.695
 3208SOL     OW10522   4.778   5.937   5.690
 3208SOL    HW110523   4.695   5.893   5.725
 3208SOL    HW210524   4.851   5.869   5.684
 3209SOL     OW10525   4.461   6.540   3.169
 3209SOL    HW110526   4.463   6.532   3.069
 3209SOL    HW210527   4.374   6.581   3.198
 3210SOL     OW10528   0.868   4.456   1.778
 3210SOL    HW110529   0.793   4.512   1.814
 3210SOL    HW210530   0.934   4.515   1.731
 3211SOL     OW10531   1.586   4.037   0.945
 3211SOL    HW110532   1.500   4.088   0.939
 3211SOL    HW210533   1.663   4.100   0.935
 3212SOL     OW10534   3.411   0.589   1.193
 3212SOL    HW110535   3.478   0.610   1.122
 3212SOL    HW210536   3.321   0.579   1.151
 3213SOL     OW10537   0.616   5.690   1.593
 3213SOL    HW110538   0.533   5.743   1.576
 3213SOL    HW210539   0.684   5.711   1.523
 3214SOL     OW10540   4.912   5.263   0.753
 3214SOL    HW110541   4.869   5.320   0.684
 3214SOL    HW210542   4.861   5.177   0.762
 3215SOL     OW10543   6.891   3.079   0.518
 3215SOL    HW110544   6.937   2.993   0.539
 3215SOL    HW210545   6.796   3.061   0.492
 3216SOL     OW10546   6.112   5.093   0.517
 3216SOL    HW110547   6.036   5.043   0.559
 3216SOL    HW210548   6.136   5.052   0.429
 3217SOL     OW10549   0.064   5.540   2.239
 3217SOL    HW110550   7.006   5.594   2.221
 3217SOL    HW210551   0.133   5.560   2.169
 3218SOL     OW10552   4.536   1.610   3.615
 3218SOL    HW110553   4.450   1.611   3.564
 3218SOL    HW210554   4.566   1.703   3.633
 3219SOL     OW10555   0.085   1.903   3.638
 3219SOL    HW110556   0.055   1.851   3.718
 3219SOL    HW210557   0.176   1.942   3.655
 3220SOL     OW10558   6.675   5.610   6.541
 3220SOL    HW110559   6.612   5.679   6.575
 3220SOL    HW210560   6.696   5.629   6.445
 3221SOL     OW10561   3.893   0.826   1.629
 3221SOL    HW110562   3.989   0.855   1.626
 3221SOL    HW210563   3.834   0.902   1.604
 3222SOL     OW10564   3.648   1.595   2.023
 3222SOL    HW110565   3.661   1.625   2.118
 3222SOL    HW210566   3.595   1.663   1.973
 3223SOL     OW10567   2.064   6.144   6.141
 3223SOL    HW110568   2.078   6.051   6.176
 3223SOL    HW210569   1.973   6.151   6.101
 3224SOL     OW10570   4.239   3.904   6.390
 3224SOL    HW110571   4.234   3.814   6.432
 3224SOL    HW210572   4.175   3.966   6.435
 3225SOL     OW10573   4.815   2.909   6.555
 3225SOL    HW110574   4.819   2.848   6.476
 3225SOL    HW210575   4.735   2.887   6.610
 3226SOL     OW10576   1.912   1.348   3.680
 3226SOL    HW110577   1.926   1.415   3.608
 3226SOL    HW210578   1.814   1.344   3.703
 3227SOL     OW10579   3.540   2.464   0.321
 3227SOL    HW110580   3.626   2.503   0.287
 3227SOL    HW210581   3.492   2.420   0.245
 3228SOL     OW10582   6.463   4.108   2.746
 3228SOL    HW110583   6.488   4.198   2.780
 3228SOL    HW210584   6.485   4.039   2.814
 3229SOL     OW10585   4.263   0.018   5.415
 3229SOL    HW110586   4.308   0.071   5.487
 3229SOL    HW210587   4.230   6.956   5.454
 3230SOL     OW10588   1.928   3.338   5.210
 3230SOL    HW110589   2.001   3.330   5.142
 3230SOL    HW210590   1.862   3.407   5.180
 3231SOL     OW10591   2.381   0.881   1.270
 3231SOL    HW110592   2.399   0.798   1.322
 3231SOL    HW210593   2.331   0.947   1.327
 3232SOL     OW10594   4.846   5.562   5.211
 3232SOL    HW110595   4.903   5.507   5.271
 3232SOL    HW210596   4.818   5.507   5.132
 3233SOL     OW10597   0.896   2.968   1.289
 3233SOL    HW110598   0.802   2.933   1.296
 3233SOL    HW210599   0.936   2.971   1.381
 3234SOL     OW10600   6.893   1.943   0.041
 3234SOL    HW110601   6.942   1.951   6.979
 3234SOL    HW210602   6.958   1.930   0.116
 3235SOL     OW10603   5.705   1.134   1.727
 3235SOL    HW110604   5.776   1.167   1.789
 3235SOL    HW210605   5.660   1.055   1.769
 3236SOL     OW10606   1.578   2.874   0.643
 3236SOL    HW110607   1.636   2.854   0.723
 3236SOL    HW210608   1.519   2.951   0.664
 3237SOL     OW10609   5.163   1.447   4.351
 3237SOL    HW110610   5.144   1.541   4.380
 3237SOL    HW210611   5.231   1.448   4.278
 3238SOL     OW10612   0.240   5.124   0.819
 3238SOL    HW110613   0.185   5.059   0.767
 3238SOL    HW210614   0.287   5.186   0.756
 3239SOL     OW10615   6.486   1.688   1.892
 3239SOL    HW110616   6.549   1.763   1.870
 3239SOL    HW210617   6.417   1.721   1.956
 3240SOL     OW10618   0.442   0.220   6.454
 3240SOL    HW110619   0.460   0.316   6.475
 3240SOL    HW210620   0.445   0.206   6.355
 3241SOL     OW10621   4.411   1.984   5.481
 3241SOL    HW110622   4.414   1.960   5.383
 3241SOL    HW210623   4.353   2.064   5.494
 3242SOL     OW10624   3.331   4.288   7.002
 3242SOL    HW110625   3.258   4.354   7.022
 3242SOL    HW210626   3.373   4.260   0.064
 3243SOL     OW10627   4.405   4.789   0.369
 3243SOL    HW110628   4.410   4.781   0.468
 3243SOL    HW210629   4.448   4.710   0.326
 3244SOL     OW10630   5.157   5.250   0.423
 3244SOL    HW110631   5.163   5.326   0.488
 3244SOL    HW210632   5.228   5.260   0.353
 3245SOL     OW10633   4.784   3.029   4.994
 3245SOL    HW110634   4.719   2.954   5.006
 3245SOL    HW210635   4.775   3.094   5.070
 3246SOL     OW10636   5.889   0.599   2.584
 3246SOL    HW110637   5.952   0.522   2.593
 3246SOL    HW210638   5.895   0.657   2.666
 3247SOL     OW10639   6.021   4.747   2.524
 3247SOL    HW110640   6.091   4.777   2.589
 3247SOL    HW210641   5.963   4.825   2.500
 3248SOL     OW10642   6.795   3.430   1.106
 3248SOL    HW110643   6.730   3.466   1.174
 3248SOL    HW210644   6.746   3.402   1.024
 3249SOL     OW10645   4.128   3.337   4.276
 3249SOL    HW110646   4.081   3.327   4.363
 3249SOL    HW210647   4.227   3.342   4.291
 3250SOL     OW10648   6.112   6.382   2.055
 3250SOL    HW110649   6.098   6.410   1.960
 3250SOL    HW210650   6.144   6.461   2.108
 3251SOL     OW10651   2.878   1.036   3.367
 3251SOL    HW110652   2.805   1.035   3.436
 3251SOL    HW210653   2.871   1.121   3.313
 3252SOL     OW10654   2.303   2.072   2.587
 3252SOL    HW110655   2.215   2.036   2.558
 3252SOL    HW210656   2.317   2.053   2.684
 3253SOL     OW10657   5.311   3.607   2.264
 3253SOL    HW110658   5.357   3.688   2.227
 3253SOL    HW210659   5.353   3.525   2.226
 3254SOL     OW10660   5.367   5.408   4.936
 3254SOL    HW110661   5.337   5.312   4.938
 3254SOL    HW210662   5.458   5.415   4.977
 3255SOL     OW10663   5.354   5.643   0.721
 3255SOL    HW110664   5.355   5.572   0.651
 3255SOL    HW210665   5.326   5.730   0.680
 3256SOL     OW10666   3.269   0.961   0.065
 3256SOL    HW110667   3.294   1.046   0.111
 3256SOL    HW210668   3.190   0.920   0.111
 3257SOL     OW10669   1.556   1.109   2.082
 3257SOL    HW110670   1.626   1.151   2.140
 3257SOL    HW210671   1.468   1.114   2.129
 3258SOL     OW10672   4.294   4.690   1.724
 3258SOL    HW110673   4.339   4.748   1.793
 3258SOL    HW210674   4.295   4.595   1.754
 3259SOL     OW10675   4.613   5.564   3.711
 3259SOL    HW110676   4.537   5.506   3.740
 3259SOL    HW210677   4.699   5.516   3.725
 3260SOL     OW10678   1.972   1.859   1.022
 3260SOL    HW110679   1.972   1.811   0.934
 3260SOL    HW210680   2.039   1.817   1.083
 3261SOL     OW10681   5.354   0.012   1.175
 3261SOL    HW110682   5.343   0.065   1.091
 3261SOL    HW210683   5.268   0.012   1.227
 3262SOL     OW10684   3.263   2.076   2.555
 3262SOL    HW110685   3.254   2.058   2.457
 3262SOL    HW210686   3.358   2.097   2.577
 3263SOL     OW10687   2.277   0.528   3.454
 3263SOL    HW110688   2.337   0.526   3.534
 3263SOL    HW210689   2.250   0.622   3.435
 3264SOL     OW10690   1.778   4.252   1.058
 3264SOL    HW110691   1.819   4.309   1.129
 3264SOL    HW210692   1.817   4.276   0.969
 3265SOL     OW10693   5.072   0.606   6.664
 3265SOL    HW110694   5.087   0.667   6.743
 3265SOL    HW210695   5.160   0.589   6.619
 3266SOL     OW10696   1.754   3.230   0.858
 3266SOL    HW110697   1.691   3.278   0.919
 3266SOL    HW210698   1.725   3.135   0.849
 3267SOL     OW10699   3.550   0.441   0.684
 3267SOL    HW110700   3.459   0.467   0.654
 3267SOL    HW210701   3.585   0.368   0.626
 3268SOL     OW10702   1.071   3.713   0.502
 3268SOL    HW110703   1.141   3.784   0.503
 3268SOL    HW210704   0.984   3.751   0.470
 3269SOL     OW10705   4.414   5.465   2.238
 3269SOL    HW110706   4.421   5.562   2.263
 3269SOL    HW210707   4.482   5.413   2.289
 3270SOL     OW10708   0.491   4.477   5.698
 3270SOL    HW110709   0.488   4.572   5.729
 3270SOL    HW210710   0.400   4.437   5.704
 3271SOL     OW10711   5.954   3.540   2.691
 3271SOL    HW110712   6.042   3.537   2.739
 3271SOL    HW210713   5.909   3.451   2.699
 3272SOL     OW10714   3.573   4.412   6.328
 3272SOL    HW110715   3.600   4.316   6.325
 3272SOL    HW210716   3.638   4.466   6.274
 3273SOL     OW10717   0.529   6.299   1.097
 3273SOL    HW110718   0.485   6.328   1.182
 3273SOL    HW210719   0.598   6.366   1.071
 3274SOL     OW10720   4.657   1.251   1.217
 3274SOL    HW110721   4.722   1.327   1.224
 3274SOL    HW210722   4.564   1.286   1.213
 3275SOL     OW10723   6.730   1.418   6.728
 3275SOL    HW110724   6.689   1.334   6.765
 3275SOL    HW210725   6.679   1.497   6.761
 3276SOL     OW10726   2.113   6.076   0.242
 3276SOL    HW110727   2.100   6.121   0.154
 3276SOL    HW210728   2.043   6.006   0.255
 3277SOL     OW10729   4.197   6.772   0.188
 3277SOL    HW110730   4.247   6.843   0.239
 3277SOL    HW210731   4.198   6.794   0.091
 3278SOL     OW10732   1.178   0.819   6.222
 3278SOL    HW110733   1.179   0.761   6.303
 3278SOL    HW210734   1.270   0.829   6.186
 3279SOL     OW10735   5.531   0.446   6.820
 3279SOL    HW110736   5.630   0.457   6.808
 3279SOL    HW210737   5.501   0.500   6.898
 3280SOL     OW10738   3.817   5.398   4.335
 3280SOL    HW110739   3.886   5.466   4.359
 3280SOL    HW210740   3.735   5.445   4.300
 3281SOL     OW10741   1.816   6.093   1.777
 3281SOL    HW110742   1.760   6.139   1.846
 3281SOL    HW210743   1.912   6.094   1.806
 3282SOL     OW10744   0.470   4.737   5.759
 3282SOL    HW110745   0.550   4.739   5.700
 3282SOL    HW210746   0.438   4.831   5.775
 3283SOL     OW10747   4.284   1.119   1.019
 3283SOL    HW110748   4.275   1.217   1.002
 3283SOL    HW210749   4.356   1.081   0.962
 3284SOL     OW10750   0.053   5.243   6.961
 3284SOL    HW110751   0.024   5.329   6.919
 3284SOL    HW210752   0.126   5.262   0.002
 3285SOL     OW10753   5.118   3.013   3.695
 3285SOL    HW110754   5.155   3.100   3.662
 3285SOL    HW210755   5.046   3.031   3.762
 3286SOL     OW10756   3.927   3.001   2.239
 3286SOL    HW110757   3.968   2.963   2.156
 3286SOL    HW210758   3.919   2.929   2.308
 3287SOL     OW10759   0.940   0.163   6.913
 3287SOL    HW110760   0.888   0.204   6.988
 3287SOL    HW210761   0.887   0.088   6.874
 3288SOL     OW10762   0.728   5.344   6.561
 3288SOL    HW110763   0.744   5.398   6.643
 3288SOL    HW210764   0.630   5.343   6.540
 3289SOL     OW10765   2.671   6.928   5.694
 3289SOL    HW110766   2.597   6.873   5.655
 3289SOL    HW210767   2.652   6.946   5.791
 3290SOL     OW10768   0.513   6.997   2.096
 3290SOL    HW110769   0.445   0.046   2.091
 3290SOL    HW210770   0.592   0.003   2.149
 3291SOL     OW10771   2.185   6.807   1.216
 3291SOL    HW110772   2.262   6.867   1.239
 3291SOL    HW210773   2.104   6.863   1.198
 3292SOL     OW10774   0.348   0.585   1.161
 3292SOL    HW110775   0.314   0.674   1.129
 3292SOL    HW210776   0.447   0.588   1.169
 3293SOL     OW10777   0.736   3.737   2.891
 3293SOL    HW110778   0.751   3.835   2.900
 3293SOL    HW210779   0.755   3.708   2.797
 3294SOL     OW10780   6.497   1.609   6.157
 3294SOL    HW110781   6.502   1.702   6.120
 3294SOL    HW210782   6.403   1.575   6.149
 3295SOL     OW10783   1.720   3.064   1.824
 3295SOL    HW110784   1.799   3.070   1.763
 3295SOL    HW210785   1.746   3.012   1.906
 3296SOL     OW10786   1.524   6.698   2.131
 3296SOL    HW110787   1.430   6.667   2.146
 3296SOL    HW210788   1.523   6.789   2.089
 3297SOL     OW10789   3.383   0.691   4.749
 3297SOL    HW110790   3.363   0.789   4.753
 3297SOL    HW210791   3.478   0.675   4.775
 3298SOL     OW10792   5.473   1.426   4.896
 3298SOL    HW110793   5.465   1.450   4.993
 3298SOL    HW210794   5.542   1.484   4.853
 3299SOL     OW10795   2.669   5.472   3.632
 3299SOL    HW110796   2.734   5.456   3.706
 3299SOL    HW210797   2.708   5.538   3.567
 3300SOL     OW10798   0.357   0.707   5.200
 3300SOL    HW110799   0.350   0.740   5.294
 3300SOL    HW210800   0.265   0.689   5.164
 3301SOL     OW10801   2.138   3.162   3.543
 3301SOL    HW110802   2.048   3.194   3.517
 3301SOL    HW210803   2.137   3.131   3.638
 3302SOL     OW10804   0.251   4.866   4.959
 3302SOL    HW110805   0.344   4.848   4.994
 3302SOL    HW210806   0.192   4.893   5.035
 3303SOL     OW10807   3.103   3.725   1.454
 3303SOL    HW110808   3.110   3.715   1.553
 3303SOL    HW210809   3.194   3.738   1.415
 3304SOL     OW10810   0.736   5.974   4.145
 3304SOL    HW110811   0.674   5.916   4.197
 3304SOL    HW210812   0.741   5.941   4.050
 3305SOL     OW10813   2.071   1.614   3.023
 3305SOL    HW110814   1.986   1.579   2.984
 3305SOL    HW210815   2.065   1.712   3.036
 3306SOL     OW10816   2.166   5.339   4.815
 3306SOL    HW110817   2.074   5.311   4.843
 3306SOL    HW210818   2.209   5.392   4.888
 3307SOL     OW10819   0.110   5.853   0.179
 3307SOL    HW110820   0.184   5.888   0.122
 3307SOL    HW210821   0.084   5.762   0.148
 3308SOL     OW10822   3.458   6.448   6.992
 3308SOL    HW110823   3.468   6.395   6.908
 3308SOL    HW210824   3.478   6.390   0.046
 3309SOL     OW10825   6.878   6.150   2.453
 3309SOL    HW110826   6.954   6.191   2.403
 3309SOL    HW210827   6.844   6.216   2.521
 3310SOL     OW10828   0.098   3.439   5.935
 3310SOL    HW110829   0.097   3.339   5.943
 3310SOL    HW210830   0.090   3.465   5.839
 3311SOL     OW10831   2.474   4.131   1.772
 3311SOL    HW110832   2.411   4.053   1.768
 3311SOL    HW210833   2.533   4.129   1.691
 3312SOL     OW10834   4.193   4.774   6.069
 3312SOL    HW110835   4.177   4.844   6.000
 3312SOL    HW210836   4.142   4.691   6.044
 3313SOL     OW10837   0.280   5.038   3.488
 3313SOL    HW110838   0.269   4.974   3.411
 3313SOL    HW210839   0.372   5.076   3.487
 3314SOL     OW10840   2.705   1.659   3.307
 3314SOL    HW110841   2.637   1.667   3.235
 3314SOL    HW210842   2.744   1.750   3.325
 3315SOL     OW10843   6.479   3.211   4.952
 3315SOL    HW110844   6.558   3.252   4.998
 3315SOL    HW210845   6.443   3.276   4.885
 3316SOL     OW10846   5.100   1.978   6.052
 3316SOL    HW110847   5.097   2.074   6.080
 3316SOL    HW210848   5.110   1.972   5.953
 3317SOL     OW10849   4.402   3.076   1.708
 3317SOL    HW110850   4.373   3.167   1.738
 3317SOL    HW210851   4.488   3.052   1.752
 3318SOL     OW10852   2.675   0.612   0.692
 3318SOL    HW110853   2.700   0.689   0.632
 3318SOL    HW210854   2.670   0.643   0.786
 3319SOL     OW10855   6.323   0.878   4.117
 3319SOL    HW110856   6.295   0.890   4.021
 3319SOL    HW210857   6.395   0.809   4.121
 3320SOL     OW10858   5.662   0.529   4.667
 3320SOL    HW110859   5.595   0.460   4.695
 3320SOL    HW210860   5.679   0.522   4.569
 3321SOL     OW10861   4.471   1.942   0.468
 3321SOL    HW110862   4.486   1.935   0.567
 3321SOL    HW210863   4.455   1.850   0.431
 3322SOL     OW10864   5.916   3.531   0.567
 3322SOL    HW110865   5.836   3.492   0.613
 3322SOL    HW210866   5.921   3.496   0.474
 3323SOL     OW10867   3.069   2.724   0.361
 3323SOL    HW110868   3.004   2.694   0.291
 3323SOL    HW210869   3.161   2.692   0.338
 3324SOL     OW10870   2.588   4.400   6.599
 3324SOL    HW110871   2.549   4.359   6.681
 3324SOL    HW210872   2.517   4.406   6.529
 3325SOL     OW10873   1.853   2.829   6.671
 3325SOL    HW110874   1.761   2.797   6.652
 3325SOL    HW210875   1.850   2.926   6.697
 3326SOL     OW10876   4.897   2.377   2.263
 3326SOL    HW110877   4.809   2.335   2.244
 3326SOL    HW210878   4.916   2.448   2.196
 3327SOL     OW10879   2.395   6.017   1.997
 3327SOL    HW110880   2.319   6.045   1.937
 3327SOL    HW210881   2.459   5.961   1.946
 3328SOL     OW10882   4.236   1.383   0.924
 3328SOL    HW110883   4.303   1.452   0.951
 3328SOL    HW210884   4.239   1.371   0.825
 3329SOL     OW10885   4.905   7.000   4.865
 3329SOL    HW110886   4.910   7.024   4.768
 3329SOL    HW210887   4.875   0.055   4.917
 3330SOL     OW10888   6.217   4.904   1.353
 3330SOL    HW110889   6.206   4.969   1.429
 3330SOL    HW210890   6.313   4.876   1.347
 3331SOL     OW10891   1.629   3.804   1.048
 3331SOL    HW110892   1.603   3.892   1.008
 3331SOL    HW210893   1.610   3.804   1.146
 3332SOL     OW10894   6.695   5.131   0.303
 3332SOL    HW110895   6.784   5.175   0.313
 3332SOL    HW210896   6.634   5.190   0.249
 3333SOL     OW10897   3.441   3.854   6.332
 3333SOL    HW110898   3.407   3.858   6.239
 3333SOL    HW210899   3.453   3.759   6.360
 3334SOL     OW10900   2.277   4.126   1.316
 3334SOL    HW110901   2.256   4.098   1.223
 3334SOL    HW210902   2.254   4.053   1.380
 3335SOL     OW10903   5.084   6.927   5.706
 3335SOL    HW110904   5.048   7.019   5.687
 3335SOL    HW210905   5.019   6.877   5.761
 3336SOL     OW10906   1.846   6.556   4.237
 3336SOL    HW110907   1.812   6.472   4.194
 3336SOL    HW210908   1.944   6.563   4.223
 3337SOL     OW10909   2.883   3.918   1.799
 3337SOL    HW110910   2.865   3.937   1.702
 3337SOL    HW210911   2.928   3.997   1.841
 3338SOL     OW10912   6.004   3.234   2.385
 3338SOL    HW110913   5.942   3.312   2.378
 3338SOL    HW210914   6.033   3.205   2.294
 3339SOL     OW10915   0.788   7.001   6.339
 3339SOL    HW110916   0.774   0.045   6.411
 3339SOL    HW210917   0.764   6.911   6.374
 3340SOL     OW10918   3.610   1.705   3.375
 3340SOL    HW110919   3.622   1.608   3.353
 3340SOL    HW210920   3.515   1.732   3.357
 3341SOL     OW10921   0.659   4.852   3.545
 3341SOL    HW110922   0.570   4.808   3.558
 3341SOL    HW210923   0.722   4.822   3.616
 3342SOL     OW10924   1.535   6.104   3.864
 3342SOL    HW110925   1.516   6.043   3.787
 3342SOL    HW210926   1.449   6.142   3.899
 3343SOL     OW10927   4.875   3.749   7.024
 3343SOL    HW110928   4.955   3.772   0.055
 3343SOL    HW210929   4.879   3.798   6.937
 3344SOL     OW10930   5.859   3.549   3.485
 3344SOL    HW110931   5.806   3.569   3.567
 3344SOL    HW210932   5.957   3.557   3.506
 3345SOL     OW10933   1.637   2.698   5.776
 3345SOL    HW110934   1.556   2.750   5.805
 3345SOL    HW210935   1.701   2.760   5.730
 3346SOL     OW10936   1.076   1.178   6.859
 3346SOL    HW110937   1.109   1.104   6.800
 3346SOL    HW210938   1.063   1.260   6.803
 3347SOL     OW10939   0.905   3.203   5.332
 3347SOL    HW110940   0.894   3.105   5.317
 3347SOL    HW210941   0.964   3.219   5.411
 3348SOL     OW10942   3.738   3.903   4.789
 3348SOL    HW110943   3.741   3.996   4.753
 3348SOL    HW210944   3.781   3.841   4.724
 3349SOL     OW10945   1.770   5.047   3.126
 3349SOL    HW110946   1.783   5.132   3.075
 3349SOL    HW210947   1.693   4.996   3.088
 3350SOL     OW10948   7.015   2.396   5.751
 3350SOL    HW110949   6.952   2.431   5.681
 3350SOL    HW210950   0.056   2.468   5.775
 3351SOL     OW10951   4.988   0.402   2.531
 3351SOL    HW110952   4.938   0.319   2.504
 3351SOL    HW210953   5.084   0.379   2.547
 3352SOL     OW10954   6.679   2.951   0.347
 3352SOL    HW110955   6.712   2.948   0.253
 3352SOL    HW210956   6.704   2.867   0.394
 3353SOL     OW10957   3.055   5.837   1.799
 3353SOL    HW110958   3.034   5.773   1.725
 3353SOL    HW210959   3.130   5.897   1.770
 3354SOL     OW10960   4.758   2.428   5.457
 3354SOL    HW110961   4.729   2.523   5.445
 3354SOL    HW210962   4.835   2.424   5.521
 3355SOL     OW10963   2.607   1.862   6.097
 3355SOL    HW110964   2.694   1.867   6.050
 3355SOL    HW210965   2.532   1.865   6.031
 3356SOL     OW10966   0.604   5.466   5.793
 3356SOL    HW110967   0.532   5.534   5.805
 3356SOL    HW210968   0.563   5.376   5.779
 3357SOL     OW10969   2.172   3.858   2.058
 3357SOL    HW110970   2.251   3.919   2.046
 3357SOL    HW210971   2.199   3.764   2.039
 3358SOL     OW10972   4.642   1.839   1.152
 3358SOL    HW110973   4.688   1.923   1.179
 3358SOL    HW210974   4.546   1.843   1.180
 3359SOL     OW10975   0.332   6.838   2.604
 3359SOL    HW110976   0.240   6.805   2.629
 3359SOL    HW210977   0.338   6.849   2.505
 3360SOL     OW10978   1.433   1.553   6.841
 3360SOL    HW110979   1.376   1.616   6.788
 3360SOL    HW210980   1.383   1.469   6.858
 3361SOL     OW10981   0.388   5.100   4.791
 3361SOL    HW110982   0.401   5.100   4.692
 3361SOL    HW210983   0.397   5.006   4.825
 3362SOL     OW10984   3.626   1.679   2.637
 3362SOL    HW110985   3.662   1.747   2.574
 3362SOL    HW210986   3.538   1.709   2.673
 3363SOL     OW10987   6.604   0.578   2.139
 3363SOL    HW110988   6.617   0.480   2.157
 3363SOL    HW210989   6.692   0.619   2.115
 3364SOL     OW10990   1.336   4.721   3.971
 3364SOL    HW110991   1.395   4.752   4.045
 3364SOL    HW210992   1.244   4.705   4.008
 3365SOL     OW10993   0.055   2.144   5.031
 3365SOL    HW110994   0.072   2.214   4.961
 3365SOL    HW210995   7.019   2.182   5.102
 3366SOL     OW10996   5.725   5.486   4.668
 3366SOL    HW110997   5.704   5.584   4.675
 3366SOL    HW210998   5.795   5.462   4.735
 3367SOL     OW10999   3.758   2.889   2.635
 3367SOL    HW111000   3.669   2.925   2.665
 3367SOL    HW211001   3.829   2.919   2.699
 3368SOL     OW11002   0.560   5.638   6.623
 3368SOL    HW111003   0.613   5.636   6.708
 3368SOL    HW211004   0.473   5.591   6.636
 3369SOL     OW11005   3.504   2.064   0.612
 3369SOL    HW111006   3.584   2.122   0.598
 3369SOL    HW211007   3.454   2.094   0.693
 3370SOL     OW11008   0.126   6.308   0.353
 3370SOL    HW111009   0.061   6.250   0.304
 3370SOL    HW211010   0.217   6.296   0.314
 3371SOL     OW11011   2.296   2.498   1.737
 3371SOL    HW111012   2.320   2.595   1.739
 3371SOL    HW211013   2.313   2.458   1.827
 3372SOL     OW11014   6.872   2.313   0.881
 3372SOL    HW111015   6.808   2.251   0.835
 3372SOL    HW211016   6.907   2.269   0.964
 3373SOL     OW11017   0.612   1.572   3.835
 3373SOL    HW111018   0.549   1.642   3.800
 3373SOL    HW211019   0.582   1.482   3.804
 3374SOL     OW11020   1.197   6.160   4.683
 3374SOL    HW111021   1.168   6.183   4.590
 3374SOL    HW211022   1.200   6.243   4.739
 3375SOL     OW11023   0.212   4.243   6.752
 3375SOL    HW111024   0.280   4.170   6.765
 3375SOL    HW211025   0.247   4.328   6.790
 3376SOL     OW11026   4.168   3.558   4.592
 3376SOL    HW111027   4.172   3.611   4.507
 3376SOL    HW211028   4.142   3.618   4.667
 3377SOL     OW11029   6.639   5.872   6.145
 3377SOL    HW111030   6.611   5.962   6.176
 3377SOL    HW211031   6.593   5.850   6.059
 3378SOL     OW11032   0.733   1.176   1.165
 3378SOL    HW111033   0.722   1.084   1.203
 3378SOL    HW211034   0.684   1.182   1.078
 3379SOL     OW11035   0.447   1.096   5.961
 3379SOL    HW111036   0.394   1.012   5.955
 3379SOL    HW211037   0.492   1.114   5.874
 3380SOL     OW11038   5.758   6.386   4.904
 3380SOL    HW111039   5.810   6.353   4.983
 3380SOL    HW211040   5.768   6.321   4.829
 3381SOL     OW11041   0.301   2.796   1.375
 3381SOL    HW111042   0.330   2.889   1.397
 3381SOL    HW211043   0.377   2.745   1.336
 3382SOL     OW11044   0.580   2.871   0.354
 3382SOL    HW111045   0.648   2.866   0.281
 3382SOL    HW211046   0.562   2.780   0.390
 3383SOL     OW11047   4.245   5.895   1.220
 3383SOL    HW111048   4.311   5.944   1.163
 3383SOL    HW211049   4.289   5.862   1.303
 3384SOL     OW11050   2.575   3.100   6.644
 3384SOL    HW111051   2.623   3.012   6.645
 3384SOL    HW211052   2.477   3.085   6.644
 3385SOL     OW11053   6.866   3.510   4.767
 3385SOL    HW111054   6.960   3.477   4.767
 3385SOL    HW211055   6.848   3.562   4.683
 3386SOL     OW11056   5.344   4.492   0.025
 3386SOL    HW111057   5.349   4.454   0.118
 3386SOL    HW211058   5.294   4.429   6.991
 3387SOL     OW11059   2.413   0.667   2.643
 3387SOL    HW111060   2.463   0.583   2.623
 3387SOL    HW211061   2.428   0.733   2.570
 3388SOL     OW11062   5.403   3.001   2.076
 3388SOL    HW111063   5.426   3.051   1.992
 3388SOL    HW211064   5.355   3.062   2.139
 3389SOL     OW11065   5.888   5.386   6.567
 3389SOL    HW111066   5.941   5.354   6.488
 3389SOL    HW211067   5.941   5.372   6.651
 3390SOL     OW11068   5.886   6.694   6.505
 3390SOL    HW111069   5.837   6.666   6.422
 3390SOL    HW211070   5.834   6.666   6.585
 3391SOL     OW11071   4.567   2.387   4.852
 3391SOL    HW111072   4.635   2.431   4.793
 3391SOL    HW211073   4.484   2.369   4.799
 3392SOL     OW11074   2.447   0.474   3.883
 3392SOL    HW111075   2.437   0.527   3.798
 3392SOL    HW211076   2.542   0.478   3.913
 3393SOL     OW11077   0.258   6.225   0.596
 3393SOL    HW111078   0.218   6.278   0.521
 3393SOL    HW211079   0.356   6.243   0.602
 3394SOL     OW11080   5.817   3.061   1.539
 3394SOL    HW111081   5.838   2.969   1.504
 3394SOL    HW211082   5.741   3.054   1.604
 3395SOL     OW11083   5.170   3.074   3.214
 3395SOL    HW111084   5.251   3.092   3.270
 3395SOL    HW211085   5.092   3.122   3.253
 3396SOL     OW11086   5.281   1.829   3.091
 3396SOL    HW111087   5.379   1.825   3.074
 3396SOL    HW211088   5.231   1.810   3.006
 3397SOL     OW11089   2.926   6.239   5.760
 3397SOL    HW111090   3.010   6.240   5.815
 3397SOL    HW211091   2.909   6.147   5.727
 3398SOL     OW11092   0.990   6.646   4.864
 3398SOL    HW111093   1.078   6.656   4.909
 3398SOL    HW211094   0.921   6.700   4.913
 3399SOL     OW11095   5.386   4.085   3.532
 3399SOL    HW111096   5.336   4.156   3.482
 3399SOL    HW211097   5.355   3.995   3.501
 3400SOL     OW11098   4.343   3.351   6.125
 3400SOL    HW111099   4.391   3.323   6.042
 3400SOL    HW211100   4.244   3.349   6.107
 3401SOL     OW11101   0.474   2.970   0.742
 3401SOL    HW111102   0.451   2.897   0.678
 3401SOL    HW211103   0.567   2.955   0.777
 3402SOL     OW11104   4.464   5.639   0.071
 3402SOL    HW111105   4.429   5.617   0.162
 3402SOL    HW211106   4.437   5.733   0.047
 3403SOL     OW11107   3.076   5.449   5.698
 3403SOL    HW111108   3.031   5.361   5.715
 3403SOL    HW211109   3.088   5.498   5.784
 3404SOL     OW11110   4.964   1.260   0.216
 3404SOL    HW111111   4.988   1.338   0.274
 3404SOL    HW211112   5.005   1.272   0.125
 3405SOL     OW11113   6.490   4.286   6.197
 3405SOL    HW111114   6.564   4.351   6.178
 3405SOL    HW211115   6.519   4.194   6.169
 3406SOL     OW11116   0.922   3.575   1.483
 3406SOL    HW111117   0.948   3.504   1.549
 3406SOL    HW211118   0.925   3.664   1.528
 3407SOL     OW11119   1.322   4.547   6.596
 3407SOL    HW111120   1.420   4.535   6.607
 3407SOL    HW211121   1.285   4.472   6.541
 3408SOL     OW11122   4.888   3.571   4.540
 3408SOL    HW111123   4.979   3.559   4.501
 3408SOL    HW211124   4.894   3.577   4.639
 3409SOL     OW11125   3.458   6.385   6.538
 3409SOL    HW111126   3.381   6.420   6.484
 3409SOL    HW211127   3.532   6.357   6.477
 3410SOL     OW11128   6.467   0.007   1.165
 3410SOL    HW111129   6.500   6.994   1.252
 3410SOL    HW211130   6.496   0.102   1.157
 3411SOL     OW11131   0.443   3.198   1.261
 3411SOL    HW111132   0.376   3.169   1.193
 3411SOL    HW211133   0.435   3.297   1.276
 3412SOL     OW11134   4.612   2.629   0.615
 3412SOL    HW111135   4.541   2.559   0.607
 3412SOL    HW211136   4.622   2.656   0.711
 3413SOL     OW11137   6.075   1.577   0.711
 3413SOL    HW111138   6.015   1.520   0.767
 3413SOL    HW211139   6.062   1.555   0.615
 3414SOL     OW11140   3.748   1.713   6.417
 3414SOL    HW111141   3.696   1.684   6.497
 3414SOL    HW211142   3.835   1.663   6.413
 3415SOL     OW11143   1.873   3.609   4.134
 3415SOL    HW111144   1.834   3.530   4.180
 3415SOL    HW211145   1.882   3.685   4.198
 3416SOL     OW11146   6.215   6.083   0.794
 3416SOL    HW111147   6.140   6.130   0.747
 3416SOL    HW211148   6.301   6.133   0.777
 3417SOL     OW11149   0.176   6.767   3.091
 3417SOL    HW111150   0.138   6.858   3.074
 3417SOL    HW211151   0.276   6.771   3.086
 3418SOL     OW11152   3.312   5.962   3.580
 3418SOL    HW111153   3.376   5.926   3.511
 3418SOL    HW211154   3.229   5.995   3.534
 3419SOL     OW11155   2.902   5.972   5.754
 3419SOL    HW111156   2.948   5.954   5.841
 3419SOL    HW211157   2.919   5.895   5.692
 3420SOL     OW11158   6.098   3.414   3.640
 3420SOL    HW111159   6.140   3.493   3.594
 3420SOL    HW211160   6.056   3.443   3.725
 3421SOL     OW11161   4.701   1.965   4.776
 3421SOL    HW111162   4.767   1.915   4.832
 3421SOL    HW211163   4.620   1.987   4.830
 3422SOL     OW11164   2.099   0.285   0.356
 3422SOL    HW111165   2.032   0.228   0.309
 3422SOL    HW211166   2.191   0.260   0.327
 3423SOL     OW11167   0.244   4.559   6.424
 3423SOL    HW111168   0.187   4.552   6.506
 3423SOL    HW211169   0.324   4.500   6.434
 3424SOL     OW11170   2.377   6.351   0.840
 3424SOL    HW111171   2.308   6.417   0.809
 3424SOL    HW211172   2.418   6.307   0.760
 3425SOL     OW11173   4.844   5.180   2.561
 3425SOL    HW111174   4.802   5.140   2.643
 3425SOL    HW211175   4.901   5.112   2.516
 3426SOL     OW11176   4.422   2.881   0.323
 3426SOL    HW111177   4.521   2.893   0.328
 3426SOL    HW211178   4.401   2.814   0.251
 3427SOL     OW11179   0.232   1.230   0.837
 3427SOL    HW111180   0.190   1.231   0.928
 3427SOL    HW211181   0.163   1.251   0.768
 3428SOL     OW11182   2.345   5.941   0.179
 3428SOL    HW111183   2.262   5.990   0.207
 3428SOL    HW211184   2.423   6.003   0.181
 3429SOL     OW11185   0.650   1.502   0.578
 3429SOL    HW111186   0.617   1.434   0.644
 3429SOL    HW211187   0.576   1.566   0.557
 3430SOL     OW11188   1.545   6.395   5.461
 3430SOL    HW111189   1.640   6.423   5.442
 3430SOL    HW211190   1.541   6.354   5.552
 3431SOL     OW11191   1.683   0.056   1.425
 3431SOL    HW111192   1.698   6.991   1.465
 3431SOL    HW211193   1.639   0.046   1.336
 3432SOL     OW11194   1.636   3.333   5.987
 3432SOL    HW111195   1.731   3.360   5.976
 3432SOL    HW211196   1.625   3.238   5.958
 3433SOL     OW11197   1.257   6.816   5.275
 3433SOL    HW111198   1.257   6.726   5.319
 3433SOL    HW211199   1.338   6.867   5.304
 3434SOL     OW11200   4.395   1.022   2.157
 3434SOL    HW111201   4.382   1.113   2.196
 3434SOL    HW211202   4.369   1.023   2.060
 3435SOL     OW11203   1.952   1.187   0.831
 3435SOL    HW111204   1.876   1.252   0.839
 3435SOL    HW211205   2.031   1.223   0.881
 3436SOL     OW11206   4.075   6.632   6.887
 3436SOL    HW111207   4.079   6.575   6.969
 3436SOL    HW211208   4.146   6.703   6.892
 3437SOL     OW11209   2.243   0.300   5.429
 3437SOL    HW111210   2.341   0.293   5.411
 3437SOL    HW211211   2.196   0.332   5.347
 3438SOL     OW11212   1.352   3.231   0.218
 3438SOL    HW111213   1.359   3.302   0.148
 3438SOL    HW211214   1.439   3.184   0.227
 3439SOL     OW11215   2.156   6.145   4.614
 3439SOL    HW111216   2.149   6.152   4.514
 3439SOL    HW211217   2.201   6.059   4.638
 3440SOL     OW11218   3.082   3.370   1.083
 3440SOL    HW111219   3.065   3.326   0.995
 3440SOL    HW211220   3.077   3.302   1.156
 3441SOL     OW11221   6.366   5.103   5.585
 3441SOL    HW111222   6.292   5.124   5.521
 3441SOL    HW211223   6.454   5.110   5.538
 3442SOL     OW11224   2.017   4.568   2.020
 3442SOL    HW111225   2.070   4.507   2.079
 3442SOL    HW211226   2.040   4.663   2.042
 3443SOL     OW11227   3.753   6.275   1.700
 3443SOL    HW111228   3.812   6.199   1.728
 3443SOL    HW211229   3.676   6.283   1.763
 3444SOL     OW11230   5.588   5.639   6.319
 3444SOL    HW111231   5.612   5.612   6.413
 3444SOL    HW211232   5.523   5.715   6.322
 3445SOL     OW11233   5.804   5.560   2.910
 3445SOL    HW111234   5.866   5.488   2.880
 3445SOL    HW211235   5.791   5.626   2.836
 3446SOL     OW11236   6.481   1.391   1.817
 3446SOL    HW111237   6.413   1.343   1.761
 3446SOL    HW211238   6.484   1.487   1.791
 3447SOL     OW11239   5.158   5.143   0.686
 3447SOL    HW111240   5.082   5.189   0.732
 3447SOL    HW211241   5.149   5.153   0.587
 3448SOL     OW11242   4.048   0.843   6.705
 3448SOL    HW111243   4.008   0.870   6.618
 3448SOL    HW211244   4.119   0.909   6.731
 3449SOL     OW11245   5.671   5.873   4.408
 3449SOL    HW111246   5.726   5.897   4.328
 3449SOL    HW211247   5.611   5.796   4.386
 3450SOL     OW11248   0.177   2.761   6.898
 3450SOL    HW111249   0.091   2.803   6.929
 3450SOL    HW211250   0.254   2.817   6.928
 3451SOL     OW11251   2.522   6.275   0.596
 3451SOL    HW111252   2.446   6.265   0.531
 3451SOL    HW211253   2.607   6.284   0.545
 3452SOL     OW11254   6.025   0.916   6.351
 3452SOL    HW111255   5.989   0.988   6.409
 3452SOL    HW211256   6.050   0.837   6.407
 3453SOL     OW11257   6.763   5.908   6.661
 3453SOL    HW111258   6.670   5.942   6.672
 3453SOL    HW211259   6.826   5.964   6.714
 3454SOL     OW11260   0.811   3.079   4.793
 3454SOL    HW111261   0.715   3.066   4.818
 3454SOL    HW211262   0.821   3.166   4.745
 3455SOL     OW11263   2.706   2.101   4.146
 3455SOL    HW111264   2.777   2.146   4.200
 3455SOL    HW211265   2.692   2.151   4.061
 3456SOL     OW11266   5.160   5.129   2.022
 3456SOL    HW111267   5.194   5.220   1.996
 3456SOL    HW211268   5.164   5.120   2.122
 3457SOL     OW11269   2.877   5.324   3.400
 3457SOL    HW111270   2.816   5.400   3.374
 3457SOL    HW211271   2.929   5.350   3.481
 3458SOL     OW11272   4.935   0.847   2.318
 3458SOL    HW111273   4.845   0.808   2.300
 3458SOL    HW211274   4.925   0.941   2.349
 3459SOL     OW11275   5.770   3.339   2.754
 3459SOL    HW111276   5.752   3.240   2.756
 3459SOL    HW211277   5.716   3.383   2.825
 3460SOL     OW11278   2.459   2.610   6.901
 3460SOL    HW111279   2.534   2.576   6.844
 3460SOL    HW211280   2.409   2.681   6.851
 3461SOL     OW11281   5.353   4.312   5.471
 3461SOL    HW111282   5.421   4.268   5.413
 3461SOL    HW211283   5.390   4.399   5.504
 3462SOL     OW11284   0.174   4.267   4.008
 3462SOL    HW111285   0.202   4.308   4.095
 3462SOL    HW211286   0.252   4.224   3.965
 3463SOL     OW11287   1.078   4.203   1.870
 3463SOL    HW111288   1.158   4.156   1.909
 3463SOL    HW211289   1.076   4.188   1.771
 3464SOL     OW11290   6.895   4.260   5.285
 3464SOL    HW111291   6.905   4.334   5.350
 3464SOL    HW211292   6.920   4.292   5.193
 3465SOL     OW11293   1.261   1.932   1.845
 3465SOL    HW111294   1.311   1.888   1.771
 3465SOL    HW211295   1.165   1.905   1.842
 3466SOL     OW11296   6.712   4.618   6.743
 3466SOL    HW111297   6.694   4.541   6.682
 3466SOL    HW211298   6.805   4.652   6.728
 3467SOL     OW11299   2.159   2.574   0.209
 3467SOL    HW111300   2.201   2.596   0.297
 3467SOL    HW211301   2.084   2.637   0.192
 3468SOL     OW11302   4.299   6.362   2.894
 3468SOL    HW111303   4.211   6.323   2.921
 3468SOL    HW211304   4.371   6.292   2.903
 3469SOL     OW11305   5.398   0.061   3.279
 3469SOL    HW111306   5.400   0.039   3.377
 3469SOL    HW211307   5.469   0.130   3.259
 3470SOL     OW11308   6.519   4.091   1.236
 3470SOL    HW111309   6.596   4.146   1.268
 3470SOL    HW211310   6.535   4.062   1.141
 3471SOL     OW11311   3.869   5.124   4.085
 3471SOL    HW111312   3.923   5.149   4.005
 3471SOL    HW211313   3.920   5.144   4.169
 3472SOL     OW11314   2.467   0.979   2.176
 3472SOL    HW111315   2.370   0.956   2.181
 3472SOL    HW211316   2.504   0.949   2.089
 3473SOL     OW11317   0.558   2.277   0.979
 3473SOL    HW111318   0.513   2.355   1.024
 3473SOL    HW211319   0.652   2.270   1.013
 3474SOL     OW11320   1.584   5.261   2.779
 3474SOL    HW111321   1.585   5.169   2.740
 3474SOL    HW211322   1.566   5.328   2.706
 3475SOL     OW11323   0.810   5.305   4.443
 3475SOL    HW111324   0.809   5.372   4.369
 3475SOL    HW211325   0.729   5.318   4.500
 3476SOL     OW11326   3.219   1.826   3.041
 3476SOL    HW111327   3.252   1.908   2.994
 3476SOL    HW211328   3.132   1.847   3.085
 3477SOL     OW11329   2.981   4.932   1.133
 3477SOL    HW111330   3.030   4.980   1.060
 3477SOL    HW211331   2.898   4.890   1.095
 3478SOL     OW11332   2.466   5.862   4.625
 3478SOL    HW111333   2.450   5.819   4.536
 3478SOL    HW211334   2.386   5.850   4.683
 3479SOL     OW11335   1.535   0.995   3.028
 3479SOL    HW111336   1.496   0.904   3.046
 3479SOL    HW211337   1.470   1.049   2.974
 3480SOL     OW11338   0.387   6.399   5.191
 3480SOL    HW111339   0.420   6.472   5.130
 3480SOL    HW211340   0.287   6.394   5.185
 3481SOL     OW11341   4.792   6.939   0.409
 3481SOL    HW111342   4.850   7.019   0.391
 3481SOL    HW211343   4.834   6.883   0.481
 3482SOL     OW11344   5.940   1.703   1.017
 3482SOL    HW111345   6.012   1.658   1.070
 3482SOL    HW211346   5.954   1.802   1.019
 3483SOL     OW11347   4.888   1.538   1.570
 3483SOL    HW111348   4.980   1.577   1.559
 3483SOL    HW211349   4.828   1.607   1.611
 3484SOL     OW11350   2.221   3.878   1.016
 3484SOL    HW111351   2.157   3.812   0.975
 3484SOL    HW211352   2.170   3.946   1.068
 3485SOL     OW11353   1.471   1.048   4.061
 3485SOL    HW111354   1.524   1.125   4.026
 3485SOL    HW211355   1.431   0.997   3.985
 3486SOL     OW11356   3.198   1.463   2.839
 3486SOL    HW111357   3.129   1.533   2.822
 3486SOL    HW211358   3.264   1.463   2.763
 3487SOL     OW11359   5.617   2.582   5.935
 3487SOL    HW111360   5.702   2.606   5.984
 3487SOL    HW211361   5.619   2.485   5.913
 3488SOL     OW11362   6.239   1.930   4.974
 3488SOL    HW111363   6.199   1.999   5.035
 3488SOL    HW211364   6.203   1.840   4.998
 3489SOL     OW11365   3.057   0.001   0.394
 3489SOL    HW111366   3.039   6.927   0.393
 3489SOL    HW211367   3.113   0.023   0.473
 3490SOL     OW11368   4.230   4.813   0.114
 3490SOL    HW111369   4.299   4.791   0.182
 3490SOL    HW211370   4.159   4.870   0.156
 3491SOL     OW11371   5.470   2.954   5.281
 3491SOL    HW111372   5.480   3.041   5.233
 3491SOL    HW211373   5.421   2.890   5.222
 3492SOL     OW11374   0.753   5.660   1.060
 3492SOL    HW111375   0.719   5.595   0.992
 3492SOL    HW211376   0.838   5.626   1.099
 3493SOL     OW11377   5.594   4.362   6.230
 3493SOL    HW111378   5.590   4.371   6.130
 3493SOL    HW211379   5.502   4.345   6.266
 3494SOL     OW11380   4.075   0.795   2.140
 3494SOL    HW111381   4.066   0.716   2.079
 3494SOL    HW211382   4.021   0.871   2.103
 3495SOL     OW11383   4.667   5.428   1.859
 3495SOL    HW111384   4.575   5.436   1.819
 3495SOL    HW211385   4.670   5.348   1.919
 3496SOL     OW11386   6.585   4.019   0.350
 3496SOL    HW111387   6.616   3.925   0.341
 3496SOL    HW211388   6.594   4.065   0.261
 3497SOL     OW11389   3.186   0.853   3.261
 3497SOL    HW111390   3.237   0.936   3.284
 3497SOL    HW211391   3.186   0.839   3.162
 3498SOL     OW11392   2.355   2.309   0.814
 3498SOL    HW111393   2.411   2.318   0.731
 3498SOL    HW211394   2.283   2.241   0.798
 3499SOL     OW11395   4.907   2.979   4.194
 3499SOL    HW111396   4.882   2.950   4.102
 3499SOL    HW211397   4.918   2.898   4.252
 3500SOL     OW11398   1.415   3.697   5.123
 3500SOL    HW111399   1.464   3.749   5.054
 3500SOL    HW211400   1.351   3.634   5.079
 3501SOL     OW11401   2.113   5.361   4.087
 3501SOL    HW111402   2.128   5.458   4.108
 3501SOL    HW211403   2.098   5.311   4.172
 3502SOL     OW11404   6.238   2.695   2.374
 3502SOL    HW111405   6.162   2.716   2.313
 3502SOL    HW211406   6.245   2.766   2.444
 3503SOL     OW11407   6.526   6.006   4.660
 3503SOL    HW111408   6.523   5.912   4.627
 3503SOL    HW211409   6.462   6.017   4.736
 3504SOL     OW11410   2.396   1.830   1.039
 3504SOL    HW111411   2.473   1.801   1.096
 3504SOL    HW211412   2.317   1.850   1.097
 3505SOL     OW11413   5.387   4.960   4.768
 3505SOL    HW111414   5.413   4.993   4.677
 3505SOL    HW211415   5.304   4.904   4.761
 3506SOL     OW11416   5.038   5.666   6.213
 3506SOL    HW111417   5.073   5.751   6.252
 3506SOL    HW211418   5.097   5.636   6.137
 3507SOL     OW11419   2.373   0.582   0.386
 3507SOL    HW111420   2.353   0.534   0.300
 3507SOL    HW211421   2.408   0.673   0.365
 3508SOL     OW11422   3.140   2.269   6.092
 3508SOL    HW111423   3.197   2.288   6.171
 3508SOL    HW211424   3.076   2.345   6.077
 3509SOL     OW11425   5.687   0.173   5.899
 3509SOL    HW111426   5.707   0.082   5.937
 3509SOL    HW211427   5.715   0.243   5.964
 3510SOL     OW11428   1.524   2.051   1.362
 3510SOL    HW111429   1.526   2.036   1.461
 3510SOL    HW211430   1.616   2.072   1.329
 3511SOL     OW11431   1.971   4.706   0.447
 3511SOL    HW111432   1.961   4.725   0.349
 3511SOL    HW211433   1.903   4.638   0.475
 3512SOL     OW11434   0.132   4.451   0.314
 3512SOL    HW111435   0.192   4.522   0.352
 3512SOL    HW211436   0.055   4.437   0.376
 3513SOL     OW11437   6.033   3.724   0.772
 3513SOL    HW111438   5.991   3.664   0.704
 3513SOL    HW211439   6.107   3.675   0.818
 3514SOL     OW11440   0.092   1.405   1.898
 3514SOL    HW111441   0.030   1.333   1.929
 3514SOL    HW211442   0.185   1.369   1.892
 3515SOL     OW11443   4.251   6.748   3.201
 3515SOL    HW111444   4.202   6.832   3.224
 3515SOL    HW211445   4.299   6.760   3.114
 3516SOL     OW11446   4.642   6.907   0.904
 3516SOL    HW111447   4.657   6.810   0.881
 3516SOL    HW211448   4.544   6.925   0.907
 3517SOL     OW11449   0.802   2.188   0.777
 3517SOL    HW111450   0.731   2.119   0.760
 3517SOL    HW211451   0.771   2.277   0.743
 3518SOL     OW11452   5.590   3.930   5.087
 3518SOL    HW111453   5.685   3.905   5.066
 3518SOL    HW211454   5.529   3.855   5.059
 3519SOL     OW11455   1.241   0.608   6.424
 3519SOL    HW111456   1.178   0.533   6.443
 3519SOL    HW211457   1.317   0.575   6.369
 3520SOL     OW11458   2.834   4.938   6.553
 3520SOL    HW111459   2.841   4.922   6.454
 3520SOL    HW211460   2.886   5.020   6.577
 3521SOL     OW11461   5.286   3.683   0.370
 3521SOL    HW111462   5.279   3.680   0.469
 3521SOL    HW211463   5.345   3.609   0.338
 3522SOL     OW11464   5.705   5.037   1.906
 3522SOL    HW111465   5.718   4.940   1.924
 3522SOL    HW211466   5.792   5.078   1.880
 3523SOL     OW11467   2.748   5.165   5.456
 3523SOL    HW111468   2.726   5.206   5.545
 3523SOL    HW211469   2.704   5.218   5.384
 3524SOL     OW11470   3.225   1.062   1.082
 3524SOL    HW111471   3.186   0.977   1.118
 3524SOL    HW211472   3.168   1.096   1.007
 3525SOL     OW11473   0.803   4.140   1.884
 3525SOL    HW111474   0.899   4.160   1.862
 3525SOL    HW211475   0.763   4.219   1.930
 3526SOL     OW11476   2.689   6.610   3.492
 3526SOL    HW111477   2.712   6.545   3.565
 3526SOL    HW211478   2.671   6.700   3.532
 3527SOL     OW11479   6.186   3.923   5.895
 3527SOL    HW111480   6.126   3.891   5.822
 3527SOL    HW211481   6.279   3.932   5.859
 3528SOL     OW11482   1.018   5.405   3.844
 3528SOL    HW111483   1.023   5.333   3.775
 3528SOL    HW211484   0.998   5.365   3.933
 3529SOL     OW11485   5.296   6.560   6.275
 3529SOL    HW111486   5.225   6.612   6.322
 3529SOL    HW211487   5.360   6.622   6.230
 3530SOL     OW11488   1.466   4.983   3.417
 3530SOL    HW111489   1.419   5.015   3.335
 3530SOL    HW211490   1.511   4.896   3.397
 3531SOL     OW11491   4.661   3.962   1.332
 3531SOL    HW111492   4.691   3.896   1.263
 3531SOL    HW211493   4.662   3.918   1.422
 3532SOL     OW11494   2.471   0.461   0.615
 3532SOL    HW111495   2.441   0.504   0.530
 3532SOL    HW211496   2.555   0.505   0.647
 3533SOL     OW11497   1.568   1.966   2.530
 3533SOL    HW111498   1.567   1.927   2.622
 3533SOL    HW211499   1.662   1.985   2.503
 3534SOL     OW11500   5.658   0.903   5.316
 3534SOL    HW111501   5.733   0.838   5.327
 3534SOL    HW211502   5.675   0.959   5.234
 3535SOL     OW11503   0.697   6.138   0.816
 3535SOL    HW111504   0.707   6.045   0.780
 3535SOL    HW211505   0.744   6.145   0.905
 3536SOL     OW11506   2.125   2.357   4.081
 3536SOL    HW111507   2.142   2.341   3.983
 3536SOL    HW211508   2.161   2.281   4.134
 3537SOL     OW11509   2.562   5.311   0.403
 3537SOL    HW111510   2.636   5.351   0.349
 3537SOL    HW211511   2.569   5.341   0.498
 3538SOL     OW11512   1.847   0.164   4.930
 3538SOL    HW111513   1.904   0.225   4.875
 3538SOL    HW211514   1.754   0.162   4.892
 3539SOL     OW11515   5.811   3.371   6.350
 3539SOL    HW111516   5.720   3.367   6.390
 3539SOL    HW211517   5.879   3.344   6.419
 3540SOL     OW11518   1.944   2.052   5.292
 3540SOL    HW111519   1.911   1.958   5.298
 3540SOL    HW211520   1.866   2.115   5.293
 3541SOL     OW11521   2.715   2.459   6.189
 3541SOL    HW111522   2.620   2.474   6.162
 3541SOL    HW211523   2.718   2.399   6.269
 3542SOL     OW11524   0.651   3.617   1.404
 3542SOL    HW111525   0.605   3.529   1.411
 3542SOL    HW211526   0.750   3.604   1.405
 3543SOL     OW11527   0.591   3.073   5.532
 3543SOL    HW111528   0.525   3.146   5.513
 3543SOL    HW211529   0.612   3.072   5.630
 3544SOL     OW11530   2.317   4.784   6.166
 3544SOL    HW111531   2.409   4.745   6.174
 3544SOL    HW211532   2.324   4.875   6.126
 3545SOL     OW11533   3.497   4.946   0.179
 3545SOL    HW111534   3.406   4.976   0.207
 3545SOL    HW211535   3.566   5.000   0.226
 3546SOL     OW11536   6.745   4.581   3.245
 3546SOL    HW111537   6.711   4.623   3.161
 3546SOL    HW211538   6.827   4.630   3.275
 3547SOL     OW11539   5.955   4.032   3.965
 3547SOL    HW111540   5.936   4.123   4.003
 3547SOL    HW211541   5.977   4.041   3.868
 3548SOL     OW11542   5.247   0.335   6.018
 3548SOL    HW111543   5.317   0.369   5.956
 3548SOL    HW211544   5.274   0.245   6.053
 3549SOL     OW11545   0.436   4.375   6.480
 3549SOL    HW111546   0.514   4.368   6.541
 3549SOL    HW211547   0.392   4.286   6.471
 3550SOL     OW11548   5.682   2.586   4.847
 3550SOL    HW111549   5.649   2.509   4.792
 3550SOL    HW211550   5.781   2.578   4.859
 3551SOL     OW11551   3.886   1.883   4.044
 3551SOL    HW111552   3.829   1.809   4.006
 3551SOL    HW211553   3.910   1.947   3.970
 3552SOL     OW11554   6.146   6.861   1.915
 3552SOL    HW111555   6.068   6.798   1.927
 3552SOL    HW211556   6.124   6.948   1.957
 3553SOL     OW11557   3.675   5.733   0.497
 3553SOL    HW111558   3.652   5.830   0.486
 3553SOL    HW211559   3.688   5.692   0.407
 3554SOL     OW11560   4.771   2.219   0.798
 3554SOL    HW111561   4.743   2.165   0.878
 3554SOL    HW211562   4.821   2.160   0.735
 3555SOL     OW11563   0.813   3.566   4.807
 3555SOL    HW111564   0.879   3.568   4.882
 3555SOL    HW211565   0.720   3.561   4.843
 3556SOL     OW11566   3.847   0.341   4.354
 3556SOL    HW111567   3.842   0.427   4.304
 3556SOL    HW211568   3.903   0.275   4.304
 3557SOL     OW11569   1.261   0.344   3.845
 3557SOL    HW111570   1.258   0.413   3.917
 3557SOL    HW211571   1.170   0.337   3.803
 3558SOL     OW11572   1.158   5.601   2.708
 3558SOL    HW111573   1.168   5.531   2.638
 3558SOL    HW211574   1.188   5.565   2.797
 3559SOL     OW11575   0.794   6.106   5.067
 3559SOL    HW111576   0.708   6.064   5.096
 3559SOL    HW211577   0.869   6.041   5.079
 3560SOL     OW11578   2.553   4.930   2.882
 3560SOL    HW111579   2.454   4.933   2.894
 3560SOL    HW211580   2.579   4.840   2.846
 3561SOL     OW11581   4.977   4.209   5.188
 3561SOL    HW111582   5.042   4.151   5.237
 3561SOL    HW211583   4.901   4.154   5.154
 3562SOL     OW11584   3.760   1.088   2.734
 3562SOL    HW111585   3.693   1.112   2.663
 3562SOL    HW211586   3.771   1.164   2.797
 3563SOL     OW11587   6.431   1.978   0.059
 3563SOL    HW111588   6.461   2.052   7.023
 3563SOL    HW211589   6.509   1.943   0.111
 3564SOL     OW11590   0.774   4.605   2.453
 3564SOL    HW111591   0.836   4.527   2.457
 3564SOL    HW211592   0.693   4.586   2.509
 3565SOL     OW11593   2.735   6.294   4.206
 3565SOL    HW111594   2.701   6.385   4.227
 3565SOL    HW211595   2.662   6.239   4.165
 3566SOL     OW11596   6.494   3.114   6.780
 3566SOL    HW111597   6.443   3.195   6.749
 3566SOL    HW211598   6.433   3.051   6.827
 3567SOL     OW11599   0.818   2.089   6.640
 3567SOL    HW111600   0.888   2.070   6.571
 3567SOL    HW211601   0.731   2.049   6.611
 3568SOL     OW11602   5.136   4.430   4.438
 3568SOL    HW111603   5.146   4.330   4.438
 3568SOL    HW211604   5.047   4.454   4.400
 3569SOL     OW11605   2.483   2.090   6.221
 3569SOL    HW111606   2.453   2.134   6.136
 3569SOL    HW211607   2.515   1.998   6.201
 3570SOL     OW11608   4.925   0.521   6.121
 3570SOL    HW111609   4.945   0.444   6.061
 3570SOL    HW211610   5.009   0.549   6.168
 3571SOL     OW11611   1.038   5.391   5.834
 3571SOL    HW111612   1.114   5.361   5.775
 3571SOL    HW211613   1.015   5.486   5.812
 3572SOL     OW11614   6.084   4.123   2.993
 3572SOL    HW111615   6.025   4.060   3.043
 3572SOL    HW211616   6.141   4.071   2.928
 3573SOL     OW11617   0.401   5.121   3.769
 3573SOL    HW111618   0.328   5.115   3.701
 3573SOL    HW211619   0.381   5.058   3.844
 3574SOL     OW11620   7.016   3.771   1.071
 3574SOL    HW111621   0.035   3.681   1.081
 3574SOL    HW211622   0.040   3.824   1.002
 3575SOL     OW11623   5.071   5.032   2.888
 3575SOL    HW111624   5.007   5.105   2.864
 3575SOL    HW211625   5.034   4.944   2.855
 3576SOL     OW11626   0.246   1.725   5.598
 3576SOL    HW111627   0.226   1.691   5.690
 3576SOL    HW211628   0.168   1.778   5.565
 3577SOL     OW11629   1.655   2.543   6.115
 3577SOL    HW111630   1.712   2.614   6.155
 3577SOL    HW211631   1.560   2.573   6.114
 3578SOL     OW11632   2.666   2.536   1.062
 3578SOL    HW111633   2.593   2.603   1.051
 3578SOL    HW211634   2.737   2.572   1.123
 3579SOL     OW11635   5.962   2.941   4.340
 3579SOL    HW111636   5.990   2.853   4.377
 3579SOL    HW211637   6.022   2.966   4.264
 3580SOL     OW11638   6.063   3.201   1.742
 3580SOL    HW111639   5.974   3.160   1.720
 3580SOL    HW211640   6.098   3.161   1.827
 3581SOL     OW11641   0.607   6.119   3.528
 3581SOL    HW111642   0.629   6.212   3.560
 3581SOL    HW211643   0.567   6.124   3.437
 3582SOL     OW11644   0.759   2.489   5.391
 3582SOL    HW111645   0.768   2.389   5.396
 3582SOL    HW211646   0.670   2.516   5.425
 3583SOL     OW11647   1.245   3.697   6.258
 3583SOL    HW111648   1.298   3.647   6.327
 3583SOL    HW211649   1.298   3.706   6.174
 3584SOL     OW11650   6.012   5.274   6.347
 3584SOL    HW111651   5.930   5.328   6.329
 3584SOL    HW211652   6.073   5.278   6.268
 3585SOL     OW11653   4.195   0.039   4.857
 3585SOL    HW111654   4.144   6.991   4.811
 3585SOL    HW211655   4.224   0.008   4.947
 3586SOL     OW11656   0.224   1.629   4.873
 3586SOL    HW111657   0.173   1.685   4.808
 3586SOL    HW211658   0.174   1.624   4.960
 3587SOL     OW11659   3.128   5.740   6.669
 3587SOL    HW111660   3.163   5.748   6.763
 3587SOL    HW211661   3.088   5.649   6.656
 3588SOL     OW11662   1.763   2.478   5.871
 3588SOL    HW111663   1.759   2.483   5.971
 3588SOL    HW211664   1.699   2.544   5.832
 3589SOL     OW11665   3.595   1.532   5.118
 3589SOL    HW111666   3.676   1.498   5.071
 3589SOL    HW211667   3.557   1.610   5.066
 3590SOL     OW11668   0.945   2.769   6.827
 3590SOL    HW111669   0.969   2.781   6.924
 3590SOL    HW211670   0.911   2.677   6.813
 3591SOL     OW11671   5.413   3.623   6.251
 3591SOL    HW111672   5.448   3.615   6.345
 3591SOL    HW211673   5.313   3.630   6.254
 3592SOL     OW11674   6.907   4.748   1.604
 3592SOL    HW111675   6.986   4.691   1.582
 3592SOL    HW211676   6.923   4.795   1.690
 3593SOL     OW11677   0.812   5.632   5.138
 3593SOL    HW111678   0.911   5.642   5.134
 3593SOL    HW211679   0.780   5.578   5.060
 3594SOL     OW11680   4.510   0.551   3.213
 3594SOL    HW111681   4.553   0.479   3.267
 3594SOL    HW211682   4.410   0.539   3.215
 3595SOL     OW11683   2.921   6.160   0.154
 3595SOL    HW111684   2.876   6.093   0.212
 3595SOL    HW211685   2.930   6.123   0.061
 3596SOL     OW11686   6.300   2.892   3.244
 3596SOL    HW111687   6.367   2.963   3.225
 3596SOL    HW211688   6.275   2.896   3.341
 3597SOL     OW11689   1.812   1.677   4.372
 3597SOL    HW111690   1.763   1.677   4.284
 3597SOL    HW211691   1.881   1.749   4.371
 3598SOL     OW11692   0.934   5.587   5.656
 3598SOL    HW111693   0.848   5.634   5.675
 3598SOL    HW211694   0.928   5.539   5.568
 3599SOL     OW11695   7.007   1.755   5.919
 3599SOL    HW111696   6.977   1.674   5.969
 3599SOL    HW211697   0.066   1.791   5.960
 3600SOL     OW11698   0.907   3.619   0.695
 3600SOL    HW111699   0.810   3.629   0.672
 3600SOL    HW211700   0.963   3.649   0.617
 3601SOL     OW11701   5.185   4.569   6.300
 3601SOL    HW111702   5.239   4.643   6.260
 3601SOL    HW211703   5.088   4.584   6.283
 3602SOL     OW11704   1.562   2.073   1.044
 3602SOL    HW111705   1.509   2.118   0.972
 3602SOL    HW211706   1.556   2.126   1.128
 3603SOL     OW11707   3.416   0.513   3.391
 3603SOL    HW111708   3.322   0.542   3.409
 3603SOL    HW211709   3.426   0.490   3.294
 3604SOL     OW11710   6.936   4.834   3.066
 3604SOL    HW111711   6.963   4.926   3.095
 3604SOL    HW211712   6.946   4.771   3.142
 3605SOL     OW11713   6.361   3.752   5.263
 3605SOL    HW111714   6.440   3.812   5.276
 3605SOL    HW211715   6.392   3.657   5.252
 3606SOL     OW11716   7.011   0.051   5.209
 3606SOL    HW111717   0.015   0.073   5.116
 3606SOL    HW211718   6.913   0.067   5.219
 3607SOL     OW11719   5.540   5.503   2.095
 3607SOL    HW111720   5.462   5.563   2.078
 3607SOL    HW211721   5.539   5.427   2.030
 3608SOL     OW11722   5.666   2.078   3.730
 3608SOL    HW111723   5.693   2.047   3.821
 3608SOL    HW211724   5.702   2.170   3.715
 3609SOL     OW11725   0.957   6.888   3.821
 3609SOL    HW111726   1.037   6.915   3.875
 3609SOL    HW211727   0.883   6.861   3.882
 3610SOL     OW11728   1.496   6.943   5.341
 3610SOL    HW111729   1.579   6.903   5.302
 3610SOL    HW211730   1.475   6.898   5.428
 3611SOL     OW11731   4.595   5.773   5.815
 3611SOL    HW111732   4.501   5.780   5.782
 3611SOL    HW211733   4.596   5.720   5.900
 3612SOL     OW11734   6.508   0.034   0.096
 3612SOL    HW111735   6.500   6.977   0.039
 3612SOL    HW211736   6.580   0.093   0.061
 3613SOL     OW11737   4.633   5.048   1.623
 3613SOL    HW111738   4.549   5.058   1.676
 3613SOL    HW211739   4.693   4.982   1.669
 3614SOL     OW11740   3.948   3.296   1.383
 3614SOL    HW111741   3.852   3.284   1.360
 3614SOL    HW211742   3.959   3.379   1.438
 3615SOL     OW11743   4.817   5.577   7.004
 3615SOL    HW111744   4.915   5.594   7.009
 3615SOL    HW211745   4.771   5.619   0.058
 3616SOL     OW11746   0.807   2.500   6.804
 3616SOL    HW111747   0.764   2.527   6.718
 3616SOL    HW211748   0.755   2.424   6.844
 3617SOL     OW11749   3.961   1.702   6.859
 3617SOL    HW111750   3.964   1.626   6.794
 3617SOL    HW211751   3.880   1.759   6.841
 3618SOL     OW11752   2.121   2.493   5.287
 3618SOL    HW111753   2.097   2.486   5.190
 3618SOL    HW211754   2.041   2.472   5.343
 3619SOL     OW11755   5.459   2.813   4.797
 3619SOL    HW111756   5.540   2.832   4.742
 3619SOL    HW211757   5.470   2.725   4.843
 3620SOL     OW11758   6.218   6.358   6.318
 3620SOL    HW111759   6.193   6.277   6.266
 3620SOL    HW211760   6.300   6.399   6.278
 3621SOL     OW11761   3.266   2.764   5.227
 3621SOL    HW111762   3.225   2.810   5.306
 3621SOL    HW211763   3.309   2.678   5.258
 3622SOL     OW11764   2.020   1.772   5.581
 3622SOL    HW111765   2.116   1.750   5.597
 3622SOL    HW211766   2.007   1.871   5.586
 3623SOL     OW11767   6.372   5.940   4.020
 3623SOL    HW111768   6.465   5.977   4.017
 3623SOL    HW211769   6.319   5.978   3.944
 3624SOL     OW11770   1.400   6.567   1.835
 3624SOL    HW111771   1.362   6.474   1.834
 3624SOL    HW211772   1.494   6.563   1.870
 3625SOL     OW11773   6.340   2.936   6.877
 3625SOL    HW111774   6.355   2.850   6.925
 3625SOL    HW211775   6.242   2.958   6.877
 3626SOL     OW11776   1.333   2.153   5.799
 3626SOL    HW111777   1.336   2.248   5.768
 3626SOL    HW211778   1.384   2.144   5.885
 3627SOL     OW11779   3.280   2.991   2.798
 3627SOL    HW111780   3.191   2.955   2.770
 3627SOL    HW211781   3.275   3.091   2.806
 3628SOL     OW11782   1.648   1.135   1.518
 3628SOL    HW111783   1.714   1.209   1.508
 3628SOL    HW211784   1.599   1.146   1.605
 3629SOL     OW11785   0.097   1.077   5.463
 3629SOL    HW111786   0.074   1.008   5.394
 3629SOL    HW211787   0.040   1.064   5.544
 3630SOL     OW11788   5.504   2.883   3.834
 3630SOL    HW111789   5.571   2.869   3.906
 3630SOL    HW211790   5.551   2.897   3.747
 3631SOL     OW11791   1.913   0.907   3.752
 3631SOL    HW111792   1.948   0.813   3.756
 3631SOL    HW211793   1.881   0.927   3.660
 3632SOL     OW11794   5.544   5.597   1.639
 3632SOL    HW111795   5.540   5.681   1.692
 3632SOL    HW211796   5.467   5.596   1.574
 3633SOL     OW11797   4.283   1.813   5.823
 3633SOL    HW111798   4.343   1.892   5.824
 3633SOL    HW211799   4.252   1.796   5.729
 3634SOL     OW11800   1.508   4.245   4.692
 3634SOL    HW111801   1.557   4.177   4.637
 3634SOL    HW211802   1.433   4.283   4.639
 3635SOL     OW11803   3.615   0.349   6.812
 3635SOL    HW111804   3.668   0.271   6.845
 3635SOL    HW211805   3.546   0.374   6.879
 3636SOL     OW11806   0.732   5.556   0.778
 3636SOL    HW111807   0.669   5.570   0.702
 3636SOL    HW211808   0.820   5.597   0.757
 3637SOL     OW11809   0.082   1.621   2.119
 3637SOL    HW111810   0.149   1.643   2.048
 3637SOL    HW211811   0.106   1.534   2.161
 3638SOL     OW11812   0.513   4.543   3.665
 3638SOL    HW111813   0.535   4.532   3.762
 3638SOL    HW211814   0.449   4.472   3.637
 3639SOL     OW11815   3.344   4.417   0.850
 3639SOL    HW111816   3.338   4.346   0.920
 3639SOL    HW211817   3.354   4.506   0.893
 3640SOL     OW11818   4.123   0.988   0.780
 3640SOL    HW111819   4.142   1.019   0.687
 3640SOL    HW211820   4.180   1.038   0.845
 3641SOL     OW11821   5.127   3.712   2.855
 3641SOL    HW111822   5.226   3.707   2.868
 3641SOL    HW211823   5.106   3.690   2.760
 3642SOL     OW11824   5.455   0.583   0.033
 3642SOL    HW111825   5.379   0.648   0.036
 3642SOL    HW211826   5.472   0.548   0.126
 3643SOL     OW11827   2.989   5.779   4.880
 3643SOL    HW111828   2.956   5.688   4.854
 3643SOL    HW211829   2.968   5.844   4.806
 3644SOL     OW11830   0.005   1.333   1.505
 3644SOL    HW111831   7.023   1.289   1.595
 3644SOL    HW211832   6.937   1.348   1.469
 3645SOL     OW11833   0.602   2.402   3.355
 3645SOL    HW111834   0.535   2.471   3.327
 3645SOL    HW211835   0.642   2.360   3.273
 3646SOL     OW11836   0.730   4.105   6.094
 3646SOL    HW111837   0.659   4.044   6.128
 3646SOL    HW211838   0.768   4.069   6.009
 3647SOL     OW11839   2.341   5.219   5.864
 3647SOL    HW111840   2.245   5.221   5.890
 3647SOL    HW211841   2.368   5.309   5.829
 3648SOL     OW11842   3.965   4.810   1.848
 3648SOL    HW111843   3.876   4.789   1.886
 3648SOL    HW211844   3.987   4.906   1.866
 3649SOL     OW11845   5.120   2.915   1.838
 3649SOL    HW111846   5.083   3.005   1.862
 3649SOL    HW211847   5.138   2.863   1.921
 3650SOL     OW11848   6.920   5.688   1.420
 3650SOL    HW111849   6.863   5.721   1.345
 3650SOL    HW211850   6.906   5.589   1.432
 3651SOL     OW11851   0.718   6.438   5.072
 3651SOL    HW111852   0.673   6.438   4.983
 3651SOL    HW211853   0.732   6.343   5.102
 3652SOL     OW11854   5.515   6.280   3.505
 3652SOL    HW111855   5.448   6.214   3.470
 3652SOL    HW211856   5.535   6.348   3.434
 3653SOL     OW11857   1.006   1.433   3.802
 3653SOL    HW111858   0.916   1.404   3.768
 3653SOL    HW211859   0.993   1.489   3.884
 3654SOL     OW11860   3.244   3.816   0.839
 3654SOL    HW111861   3.208   3.754   0.770
 3654SOL    HW211862   3.261   3.906   0.797
 3655SOL     OW11863   2.100   5.619   4.394
 3655SOL    HW111864   2.192   5.582   4.382
 3655SOL    HW211865   2.098   5.677   4.475
 3656SOL     OW11866   0.597   4.341   1.372
 3656SOL    HW111867   0.522   4.289   1.413
 3656SOL    HW211868   0.605   4.430   1.417
 3657SOL     OW11869   5.259   5.630   5.609
 3657SOL    HW111870   5.252   5.572   5.527
 3657SOL    HW211871   5.342   5.605   5.659
 3658SOL     OW11872   1.932   5.012   5.733
 3658SOL    HW111873   1.995   4.951   5.783
 3658SOL    HW211874   1.981   5.056   5.658
 3659SOL     OW11875   2.204   3.860   6.025
 3659SOL    HW111876   2.120   3.818   5.990
 3659SOL    HW211877   2.185   3.902   6.114
 3660SOL     OW11878   5.672   6.501   3.898
 3660SOL    HW111879   5.595   6.514   3.961
 3660SOL    HW211880   5.704   6.590   3.867
 3661SOL     OW11881   5.260   0.595   5.340
 3661SOL    HW111882   5.342   0.563   5.387
 3661SOL    HW211883   5.279   0.684   5.297
 3662SOL     OW11884   3.179   0.968   4.197
 3662SOL    HW111885   3.189   1.022   4.281
 3662SOL    HW211886   3.198   0.872   4.217
 3663SOL     OW11887   2.193   1.627   6.747
 3663SOL    HW111888   2.158   1.533   6.755
 3663SOL    HW211889   2.123   1.691   6.778
 3664SOL     OW11890   4.704   2.682   1.406
 3664SOL    HW111891   4.655   2.608   1.359
 3664SOL    HW211892   4.690   2.768   1.357
 3665SOL     OW11893   1.402   6.776   4.817
 3665SOL    HW111894   1.362   6.746   4.731
 3665SOL    HW211895   1.371   6.717   4.891
 3666SOL     OW11896   1.067   3.538   3.235
 3666SOL    HW111897   1.104   3.571   3.149
 3666SOL    HW211898   1.135   3.482   3.282
 3667SOL     OW11899   0.784   1.335   2.997
 3667SOL    HW111900   0.715   1.263   3.002
 3667SOL    HW211901   0.751   1.416   3.046
 3668SOL     OW11902   1.546   0.955   1.372
 3668SOL    HW111903   1.595   1.023   1.427
 3668SOL    HW211904   1.484   0.903   1.431
 3669SOL     OW11905   4.879   1.239   3.706
 3669SOL    HW111906   4.944   1.205   3.638
 3669SOL    HW211907   4.859   1.336   3.688
 3670SOL     OW11908   2.070   5.116   0.127
 3670SOL    HW111909   2.126   5.115   0.209
 3670SOL    HW211910   2.050   5.211   0.101
 3671SOL     OW11911   6.950   2.050   4.201
 3671SOL    HW111912   6.939   1.952   4.185
 3671SOL    HW211913   6.901   2.102   4.131
 3672SOL     OW11914   5.232   1.688   1.163
 3672SOL    HW111915   5.231   1.778   1.208
 3672SOL    HW211916   5.174   1.691   1.082
 3673SOL     OW11917   3.526   6.087   6.537
 3673SOL    HW111918   3.555   6.067   6.443
 3673SOL    HW211919   3.460   6.162   6.536
 3674SOL     OW11920   1.455   5.296   6.028
 3674SOL    HW111921   1.536   5.335   5.984
 3674SOL    HW211922   1.430   5.211   5.981
 3675SOL     OW11923   2.209   3.150   4.245
 3675SOL    HW111924   2.240   3.179   4.155
 3675SOL    HW211925   2.264   3.074   4.277
 3676SOL     OW11926   5.413   4.682   2.869
 3676SOL    HW111927   5.332   4.732   2.837
 3676SOL    HW211928   5.418   4.687   2.969
 3677SOL     OW11929   2.265   6.437   3.679
 3677SOL    HW111930   2.297   6.528   3.654
 3677SOL    HW211931   2.313   6.406   3.761
 3678SOL     OW11932   0.323   1.859   4.271
 3678SOL    HW111933   0.402   1.839   4.328
 3678SOL    HW211934   0.321   1.956   4.249
 3679SOL     OW11935   0.832   0.729   3.693
 3679SOL    HW111936   0.768   0.747   3.618
 3679SOL    HW211937   0.787   0.747   3.780
 3680SOL     OW11938   5.185   3.001   4.207
 3680SOL    HW111939   5.162   2.947   4.127
 3680SOL    HW211940   5.102   3.024   4.258
 3681SOL     OW11941   0.332   0.794   6.782
 3681SOL    HW111942   0.418   0.754   6.812
 3681SOL    HW211943   0.347   0.847   6.699
 3682SOL     OW11944   5.468   1.894   6.906
 3682SOL    HW111945   5.416   1.890   6.821
 3682SOL    HW211946   5.463   1.987   6.943
 3683SOL     OW11947   0.104   1.132   3.479
 3683SOL    HW111948   0.017   1.147   3.433
 3683SOL    HW211949   0.119   1.034   3.493
 3684SOL     OW11950   1.743   4.536   0.443
 3684SOL    HW111951   1.744   4.512   0.346
 3684SOL    HW211952   1.692   4.621   0.456
 3685SOL     OW11953   1.285   6.038   0.108
 3685SOL    HW111954   1.331   6.093   0.037
 3685SOL    HW211955   1.310   5.942   0.097
 3686SOL     OW11956   4.979   5.890   4.109
 3686SOL    HW111957   4.933   5.966   4.064
 3686SOL    HW211958   4.943   5.803   4.074
 3687SOL     OW11959   3.221   6.071   5.210
 3687SOL    HW111960   3.182   5.987   5.173
 3687SOL    HW211961   3.320   6.072   5.194
 3688SOL     OW11962   0.523   3.990   6.258
 3688SOL    HW111963   0.538   3.909   6.314
 3688SOL    HW211964   0.425   4.007   6.248
 3689SOL     OW11965   2.210   6.765   5.411
 3689SOL    HW111966   2.161   6.804   5.489
 3689SOL    HW211967   2.154   6.770   5.329
 3690SOL     OW11968   4.320   6.111   0.459
 3690SOL    HW111969   4.290   6.183   0.396
 3690SOL    HW211970   4.397   6.062   0.419
 3691SOL     OW11971   2.336   2.036   6.488
 3691SOL    HW111972   2.377   1.969   6.550
 3691SOL    HW211973   2.391   2.120   6.490
 3692SOL     OW11974   6.490   5.641   4.997
 3692SOL    HW111975   6.420   5.660   5.066
 3692SOL    HW211976   6.446   5.634   4.907
 3693SOL     OW11977   2.082   3.709   3.051
 3693SOL    HW111978   2.056   3.615   3.029
 3693SOL    HW211979   2.092   3.761   2.966
 3694SOL     OW11980   1.659   6.412   2.892
 3694SOL    HW111981   1.637   6.450   2.802
 3694SOL    HW211982   1.735   6.348   2.883
 3695SOL     OW11983   6.449   2.866   1.735
 3695SOL    HW111984   6.431   2.925   1.656
 3695SOL    HW211985   6.533   2.897   1.781
 3696SOL     OW11986   3.743   6.332   4.721
 3696SOL    HW111987   3.681   6.387   4.777
 3696SOL    HW211988   3.832   6.324   4.766
 3697SOL     OW11989   0.279   6.313   2.485
 3697SOL    HW111990   0.351   6.381   2.469
 3697SOL    HW211991   0.248   6.319   2.580
 3698SOL     OW11992   3.076   1.032   4.566
 3698SOL    HW111993   3.004   1.008   4.631
 3698SOL    HW211994   3.040   1.097   4.499
 3699SOL     OW11995   1.123   2.344   4.101
 3699SOL    HW111996   1.133   2.421   4.038
 3699SOL    HW211997   1.026   2.329   4.120
 3700SOL     OW11998   0.572   5.373   4.580
 3700SOL    HW111999   0.548   5.406   4.489
 3700SOL    HW212000   0.539   5.438   4.648
 3701SOL     OW12001   1.337   1.215   4.240
 3701SOL    HW112002   1.384   1.205   4.327
 3701SOL    HW212003   1.377   1.152   4.173
 3702SOL     OW12004   5.728   6.336   3.190
 3702SOL    HW112005   5.658   6.348   3.119
 3702SOL    HW212006   5.760   6.242   3.189
 3703SOL     OW12007   5.490   0.831   5.622
 3703SOL    HW112008   5.555   0.902   5.597
 3703SOL    HW212009   5.535   0.765   5.683
 3704SOL     OW12010   3.611   1.728   1.019
 3704SOL    HW112011   3.545   1.706   0.947
 3704SOL    HW212012   3.655   1.815   0.999
 3705SOL     OW12013   4.551   4.589   4.214
 3705SOL    HW112014   4.513   4.627   4.129
 3705SOL    HW212015   4.490   4.610   4.290
 3706SOL     OW12016   1.633   3.564   6.835
 3706SOL    HW112017   1.672   3.602   6.919
 3706SOL    HW212018   1.640   3.465   6.837
 3707SOL     OW12019   5.320   4.659   3.809
 3707SOL    HW112020   5.373   4.598   3.750
 3707SOL    HW212021   5.382   4.708   3.870
 3708SOL     OW12022   6.920   0.453   6.771
 3708SOL    HW112023   7.007   0.419   6.806
 3708SOL    HW212024   6.853   0.457   6.846
 3709SOL     OW12025   3.698   0.528   1.272
 3709SOL    HW112026   3.621   0.482   1.316
 3709SOL    HW212027   3.678   0.543   1.176
 3710SOL     OW12028   6.012   5.577   5.214
 3710SOL    HW112029   6.007   5.579   5.114
 3710SOL    HW212030   6.099   5.617   5.244
 3711SOL     OW12031   0.603   6.861   4.186
 3711SOL    HW112032   0.697   6.895   4.175
 3711SOL    HW212033   0.590   6.782   4.126
 3712SOL     OW12034   0.053   4.947   6.485
 3712SOL    HW112035   0.141   4.946   6.532
 3712SOL    HW212036   0.059   5.004   6.403
 3713SOL     OW12037   0.823   6.543   6.051
 3713SOL    HW112038   0.814   6.527   6.149
 3713SOL    HW212039   0.737   6.522   6.006
 3714SOL     OW12040   5.645   6.151   6.007
 3714SOL    HW112041   5.735   6.117   6.033
 3714SOL    HW212042   5.624   6.123   5.913
 3715SOL     OW12043   0.812   3.847   2.149
 3715SOL    HW112044   0.788   3.856   2.052
 3715SOL    HW212045   0.731   3.866   2.205
 3716SOL     OW12046   6.378   6.804   4.382
 3716SOL    HW112047   6.342   6.728   4.436
 3716SOL    HW212048   6.464   6.836   4.422
 3717SOL     OW12049   6.800   6.764   6.870
 3717SOL    HW112050   6.709   6.770   6.911
 3717SOL    HW212051   6.861   6.829   6.915
 3718SOL     OW12052   0.923   0.860   6.915
 3718SOL    HW112053   0.849   0.836   6.978
 3718SOL    HW212054   0.988   0.921   6.960
 3719SOL     OW12055   5.227   3.819   1.894
 3719SOL    HW112056   5.248   3.876   1.815
 3719SOL    HW212057   5.273   3.855   1.975
 3720SOL     OW12058   6.357   2.816   6.474
 3720SOL    HW112059   6.429   2.877   6.441
 3720SOL    HW212060   6.372   2.724   6.438
 3721SOL     OW12061   6.385   4.500   1.806
 3721SOL    HW112062   6.386   4.417   1.861
 3721SOL    HW212063   6.421   4.577   1.859
 3722SOL     OW12064   6.104   6.127   0.533
 3722SOL    HW112065   6.172   6.132   0.459
 3722SOL    HW212066   6.058   6.216   0.541
 3723SOL     OW12067   5.906   5.713   1.191
 3723SOL    HW112068   5.911   5.613   1.195
 3723SOL    HW212069   5.902   5.750   1.284
 3724SOL     OW12070   2.008   4.128   4.728
 3724SOL    HW112071   1.996   4.037   4.768
 3724SOL    HW212072   1.988   4.198   4.797
 3725SOL     OW12073   6.976   5.702   0.427
 3725SOL    HW112074   6.934   5.683   0.338
 3725SOL    HW212075   0.048   5.675   0.425
 3726SOL     OW12076   6.080   3.200   0.352
 3726SOL    HW112077   6.088   3.161   0.260
 3726SOL    HW212078   5.987   3.184   0.386
 3727SOL     OW12079   6.746   1.216   4.969
 3727SOL    HW112080   6.700   1.240   4.884
 3727SOL    HW212081   6.679   1.214   5.044
 3728SOL     OW12082   1.276   3.538   6.671
 3728SOL    HW112083   1.272   3.623   6.725
 3728SOL    HW212084   1.308   3.559   6.579
 3729SOL     OW12085   1.454   2.265   3.749
 3729SOL    HW112086   1.364   2.306   3.741
 3729SOL    HW212087   1.499   2.263   3.659
 3730SOL     OW12088   2.424   5.461   5.810
 3730SOL    HW112089   2.379   5.531   5.754
 3730SOL    HW212090   2.458   5.502   5.894
 3731SOL     OW12091   0.437   1.700   0.679
 3731SOL    HW112092   0.409   1.768   0.610
 3731SOL    HW212093   0.418   1.608   0.645
 3732SOL     OW12094   3.108   1.502   0.291
 3732SOL    HW112095   3.047   1.575   0.261
 3732SOL    HW212096   3.151   1.459   0.212
 3733SOL     OW12097   1.541   3.433   2.993
 3733SOL    HW112098   1.507   3.428   3.087
 3733SOL    HW212099   1.463   3.440   2.930
 3734SOL     OW12100   4.980   0.369   1.380
 3734SOL    HW112101   4.960   0.422   1.462
 3734SOL    HW212102   5.078   0.374   1.360
 3735SOL     OW12103   2.324   1.524   3.035
 3735SOL    HW112104   2.314   1.468   3.116
 3735SOL    HW212105   2.238   1.572   3.017
 3736SOL     OW12106   6.982   1.798   1.029
 3736SOL    HW112107   6.941   1.856   0.959
 3736SOL    HW212108   0.012   1.853   1.092
 3737SOL     OW12109   5.662   1.359   3.957
 3737SOL    HW112110   5.744   1.405   3.923
 3737SOL    HW212111   5.584   1.421   3.950
 3738SOL     OW12112   0.452   0.366   2.725
 3738SOL    HW112113   0.446   0.267   2.711
 3738SOL    HW212114   0.399   0.391   2.806
 3739SOL     OW12115   2.458   5.106   0.707
 3739SOL    HW112116   2.516   5.146   0.636
 3739SOL    HW212117   2.404   5.032   0.667
 3740SOL     OW12118   6.261   1.667   0.975
 3740SOL    HW112119   6.279   1.593   1.040
 3740SOL    HW212120   6.193   1.637   0.908
 3741SOL     OW12121   5.300   3.105   6.824
 3741SOL    HW112122   5.239   3.070   6.754
 3741SOL    HW212123   5.246   3.135   6.903
 3742SOL     OW12124   2.573   2.214   6.672
 3742SOL    HW112125   2.605   2.268   6.750
 3742SOL    HW212126   2.552   2.275   6.595
 3743SOL     OW12127   5.713   3.808   0.647
 3743SOL    HW112128   5.807   3.833   0.624
 3743SOL    HW212129   5.658   3.891   0.654
 3744SOL     OW12130   1.716   6.252   1.990
 3744SOL    HW112131   1.617   6.245   1.998
 3744SOL    HW212132   1.740   6.343   1.956
 3745SOL     OW12133   4.215   4.971   1.587
 3745SOL    HW112134   4.257   4.977   1.497
 3745SOL    HW212135   4.269   5.024   1.653
 3746SOL     OW12136   5.675   0.656   3.554
 3746SOL    HW112137   5.680   0.691   3.647
 3746SOL    HW212138   5.762   0.614   3.529
 3747SOL     OW12139   2.399   6.256   4.905
 3747SOL    HW112140   2.388   6.279   5.002
 3747SOL    HW212141   2.313   6.269   4.857
 3748SOL     OW12142   5.747   1.365   1.552
 3748SOL    HW112143   5.664   1.402   1.510
 3748SOL    HW212144   5.726   1.328   1.642
 3749SOL     OW12145   1.869   5.413   3.798
 3749SOL    HW112146   1.958   5.371   3.780
 3749SOL    HW212147   1.802   5.342   3.819
 3750SOL     OW12148   0.312   4.936   1.273
 3750SOL    HW112149   0.296   4.990   1.191
 3750SOL    HW212150   0.282   4.842   1.258
 3751SOL     OW12151   6.344   3.486   1.176
 3751SOL    HW112152   6.436   3.449   1.159
 3751SOL    HW212153   6.345   3.585   1.162
 3752SOL     OW12154   5.911   0.006   0.916
 3752SOL    HW112155   5.925   0.103   0.894
 3752SOL    HW212156   5.814   7.013   0.930
 3753SOL     OW12157   6.670   0.303   3.851
 3753SOL    HW112158   6.606   0.294   3.926
 3753SOL    HW212159   6.625   0.280   3.765
 3754SOL     OW12160   3.689   0.582   0.950
 3754SOL    HW112161   3.676   0.644   0.872
 3754SOL    HW212162   3.726   0.495   0.917
 3755SOL     OW12163   4.906   5.514   4.250
 3755SOL    HW112164   4.979   5.495   4.315
 3755SOL    HW212165   4.831   5.561   4.296
 3756SOL     OW12166   2.987   5.437   6.880
 3756SOL    HW112167   2.895   5.464   6.909
 3756SOL    HW212168   3.026   5.374   6.947
 3757SOL     OW12169   4.838   6.203   6.796
 3757SOL    HW112170   4.918   6.249   6.757
 3757SOL    HW212171   4.826   6.113   6.753
 3758SOL     OW12172   2.334   1.167   4.812
 3758SOL    HW112173   2.275   1.246   4.834
 3758SOL    HW212174   2.430   1.195   4.818
 3759SOL     OW12175   4.951   6.319   6.365
 3759SOL    HW112176   4.877   6.253   6.377
 3759SOL    HW212177   5.024   6.277   6.311
 3760SOL     OW12178   2.070   1.184   4.597
 3760SOL    HW112179   1.977   1.162   4.626
 3760SOL    HW212180   2.135   1.127   4.648
 3761SOL     OW12181   1.096   0.848   4.933
 3761SOL    HW112182   1.060   0.875   5.022
 3761SOL    HW212183   1.085   0.923   4.868
 3762SOL     OW12184   1.417   4.548   0.986
 3762SOL    HW112185   1.368   4.621   0.938
 3762SOL    HW212186   1.483   4.505   0.924
 3763SOL     OW12187   6.774   4.051   0.717
 3763SOL    HW112188   6.728   4.089   0.636
 3763SOL    HW212189   6.870   4.080   0.717
 3764SOL     OW12190   1.578   0.185   2.842
 3764SOL    HW112191   1.559   0.088   2.831
 3764SOL    HW212192   1.649   0.213   2.776
 3765SOL     OW12193   5.121   1.436   0.919
 3765SOL    HW112194   5.031   1.462   0.954
 3765SOL    HW212195   5.123   1.338   0.900
 3766SOL     OW12196   1.766   1.339   4.357
 3766SOL    HW112197   1.833   1.327   4.284
 3766SOL    HW212198   1.809   1.385   4.435
 3767SOL     OW12199   1.902   4.780   6.822
 3767SOL    HW112200   1.977   4.819   6.876
 3767SOL    HW212201   1.817   4.829   6.843
 3768SOL     OW12202   1.352   6.665   3.781
 3768SOL    HW112203   1.311   6.694   3.695
 3768SOL    HW212204   1.331   6.732   3.852
 3769SOL     OW12205   6.442   6.415   4.773
 3769SOL    HW112206   6.423   6.317   4.776
 3769SOL    HW212207   6.537   6.432   4.800
 3770SOL     OW12208   1.451   0.895   6.102
 3770SOL    HW112209   1.511   0.817   6.088
 3770SOL    HW212210   1.470   0.938   6.190
 3771SOL     OW12211   5.017   2.942   0.225
 3771SOL    HW112212   4.963   2.860   0.241
 3771SOL    HW212213   5.052   2.977   0.312
 3772SOL     OW12214   0.062   1.755   6.827
 3772SOL    HW112215   6.991   1.735   6.846
 3772SOL    HW212216   0.107   1.672   6.794
 3773SOL     OW12217   5.908   3.050   6.041
 3773SOL    HW112218   5.979   3.053   5.970
 3773SOL    HW212219   5.899   3.140   6.084
 3774SOL     OW12220   6.626   5.996   0.787
 3774SOL    HW112221   6.605   5.909   0.742
 3774SOL    HW212222   6.624   5.983   0.887
 3775SOL     OW12223   4.193   5.178   2.002
 3775SOL    HW112224   4.192   5.156   2.100
 3775SOL    HW212225   4.214   5.275   1.990
 3776SOL     OW12226   4.442   2.040   0.045
 3776SOL    HW112227   4.342   2.048   0.042
 3776SOL    HW212228   4.476   2.021   6.977
 3777SOL     OW12229   3.393   6.206   3.961
 3777SOL    HW112230   3.483   6.212   4.004
 3777SOL    HW212231   3.340   6.132   4.004
 3778SOL     OW12232   3.526   4.867   2.656
 3778SOL    HW112233   3.433   4.881   2.622
 3778SOL    HW212234   3.525   4.863   2.756
 3779SOL     OW12235   1.589   4.162   0.251
 3779SOL    HW112236   1.627   4.178   0.342
 3779SOL    HW212237   1.544   4.072   0.249
 3780SOL     OW12238   6.055   4.754   5.058
 3780SOL    HW112239   6.101   4.672   5.094
 3780SOL    HW212240   6.109   4.835   5.080
 3781SOL     OW12241   0.530   5.825   4.337
 3781SOL    HW112242   0.471   5.761   4.388
 3781SOL    HW212243   0.518   5.917   4.373
 3782SOL     OW12244   1.910   0.402   3.309
 3782SOL    HW112245   1.999   0.422   3.269
 3782SOL    HW212246   1.838   0.438   3.250
 3783SOL     OW12247   5.762   5.616   3.179
 3783SOL    HW112248   5.752   5.592   3.083
 3783SOL    HW212249   5.738   5.538   3.236
 3784SOL     OW12250   4.671   2.653   3.448
 3784SOL    HW112251   4.670   2.609   3.359
 3784SOL    HW212252   4.653   2.585   3.519
 3785SOL     OW12253   1.758   3.086   6.098
 3785SOL    HW112254   1.688   3.081   6.026
 3785SOL    HW212255   1.769   2.996   6.139
 3786SOL     OW12256   2.049   5.699   3.563
 3786SOL    HW112257   1.956   5.662   3.564
 3786SOL    HW212258   2.079   5.710   3.468
 3787SOL     OW12259   5.679   1.576   2.577
 3787SOL    HW112260   5.770   1.575   2.618
 3787SOL    HW212261   5.611   1.594   2.648
 3788SOL     OW12262   0.181   4.925   4.494
 3788SOL    HW112263   0.159   4.924   4.591
 3788SOL    HW212264   0.206   5.018   4.467
 3789SOL     OW12265   6.623   2.743   4.721
 3789SOL    HW112266   6.627   2.831   4.768
 3789SOL    HW212267   6.609   2.758   4.624
 3790SOL     OW12268   1.184   4.161   5.450
 3790SOL    HW112269   1.108   4.125   5.395
 3790SOL    HW212270   1.201   4.256   5.425
 3791SOL     OW12271   5.210   1.244   6.603
 3791SOL    HW112272   5.231   1.340   6.621
 3791SOL    HW212273   5.186   1.233   6.506
 3792SOL     OW12274   0.870   2.962   4.399
 3792SOL    HW112275   0.943   3.008   4.448
 3792SOL    HW212276   0.898   2.948   4.304
 3793SOL     OW12277   5.295   6.553   2.197
 3793SOL    HW112278   5.287   6.503   2.282
 3793SOL    HW212279   5.213   6.540   2.142
 3794SOL     OW12280   2.673   3.141   0.939
 3794SOL    HW112281   2.598   3.159   1.004
 3794SOL    HW212282   2.756   3.120   0.990
 3795SOL     OW12283   3.993   6.240   7.009
 3795SOL    HW112284   4.045   6.323   0.005
 3795SOL    HW212285   3.903   6.265   6.973
 3796SOL     OW12286   3.263   2.017   2.289
 3796SOL    HW112287   3.343   2.069   2.259
 3796SOL    HW212288   3.240   1.948   2.220
 3797SOL     OW12289   6.983   3.298   1.681
 3797SOL    HW112290   0.032   3.359   1.650
 3797SOL    HW212291   7.005   3.204   1.655
 3798SOL     OW12292   2.744   5.490   3.170
 3798SOL    HW112293   2.826   5.543   3.147
 3798SOL    HW212294   2.745   5.404   3.120
 3799SOL     OW12295   6.918   2.611   3.873
 3799SOL    HW112296   6.905   2.577   3.780
 3799SOL    HW212297   6.901   2.536   3.938
 3800SOL     OW12298   5.992   3.717   3.748
 3800SOL    HW112299   5.910   3.774   3.749
 3800SOL    HW212300   5.976   3.634   3.802
 3801SOL     OW12301   5.950   0.192   2.569
 3801SOL    HW112302   6.037   0.164   2.529
 3801SOL    HW212303   5.881   0.122   2.552
 3802SOL     OW12304   1.204   2.277   2.343
 3802SOL    HW112305   1.297   2.253   2.369
 3802SOL    HW212306   1.185   2.371   2.372
 3803SOL     OW12307   3.294   2.864   1.774
 3803SOL    HW112308   3.322   2.938   1.712
 3803SOL    HW212309   3.212   2.892   1.824
 3804SOL     OW12310   4.709   1.728   3.999
 3804SOL    HW112311   4.647   1.695   3.927
 3804SOL    HW212312   4.796   1.680   3.991
 3805SOL     OW12313   2.754   2.718   1.694
 3805SOL    HW112314   2.717   2.641   1.745
 3805SOL    HW212315   2.854   2.718   1.702
 3806SOL     OW12316   3.266   3.455   6.135
 3806SOL    HW112317   3.187   3.515   6.124
 3806SOL    HW212318   3.333   3.499   6.195
 3807SOL     OW12319   0.828   6.238   2.912
 3807SOL    HW112320   0.728   6.235   2.917
 3807SOL    HW212321   0.866   6.163   2.965
 3808SOL     OW12322   4.900   1.104   1.125
 3808SOL    HW112323   4.849   1.026   1.089
 3808SOL    HW212324   4.888   1.183   1.066
 3809SOL     OW12325   5.324   3.130   1.637
 3809SOL    HW112326   5.322   3.152   1.735
 3809SOL    HW212327   5.370   3.042   1.623
 3810SOL     OW12328   4.275   2.365   3.685
 3810SOL    HW112329   4.291   2.295   3.615
 3810SOL    HW212330   4.354   2.426   3.690
 3811SOL     OW12331   1.013   4.530   4.447
 3811SOL    HW112332   1.086   4.506   4.383
 3811SOL    HW212333   0.980   4.447   4.492
 3812SOL     OW12334   5.268   5.771   5.014
 3812SOL    HW112335   5.334   5.731   4.950
 3812SOL    HW212336   5.316   5.813   5.090
 3813SOL     OW12337   4.671   3.840   0.945
 3813SOL    HW112338   4.744   3.894   0.903
 3813SOL    HW212339   4.704   3.800   1.031
 3814SOL     OW12340   0.276   0.158   6.708
 3814SOL    HW112341   0.342   0.180   6.636
 3814SOL    HW212342   0.219   0.081   6.679
 3815SOL     OW12343   4.412   2.425   0.592
 3815SOL    HW112344   4.329   2.416   0.646
 3815SOL    HW212345   4.459   2.337   0.588
 3816SOL     OW12346   1.504   5.513   0.264
 3816SOL    HW112347   1.597   5.547   0.279
 3816SOL    HW212348   1.497   5.477   0.171
 3817SOL     OW12349   4.800   4.022   2.680
 3817SOL    HW112350   4.884   3.967   2.681
 3817SOL    HW212351   4.797   4.076   2.596
 3818SOL     OW12352   6.514   0.972   6.561
 3818SOL    HW112353   6.446   0.954   6.490
 3818SOL    HW212354   6.471   1.020   6.637
 3819SOL     OW12355   5.180   5.188   2.284
 3819SOL    HW112356   5.244   5.171   2.360
 3819SOL    HW212357   5.193   5.282   2.251
 3820SOL     OW12358   4.976   6.664   4.326
 3820SOL    HW112359   4.979   6.756   4.288
 3820SOL    HW212360   5.063   6.644   4.372
 3821SOL     OW12361   2.480   1.377   1.020
 3821SOL    HW112362   2.563   1.358   0.969
 3821SOL    HW212363   2.428   1.450   0.975
 3822SOL     OW12364   2.029   0.220   0.919
 3822SOL    HW112365   2.046   0.275   1.000
 3822SOL    HW212366   2.011   0.280   0.840
 3823SOL     OW12367   3.495   3.288   5.951
 3823SOL    HW112368   3.563   3.306   5.880
 3823SOL    HW212369   3.408   3.263   5.908
 3824SOL     OW12370   6.849   2.269   0.566
 3824SOL    HW112371   6.778   2.273   0.496
 3824SOL    HW212372   6.886   2.360   0.582
 3825SOL     OW12373   0.628   5.889   0.707
 3825SOL    HW112374   0.718   5.846   0.709
 3825SOL    HW212375   0.559   5.821   0.681
 3826SOL     OW12376   0.853   2.920   6.149
 3826SOL    HW112377   0.882   2.827   6.127
 3826SOL    HW212378   0.930   2.982   6.135
 3827SOL     OW12379   1.443   1.807   1.688
 3827SOL    HW112380   1.455   1.777   1.593
 3827SOL    HW212381   1.513   1.874   1.711
 3828SOL     OW12382   3.656   2.861   2.360
 3828SOL    HW112383   3.573   2.890   2.407
 3828SOL    HW212384   3.722   2.828   2.426
 3829SOL     OW12385   1.885   4.622   3.361
 3829SOL    HW112386   1.847   4.639   3.452
 3829SOL    HW212387   1.919   4.528   3.356
 3830SOL     OW12388   0.739   1.282   4.641
 3830SOL    HW112389   0.694   1.311   4.556
 3830SOL    HW212390   0.740   1.358   4.706
 3831SOL     OW12391   4.610   2.546   1.974
 3831SOL    HW112392   4.572   2.615   1.912
 3831SOL    HW212393   4.549   2.467   1.978
 3832SOL     OW12394   5.833   0.981   2.834
 3832SOL    HW112395   5.789   0.996   2.923
 3832SOL    HW212396   5.771   1.011   2.761
 3833SOL     OW12397   0.301   6.219   6.191
 3833SOL    HW112398   0.329   6.214   6.095
 3833SOL    HW212399   0.302   6.127   6.230
 3834SOL     OW12400   4.671   4.531   1.898
 3834SOL    HW112401   4.611   4.452   1.915
 3834SOL    HW212402   4.643   4.576   1.813
 3835SOL     OW12403   3.564   5.487   4.205
 3835SOL    HW112404   3.577   5.388   4.209
 3835SOL    HW212405   3.488   5.509   4.144
 3836SOL     OW12406   1.907   4.123   6.122
 3836SOL    HW112407   1.894   4.046   6.060
 3836SOL    HW212408   1.832   4.188   6.110
 3837SOL     OW12409   4.787   4.932   6.141
 3837SOL    HW112410   4.788   4.937   6.241
 3837SOL    HW212411   4.769   4.838   6.113
 3838SOL     OW12412   0.216   4.017   4.531
 3838SOL    HW112413   0.207   4.064   4.619
 3838SOL    HW212414   0.154   3.939   4.527
 3839SOL     OW12415   4.852   0.885   3.441
 3839SOL    HW112416   4.861   0.800   3.390
 3839SOL    HW212417   4.941   0.911   3.479
 3840SOL     OW12418   2.193   0.666   6.061
 3840SOL    HW112419   2.165   0.605   5.986
 3840SOL    HW212420   2.119   0.730   6.081
 3841SOL     OW12421   6.862   3.060   5.029
 3841SOL    HW112422   6.919   3.048   4.947
 3841SOL    HW212423   6.921   3.072   5.109
 3842SOL     OW12424   1.913   3.080   6.782
 3842SOL    HW112425   1.911   3.120   6.690
 3842SOL    HW212426   2.001   3.101   6.825
 3843SOL     OW12427   6.157   4.245   2.519
 3843SOL    HW112428   6.152   4.322   2.456
 3843SOL    HW212429   6.090   4.257   2.592
 3844SOL     OW12430   0.641   2.337   5.968
 3844SOL    HW112431   0.541   2.330   5.969
 3844SOL    HW212432   0.677   2.304   6.056
 3845SOL     OW12433   4.024   3.333   4.565
 3845SOL    HW112434   4.079   3.416   4.564
 3845SOL    HW212435   3.997   3.312   4.659
 3846SOL     OW12436   1.114   5.671   3.825
 3846SOL    HW112437   1.106   5.571   3.833
 3846SOL    HW212438   1.107   5.697   3.728
 3847SOL     OW12439   6.181   0.962   4.645
 3847SOL    HW112440   6.106   0.903   4.614
 3847SOL    HW212441   6.252   0.965   4.575
 3848SOL     OW12442   3.601   5.901   3.057
 3848SOL    HW112443   3.640   5.878   2.967
 3848SOL    HW212444   3.638   5.840   3.126
 3849SOL     OW12445   1.209   1.479   5.402
 3849SOL    HW112446   1.278   1.414   5.370
 3849SOL    HW212447   1.120   1.456   5.361
 3850SOL     OW12448   2.904   3.297   0.522
 3850SOL    HW112449   2.838   3.288   0.597
 3850SOL    HW212450   2.916   3.209   0.477
 3851SOL     OW12451   1.588   4.645   2.358
 3851SOL    HW112452   1.621   4.576   2.423
 3851SOL    HW212453   1.495   4.673   2.384
 3852SOL     OW12454   4.122   6.900   3.935
 3852SOL    HW112455   4.124   6.813   3.887
 3852SOL    HW212456   4.044   6.954   3.904
 3853SOL     OW12457   1.105   3.942   3.359
 3853SOL    HW112458   1.185   3.888   3.389
 3853SOL    HW212459   1.075   4.000   3.434
 3854SOL     OW12460   1.287   3.167   2.070
 3854SOL    HW112461   1.245   3.257   2.080
 3854SOL    HW212462   1.310   3.152   1.974
 3855SOL     OW12463   5.393   6.112   6.400
 3855SOL    HW112464   5.318   6.142   6.459
 3855SOL    HW212465   5.480   6.140   6.440
 3856SOL     OW12466   6.970   6.721   5.425
 3856SOL    HW112467   6.930   6.765   5.505
 3856SOL    HW212468   6.916   6.745   5.344
 3857SOL     OW12469   0.556   5.597   6.356
 3857SOL    HW112470   0.554   5.624   6.452
 3857SOL    HW212471   0.517   5.505   6.347
 3858SOL     OW12472   1.529   6.569   5.739
 3858SOL    HW112473   1.555   6.588   5.834
 3858SOL    HW212474   1.519   6.470   5.727
 3859SOL     OW12475   6.745   2.162   3.119
 3859SOL    HW112476   6.690   2.183   3.199
 3859SOL    HW212477   6.691   2.177   3.036
 3860SOL     OW12478   2.425   0.342   5.713
 3860SOL    HW112479   2.402   0.369   5.620
 3860SOL    HW212480   2.447   0.423   5.767
 3861SOL     OW12481   4.335   4.628   3.649
 3861SOL    HW112482   4.378   4.607   3.561
 3861SOL    HW212483   4.379   4.575   3.721
 3862SOL     OW12484   1.278   0.311   4.981
 3862SOL    HW112485   1.187   0.341   5.011
 3862SOL    HW212486   1.273   0.278   4.887
 3863SOL     OW12487   4.260   3.057   5.989
 3863SOL    HW112488   4.255   3.148   5.948
 3863SOL    HW212489   4.356   3.028   5.995
 3864SOL     OW12490   2.481   0.720   5.619
 3864SOL    HW112491   2.444   0.708   5.711
 3864SOL    HW212492   2.579   0.739   5.624
 3865SOL     OW12493   3.690   6.705   0.117
 3865SOL    HW112494   3.689   6.686   0.019
 3865SOL    HW212495   3.604   6.674   0.158
 3866SOL     OW12496   3.874   0.999   2.072
 3866SOL    HW112497   3.909   1.092   2.079
 3866SOL    HW212498   3.821   0.989   1.988
 3867SOL     OW12499   1.477   4.159   4.201
 3867SOL    HW112500   1.456   4.244   4.151
 3867SOL    HW212501   1.545   4.178   4.271
 3868SOL     OW12502   3.473   0.224   0.296
 3868SOL    HW112503   3.490   0.144   0.239
 3868SOL    HW212504   3.543   0.229   0.367
 3869SOL     OW12505   6.237   3.089   5.098
 3869SOL    HW112506   6.252   3.142   5.014
 3869SOL    HW212507   6.325   3.058   5.134
 3870SOL     OW12508   4.293   5.544   0.292
 3870SOL    HW112509   4.247   5.536   0.380
 3870SOL    HW212510   4.374   5.486   0.291
 3871SOL     OW12511   4.039   0.318   2.800
 3871SOL    HW112512   4.072   0.339   2.892
 3871SOL    HW212513   4.024   0.403   2.749
 3872SOL     OW12514   3.788   3.314   2.618
 3872SOL    HW112515   3.743   3.225   2.606
 3872SOL    HW212516   3.720   3.387   2.610
 3873SOL     OW12517   6.449   3.920   1.448
 3873SOL    HW112518   6.429   3.988   1.519
 3873SOL    HW212519   6.474   3.967   1.364
 3874SOL     OW12520   3.687   6.036   6.288
 3874SOL    HW112521   3.780   6.029   6.252
 3874SOL    HW212522   3.639   5.950   6.274
 3875SOL     OW12523   1.735   2.515   1.892
 3875SOL    HW112524   1.760   2.429   1.849
 3875SOL    HW212525   1.790   2.529   1.974
 3876SOL     OW12526   5.786   4.848   0.182
 3876SOL    HW112527   5.733   4.775   0.137
 3876SOL    HW212528   5.748   4.866   0.273
 3877SOL     OW12529   7.009   2.901   0.009
 3877SOL    HW112530   7.004   2.961   0.089
 3877SOL    HW212531   6.989   2.954   6.951
 3878SOL     OW12532   2.638   6.279   4.835
 3878SOL    HW112533   2.677   6.303   4.924
 3878SOL    HW212534   2.540   6.260   4.846
 3879SOL     OW12535   5.099   6.489   1.305
 3879SOL    HW112536   5.072   6.393   1.311
 3879SOL    HW212537   5.020   6.545   1.281
 3880SOL     OW12538   6.380   4.815   3.507
 3880SOL    HW112539   6.477   4.793   3.520
 3880SOL    HW212540   6.325   4.766   3.574
 3881SOL     OW12541   1.186   4.390   1.203
 3881SOL    HW112542   1.168   4.407   1.300
 3881SOL    HW212543   1.147   4.464   1.149
 3882SOL     OW12544   0.348   1.879   4.919
 3882SOL    HW112545   0.268   1.875   4.979
 3882SOL    HW212546   0.344   1.804   4.853
 3883SOL     OW12547   4.397   1.394   3.330
 3883SOL    HW112548   4.305   1.422   3.357
 3883SOL    HW212549   4.435   1.334   3.400
 3884SOL     OW12550   1.274   5.505   3.575
 3884SOL    HW112551   1.352   5.518   3.638
 3884SOL    HW212552   1.241   5.594   3.544
 3885SOL     OW12553   6.202   0.468   3.224
 3885SOL    HW112554   6.259   0.490   3.145
 3885SOL    HW212555   6.127   0.534   3.231
 3886SOL     OW12556   6.414   5.752   4.715
 3886SOL    HW112557   6.334   5.803   4.747
 3886SOL    HW212558   6.386   5.688   4.643
 3887SOL     OW12559   6.439   1.066   5.448
 3887SOL    HW112560   6.476   0.979   5.481
 3887SOL    HW212561   6.430   1.063   5.349
 3888SOL     OW12562   0.924   0.775   6.663
 3888SOL    HW112563   0.928   0.846   6.592
 3888SOL    HW212564   0.920   0.818   6.753
 3889SOL     OW12565   6.863   2.676   6.505
 3889SOL    HW112566   6.916   2.607   6.555
 3889SOL    HW212567   6.787   2.707   6.562
 3890SOL     OW12568   5.792   5.743   2.725
 3890SOL    HW112569   5.766   5.713   2.633
 3890SOL    HW212570   5.810   5.841   2.724
 3891SOL     OW12571   5.473   4.855   3.951
 3891SOL    HW112572   5.520   4.928   4.001
 3891SOL    HW212573   5.491   4.865   3.853
 3892SOL     OW12574   0.193   2.399   1.850
 3892SOL    HW112575   0.117   2.359   1.902
 3892SOL    HW212576   0.279   2.358   1.880
 3893SOL     OW12577   2.801   5.459   1.678
 3893SOL    HW112578   2.743   5.398   1.732
 3893SOL    HW212579   2.802   5.428   1.583
 3894SOL     OW12580   2.832   1.968   1.220
 3894SOL    HW112581   2.882   1.938   1.301
 3894SOL    HW212582   2.888   1.954   1.139
 3895SOL     OW12583   1.741   0.112   5.226
 3895SOL    HW112584   1.684   0.037   5.192
 3895SOL    HW212585   1.796   0.148   5.150
 3896SOL     OW12586   0.325   1.961   6.434
 3896SOL    HW112587   0.305   1.873   6.390
 3896SOL    HW212588   0.261   1.978   6.508
 3897SOL     OW12589   3.640   6.784   2.342
 3897SOL    HW112590   3.679   6.692   2.352
 3897SOL    HW212591   3.713   6.849   2.322
 3898SOL     OW12592   3.415   3.611   3.848
 3898SOL    HW112593   3.394   3.648   3.939
 3898SOL    HW212594   3.511   3.583   3.846
 3899SOL     OW12595   5.077   0.540   4.115
 3899SOL    HW112596   5.143   0.550   4.189
 3899SOL    HW212597   5.042   0.631   4.090
 3900SOL     OW12598   4.964   2.725   3.230
 3900SOL    HW112599   4.885   2.664   3.227
 3900SOL    HW212600   4.932   2.820   3.224
 3901SOL     OW12601   2.951   6.644   5.887
 3901SOL    HW112602   2.901   6.688   5.962
 3901SOL    HW212603   2.893   6.573   5.847
 3902SOL     OW12604   6.204   3.750   1.806
 3902SOL    HW112605   6.296   3.710   1.799
 3902SOL    HW212606   6.136   3.677   1.810
 3903SOL     OW12607   4.569   4.144   6.911
 3903SOL    HW112608   4.473   4.147   6.884
 3903SOL    HW212609   4.626   4.163   6.831
 3904SOL     OW12610   2.351   6.898   6.054
 3904SOL    HW112611   2.368   6.972   5.988
 3904SOL    HW212612   2.434   6.845   6.067
 3905SOL     OW12613   5.609   6.857   6.143
 3905SOL    HW112614   5.612   6.776   6.201
 3905SOL    HW212615   5.687   6.857   6.080
 3906SOL     OW12616   1.629   5.106   5.552
 3906SOL    HW112617   1.691   5.081   5.478
 3906SOL    HW212618   1.562   5.033   5.566
 3907SOL     OW12619   6.340   0.475   3.852
 3907SOL    HW112620   6.382   0.450   3.939
 3907SOL    HW212621   6.251   0.518   3.870
 3908SOL     OW12622   1.914   1.065   6.861
 3908SOL    HW112623   1.926   1.095   6.956
 3908SOL    HW212624   1.817   1.064   6.838
 3909SOL     OW12625   0.003   4.569   6.585
 3909SOL    HW112626   6.955   4.548   6.520
 3909SOL    HW212627   7.010   4.658   6.628
 3910SOL     OW12628   3.671   4.047   2.151
 3910SOL    HW112629   3.759   4.004   2.130
 3910SOL    HW212630   3.597   3.992   2.112
 3911SOL     OW12631   5.065   1.490   0.344
 3911SOL    HW112632   5.165   1.486   0.336
 3911SOL    HW212633   5.040   1.500   0.440
 3912SOL     OW12634   3.541   1.327   6.378
 3912SOL    HW112635   3.585   1.326   6.288
 3912SOL    HW212636   3.529   1.233   6.411
 3913SOL     OW12637   2.725   6.943   6.760
 3913SOL    HW112638   2.802   6.966   6.700
 3913SOL    HW212639   2.685   6.856   6.731
 3914SOL     OW12640   5.206   0.919   1.293
 3914SOL    HW112641   5.239   0.922   1.387
 3914SOL    HW212642   5.232   0.832   1.252
 3915SOL     OW12643   4.330   6.527   0.425
 3915SOL    HW112644   4.318   6.545   0.523
 3915SOL    HW212645   4.427   6.530   0.402
 3916SOL     OW12646   2.524   0.090   2.908
 3916SOL    HW112647   2.466   0.020   2.865
 3916SOL    HW212648   2.468   0.170   2.928
 3917SOL     OW12649   1.505   4.292   1.540
 3917SOL    HW112650   1.543   4.199   1.538
 3917SOL    HW212651   1.570   4.355   1.498
 3918SOL     OW12652   4.334   6.089   1.714
 3918SOL    HW112653   4.291   6.146   1.643
 3918SOL    HW212654   4.298   6.115   1.803
 3919SOL     OW12655   3.227   0.098   6.658
 3919SOL    HW112656   3.251   0.179   6.603
 3919SOL    HW212657   3.168   0.126   6.733
 3920SOL     OW12658   3.168   1.453   6.545
 3920SOL    HW112659   3.075   1.416   6.552
 3920SOL    HW212660   3.187   1.477   6.449
 3921SOL     OW12661   6.868   2.339   0.109
 3921SOL    HW112662   6.814   2.275   0.054
 3921SOL    HW212663   6.928   2.287   0.171
 3922SOL     OW12664   4.440   5.231   0.851
 3922SOL    HW112665   4.481   5.249   0.941
 3922SOL    HW212666   4.344   5.203   0.864
 3923SOL     OW12667   5.978   2.024   0.046
 3923SOL    HW112668   6.014   2.117   0.047
 3923SOL    HW212669   6.054   1.959   0.038
 3924SOL     OW12670   0.735   5.026   2.940
 3924SOL    HW112671   0.789   5.043   3.023
 3924SOL    HW212672   0.665   4.957   2.959
 3925SOL     OW12673   3.798   4.396   1.165
 3925SOL    HW112674   3.859   4.363   1.237
 3925SOL    HW212675   3.729   4.326   1.146
 3926SOL     OW12676   0.069   0.020   4.932
 3926SOL    HW112677   0.052   0.077   4.851
 3926SOL    HW212678   0.167   0.021   4.954
 3927SOL     OW12679   0.054   2.688   4.572
 3927SOL    HW112680   0.036   2.590   4.578
 3927SOL    HW212681   7.000   2.735   4.533
 3928SOL     OW12682   3.581   5.687   3.950
 3928SOL    HW112683   3.663   5.631   3.944
 3928SOL    HW212684   3.570   5.739   3.865
 3929SOL     OW12685   6.842   1.536   6.499
 3929SOL    HW112686   6.793   1.505   6.581
 3929SOL    HW212687   6.940   1.540   6.518
 3930SOL     OW12688   1.246   1.924   3.759
 3930SOL    HW112689   1.165   1.866   3.761
 3930SOL    HW212690   1.221   2.018   3.783
 3931SOL     OW12691   1.818   1.822   2.115
 3931SOL    HW112692   1.744   1.801   2.179
 3931SOL    HW212693   1.842   1.740   2.063
 3932SOL     OW12694   1.783   4.660   3.644
 3932SOL    HW112695   1.741   4.569   3.646
 3932SOL    HW212696   1.753   4.712   3.724
 3933SOL     OW12697   1.558   6.733   0.193
 3933SOL    HW112698   1.463   6.762   0.200
 3933SOL    HW212699   1.616   6.791   0.251
 3934SOL     OW12700   0.166   1.153   2.649
 3934SOL    HW112701   0.185   1.251   2.635
 3934SOL    HW212702   0.068   1.140   2.663
 3935SOL     OW12703   1.299   1.250   5.737
 3935SOL    HW112704   1.299   1.339   5.782
 3935SOL    HW212705   1.343   1.258   5.648
 3936SOL     OW12706   6.654   5.852   4.954
 3936SOL    HW112707   6.579   5.786   4.960
 3936SOL    HW212708   6.660   5.902   5.040
 3937SOL     OW12709   6.597   6.492   1.810
 3937SOL    HW112710   6.579   6.457   1.902
 3937SOL    HW212711   6.685   6.456   1.779
 3938SOL     OW12712   6.007   3.781   4.008
 3938SOL    HW112713   5.977   3.877   4.003
 3938SOL    HW212714   6.017   3.744   3.916
 3939SOL     OW12715   2.507   1.717   3.133
 3939SOL    HW112716   2.571   1.679   3.066
 3939SOL    HW212717   2.420   1.669   3.126
 3940SOL     OW12718   2.883   4.857   1.853
 3940SOL    HW112719   2.970   4.863   1.903
 3940SOL    HW212720   2.829   4.782   1.890
 3941SOL     OW12721   5.967   0.526   4.615
 3941SOL    HW112722   5.874   0.537   4.651
 3941SOL    HW212723   5.972   0.442   4.561
 3942SOL     OW12724   0.663   6.185   5.746
 3942SOL    HW112725   0.662   6.284   5.734
 3942SOL    HW212726   0.755   6.150   5.729
 3943SOL     OW12727   0.919   3.649   2.669
 3943SOL    HW112728   0.936   3.648   2.570
 3943SOL    HW212729   1.003   3.674   2.717
 3944SOL     OW12730   6.364   3.849   6.147
 3944SOL    HW112731   6.427   3.927   6.144
 3944SOL    HW212732   6.288   3.865   6.084
 3945SOL     OW12733   0.879   2.441   3.123
 3945SOL    HW112734   0.782   2.465   3.129
 3945SOL    HW212735   0.916   2.470   3.035
 3946SOL     OW12736   0.024   4.035   6.582
 3946SOL    HW112737   0.057   3.965   6.519
 3946SOL    HW212738   0.082   4.038   6.664
 3947SOL     OW12739   5.734   5.439   0.547
 3947SOL    HW112740   5.787   5.399   0.472
 3947SOL    HW212741   5.721   5.370   0.619
 3948SOL     OW12742   1.698   4.015   6.987
 3948SOL    HW112743   1.602   4.044   6.989
 3948SOL    HW212744   1.713   3.958   6.906
 3949SOL     OW12745   6.239   6.750   3.159
 3949SOL    HW112746   6.213   6.687   3.232
 3949SOL    HW212747   6.164   6.814   3.143
 3950SOL     OW12748   3.543   3.850   2.013
 3950SOL    HW112749   3.452   3.811   2.026
 3950SOL    HW212750   3.598   3.789   1.956
 3951SOL     OW12751   0.525   0.956   0.121
 3951SOL    HW112752   0.511   0.983   0.216
 3951SOL    HW212753   0.437   0.929   0.081
 3952SOL     OW12754   6.170   3.598   4.365
 3952SOL    HW112755   6.112   3.636   4.437
 3952SOL    HW212756   6.136   3.508   4.339
 3953SOL     OW12757   3.830   4.121   6.550
 3953SOL    HW112758   3.841   4.179   6.631
 3953SOL    HW212759   3.751   4.153   6.497
 3954SOL     OW12760   5.653   4.873   5.365
 3954SOL    HW112761   5.726   4.878   5.433
 3954SOL    HW212762   5.585   4.805   5.393
 3955SOL     OW12763   4.836   6.496   6.924
 3955SOL    HW112764   4.746   6.506   6.966
 3955SOL    HW212765   4.850   6.401   6.897
 3956SOL     OW12766   0.761   1.932   4.698
 3956SOL    HW112767   0.677   1.978   4.667
 3956SOL    HW212768   0.827   2.000   4.729
 3957SOL     OW12769   3.981   6.403   3.182
 3957SOL    HW112770   3.937   6.453   3.109
 3957SOL    HW212771   3.912   6.361   3.241
 3958SOL     OW12772   6.071   6.605   6.736
 3958SOL    HW112773   6.104   6.700   6.738
 3958SOL    HW212774   6.062   6.576   6.641
 3959SOL     OW12775   3.366   6.415   1.519
 3959SOL    HW112776   3.393   6.499   1.473
 3959SOL    HW212777   3.320   6.355   1.454
 3960SOL     OW12778   6.123   2.432   6.236
 3960SOL    HW112779   6.139   2.458   6.141
 3960SOL    HW212780   6.105   2.515   6.290
 3961SOL     OW12781   5.568   2.167   2.079
 3961SOL    HW112782   5.470   2.150   2.062
 3961SOL    HW212783   5.611   2.197   1.994
 3962SOL     OW12784   0.983   5.998   0.188
 3962SOL    HW112785   1.033   6.059   0.126
 3962SOL    HW212786   0.990   6.032   0.281
 3963SOL     OW12787   5.213   4.518   3.433
 3963SOL    HW112788   5.198   4.614   3.455
 3963SOL    HW212789   5.287   4.483   3.491
 3964SOL     OW12790   4.207   4.806   5.097
 3964SOL    HW112791   4.236   4.716   5.065
 3964SOL    HW212792   4.123   4.796   5.151
 3965SOL     OW12793   3.778   4.578   6.178
 3965SOL    HW112794   3.778   4.676   6.160
 3965SOL    HW212795   3.863   4.552   6.224
 3966SOL     OW12796   6.853   4.914   0.212
 3966SOL    HW112797   6.771   4.968   0.229
 3966SOL    HW212798   6.837   4.852   0.135
 3967SOL     OW12799   1.088   4.705   2.500
 3967SOL    HW112800   1.037   4.770   2.555
 3967SOL    HW212801   1.047   4.614   2.508
 3968SOL     OW12802   6.342   0.934   1.119
 3968SOL    HW112803   6.291   0.906   1.038
 3968SOL    HW212804   6.284   0.992   1.176
 3969SOL     OW12805   0.185   3.858   2.818
 3969SOL    HW112806   0.276   3.881   2.852
 3969SOL    HW212807   0.122   3.933   2.839
 3970SOL     OW12808   4.772   5.235   3.553
 3970SOL    HW112809   4.765   5.321   3.501
 3970SOL    HW212810   4.818   5.252   3.640
 3971SOL     OW12811   2.657   5.381   2.364
 3971SOL    HW112812   2.707   5.299   2.335
 3971SOL    HW212813   2.587   5.356   2.430
 3972SOL     OW12814   1.224   5.604   1.292
 3972SOL    HW112815   1.324   5.600   1.287
 3972SOL    HW212816   1.188   5.514   1.320
 3973SOL     OW12817   2.757   3.418   5.253
 3973SOL    HW112818   2.771   3.392   5.158
 3973SOL    HW212819   2.725   3.338   5.305
 3974SOL     OW12820   1.220   0.415   5.615
 3974SOL    HW112821   1.217   0.375   5.524
 3974SOL    HW212822   1.309   0.457   5.630
 3975SOL     OW12823   6.016   6.958   6.474
 3975SOL    HW112824   5.950   0.006   6.455
 3975SOL    HW212825   5.968   6.873   6.493
 3976SOL     OW12826   1.997   4.863   1.238
 3976SOL    HW112827   1.905   4.886   1.268
 3976SOL    HW212828   2.017   4.909   1.152
 3977SOL     OW12829   3.319   4.888   5.746
 3977SOL    HW112830   3.386   4.817   5.724
 3977SOL    HW212831   3.257   4.901   5.668
 3978SOL     OW12832   5.499   0.330   4.356
 3978SOL    HW112833   5.582   0.279   4.331
 3978SOL    HW212834   5.440   0.272   4.412
 3979SOL     OW12835   2.439   6.457   1.613
 3979SOL    HW112836   2.537   6.470   1.627
 3979SOL    HW212837   2.415   6.479   1.519
 3980SOL     OW12838   0.043   4.669   5.568
 3980SOL    HW112839   0.073   4.633   5.657
 3980SOL    HW212840   0.073   4.764   5.559
 3981SOL     OW12841   1.366   1.836   6.183
 3981SOL    HW112842   1.341   1.917   6.236
 3981SOL    HW212843   1.465   1.820   6.191
 3982SOL     OW12844   2.938   0.631   4.083
 3982SOL    HW112845   3.037   0.620   4.085
 3982SOL    HW212846   2.896   0.571   4.152
 3983SOL     OW12847   3.062   6.063   4.401
 3983SOL    HW112848   3.108   6.134   4.456
 3983SOL    HW212849   3.089   5.973   4.435
 3984SOL     OW12850   2.450   0.821   1.959
 3984SOL    HW112851   2.526   0.763   1.931
 3984SOL    HW212852   2.364   0.780   1.929
 3985SOL     OW12853   2.637   4.050   0.144
 3985SOL    HW112854   2.556   4.013   0.190
 3985SOL    HW212855   2.709   3.980   0.142
 3986SOL     OW12856   0.337   1.557   3.520
 3986SOL    HW112857   0.323   1.474   3.467
 3986SOL    HW212858   0.386   1.535   3.605
 3987SOL     OW12859   1.381   5.254   4.774
 3987SOL    HW112860   1.362   5.179   4.837
 3987SOL    HW212861   1.316   5.328   4.789
 3988SOL     OW12862   3.314   2.565   5.654
 3988SOL    HW112863   3.268   2.564   5.743
 3988SOL    HW212864   3.411   2.543   5.665
 3989SOL     OW12865   6.244   0.864   6.983
 3989SOL    HW112866   6.333   0.850   6.940
 3989SOL    HW212867   6.215   0.781   0.004
 3990SOL     OW12868   5.979   1.630   4.172
 3990SOL    HW112869   6.039   1.551   4.160
 3990SOL    HW212870   5.996   1.696   4.099
 3991SOL     OW12871   6.726   2.409   3.366
 3991SOL    HW112872   6.710   2.470   3.288
 3991SOL    HW212873   6.659   2.335   3.365
 3992SOL     OW12874   4.556   2.124   6.163
 3992SOL    HW112875   4.531   2.048   6.104
 3992SOL    HW212876   4.584   2.090   6.253
 3993SOL     OW12877   1.549   2.079   3.431
 3993SOL    HW112878   1.493   2.155   3.398
 3993SOL    HW212879   1.491   2.004   3.461
 3994SOL     OW12880   1.439   2.621   5.037
 3994SOL    HW112881   1.440   2.586   5.130
 3994SOL    HW212882   1.345   2.639   5.008
 3995SOL     OW12883   2.263   4.053   3.894
 3995SOL    HW112884   2.226   3.969   3.934
 3995SOL    HW212885   2.275   4.040   3.795
 3996SOL     OW12886   1.402   0.794   4.988
 3996SOL    HW112887   1.447   0.788   5.077
 3996SOL    HW212888   1.303   0.785   5.000
 3997SOL     OW12889   4.871   3.696   3.442
 3997SOL    HW112890   4.907   3.610   3.407
 3997SOL    HW212891   4.832   3.750   3.367
 3998SOL     OW12892   5.285   1.729   1.998
 3998SOL    HW112893   5.374   1.712   2.040
 3998SOL    HW212894   5.294   1.727   1.898
 3999SOL     OW12895   5.525   3.856   3.216
 3999SOL    HW112896   5.455   3.842   3.285
 3999SOL    HW212897   5.614   3.868   3.261
 4000SOL     OW12898   3.132   5.628   2.652
 4000SOL    HW112899   3.101   5.680   2.572
 4000SOL    HW212900   3.232   5.622   2.652
 4001SOL     OW12901   2.559   2.572   4.732
 4001SOL    HW112902   2.527   2.656   4.777
 4001SOL    HW212903   2.651   2.550   4.764
 4002SOL     OW12904   3.684   3.747   6.152
 4002SOL    HW112905   3.677   3.768   6.250
 4002SOL    HW212906   3.659   3.651   6.136
 4003SOL     OW12907   2.293   0.232   5.937
 4003SOL    HW112908   2.345   0.258   5.855
 4003SOL    HW212909   2.209   0.286   5.941
 4004SOL     OW12910   6.158   3.034   4.163
 4004SOL    HW112911   6.187   3.123   4.199
 4004SOL    HW212912   6.158   3.037   4.063
 4005SOL     OW12913   5.171   4.800   1.202
 4005SOL    HW112914   5.159   4.817   1.300
 4005SOL    HW212915   5.242   4.860   1.166
 4006SOL     OW12916   4.536   5.045   2.107
 4006SOL    HW112917   4.441   5.053   2.136
 4006SOL    HW212918   4.593   5.020   2.186
 4007SOL     OW12919   0.851   2.687   2.248
 4007SOL    HW112920   0.940   2.732   2.260
 4007SOL    HW212921   0.830   2.680   2.151
 4008SOL     OW12922   3.962   1.483   5.810
 4008SOL    HW112923   4.036   1.435   5.762
 4008SOL    HW212924   3.999   1.566   5.851
 4009SOL     OW12925   4.704   2.818   0.400
 4009SOL    HW112926   4.664   2.757   0.468
 4009SOL    HW212927   4.747   2.896   0.446
 4010SOL     OW12928   2.221   3.305   1.344
 4010SOL    HW112929   2.291   3.360   1.389
 4010SOL    HW212930   2.206   3.339   1.251
 4011SOL     OW12931   1.155   6.812   2.181
 4011SOL    HW112932   1.164   6.760   2.096
 4011SOL    HW212933   1.066   6.794   2.222
 4012SOL     OW12934   4.741   4.842   1.743
 4012SOL    HW112935   4.671   4.803   1.805
 4012SOL    HW212936   4.832   4.817   1.777
 4013SOL     OW12937   3.107   0.542   1.128
 4013SOL    HW112938   3.064   0.485   1.197
 4013SOL    HW212939   3.146   0.484   1.056
 4014SOL     OW12940   3.740   5.745   4.272
 4014SOL    HW112941   3.696   5.667   4.315
 4014SOL    HW212942   3.672   5.800   4.224
 4015SOL     OW12943   3.978   4.877   6.607
 4015SOL    HW112944   4.068   4.856   6.644
 4015SOL    HW212945   3.987   4.937   6.528
 4016SOL     OW12946   1.473   5.104   6.684
 4016SOL    HW112947   1.416   5.051   6.622
 4016SOL    HW212948   1.569   5.082   6.668
 4017SOL     OW12949   0.709   6.198   6.823
 4017SOL    HW112950   0.698   6.297   6.838
 4017SOL    HW212951   0.806   6.174   6.832
 4018SOL     OW12952   5.556   6.338   1.535
 4018SOL    HW112953   5.555   6.340   1.435
 4018SOL    HW212954   5.651   6.329   1.567
 4019SOL     OW12955   6.285   4.028   2.358
 4019SOL    HW112956   6.262   4.074   2.443
 4019SOL    HW212957   6.361   3.964   2.373
 4020SOL     OW12958   6.821   2.472   5.531
 4020SOL    HW112959   6.746   2.405   5.528
 4020SOL    HW212960   6.787   2.558   5.569
 4021SOL     OW12961   3.151   3.751   4.967
 4021SOL    HW112962   3.155   3.839   5.015
 4021SOL    HW212963   3.239   3.704   4.978
 4022SOL     OW12964   4.675   6.963   6.634
 4022SOL    HW112965   4.698   6.962   6.537
 4022SOL    HW212966   4.743   6.911   6.686
 4023SOL     OW12967   6.893   0.744   3.878
 4023SOL    HW112968   6.856   0.800   3.804
 4023SOL    HW212969   6.826   0.676   3.905
 4024SOL     OW12970   2.647   5.256   4.341
 4024SOL    HW112971   2.647   5.343   4.292
 4024SOL    HW212972   2.571   5.199   4.310
 4025SOL     OW12973   0.271   6.361   4.451
 4025SOL    HW112974   0.315   6.277   4.419
 4025SOL    HW212975   0.265   6.426   4.376
 4026SOL     OW12976   6.140   0.247   2.971
 4026SOL    HW112977   6.054   0.263   2.921
 4026SOL    HW212978   6.179   0.334   2.998
 4027SOL     OW12979   2.500   2.782   1.050
 4027SOL    HW112980   2.500   2.876   1.084
 4027SOL    HW212981   2.511   2.782   0.951
 4028SOL     OW12982   2.581   2.214   2.970
 4028SOL    HW112983   2.597   2.242   2.875
 4028SOL    HW212984   2.507   2.270   3.009
 4029SOL     OW12985   3.260   5.250   5.929
 4029SOL    HW112986   3.289   5.246   5.833
 4029SOL    HW212987   3.169   5.212   5.938
 4030SOL     OW12988   1.124   1.651   1.237
 4030SOL    HW112989   1.086   1.567   1.199
 4030SOL    HW212990   1.078   1.730   1.197
 4031SOL     OW12991   4.990   6.297   3.427
 4031SOL    HW112992   5.074   6.243   3.433
 4031SOL    HW212993   4.911   6.236   3.425
 4032SOL     OW12994   6.152   0.364   2.297
 4032SOL    HW112995   6.238   0.317   2.275
 4032SOL    HW212996   6.130   0.428   2.224
 4033SOL     OW12997   2.442   3.795   1.533
 4033SOL    HW112998   2.420   3.754   1.444
 4033SOL    HW212999   2.529   3.759   1.565
 4034SOL     OW13000   6.908   1.393   4.573
 4034SOL    HW113001   6.886   1.295   4.582
 4034SOL    HW213002   6.843   1.447   4.627
 4035SOL     OW13003   6.430   2.543   0.714
 4035SOL    HW113004   6.437   2.574   0.619
 4035SOL    HW213005   6.407   2.620   0.773
 4036SOL     OW13006   4.508   5.691   2.356
 4036SOL    HW113007   4.451   5.710   2.436
 4036SOL    HW213008   4.598   5.661   2.386
 4037SOL     OW13009   2.400   1.372   0.398
 4037SOL    HW113010   2.478   1.366   0.460
 4037SOL    HW213011   2.411   1.306   0.324
 4038SOL     OW13012   4.601   3.816   1.556
 4038SOL    HW113013   4.610   3.892   1.620
 4038SOL    HW213014   4.515   3.768   1.572
 4039SOL     OW13015   4.593   4.028   1.706
 4039SOL    HW113016   4.612   4.116   1.662
 4039SOL    HW213017   4.501   4.029   1.744
 4040SOL     OW13018   3.524   6.902   6.019
 4040SOL    HW113019   3.531   7.001   6.031
 4040SOL    HW213020   3.614   6.865   5.998
 4041SOL     OW13021   1.888   5.139   1.384
 4041SOL    HW113022   1.834   5.212   1.426
 4041SOL    HW213023   1.967   5.118   1.442
 4042SOL     OW13024   6.468   5.665   3.098
 4042SOL    HW113025   6.494   5.580   3.052
 4042SOL    HW213026   6.410   5.719   3.037
 4043SOL     OW13027   5.466   1.497   4.255
 4043SOL    HW113028   5.450   1.399   4.264
 4043SOL    HW213029   5.548   1.523   4.307
 4044SOL     OW13030   4.707   0.237   3.071
 4044SOL    HW113031   4.674   0.276   3.157
 4044SOL    HW213032   4.646   0.263   2.996
 4045SOL     OW13033   2.717   5.576   5.477
 4045SOL    HW113034   2.618   5.590   5.472
 4045SOL    HW213035   2.753   5.565   5.385
 4046SOL     OW13036   1.204   1.741   4.035
 4046SOL    HW113037   1.148   1.824   4.043
 4046SOL    HW213038   1.164   1.669   4.092
 4047SOL     OW13039   1.485   1.602   0.863
 4047SOL    HW113040   1.543   1.671   0.906
 4047SOL    HW213041   1.405   1.586   0.921
 4048SOL     OW13042   5.112   2.220   2.057
 4048SOL    HW113043   5.117   2.153   2.131
 4048SOL    HW213044   5.041   2.191   1.992
 4049SOL     OW13045   6.457   5.314   5.863
 4049SOL    HW113046   6.436   5.217   5.870
 4049SOL    HW213047   6.419   5.350   5.778
 4050SOL     OW13048   1.570   6.764   1.053
 4050SOL    HW113049   1.606   6.842   1.104
 4050SOL    HW213050   1.643   6.699   1.034
 4051SOL     OW13051   3.926   2.391   6.898
 4051SOL    HW113052   3.907   2.364   6.992
 4051SOL    HW213053   3.856   2.455   6.867
 4052SOL     OW13054   6.946   1.078   2.413
 4052SOL    HW113055   6.919   1.067   2.508
 4052SOL    HW213056   6.932   1.173   2.385
 4053SOL     OW13057   3.260   4.883   4.098
 4053SOL    HW113058   3.174   4.833   4.098
 4053SOL    HW213059   3.270   4.934   4.012
 4054SOL     OW13060   6.691   3.742   1.680
 4054SOL    HW113061   6.690   3.740   1.580
 4054SOL    HW213062   6.769   3.797   1.711
 4055SOL     OW13063   3.365   3.118   6.489
 4055SOL    HW113064   3.411   3.129   6.401
 4055SOL    HW213065   3.274   3.078   6.475
 4056SOL     OW13066   3.638   4.020   0.977
 4056SOL    HW113067   3.590   4.096   1.021
 4056SOL    HW213068   3.675   4.051   0.889
 4057SOL     OW13069   5.516   2.435   1.625
 4057SOL    HW113070   5.515   2.339   1.654
 4057SOL    HW213071   5.428   2.458   1.583
 4058SOL     OW13072   1.832   0.476   3.972
 4058SOL    HW113073   1.931   0.471   3.958
 4058SOL    HW213074   1.806   0.412   4.045
 4059SOL     OW13075   1.241   2.462   3.734
 4059SOL    HW113076   1.272   2.556   3.720
 4059SOL    HW213077   1.160   2.445   3.678
 4060SOL     OW13078   4.889   5.784   4.526
 4060SOL    HW113079   4.867   5.880   4.507
 4060SOL    HW213080   4.818   5.725   4.487
 4061SOL     OW13081   2.795   4.934   1.607
 4061SOL    HW113082   2.832   4.904   1.695
 4061SOL    HW213083   2.870   4.944   1.542
 4062SOL     OW13084   2.358   2.347   1.981
 4062SOL    HW113085   2.295   2.296   2.039
 4062SOL    HW213086   2.436   2.378   2.036
 4063SOL     OW13087   6.319   6.247   5.324
 4063SOL    HW113088   6.250   6.193   5.371
 4063SOL    HW213089   6.297   6.344   5.331
 4064SOL     OW13090   1.554   6.891   3.597
 4064SOL    HW113091   1.585   6.842   3.678
 4064SOL    HW213092   1.590   6.985   3.598
 4065SOL     OW13093   0.368   0.091   1.060
 4065SOL    HW113094   0.324   0.180   1.055
 4065SOL    HW213095   0.298   0.020   1.068
 4066SOL     OW13096   5.399   5.981   3.070
 4066SOL    HW113097   5.348   6.065   3.089
 4066SOL    HW213098   5.334   5.906   3.053
 4067SOL     OW13099   6.486   3.072   2.847
 4067SOL    HW113100   6.446   3.163   2.861
 4067SOL    HW213101   6.526   3.040   2.933
 4068SOL     OW13102   3.393   0.420   4.880
 4068SOL    HW113103   3.298   0.415   4.848
 4068SOL    HW213104   3.454   0.389   4.808
 4069SOL     OW13105   3.584   5.113   6.245
 4069SOL    HW113106   3.641   5.118   6.327
 4069SOL    HW213107   3.557   5.019   6.229
 4070SOL     OW13108   0.703   3.445   2.168
 4070SOL    HW113109   0.657   3.497   2.097
 4070SOL    HW213110   0.794   3.418   2.135
 4071SOL     OW13111   1.555   0.985   5.315
 4071SOL    HW113112   1.606   1.039   5.249
 4071SOL    HW213113   1.580   1.013   5.408
 4072SOL     OW13114   0.384   5.776   4.067
 4072SOL    HW113115   0.309   5.722   4.105
 4072SOL    HW213116   0.443   5.806   4.142
 4073SOL     OW13117   2.342   6.109   6.393
 4073SOL    HW113118   2.265   6.073   6.340
 4073SOL    HW213119   2.312   6.188   6.446
 4074SOL     OW13120   6.861   2.845   2.065
 4074SOL    HW113121   6.955   2.829   2.036
 4074SOL    HW213122   6.831   2.769   2.123
 4075SOL     OW13123   4.040   1.837   2.716
 4075SOL    HW113124   3.989   1.780   2.780
 4075SOL    HW213125   4.056   1.786   2.631
 4076SOL     OW13126   3.035   3.396   5.778
 4076SOL    HW113127   3.088   3.351   5.706
 4076SOL    HW213128   3.025   3.493   5.758
 4077SOL     OW13129   3.284   0.390   0.212
 4077SOL    HW113130   3.291   0.463   0.280
 4077SOL    HW213131   3.346   0.315   0.237
 4078SOL     OW13132   6.436   5.383   2.127
 4078SOL    HW113133   6.449   5.342   2.217
 4078SOL    HW213134   6.457   5.481   2.132
 4079SOL     OW13135   0.934   2.103   3.993
 4079SOL    HW113136   1.022   2.072   4.027
 4079SOL    HW213137   0.895   2.169   4.058
 4080SOL     OW13138   2.905   3.604   6.837
 4080SOL    HW113139   2.899   3.548   6.920
 4080SOL    HW213140   2.832   3.673   6.839
 4081SOL     OW13141   2.381   1.948   4.144
 4081SOL    HW113142   2.480   1.957   4.131
 4081SOL    HW213143   2.335   1.949   4.055
 4082SOL     OW13144   1.495   2.649   0.255
 4082SOL    HW113145   1.569   2.656   0.322
 4082SOL    HW213146   1.428   2.582   0.286
 4083SOL     OW13147   6.688   4.829   2.087
 4083SOL    HW113148   6.777   4.839   2.131
 4083SOL    HW213149   6.624   4.896   2.125
 4084SOL     OW13150   4.379   2.294   2.875
 4084SOL    HW113151   4.386   2.370   2.940
 4084SOL    HW213152   4.466   2.244   2.872
 4085SOL     OW13153   2.833   5.991   0.617
 4085SOL    HW113154   2.844   5.943   0.704
 4085SOL    HW213155   2.743   5.971   0.579
 4086SOL     OW13156   0.647   4.892   1.427
 4086SOL    HW113157   0.647   4.801   1.386
 4086SOL    HW213158   0.626   4.960   1.356
 4087SOL     OW13159   1.687   1.564   3.457
 4087SOL    HW113160   1.587   1.572   3.457
 4087SOL    HW213161   1.718   1.539   3.365
 4088SOL     OW13162   6.496   0.829   6.839
 4088SOL    HW113163   6.458   0.876   6.760
 4088SOL    HW213164   6.596   0.840   6.840
 4089SOL     OW13165   5.956   4.715   3.784
 4089SOL    HW113166   5.859   4.709   3.805
 4089SOL    HW213167   6.005   4.639   3.828
 4090SOL     OW13168   1.318   5.030   5.008
 4090SOL    HW113169   1.297   4.952   5.065
 4090SOL    HW213170   1.343   5.108   5.065
 4091SOL     OW13171   0.986   6.207   6.873
 4091SOL    HW113172   1.033   6.285   6.914
 4091SOL    HW213173   1.032   6.122   6.899
 4092SOL     OW13174   5.847   2.659   4.145
 4092SOL    HW113175   5.795   2.642   4.229
 4092SOL    HW213176   5.911   2.584   4.129
 4093SOL     OW13177   5.121   6.045   1.772
 4093SOL    HW113178   5.028   6.079   1.783
 4093SOL    HW213179   5.186   6.116   1.800
 4094SOL     OW13180   1.669   4.955   5.835
 4094SOL    HW113181   1.629   4.869   5.867
 4094SOL    HW213182   1.744   4.935   5.772
 4095SOL     OW13183   0.747   4.033   0.687
 4095SOL    HW113184   0.688   3.963   0.726
 4095SOL    HW213185   0.720   4.123   0.721
 4096SOL     OW13186   4.855   0.946   6.802
 4096SOL    HW113187   4.945   0.988   6.794
 4096SOL    HW213188   4.803   0.962   6.718
 4097SOL     OW13189   4.225   4.854   4.477
 4097SOL    HW113190   4.249   4.854   4.574
 4097SOL    HW213191   4.208   4.948   4.447
 4098SOL     OW13192   0.543   1.852   2.153
 4098SOL    HW113193   0.625   1.869   2.099
 4098SOL    HW213194   0.564   1.791   2.229
 4099SOL     OW13195   3.860   5.446   1.461
 4099SOL    HW113196   3.836   5.533   1.503
 4099SOL    HW213197   3.795   5.424   1.389
 4100SOL     OW13198   6.819   6.465   4.286
 4100SOL    HW113199   6.832   6.493   4.381
 4100SOL    HW213200   6.842   6.541   4.225
 4101SOL     OW13201   6.981   0.967   0.047
 4101SOL    HW113202   6.888   0.971   0.082
 4101SOL    HW213203   7.014   1.060   0.029
 4102SOL     OW13204   0.850   0.986   0.876
 4102SOL    HW113205   0.824   1.077   0.843
 4102SOL    HW213206   0.950   0.975   0.871
 4103SOL     OW13207   0.307   6.787   0.437
 4103SOL    HW113208   0.275   6.748   0.350
 4103SOL    HW213209   0.285   6.724   0.511
 4104SOL     OW13210   6.703   5.396   2.697
 4104SOL    HW113211   6.782   5.420   2.754
 4104SOL    HW213212   6.733   5.380   2.603
 4105SOL     OW13213   5.673   0.113   2.408
 4105SOL    HW113214   5.605   0.168   2.455
 4105SOL    HW213215   5.701   0.037   2.468
 4106SOL     OW13216   6.928   3.079   3.037
 4106SOL    HW113217   6.872   3.126   3.105
 4106SOL    HW213218   6.951   2.988   3.070
 4107SOL     OW13219   1.338   5.211   1.131
 4107SOL    HW113220   1.347   5.243   1.226
 4107SOL    HW213221   1.422   5.165   1.103
 4108SOL     OW13222   6.635   5.582   4.697
 4108SOL    HW113223   6.559   5.530   4.658
 4108SOL    HW213224   6.599   5.660   4.748
 4109SOL     OW13225   6.635   6.872   4.490
 4109SOL    HW113226   6.648   6.820   4.575
 4109SOL    HW213227   6.715   6.861   4.432
 4110SOL     OW13228   4.366   3.910   5.646
 4110SOL    HW113229   4.316   3.824   5.649
 4110SOL    HW213230   4.438   3.909   5.715
 4111SOL     OW13231   5.343   4.350   6.335
 4111SOL    HW113232   5.283   4.273   6.313
 4111SOL    HW213233   5.290   4.435   6.329
 4112SOL     OW13234   4.710   6.253   5.060
 4112SOL    HW113235   4.702   6.260   5.160
 4112SOL    HW213236   4.733   6.342   5.022
 4113SOL     OW13237   5.467   5.719   4.832
 4113SOL    HW113238   5.404   5.684   4.763
 4113SOL    HW213239   5.504   5.807   4.802
 4114SOL     OW13240   4.313   2.335   4.174
 4114SOL    HW113241   4.221   2.315   4.206
 4114SOL    HW213242   4.371   2.360   4.252
 4115SOL     OW13243   3.045   5.234   2.285
 4115SOL    HW113244   3.058   5.245   2.384
 4115SOL    HW213245   3.125   5.188   2.246
 4116SOL     OW13246   3.692   1.397   2.611
 4116SOL    HW113247   3.787   1.398   2.640
 4116SOL    HW213248   3.650   1.487   2.630
 4117SOL     OW13249   1.224   3.757   2.541
 4117SOL    HW113250   1.157   3.802   2.482
 4117SOL    HW213251   1.261   3.677   2.493
 4118SOL     OW13252   4.875   6.254   0.728
 4118SOL    HW113253   4.800   6.189   0.718
 4118SOL    HW213254   4.962   6.205   0.726
 4119SOL     OW13255   3.306   1.741   4.033
 4119SOL    HW113256   3.353   1.821   3.997
 4119SOL    HW213257   3.305   1.746   4.133
 4120SOL     OW13258   4.521   0.629   6.125
 4120SOL    HW113259   4.561   0.624   6.216
 4120SOL    HW213260   4.483   0.540   6.099
 4121SOL     OW13261   6.339   6.930   3.421
 4121SOL    HW113262   6.332   7.022   3.461
 4121SOL    HW213263   6.329   6.936   3.322
 4122SOL     OW13264   1.284   6.157   4.360
 4122SOL    HW113265   1.265   6.158   4.262
 4122SOL    HW213266   1.224   6.221   4.407
 4123SOL     OW13267   4.269   4.627   5.425
 4123SOL    HW113268   4.275   4.710   5.481
 4123SOL    HW213269   4.173   4.597   5.420
 4124SOL     OW13270   6.397   6.517   0.522
 4124SOL    HW113271   6.453   6.548   0.445
 4124SOL    HW213272   6.431   6.428   0.554
 4125SOL     OW13273   4.556   1.925   2.550
 4125SOL    HW113274   4.489   1.877   2.493
 4125SOL    HW213275   4.629   1.861   2.575
 4126SOL     OW13276   1.712   3.380   3.641
 4126SOL    HW113277   1.639   3.449   3.637
 4126SOL    HW213278   1.741   3.368   3.735
 4127SOL     OW13279   5.605   3.743   5.744
 4127SOL    HW113280   5.612   3.651   5.706
 4127SOL    HW213281   5.556   3.740   5.831
 4128SOL     OW13282   0.940   3.002   1.002
 4128SOL    HW113283   1.028   2.975   0.964
 4128SOL    HW213284   0.936   2.977   1.099
 4129SOL     OW13285   3.732   1.042   0.076
 4129SOL    HW113286   3.656   1.044   0.011
 4129SOL    HW213287   3.798   1.113   0.052
 4130SOL     OW13288   6.547   2.865   0.733
 4130SOL    HW113289   6.508   2.948   0.694
 4130SOL    HW213290   6.581   2.883   0.825
 4131SOL     OW13291   0.093   1.563   3.779
 4131SOL    HW113292   0.091   1.464   3.767
 4131SOL    HW213293   0.010   1.593   3.826
 4132SOL     OW13294   4.786   4.070   3.496
 4132SOL    HW113295   4.810   4.011   3.419
 4132SOL    HW213296   4.735   4.150   3.464
 4133SOL     OW13297   3.240   6.004   1.430
 4133SOL    HW113298   3.275   5.943   1.359
 4133SOL    HW213299   3.156   6.048   1.397
 4134SOL     OW13300   2.670   4.239   1.306
 4134SOL    HW113301   2.711   4.260   1.217
 4134SOL    HW213302   2.574   4.268   1.306
 4135SOL     OW13303   0.409   2.336   2.056
 4135SOL    HW113304   0.490   2.287   2.024
 4135SOL    HW213305   0.433   2.389   2.137
 4136SOL     OW13306   1.381   3.129   3.202
 4136SOL    HW113307   1.367   3.072   3.283
 4136SOL    HW213308   1.410   3.220   3.229
 4137SOL     OW13309   1.149   3.434   1.651
 4137SOL    HW113310   1.228   3.480   1.692
 4137SOL    HW213311   1.180   3.374   1.577
 4138SOL     OW13312   4.132   5.952   2.611
 4138SOL    HW113313   4.175   5.876   2.562
 4138SOL    HW213314   4.138   5.936   2.709
 4139SOL     OW13315   2.096   1.709   5.133
 4139SOL    HW113316   2.168   1.756   5.185
 4139SOL    HW213317   2.012   1.764   5.136
 4140SOL     OW13318   3.071   0.519   5.513
 4140SOL    HW113319   3.092   0.608   5.473
 4140SOL    HW213320   3.156   0.468   5.529
 4141SOL     OW13321   4.964   6.760   1.033
 4141SOL    HW113322   4.948   6.855   1.060
 4141SOL    HW213323   4.989   6.757   0.936
 4142SOL     OW13324   6.724   5.027   0.953
 4142SOL    HW113325   6.746   5.013   0.857
 4142SOL    HW213326   6.625   5.022   0.966
 4143SOL     OW13327   5.476   1.573   0.744
 4143SOL    HW113328   5.533   1.498   0.710
 4143SOL    HW213329   5.488   1.581   0.843
 4144SOL     OW13330   5.341   1.520   0.275
 4144SOL    HW113331   5.341   1.485   0.182
 4144SOL    HW213332   5.434   1.546   0.300
 4145SOL     OW13333   0.178   6.253   1.664
 4145SOL    HW113334   0.194   6.351   1.653
 4145SOL    HW213335   0.083   6.232   1.643
 4146SOL     OW13336   6.532   0.427   2.768
 4146SOL    HW113337   6.625   0.447   2.799
 4146SOL    HW213338   6.481   0.513   2.759
 4147SOL     OW13339   5.058   4.757   6.015
 4147SOL    HW113340   4.986   4.754   5.945
 4147SOL    HW213341   5.018   4.740   6.105
 4148SOL     OW13342   1.984   0.334   4.770
 4148SOL    HW113343   1.988   0.282   4.685
 4148SOL    HW213344   2.007   0.429   4.752
 4149SOL     OW13345   0.176   4.311   0.952
 4149SOL    HW113346   0.252   4.258   0.989
 4149SOL    HW213347   0.209   4.401   0.923
 4150SOL     OW13348   1.346   6.754   5.997
 4150SOL    HW113349   1.328   6.832   5.938
 4150SOL    HW213350   1.360   6.672   5.941
 4151SOL     OW13351   3.235   6.639   5.719
 4151SOL    HW113352   3.164   6.612   5.785
 4151SOL    HW213353   3.249   6.564   5.654
 4152SOL     OW13354   4.545   5.865   1.017
 4152SOL    HW113355   4.627   5.809   1.004
 4152SOL    HW213356   4.466   5.816   0.982
 4153SOL     OW13357   5.617   4.953   0.457
 4153SOL    HW113358   5.596   5.045   0.489
 4153SOL    HW213359   5.580   4.886   0.522
 4154SOL     OW13360   7.013   5.071   3.184
 4154SOL    HW113361   0.015   5.127   3.263
 4154SOL    HW213362   0.045   5.096   3.105
 4155SOL     OW13363   7.010   1.501   2.449
 4155SOL    HW113364   0.060   1.478   2.512
 4155SOL    HW213365   6.999   1.601   2.446
 4156SOL     OW13366   5.975   5.965   4.585
 4156SOL    HW113367   5.941   6.043   4.534
 4156SOL    HW213368   5.977   5.987   4.682
 4157SOL     OW13369   5.062   5.392   4.040
 4157SOL    HW113370   5.117   5.323   4.088
 4157SOL    HW213371   4.988   5.423   4.100
 4158SOL     OW13372   0.038   3.216   1.291
 4158SOL    HW113373   6.964   3.234   1.284
 4158SOL    HW213374   0.063   3.206   1.387
 4159SOL     OW13375   2.128   3.337   3.095
 4159SOL    HW113376   2.028   3.338   3.095
 4159SOL    HW213377   2.162   3.372   3.183
 4160SOL     OW13378   5.672   1.013   0.479
 4160SOL    HW113379   5.758   1.003   0.529
 4160SOL    HW213380   5.605   0.948   0.515
 4161SOL     OW13381   0.787   2.302   1.113
 4161SOL    HW113382   0.812   2.397   1.133
 4161SOL    HW213383   0.868   2.244   1.119
 4162SOL     OW13384   6.775   5.679   0.229
 4162SOL    HW113385   6.800   5.750   0.162
 4162SOL    HW213386   6.785   5.589   0.187
 4163SOL     OW13387   4.501   0.322   2.905
 4163SOL    HW113388   4.417   0.277   2.873
 4163SOL    HW213389   4.513   0.408   2.857
 4164SOL     OW13390   1.765   6.680   5.645
 4164SOL    HW113391   1.812   6.649   5.727
 4164SOL    HW213392   1.671   6.705   5.668
 4165SOL     OW13393   4.398   0.350   6.106
 4165SOL    HW113394   4.378   0.334   6.009
 4165SOL    HW213395   4.476   0.293   6.134
 4166SOL     OW13396   5.346   2.461   0.367
 4166SOL    HW113397   5.365   2.397   0.293
 4166SOL    HW213398   5.427   2.472   0.424
 4167SOL     OW13399   1.849   4.282   0.780
 4167SOL    HW113400   1.872   4.186   0.764
 4167SOL    HW213401   1.901   4.340   0.717
 4168SOL     OW13402   0.058   4.527   1.154
 4168SOL    HW113403   7.003   4.583   1.177
 4168SOL    HW213404   0.027   4.441   1.114
 4169SOL     OW13405   6.024   4.784   4.768
 4169SOL    HW113406   6.084   4.742   4.701
 4169SOL    HW213407   6.052   4.756   4.860
 4170SOL     OW13408   4.468   3.576   5.948
 4170SOL    HW113409   4.495   3.484   5.975
 4170SOL    HW213410   4.410   3.616   6.019
 4171SOL     OW13411   6.338   6.003   1.036
 4171SOL    HW113412   6.313   5.906   1.037
 4171SOL    HW213413   6.275   6.053   0.977
 4172SOL     OW13414   1.308   1.543   6.194
 4172SOL    HW113415   1.330   1.634   6.160
 4172SOL    HW213416   1.215   1.543   6.231
 4173SOL     OW13417   5.343   4.410   5.001
 4173SOL    HW113418   5.248   4.384   4.984
 4173SOL    HW213419   5.401   4.328   4.995
 4174SOL     OW13420   4.890   1.530   2.873
 4174SOL    HW113421   4.825   1.574   2.936
 4174SOL    HW213422   4.960   1.482   2.925
 4175SOL     OW13423   2.333   5.343   4.565
 4175SOL    HW113424   2.298   5.350   4.659
 4175SOL    HW213425   2.402   5.270   4.562
 4176SOL     OW13426   3.098   5.872   2.060
 4176SOL    HW113427   3.196   5.859   2.070
 4176SOL    HW213428   3.069   5.844   1.968
 4177SOL     OW13429   6.005   5.032   5.149
 4177SOL    HW113430   6.104   5.041   5.141
 4177SOL    HW213431   5.978   5.044   5.244
 4178SOL     OW13432   4.703   6.648   4.409
 4178SOL    HW113433   4.710   6.621   4.504
 4178SOL    HW213434   4.794   6.662   4.371
 4179SOL     OW13435   5.508   3.556   3.478
 4179SOL    HW113436   5.469   3.632   3.427
 4179SOL    HW213437   5.588   3.520   3.429
 4180SOL     OW13438   5.235   4.561   1.420
 4180SOL    HW113439   5.323   4.605   1.438
 4180SOL    HW213440   5.238   4.466   1.450
 4181SOL     OW13441   3.009   1.173   0.599
 4181SOL    HW113442   3.016   1.082   0.558
 4181SOL    HW213443   3.023   1.166   0.698
 4182SOL     OW13444   0.931   0.059   3.627
 4182SOL    HW113445   0.955   7.018   3.556
 4182SOL    HW213446   0.919   0.012   3.714
 4183SOL     OW13447   3.332   1.200   0.193
 4183SOL    HW113448   3.291   1.278   0.146
 4183SOL    HW213449   3.322   1.211   0.292
 4184SOL     OW13450   4.383   5.860   1.444
 4184SOL    HW113451   4.452   5.920   1.402
 4184SOL    HW213452   4.427   5.804   1.515
 4185SOL     OW13453   0.895   4.793   2.290
 4185SOL    HW113454   0.966   4.848   2.334
 4185SOL    HW213455   0.854   4.732   2.358
 4186SOL     OW13456   2.914   5.181   0.354
 4186SOL    HW113457   2.819   5.172   0.322
 4186SOL    HW213458   2.951   5.090   0.372
 4187SOL     OW13459   3.603   2.905   5.712
 4187SOL    HW113460   3.505   2.885   5.713
 4187SOL    HW213461   3.632   2.932   5.804
 4188SOL     OW13462   4.730   0.217   5.244
 4188SOL    HW113463   4.762   0.282   5.312
 4188SOL    HW213464   4.674   0.147   5.288
 4189SOL     OW13465   2.908   4.941   5.378
 4189SOL    HW113466   2.892   4.950   5.280
 4189SOL    HW213467   2.837   4.991   5.428
 4190SOL     OW13468   1.102   0.729   0.292
 4190SOL    HW113469   1.017   0.737   0.344
 4190SOL    HW213470   1.173   0.689   0.349
 4191SOL     OW13471   4.618   4.352   3.449
 4191SOL    HW113472   4.638   4.310   3.361
 4191SOL    HW213473   4.565   4.435   3.436
 4192SOL     OW13474   0.964   0.760   4.275
 4192SOL    HW113475   1.038   0.696   4.295
 4192SOL    HW213476   0.878   0.723   4.308
 4193SOL     OW13477   0.501   0.963   1.934
 4193SOL    HW113478   0.548   1.027   1.873
 4193SOL    HW213479   0.563   0.887   1.956
 4194SOL     OW13480   5.604   0.576   4.376
 4194SOL    HW113481   5.658   0.607   4.298
 4194SOL    HW213482   5.557   0.491   4.352
 4195SOL     OW13483   3.869   6.727   1.866
 4195SOL    HW113484   3.776   6.765   1.869
 4195SOL    HW213485   3.876   6.650   1.929
 4196SOL     OW13486   5.667   2.184   3.269
 4196SOL    HW113487   5.743   2.125   3.241
 4196SOL    HW213488   5.614   2.139   3.341
 4197SOL     OW13489   5.184   5.536   6.000
 4197SOL    HW113490   5.180   5.499   5.908
 4197SOL    HW213491   5.215   5.465   6.064
 4198SOL     OW13492   5.789   2.080   6.898
 4198SOL    HW113493   5.840   2.145   6.841
 4198SOL    HW213494   5.853   2.024   6.950
 4199SOL     OW13495   1.947   2.469   5.677
 4199SOL    HW113496   1.964   2.564   5.702
 4199SOL    HW213497   1.888   2.427   5.746
 4200SOL     OW13498   3.803   6.822   6.043
 4200SOL    HW113499   3.896   6.812   6.009
 4200SOL    HW213500   3.789   6.762   6.122
 4201SOL     OW13501   5.826   6.499   3.586
 4201SOL    HW113502   5.923   6.479   3.586
 4201SOL    HW213503   5.799   6.536   3.675
 4202SOL     OW13504   4.240   5.609   5.948
 4202SOL    HW113505   4.271   5.648   5.861
 4202SOL    HW213506   4.244   5.509   5.942
 4203SOL     OW13507   4.426   5.311   0.526
 4203SOL    HW113508   4.328   5.321   0.511
 4203SOL    HW213509   4.442   5.232   0.586
 4204SOL     OW13510   3.888   3.982   2.732
 4204SOL    HW113511   3.799   3.970   2.775
 4204SOL    HW213512   3.931   4.066   2.766
 4205SOL     OW13513   3.836   5.540   4.029
 4205SOL    HW113514   3.883   5.590   3.956
 4205SOL    HW213515   3.838   5.594   4.113
 4206SOL     OW13516   0.039   6.959   5.888
 4206SOL    HW113517   0.072   7.002   5.804
 4206SOL    HW213518   7.002   6.884   5.864
 4207SOL     OW13519   1.429   1.751   0.626
 4207SOL    HW113520   1.509   1.750   0.566
 4207SOL    HW213521   1.454   1.713   0.715
 4208SOL     OW13522   0.345   2.984   5.853
 4208SOL    HW113523   0.419   2.954   5.913
 4208SOL    HW213524   0.322   2.910   5.790
 4209SOL     OW13525   0.423   0.243   4.683
 4209SOL    HW113526   0.376   0.266   4.598
 4209SOL    HW213527   0.385   0.159   4.721
 4210SOL     OW13528   2.940   3.227   2.375
 4210SOL    HW113529   2.966   3.279   2.293
 4210SOL    HW213530   2.842   3.207   2.371
 4211SOL     OW13531   4.352   5.837   5.743
 4211SOL    HW113532   4.254   5.835   5.760
 4211SOL    HW213533   4.374   5.907   5.675
 4212SOL     OW13534   5.899   1.811   2.794
 4212SOL    HW113535   5.806   1.845   2.802
 4212SOL    HW213536   5.898   1.720   2.753
 4213SOL     OW13537   1.906   1.313   1.535
 4213SOL    HW113538   1.964   1.291   1.457
 4213SOL    HW213539   1.876   1.408   1.528
 4214SOL     OW13540   1.555   4.528   5.329
 4214SOL    HW113541   1.615   4.560   5.403
 4214SOL    HW213542   1.570   4.430   5.314
 4215SOL     OW13543   6.072   6.151   5.121
 4215SOL    HW113544   6.146   6.156   5.188
 4215SOL    HW213545   6.098   6.199   5.038
 4216SOL     OW13546   0.938   1.661   3.010
 4216SOL    HW113547   0.967   1.757   3.015
 4216SOL    HW213548   0.840   1.655   3.028
 4217SOL     OW13549   1.074   0.375   2.085
 4217SOL    HW113550   1.040   0.448   2.025
 4217SOL    HW213551   1.000   0.346   2.147
 4218SOL     OW13552   4.632   0.909   1.800
 4218SOL    HW113553   4.560   0.849   1.766
 4218SOL    HW213554   4.601   1.004   1.798
 4219SOL     OW13555   3.295   5.500   4.091
 4219SOL    HW113556   3.319   5.423   4.032
 4219SOL    HW213557   3.259   5.465   4.178
 4220SOL     OW13558   5.244   2.871   3.918
 4220SOL    HW113559   5.325   2.848   3.865
 4220SOL    HW213560   5.194   2.944   3.872
 4221SOL     OW13561   6.559   5.294   6.471
 4221SOL    HW113562   6.582   5.392   6.473
 4221SOL    HW213563   6.554   5.259   6.565
 4222SOL     OW13564   6.159   1.995   3.001
 4222SOL    HW113565   6.169   2.072   2.938
 4222SOL    HW213566   6.067   1.994   3.039
 4223SOL     OW13567   3.622   3.473   6.112
 4223SOL    HW113568   3.704   3.453   6.059
 4223SOL    HW213569   3.542   3.442   6.062
 4224SOL     OW13570   5.446   3.453   4.131
 4224SOL    HW113571   5.480   3.463   4.225
 4224SOL    HW213572   5.410   3.360   4.119
 4225SOL     OW13573   4.085   0.875   6.416
 4225SOL    HW113574   4.056   0.961   6.375
 4225SOL    HW213575   4.184   0.867   6.409
 4226SOL     OW13576   0.875   0.259   2.557
 4226SOL    HW113577   0.957   0.234   2.507
 4226SOL    HW213578   0.795   0.219   2.513
 4227SOL     OW13579   3.673   4.666   1.053
 4227SOL    HW113580   3.723   4.582   1.036
 4227SOL    HW213581   3.672   4.722   0.970
 4228SOL     OW13582   0.854   3.903   5.119
 4228SOL    HW113583   0.789   3.864   5.053
 4228SOL    HW213584   0.947   3.893   5.084
 4229SOL     OW13585   5.194   5.376   5.768
 4229SOL    HW113586   5.171   5.346   5.675
 4229SOL    HW213587   5.283   5.421   5.768
 4230SOL     OW13588   1.153   6.672   2.716
 4230SOL    HW113589   1.137   6.683   2.618
 4230SOL    HW213590   1.249   6.693   2.737
 4231SOL     OW13591   5.879   6.335   5.171
 4231SOL    HW113592   5.953   6.269   5.179
 4231SOL    HW213593   5.893   6.410   5.236
 4232SOL     OW13594   6.869   4.679   2.607
 4232SOL    HW113595   6.879   4.680   2.508
 4232SOL    HW213596   6.865   4.773   2.641
 4233SOL     OW13597   0.106   0.397   6.429
 4233SOL    HW113598   0.007   0.403   6.417
 4233SOL    HW213599   0.133   0.441   6.515
 4234SOL     OW13600   2.537   6.703   5.572
 4234SOL    HW113601   2.552   6.612   5.532
 4234SOL    HW213602   2.464   6.749   5.521
 4235SOL     OW13603   5.770   3.409   6.083
 4235SOL    HW113604   5.849   3.442   6.031
 4235SOL    HW213605   5.794   3.404   6.180
 4236SOL     OW13606   0.039   3.745   2.607
 4236SOL    HW113607   6.971   3.769   2.635
 4236SOL    HW213608   0.103   3.769   2.680
 4237SOL     OW13609   5.705   5.304   2.667
 4237SOL    HW113610   5.683   5.305   2.569
 4237SOL    HW213611   5.635   5.355   2.717
 4238SOL     OW13612   3.113   5.220   2.861
 4238SOL    HW113613   3.198   5.273   2.854
 4238SOL    HW213614   3.065   5.223   2.773
 4239SOL     OW13615   5.531   1.916   2.957
 4239SOL    HW113616   5.595   1.943   2.886
 4239SOL    HW213617   5.478   1.995   2.986
 4240SOL     OW13618   2.345   0.210   0.249
 4240SOL    HW113619   2.428   0.251   0.212
 4240SOL    HW213620   2.303   0.151   0.179
 4241SOL     OW13621   6.107   0.701   0.375
 4241SOL    HW113622   6.147   0.792   0.382
 4241SOL    HW213623   6.007   0.709   0.374
 4242SOL     OW13624   2.203   0.790   3.414
 4242SOL    HW113625   2.122   0.838   3.380
 4242SOL    HW213626   2.225   0.825   3.505
 4243SOL     OW13627   6.457   3.111   3.194
 4243SOL    HW113628   6.553   3.134   3.208
 4243SOL    HW213629   6.405   3.195   3.180
 4244SOL     OW13630   4.898   4.282   1.564
 4244SOL    HW113631   4.821   4.327   1.609
 4244SOL    HW213632   4.891   4.183   1.577
 4245SOL     OW13633   6.695   0.852   5.805
 4245SOL    HW113634   6.770   0.818   5.748
 4245SOL    HW213635   6.655   0.933   5.763
 4246SOL     OW13636   6.345   3.473   2.526
 4246SOL    HW113637   6.431   3.491   2.478
 4246SOL    HW213638   6.278   3.543   2.501
 4247SOL     OW13639   2.388   4.907   3.673
 4247SOL    HW113640   2.366   4.963   3.593
 4247SOL    HW213641   2.463   4.845   3.651
 4248SOL     OW13642   1.883   1.611   3.941
 4248SOL    HW113643   1.940   1.614   3.858
 4248SOL    HW213644   1.788   1.592   3.915
 4249SOL     OW13645   6.028   1.978   4.171
 4249SOL    HW113646   5.940   1.984   4.218
 4249SOL    HW213647   6.101   1.970   4.239
 4250SOL     OW13648   6.908   5.780   3.641
 4250SOL    HW113649   6.837   5.776   3.711
 4250SOL    HW213650   6.937   5.875   3.629
 4251SOL     OW13651   5.722   3.750   1.298
 4251SOL    HW113652   5.729   3.845   1.266
 4251SOL    HW213653   5.780   3.737   1.377
 4252SOL     OW13654   6.601   6.743   6.586
 4252SOL    HW113655   6.596   6.823   6.527
 4252SOL    HW213656   6.622   6.662   6.531
 4253SOL     OW13657   3.240   6.562   0.630
 4253SOL    HW113658   3.262   6.654   0.597
 4253SOL    HW213659   3.249   6.496   0.555
 4254SOL     OW13660   1.373   3.556   2.386
 4254SOL    HW113661   1.460   3.532   2.429
 4254SOL    HW213662   1.385   3.563   2.287
 4255SOL     OW13663   6.887   4.313   3.755
 4255SOL    HW113664   6.945   4.371   3.698
 4255SOL    HW213665   6.921   4.314   3.849
 4256SOL     OW13666   1.737   6.358   1.173
 4256SOL    HW113667   1.760   6.281   1.234
 4256SOL    HW213668   1.644   6.346   1.139
 4257SOL     OW13669   3.205   0.682   4.140
 4257SOL    HW113670   3.287   0.715   4.186
 4257SOL    HW213671   3.207   0.711   4.044
 4258SOL     OW13672   3.590   5.948   1.105
 4258SOL    HW113673   3.616   5.982   1.195
 4258SOL    HW213674   3.502   5.902   1.110
 4259SOL     OW13675   1.848   0.453   0.915
 4259SOL    HW113676   1.815   0.529   0.970
 4259SOL    HW213677   1.776   0.384   0.907
 4260SOL     OW13678   5.709   0.734   1.815
 4260SOL    HW113679   5.666   0.680   1.887
 4260SOL    HW213680   5.802   0.759   1.842
 4261SOL     OW13681   1.929   0.725   2.143
 4261SOL    HW113682   1.854   0.672   2.102
 4261SOL    HW213683   1.895   0.815   2.169
 4262SOL     OW13684   0.868   3.866   6.780
 4262SOL    HW113685   0.921   3.816   6.712
 4262SOL    HW213686   0.852   3.807   6.859
 4263SOL     OW13687   2.719   0.979   2.851
 4263SOL    HW113688   2.769   0.953   2.768
 4263SOL    HW213689   2.772   1.047   2.901
 4264SOL     OW13690   6.307   1.940   4.033
 4264SOL    HW113691   6.268   1.937   4.125
 4264SOL    HW213692   6.314   1.848   3.996
 4265SOL     OW13693   4.311   0.972   0.312
 4265SOL    HW113694   4.230   0.927   0.351
 4265SOL    HW213695   4.294   1.070   0.303
 4266SOL     OW13696   1.674   6.260   6.770
 4266SOL    HW113697   1.576   6.275   6.764
 4266SOL    HW213698   1.722   6.348   6.776
 4267SOL     OW13699   2.034   3.772   3.500
 4267SOL    HW113700   2.125   3.806   3.525
 4267SOL    HW213701   2.006   3.701   3.565
 4268SOL     OW13702   1.179   5.695   6.787
 4268SOL    HW113703   1.155   5.735   6.699
 4268SOL    HW213704   1.263   5.739   6.822
 4269SOL     OW13705   2.747   0.310   2.294
 4269SOL    HW113706   2.803   0.267   2.365
 4269SOL    HW213707   2.807   0.342   2.220
 4270SOL     OW13708   4.132   3.590   3.051
 4270SOL    HW113709   4.198   3.574   2.978
 4270SOL    HW213710   4.068   3.514   3.056
 4271SOL     OW13711   6.613   1.189   6.844
 4271SOL    HW113712   6.671   1.108   6.848
 4271SOL    HW213713   6.521   1.165   6.875
 4272SOL     OW13714   6.610   2.167   4.456
 4272SOL    HW113715   6.560   2.143   4.373
 4272SOL    HW213716   6.707   2.148   4.443
 4273SOL     OW13717   3.903   6.925   5.332
 4273SOL    HW113718   3.868   6.930   5.426
 4273SOL    HW213719   3.942   7.014   5.306
 4274SOL     OW13720   1.191   0.500   1.814
 4274SOL    HW113721   1.222   0.414   1.774
 4274SOL    HW213722   1.092   0.507   1.805
 4275SOL     OW13723   5.871   2.222   4.713
 4275SOL    HW113724   5.832   2.218   4.805
 4275SOL    HW213725   5.969   2.240   4.719
 4276SOL     OW13726   2.328   5.404   3.782
 4276SOL    HW113727   2.327   5.332   3.851
 4276SOL    HW213728   2.240   5.406   3.734
 4277SOL     OW13729   6.022   4.581   3.108
 4277SOL    HW113730   5.926   4.571   3.084
 4277SOL    HW213731   6.030   4.616   3.201
 4278SOL     OW13732   6.995   6.802   4.994
 4278SOL    HW113733   0.032   6.753   5.055
 4278SOL    HW213734   0.002   6.897   4.983
 4279SOL     OW13735   3.643   1.243   3.666
 4279SOL    HW113736   3.628   1.147   3.688
 4279SOL    HW213737   3.563   1.279   3.619
 4280SOL     OW13738   5.449   0.377   6.442
 4280SOL    HW113739   5.388   0.449   6.475
 4280SOL    HW213740   5.523   0.364   6.507
 4281SOL     OW13741   6.520   4.521   3.417
 4281SOL    HW113742   6.443   4.572   3.377
 4281SOL    HW213743   6.596   4.519   3.351
 4282SOL     OW13744   3.443   4.745   0.020
 4282SOL    HW113745   3.519   4.682   0.000
 4282SOL    HW213746   3.479   4.829   0.059
 4283SOL     OW13747   1.292   0.387   3.367
 4283SOL    HW113748   1.320   0.295   3.393
 4283SOL    HW213749   1.278   0.391   3.268
 4284SOL     OW13750   3.515   4.241   1.057
 4284SOL    HW113751   3.427   4.193   1.062
 4284SOL    HW213752   3.506   4.331   1.099
 4285SOL     OW13753   1.603   0.360   5.862
 4285SOL    HW113754   1.641   0.283   5.912
 4285SOL    HW213755   1.677   0.410   5.816
 4286SOL     OW13756   5.242   6.247   5.585
 4286SOL    HW113757   5.291   6.232   5.499
 4286SOL    HW213758   5.186   6.330   5.577
 4287SOL     OW13759   5.693   0.720   5.786
 4287SOL    HW113760   5.778   0.739   5.737
 4287SOL    HW213761   5.711   0.716   5.884
 4288SOL     OW13762   0.931   5.764   3.027
 4288SOL    HW113763   0.850   5.723   2.987
 4288SOL    HW213764   0.956   5.846   2.974
 4289SOL     OW13765   6.636   3.281   5.992
 4289SOL    HW113766   6.616   3.371   6.032
 4289SOL    HW213767   6.568   3.261   5.921
 4290SOL     OW13768   1.641   6.540   3.699
 4290SOL    HW113769   1.672   6.445   3.705
 4290SOL    HW213770   1.544   6.545   3.720
 4291SOL     OW13771   4.906   3.822   0.289
 4291SOL    HW113772   4.920   3.916   0.261
 4291SOL    HW213773   4.838   3.819   0.362
 4292SOL     OW13774   5.331   3.241   0.283
 4292SOL    HW113775   5.325   3.322   0.342
 4292SOL    HW213776   5.249   3.185   0.294
 4293SOL     OW13777   2.745   3.076   0.226
 4293SOL    HW113778   2.802   3.005   0.267
 4293SOL    HW213779   2.686   3.116   0.296
 4294SOL     OW13780   2.091   2.171   6.574
 4294SOL    HW113781   2.114   2.215   6.487
 4294SOL    HW213782   2.144   2.087   6.583
 4295SOL     OW13783   3.404   5.814   4.960
 4295SOL    HW113784   3.312   5.831   4.997
 4295SOL    HW213785   3.467   5.794   5.035
 4296SOL     OW13786   3.276   6.833   0.563
 4296SOL    HW113787   3.187   6.856   0.603
 4296SOL    HW213788   3.338   6.911   0.570
 4297SOL     OW13789   5.060   0.045   1.264
 4297SOL    HW113790   5.087   6.991   1.319
 4297SOL    HW213791   4.961   0.051   1.260
 4298SOL     OW13792   4.167   5.449   0.508
 4298SOL    HW113793   4.124   5.427   0.595
 4298SOL    HW213794   4.106   5.424   0.433
 4299SOL     OW13795   1.318   3.073   6.526
 4299SOL    HW113796   1.251   3.147   6.535
 4299SOL    HW213797   1.382   3.078   6.603
 4300SOL     OW13798   3.311   6.906   0.217
 4300SOL    HW113799   3.408   6.919   0.198
 4300SOL    HW213800   3.282   6.968   0.290
 4301SOL     OW13801   4.378   0.783   1.744
 4301SOL    HW113802   4.378   0.740   1.834
 4301SOL    HW213803   4.372   0.713   1.673
 4302SOL     OW13804   1.054   0.191   6.057
 4302SOL    HW113805   1.053   0.249   5.976
 4302SOL    HW213806   0.973   0.132   6.057
 4303SOL     OW13807   0.054   5.105   3.880
 4303SOL    HW113808   0.070   5.182   3.820
 4303SOL    HW213809   6.986   5.111   3.919
 4304SOL     OW13810   2.837   3.430   2.553
 4304SOL    HW113811   2.924   3.382   2.554
 4304SOL    HW213812   2.814   3.456   2.459
 4305SOL     OW13813   0.532   6.734   5.907
 4305SOL    HW113814   0.606   6.771   5.851
 4305SOL    HW213815   0.539   6.634   5.910
 4306SOL     OW13816   4.675   5.015   4.728
 4306SOL    HW113817   4.755   5.063   4.691
 4306SOL    HW213818   4.615   4.987   4.653
 4307SOL     OW13819   5.723   3.852   6.057
 4307SOL    HW113820   5.661   3.916   6.103
 4307SOL    HW213821   5.676   3.765   6.041
 4308SOL     OW13822   5.906   4.651   1.222
 4308SOL    HW113823   5.985   4.647   1.161
 4308SOL    HW213824   5.907   4.739   1.271
 4309SOL     OW13825   1.082   1.100   0.223
 4309SOL    HW113826   1.170   1.074   0.182
 4309SOL    HW213827   1.012   1.103   0.153
 4310SOL     OW13828   2.026   2.343   1.963
 4310SOL    HW113829   1.933   2.325   1.993
 4310SOL    HW213830   2.067   2.415   2.020
 4311SOL     OW13831   1.611   6.275   2.469
 4311SOL    HW113832   1.675   6.269   2.392
 4311SOL    HW213833   1.650   6.229   2.549
 4312SOL     OW13834   1.821   5.806   1.955
 4312SOL    HW113835   1.877   5.877   1.996
 4312SOL    HW213836   1.879   5.729   1.928
 4313SOL     OW13837   4.719   1.633   0.865
 4313SOL    HW113838   4.785   1.692   0.819
 4313SOL    HW213839   4.642   1.688   0.896
 4314SOL     OW13840   5.920   1.675   4.419
 4314SOL    HW113841   5.945   1.662   4.323
 4314SOL    HW213842   6.000   1.660   4.477
 4315SOL     OW13843   2.617   6.809   2.834
 4315SOL    HW113844   2.701   6.755   2.838
 4315SOL    HW213845   2.633   6.899   2.875
 4316SOL     OW13846   5.311   1.154   1.854
 4316SOL    HW113847   5.401   1.111   1.865
 4316SOL    HW213848   5.242   1.096   1.897
 4317SOL     OW13849   5.419   2.253   4.974
 4317SOL    HW113850   5.419   2.312   5.054
 4317SOL    HW213851   5.326   2.244   4.938
 4318SOL     OW13852   6.973   2.492   4.856
 4318SOL    HW113853   0.046   2.513   4.846
 4318SOL    HW213854   6.949   2.496   4.953
 4319SOL     OW13855   1.798   1.419   0.394
 4319SOL    HW113856   1.881   1.456   0.435
 4319SOL    HW213857   1.753   1.359   0.460
 4320SOL     OW13858   4.535   4.928   0.825
 4320SOL    HW113859   4.480   5.005   0.793
 4320SOL    HW213860   4.512   4.907   0.920
 4321SOL     OW13861   0.441   5.474   5.153
 4321SOL    HW113862   0.458   5.487   5.250
 4321SOL    HW213863   0.410   5.380   5.137
 4322SOL     OW13864   6.088   3.070   6.915
 4322SOL    HW113865   6.012   3.135   6.910
 4322SOL    HW213866   6.120   3.064   7.010
 4323SOL     OW13867   4.497   3.893   0.376
 4323SOL    HW113868   4.439   3.832   0.322
 4323SOL    HW213869   4.555   3.947   0.316
 4324SOL     OW13870   6.147   4.005   6.668
 4324SOL    HW113871   6.147   4.048   6.758
 4324SOL    HW213872   6.059   4.022   6.623
 4325SOL     OW13873   2.363   1.224   1.211
 4325SOL    HW113874   2.437   1.180   1.262
 4325SOL    HW213875   2.402   1.285   1.142
 4326SOL     OW13876   4.479   4.654   3.398
 4326SOL    HW113877   4.528   4.727   3.445
 4326SOL    HW213878   4.507   4.652   3.301
 4327SOL     OW13879   5.749   5.742   2.065
 4327SOL    HW113880   5.820   5.714   2.001
 4327SOL    HW213881   5.666   5.690   2.048
 4328SOL     OW13882   4.520   4.002   5.894
 4328SOL    HW113883   4.584   4.001   5.971
 4328SOL    HW213884   4.489   4.095   5.878
 4329SOL     OW13885   4.583   2.340   5.285
 4329SOL    HW113886   4.515   2.413   5.280
 4329SOL    HW213887   4.644   2.356   5.363
 4330SOL     OW13888   1.934   5.905   4.584
 4330SOL    HW113889   1.859   5.875   4.526
 4330SOL    HW213890   1.922   6.001   4.608
 4331SOL     OW13891   6.052   1.403   1.798
 4331SOL    HW113892   6.104   1.481   1.765
 4331SOL    HW213893   6.019   1.422   1.891
 4332SOL     OW13894   4.831   2.972   2.579
 4332SOL    HW113895   4.905   2.946   2.640
 4332SOL    HW213896   4.771   2.893   2.564
 4333SOL     OW13897   4.305   1.202   5.919
 4333SOL    HW113898   4.317   1.226   6.015
 4333SOL    HW213899   4.368   1.127   5.895
 4334SOL     OW13900   1.561   1.863   2.805
 4334SOL    HW113901   1.509   1.779   2.819
 4334SOL    HW213902   1.527   1.934   2.867
 4335SOL     OW13903   3.095   3.959   2.442
 4335SOL    HW113904   3.059   3.906   2.518
 4335SOL    HW213905   3.097   4.056   2.468
 4336SOL     OW13906   3.267   6.793   5.979
 4336SOL    HW113907   3.254   6.797   5.880
 4336SOL    HW213908   3.361   6.820   6.001
 4337SOL     OW13909   1.215   4.450   0.594
 4337SOL    HW113910   1.258   4.520   0.651
 4337SOL    HW213911   1.247   4.360   0.622
 4338SOL     OW13912   6.124   6.844   6.236
 4338SOL    HW113913   6.060   6.907   6.282
 4338SOL    HW213914   6.169   6.787   6.304
 4339SOL     OW13915   4.437   3.256   5.872
 4339SOL    HW113916   4.430   3.181   5.807
 4339SOL    HW213917   4.534   3.274   5.891
 4340SOL     OW13918   6.279   3.294   0.988
 4340SOL    HW113919   6.195   3.243   0.969
 4340SOL    HW213920   6.264   3.353   1.067
 4341SOL     OW13921   1.116   5.470   1.698
 4341SOL    HW113922   1.116   5.393   1.762
 4341SOL    HW213923   1.143   5.438   1.607
 4342SOL     OW13924   5.093   3.820   3.583
 4342SOL    HW113925   5.120   3.866   3.668
 4342SOL    HW213926   4.995   3.803   3.585
 4343SOL     OW13927   3.056   6.378   5.275
 4343SOL    HW113928   3.038   6.415   5.366
 4343SOL    HW213929   2.995   6.421   5.208
 4344SOL     OW13930   0.444   3.984   1.916
 4344SOL    HW113931   0.470   4.000   1.821
 4344SOL    HW213932   0.347   4.006   1.929
 4345SOL     OW13933   3.503   4.450   5.781
 4345SOL    HW113934   3.433   4.401   5.833
 4345SOL    HW213935   3.513   4.409   5.691
 4346SOL     OW13936   1.754   3.892   2.771
 4346SOL    HW113937   1.727   3.801   2.803
 4346SOL    HW213938   1.808   3.883   2.687
 4347SOL     OW13939   5.972   0.002   2.278
 4347SOL    HW113940   6.061   7.021   2.323
 4347SOL    HW213941   5.929   6.937   2.278
 4348SOL     OW13942   0.271   5.507   3.453
 4348SOL    HW113943   0.326   5.583   3.419
 4348SOL    HW213944   0.306   5.479   3.542
 4349SOL     OW13945   5.345   2.098   2.639
 4349SOL    HW113946   5.358   2.156   2.558
 4349SOL    HW213947   5.413   2.026   2.640
 4350SOL     OW13948   3.448   1.986   3.974
 4350SOL    HW113949   3.541   2.023   3.980
 4350SOL    HW213950   3.396   2.037   3.905
 4351SOL     OW13951   1.459   6.122   1.226
 4351SOL    HW113952   1.453   6.222   1.226
 4351SOL    HW213953   1.371   6.084   1.254
 4352SOL     OW13954   6.213   3.685   2.396
 4352SOL    HW113955   6.283   3.753   2.375
 4352SOL    HW213956   6.175   3.650   2.310
 4353SOL     OW13957   4.001   2.887   6.677
 4353SOL    HW113958   4.079   2.912   6.619
 4353SOL    HW213959   3.918   2.929   6.641
 4354SOL     OW13960   1.907   0.475   6.072
 4354SOL    HW113961   1.959   0.391   6.059
 4354SOL    HW213962   1.854   0.495   5.989
 4355SOL     OW13963   2.755   0.676   2.817
 4355SOL    HW113964   2.746   0.761   2.869
 4355SOL    HW213965   2.705   0.604   2.864
 4356SOL     OW13966   5.315   3.669   0.009
 4356SOL    HW113967   5.225   3.682   0.051
 4356SOL    HW213968   5.372   3.750   0.026
 4357SOL     OW13969   6.464   0.925   1.421
 4357SOL    HW113970   6.470   0.893   1.327
 4357SOL    HW213971   6.550   0.967   1.449
 4358SOL     OW13972   7.004   0.558   0.690
 4358SOL    HW113973   0.044   0.542   0.765
 4358SOL    HW213974   6.999   0.656   0.671
 4359SOL     OW13975   1.359   0.963   5.834
 4359SOL    HW113976   1.386   1.058   5.817
 4359SOL    HW213977   1.395   0.933   5.922
 4360SOL     OW13978   0.959   3.354   3.467
 4360SOL    HW113979   1.023   3.383   3.539
 4360SOL    HW213980   0.873   3.327   3.509
 4361SOL     OW13981   2.260   3.640   1.182
 4361SOL    HW113982   2.249   3.545   1.155
 4361SOL    HW213983   2.286   3.694   1.101
 4362SOL     OW13984   6.493   5.177   3.417
 4362SOL    HW113985   6.460   5.221   3.334
 4362SOL    HW213986   6.592   5.169   3.414
 4363SOL     OW13987   5.216   2.061   0.990
 4363SOL    HW113988   5.179   2.140   0.941
 4363SOL    HW213989   5.170   2.053   1.079
 4364SOL     OW13990   3.253   4.014   4.129
 4364SOL    HW113991   3.169   3.975   4.165
 4364SOL    HW213992   3.302   4.063   4.201
 4365SOL     OW13993   2.852   0.631   1.691
 4365SOL    HW113994   2.899   0.719   1.693
 4365SOL    HW213995   2.801   0.623   1.605
 4366SOL     OW13996   6.399   6.910   6.726
 4366SOL    HW113997   6.366   6.983   6.667
 4366SOL    HW213998   6.490   6.881   6.695
 4367SOL     OW13999   2.454   4.550   4.085
 4367SOL    HW114000   2.457   4.486   4.008
 4367SOL    HW214001   2.425   4.501   4.167
 4368SOL     OW14002   3.834   5.804   1.017
 4368SOL    HW114003   3.823   5.889   1.070
 4368SOL    HW214004   3.919   5.810   0.964
 4369SOL     OW14005   4.535   5.348   3.028
 4369SOL    HW114006   4.566   5.439   3.002
 4369SOL    HW214007   4.463   5.317   2.966
 4370SOL     OW14008   3.702   4.720   1.645
 4370SOL    HW114009   3.622   4.736   1.587
 4370SOL    HW214010   3.673   4.705   1.739
 4371SOL     OW14011   1.489   2.169   2.362
 4371SOL    HW114012   1.530   2.127   2.443
 4371SOL    HW214013   1.420   2.108   2.324
 4372SOL     OW14014   2.367   2.476   3.837
 4372SOL    HW114015   2.303   2.403   3.813
 4372SOL    HW214016   2.441   2.479   3.770
 4373SOL     OW14017   5.354   1.468   0.007
 4373SOL    HW114018   5.453   1.473   0.017
 4373SOL    HW214019   5.326   1.520   6.951
 4374SOL     OW14020   0.932   1.639   0.988
 4374SOL    HW114021   0.956   1.733   1.014
 4374SOL    HW214022   0.864   1.603   1.052
 4375SOL     OW14023   3.951   6.623   3.543
 4375SOL    HW114024   3.870   6.569   3.521
 4375SOL    HW214025   4.027   6.594   3.485
 4376SOL     OW14026   5.953   6.739   2.952
 4376SOL    HW114027   5.994   6.801   3.019
 4376SOL    HW214028   6.025   6.699   2.895
 4377SOL     OW14029   5.923   5.208   6.979
 4377SOL    HW114030   5.838   5.256   7.000
 4377SOL    HW214031   5.937   5.208   6.879
 4378SOL     OW14032   2.023   2.883   2.646
 4378SOL    HW114033   2.072   2.970   2.645
 4378SOL    HW214034   1.928   2.897   2.618
 4379SOL     OW14035   2.279   2.302   2.465
 4379SOL    HW114036   2.247   2.384   2.513
 4379SOL    HW214037   2.292   2.228   2.531
 4380SOL     OW14038   1.021   6.567   3.121
 4380SOL    HW114039   0.982   6.591   3.210
 4380SOL    HW214040   1.027   6.649   3.064
 4381SOL     OW14041   2.217   3.878   5.554
 4381SOL    HW114042   2.307   3.891   5.511
 4381SOL    HW214043   2.146   3.877   5.484
 4382SOL     OW14044   6.100   3.526   6.490
 4382SOL    HW114045   6.164   3.597   6.461
 4382SOL    HW214046   6.009   3.564   6.499
 4383SOL     OW14047   0.565   2.024   5.772
 4383SOL    HW114048   0.560   2.070   5.683
 4383SOL    HW214049   0.527   1.932   5.764
 4384SOL     OW14050   5.931   1.700   5.988
 4384SOL    HW114051   5.935   1.700   6.088
 4384SOL    HW214052   5.963   1.612   5.953
 4385SOL     OW14053   5.962   2.836   5.036
 4385SOL    HW114054   5.884   2.884   5.075
 4385SOL    HW214055   5.994   2.766   5.100
 4386SOL     OW14056   2.321   3.580   0.138
 4386SOL    HW114057   2.358   3.522   0.210
 4386SOL    HW214058   2.290   3.524   0.062
 4387SOL     OW14059   6.648   1.197   1.703
 4387SOL    HW114060   6.612   1.269   1.762
 4387SOL    HW214061   6.652   1.111   1.754
 4388SOL     OW14062   5.357   1.789   6.379
 4388SOL    HW114063   5.366   1.858   6.307
 4388SOL    HW214064   5.271   1.740   6.369
 4389SOL     OW14065   0.350   3.962   0.715
 4389SOL    HW114066   0.432   3.920   0.754
 4389SOL    HW214067   0.374   4.052   0.679
 4390SOL     OW14068   3.523   0.964   1.396
 4390SOL    HW114069   3.472   0.946   1.480
 4390SOL    HW214070   3.601   0.902   1.391
 4391SOL     OW14071   1.539   5.469   7.004
 4391SOL    HW114072   1.532   5.376   6.967
 4391SOL    HW214073   1.624   5.479   0.030
 4392SOL     OW14074   6.937   3.423   6.189
 4392SOL    HW114075   6.932   3.420   6.288
 4392SOL    HW214076   6.948   3.330   6.153
 4393SOL     OW14077   5.988   1.008   2.510
 4393SOL    HW114078   5.926   0.934   2.483
 4393SOL    HW214079   6.002   1.070   2.434
 4394SOL     OW14080   5.718   5.732   2.451
 4394SOL    HW114081   5.745   5.799   2.383
 4394SOL    HW214082   5.744   5.640   2.420
 4395SOL     OW14083   3.583   0.048   1.550
 4395SOL    HW114084   3.679   0.022   1.563
 4395SOL    HW214085   3.556   0.113   1.621
 4396SOL     OW14086   1.853   2.436   4.079
 4396SOL    HW114087   1.949   2.408   4.090
 4396SOL    HW214088   1.805   2.369   4.023
 4397SOL     OW14089   0.303   0.850   4.790
 4397SOL    HW114090   0.317   0.864   4.692
 4397SOL    HW214091   0.351   0.767   4.819
 4398SOL     OW14092   0.637   4.751   5.505
 4398SOL    HW114093   0.694   4.830   5.484
 4398SOL    HW214094   0.654   4.678   5.438
 4399SOL     OW14095   2.006   0.887   1.418
 4399SOL    HW114096   1.959   0.857   1.335
 4399SOL    HW214097   2.039   0.980   1.406
 4400SOL     OW14098   3.545   6.632   5.889
 4400SOL    HW114099   3.461   6.580   5.908
 4400SOL    HW214100   3.522   6.717   5.842
 4401SOL     OW14101   5.035   6.406   6.730
 4401SOL    HW114102   4.950   6.423   6.680
 4401SOL    HW214103   5.067   6.490   6.772
 4402SOL     OW14104   2.940   6.930   1.151
 4402SOL    HW114105   3.012   6.899   1.214
 4402SOL    HW214106   2.851   6.923   1.196
 4403SOL     OW14107   0.653   0.252   3.456
 4403SOL    HW114108   0.674   0.171   3.401
 4403SOL    HW214109   0.715   0.326   3.430
 4404SOL     OW14110   0.383   4.620   5.981
 4404SOL    HW114111   0.452   4.588   6.046
 4404SOL    HW214112   0.427   4.674   5.910
 4405SOL     OW14113   1.759   4.768   1.494
 4405SOL    HW114114   1.738   4.830   1.419
 4405SOL    HW214115   1.824   4.811   1.557
 4406SOL     OW14116   0.013   4.155   0.713
 4406SOL    HW114117   0.016   4.229   0.645
 4406SOL    HW214118   0.095   4.158   0.770
 4407SOL     OW14119   6.797   5.011   0.687
 4407SOL    HW114120   6.780   5.106   0.659
 4407SOL    HW214121   6.780   4.950   0.609
 4408SOL     OW14122   3.142   0.733   1.780
 4408SOL    HW114123   3.208   0.791   1.732
 4408SOL    HW214124   3.148   0.750   1.879
 4409SOL     OW14125   4.976   0.305   2.939
 4409SOL    HW114126   4.899   0.263   2.987
 4409SOL    HW214127   4.944   0.385   2.888
 4410SOL     OW14128   1.154   5.264   6.657
 4410SOL    HW114129   1.159   5.325   6.736
 4410SOL    HW214130   1.192   5.309   6.577
 4411SOL     OW14131   3.585   4.124   4.044
 4411SOL    HW114132   3.496   4.104   4.003
 4411SOL    HW214133   3.655   4.127   3.973
 4412SOL     OW14134   4.164   6.474   5.220
 4412SOL    HW114135   4.235   6.510   5.280
 4412SOL    HW214136   4.095   6.427   5.275
 4413SOL     OW14137   6.438   5.401   4.576
 4413SOL    HW114138   6.458   5.359   4.487
 4413SOL    HW214139   6.340   5.421   4.581
 4414SOL     OW14140   3.717   4.159   1.444
 4414SOL    HW114141   3.631   4.207   1.426
 4414SOL    HW214142   3.707   4.104   1.526
 4415SOL     OW14143   4.215   3.483   0.264
 4415SOL    HW114144   4.230   3.429   0.347
 4415SOL    HW214145   4.244   3.430   0.184
 4416SOL     OW14146   2.526   0.833   4.093
 4416SOL    HW114147   2.452   0.869   4.149
 4416SOL    HW214148   2.565   0.906   4.037
 4417SOL     OW14149   5.826   4.396   3.324
 4417SOL    HW114150   5.776   4.394   3.411
 4417SOL    HW214151   5.878   4.311   3.314
 4418SOL     OW14152   6.258   1.837   1.968
 4418SOL    HW114153   6.165   1.801   1.977
 4418SOL    HW214154   6.264   1.925   2.014
 4419SOL     OW14155   5.926   6.188   6.716
 4419SOL    HW114156   6.000   6.179   6.783
 4419SOL    HW214157   5.963   6.182   6.624
 4420SOL     OW14158   5.354   1.937   1.539
 4420SOL    HW114159   5.299   1.859   1.569
 4420SOL    HW214160   5.451   1.911   1.538
 4421SOL     OW14161   1.727   0.472   5.139
 4421SOL    HW114162   1.799   0.444   5.076
 4421SOL    HW214163   1.638   0.464   5.094
 4422SOL     OW14164   3.117   3.773   6.430
 4422SOL    HW114165   3.109   3.678   6.400
 4422SOL    HW214166   3.089   3.833   6.355
 4423SOL     OW14167   1.368   3.172   5.759
 4423SOL    HW114168   1.404   3.082   5.735
 4423SOL    HW214169   1.438   3.241   5.745
 4424SOL     OW14170   5.822   0.935   4.389
 4424SOL    HW114171   5.748   0.958   4.451
 4424SOL    HW214172   5.784   0.903   4.302
 4425SOL     OW14173   3.264   4.805   0.356
 4425SOL    HW114174   3.342   4.755   0.394
 4425SOL    HW214175   3.195   4.819   0.428
 4426SOL     OW14176   0.111   0.608   4.684
 4426SOL    HW114177   0.152   0.684   4.634
 4426SOL    HW214178   0.054   0.554   4.623
 4427SOL     OW14179   0.651   6.218   2.454
 4427SOL    HW114180   0.569   6.166   2.475
 4427SOL    HW214181   0.694   6.182   2.371
 4428SOL     OW14182   3.245   0.094   2.323
 4428SOL    HW114183   3.329   0.056   2.362
 4428SOL    HW214184   3.256   0.192   2.311
 4429SOL     OW14185   2.797   0.118   2.830
 4429SOL    HW114186   2.704   0.117   2.867
 4429SOL    HW214187   2.792   0.126   2.730
 4430SOL     OW14188   5.126   3.841   4.909
 4430SOL    HW114189   5.177   3.925   4.892
 4430SOL    HW214190   5.030   3.854   4.884
 4431SOL     OW14191   1.775   1.248   2.208
 4431SOL    HW114192   1.871   1.272   2.195
 4431SOL    HW214193   1.733   1.314   2.271
 4432SOL     OW14194   3.647   3.257   4.917
 4432SOL    HW114195   3.573   3.201   4.879
 4432SOL    HW214196   3.678   3.216   5.003
 4433SOL     OW14197   4.460   1.231   4.795
 4433SOL    HW114198   4.499   1.286   4.722
 4433SOL    HW214199   4.392   1.286   4.845
 4434SOL     OW14200   4.997   1.945   4.015
 4434SOL    HW114201   5.050   1.903   4.089
 4434SOL    HW214202   4.936   2.015   4.052
 4435SOL     OW14203   4.672   3.364   1.528
 4435SOL    HW114204   4.621   3.319   1.454
 4435SOL    HW214205   4.694   3.297   1.599
 4436SOL     OW14206   4.662   0.953   1.241
 4436SOL    HW114207   4.754   0.918   1.258
 4436SOL    HW214208   4.662   1.052   1.253
 4437SOL     OW14209   5.861   1.981   3.003
 4437SOL    HW114210   5.797   2.045   2.961
 4437SOL    HW214211   5.897   1.919   2.934
 4438SOL     OW14212   5.864   6.796   0.226
 4438SOL    HW114213   5.814   6.869   0.179
 4438SOL    HW214214   5.840   6.707   0.186
 4439SOL     OW14215   0.148   5.271   1.657
 4439SOL    HW114216   0.111   5.182   1.632
 4439SOL    HW214217   0.247   5.264   1.668
 4440SOL     OW14218   2.295   5.304   0.591
 4440SOL    HW114219   2.368   5.314   0.523
 4440SOL    HW214220   2.333   5.270   0.676
 4441SOL     OW14221   7.022   1.656   2.958
 4441SOL    HW114222   0.095   1.673   2.947
 4441SOL    HW214223   6.983   1.723   3.022
 4442SOL     OW14224   2.695   5.682   4.345
 4442SOL    HW114225   2.686   5.621   4.266
 4442SOL    HW214226   2.761   5.754   4.322
 4443SOL     OW14227   6.981   3.346   0.530
 4443SOL    HW114228   6.959   3.251   0.549
 4443SOL    HW214229   6.973   3.400   0.614
 4444SOL     OW14230   3.151   4.451   5.825
 4444SOL    HW114231   3.133   4.544   5.856
 4444SOL    HW214232   3.097   4.432   5.743
 4445SOL     OW14233   0.653   0.342   1.352
 4445SOL    HW114234   0.663   0.371   1.447
 4445SOL    HW214235   0.621   0.419   1.296
 4446SOL     OW14236   5.721   1.238   2.146
 4446SOL    HW114237   5.698   1.277   2.235
 4446SOL    HW214238   5.796   1.290   2.105
 4447SOL     OW14239   5.576   3.635   6.042
 4447SOL    HW114240   5.631   3.554   6.022
 4447SOL    HW214241   5.529   3.623   6.129
 4448SOL     OW14242   2.783   3.993   1.311
 4448SOL    HW114243   2.745   3.930   1.243
 4448SOL    HW214244   2.740   4.083   1.302
 4449SOL     OW14245   5.071   0.341   6.407
 4449SOL    HW114246   5.117   0.411   6.353
 4449SOL    HW214247   5.096   0.351   6.503
 4450SOL     OW14248   3.596   3.124   4.314
 4450SOL    HW114249   3.685   3.142   4.354
 4450SOL    HW214250   3.539   3.075   4.380
 4451SOL     OW14251   6.061   4.579   3.548
 4451SOL    HW114252   6.009   4.618   3.624
 4451SOL    HW214253   6.158   4.578   3.572
 4452SOL     OW14254   5.385   6.710   4.726
 4452SOL    HW114255   5.424   6.801   4.726
 4452SOL    HW214256   5.448   6.646   4.771
 4453SOL     OW14257   0.332   2.534   1.664
 4453SOL    HW114258   0.288   2.556   1.577
 4453SOL    HW214259   0.267   2.484   1.722
 4454SOL     OW14260   1.482   2.169   6.934
 4454SOL    HW114261   1.528   2.189   7.021
 4454SOL    HW214262   1.425   2.087   6.944
 4455SOL     OW14263   4.153   6.085   6.066
 4455SOL    HW114264   4.197   6.165   6.023
 4455SOL    HW214265   4.168   6.089   6.165
 4456SOL     OW14266   3.624   6.104   2.094
 4456SOL    HW114267   3.631   6.074   1.999
 4456SOL    HW214268   3.696   6.062   2.148
 4457SOL     OW14269   4.421   1.784   1.713
 4457SOL    HW114270   4.370   1.807   1.796
 4457SOL    HW214271   4.518   1.775   1.735
 4458SOL     OW14272   1.515   2.729   6.517
 4458SOL    HW114273   1.461   2.699   6.439
 4458SOL    HW214274   1.584   2.659   6.538
 4459SOL     OW14275   4.238   0.624   5.194
 4459SOL    HW114276   4.223   0.702   5.133
 4459SOL    HW214277   4.165   0.620   5.262
 4460SOL     OW14278   2.939   2.881   5.836
 4460SOL    HW114279   2.911   2.794   5.795
 4460SOL    HW214280   2.920   2.880   5.934
 4461SOL     OW14281   0.907   0.620   1.516
 4461SOL    HW114282   0.824   0.568   1.538
 4461SOL    HW214283   0.955   0.645   1.600
 4462SOL     OW14284   5.977   4.723   1.881
 4462SOL    HW114285   6.049   4.654   1.884
 4462SOL    HW214286   5.988   4.787   1.957
 4463SOL     OW14287   5.352   1.893   6.647
 4463SOL    HW114288   5.272   1.951   6.628
 4463SOL    HW214289   5.376   1.842   6.564
 4464SOL     OW14290   6.452   5.172   0.661
 4464SOL    HW114291   6.467   5.144   0.756
 4464SOL    HW214292   6.540   5.191   0.618
 4465SOL     OW14293   2.851   5.621   1.237
 4465SOL    HW114294   2.833   5.679   1.316
 4465SOL    HW214295   2.843   5.525   1.264
 4466SOL     OW14296   1.500   1.904   3.195
 4466SOL    HW114297   1.477   1.949   3.281
 4466SOL    HW214298   1.557   1.824   3.214
 4467SOL     OW14299   1.859   6.898   2.609
 4467SOL    HW114300   1.761   6.914   2.611
 4467SOL    HW214301   1.885   6.843   2.689
 4468SOL     OW14302   1.880   2.219   0.732
 4468SOL    HW114303   1.913   2.312   0.748
 4468SOL    HW214304   1.906   2.190   0.640
 4469SOL     OW14305   4.170   0.962   1.596
 4469SOL    HW114306   4.181   1.059   1.615
 4469SOL    HW214307   4.258   0.916   1.606
 4470SOL     OW14308   5.926   2.559   2.531
 4470SOL    HW114309   5.901   2.627   2.600
 4470SOL    HW214310   5.947   2.605   2.445
 4471SOL     OW14311   0.567   1.755   6.833
 4471SOL    HW114312   0.606   1.803   6.754
 4471SOL    HW214313   0.538   1.822   6.902
 4472SOL     OW14314   1.517   3.047   3.658
 4472SOL    HW114315   1.499   3.145   3.673
 4472SOL    HW214316   1.613   3.035   3.633
 4473SOL     OW14317   6.406   3.030   4.464
 4473SOL    HW114318   6.369   2.986   4.546
 4473SOL    HW214319   6.381   3.127   4.463
 4474SOL     OW14320   2.939   0.557   1.942
 4474SOL    HW114321   3.035   0.585   1.940
 4474SOL    HW214322   2.891   0.600   1.865
 4475SOL     OW14323   1.540   4.039   2.792
 4475SOL    HW114324   1.463   3.979   2.812
 4475SOL    HW214325   1.622   3.984   2.776
 4476SOL     OW14326   3.572   0.177   3.653
 4476SOL    HW114327   3.609   0.151   3.742
 4476SOL    HW214328   3.548   0.274   3.654
 4477SOL     OW14329   1.875   6.623   5.200
 4477SOL    HW114330   1.969   6.614   5.167
 4477SOL    HW214331   1.811   6.592   5.130
 4478SOL     OW14332   3.787   0.438   2.808
 4478SOL    HW114333   3.842   0.435   2.725
 4478SOL    HW214334   3.717   0.510   2.800
 4479SOL     OW14335   0.761   0.919   1.788
 4479SOL    HW114336   0.704   0.901   1.708
 4479SOL    HW214337   0.815   1.001   1.772
 4480SOL     OW14338   1.971   3.709   5.520
 4480SOL    HW114339   2.068   3.730   5.532
 4480SOL    HW214340   1.961   3.613   5.495
 4481SOL     OW14341   2.663   6.440   5.093
 4481SOL    HW114342   2.650   6.355   5.145
 4481SOL    HW214343   2.634   6.518   5.149
 4482SOL     OW14344   1.120   3.603   4.739
 4482SOL    HW114345   1.048   3.615   4.671
 4482SOL    HW214346   1.208   3.589   4.692
 4483SOL     OW14347   5.794   2.928   2.162
 4483SOL    HW114348   5.876   2.875   2.142
 4483SOL    HW214349   5.789   3.007   2.101
 4484SOL     OW14350   3.051   3.051   6.212
 4484SOL    HW114351   3.049   3.122   6.142
 4484SOL    HW214352   3.070   2.963   6.170
 4485SOL     OW14353   5.254   1.698   5.362
 4485SOL    HW114354   5.232   1.677   5.457
 4485SOL    HW214355   5.349   1.728   5.355
 4486SOL     OW14356   5.457   4.492   5.225
 4486SOL    HW114357   5.413   4.459   5.141
 4486SOL    HW214358   5.555   4.503   5.210
 4487SOL     OW14359   1.959   3.222   5.978
 4487SOL    HW114360   1.891   3.176   6.035
 4487SOL    HW214361   2.037   3.160   5.963
 4488SOL     OW14362   6.750   3.137   6.356
 4488SOL    HW114363   6.662   3.118   6.399
 4488SOL    HW214364   6.822   3.131   6.425
 4489SOL     OW14365   5.607   5.773   3.823
 4489SOL    HW114366   5.654   5.720   3.894
 4489SOL    HW214367   5.673   5.797   3.752
 4490SOL     OW14368   6.341   2.630   3.208
 4490SOL    HW114369   6.324   2.611   3.111
 4490SOL    HW214370   6.312   2.723   3.229
 4491SOL     OW14371   6.700   2.609   4.951
 4491SOL    HW114372   6.668   2.667   4.876
 4491SOL    HW214373   6.743   2.527   4.913
 4492SOL     OW14374   5.872   3.878   1.577
 4492SOL    HW114375   5.868   3.781   1.600
 4492SOL    HW214376   5.968   3.904   1.562
 4493SOL     OW14377   4.305   5.344   4.927
 4493SOL    HW114378   4.366   5.294   4.989
 4493SOL    HW214379   4.303   5.441   4.952
 4494SOL     OW14380   6.779   1.042   6.275
 4494SOL    HW114381   6.749   0.948   6.290
 4494SOL    HW214382   6.737   1.077   6.191
 4495SOL     OW14383   3.848   6.479   4.514
 4495SOL    HW114384   3.781   6.449   4.582
 4495SOL    HW214385   3.934   6.502   4.560
 4496SOL     OW14386   5.634   5.876   1.251
 4496SOL    HW114387   5.727   5.845   1.266
 4496SOL    HW214388   5.635   5.962   1.200
 4497SOL     OW14389   4.946   1.328   6.940
 4497SOL    HW114390   4.912   1.396   6.874
 4497SOL    HW214391   4.870   1.268   6.967
 4498SOL     OW14392   0.249   3.748   0.329
 4498SOL    HW114393   0.225   3.710   0.240
 4498SOL    HW214394   0.195   3.703   0.401
 4499SOL     OW14395   6.590   3.544   5.154
 4499SOL    HW114396   6.498   3.544   5.115
 4499SOL    HW214397   6.656   3.566   5.082
 4500SOL     OW14398   3.166   3.331   4.136
 4500SOL    HW114399   3.260   3.300   4.147
 4500SOL    HW214400   3.157   3.424   4.171
 4501SOL     OW14401   0.271   3.234   3.795
 4501SOL    HW114402   0.304   3.325   3.823
 4501SOL    HW214403   0.246   3.181   3.876
 4502SOL     OW14404   0.919   2.886   6.579
 4502SOL    HW114405   0.938   2.811   6.515
 4502SOL    HW214406   0.930   2.853   6.673
 4503SOL     OW14407   3.556   6.960   1.919
 4503SOL    HW114408   3.533   6.870   1.883
 4503SOL    HW214409   3.486   0.001   1.891
 4504SOL     OW14410   6.434   0.577   4.973
 4504SOL    HW114411   6.360   0.537   4.919
 4504SOL    HW214412   6.477   0.651   4.922
 4505SOL     OW14413   5.635   4.843   2.306
 4505SOL    HW114414   5.695   4.765   2.285
 4505SOL    HW214415   5.551   4.835   2.253
 4506SOL     OW14416   4.385   2.074   3.206
 4506SOL    HW114417   4.466   2.128   3.185
 4506SOL    HW214418   4.311   2.097   3.143
 4507SOL     OW14419   5.268   4.517   2.153
 4507SOL    HW114420   5.329   4.461   2.209
 4507SOL    HW214421   5.243   4.467   2.070
 4508SOL     OW14422   0.698   4.814   6.737
 4508SOL    HW114423   0.665   4.814   6.643
 4508SOL    HW214424   0.714   4.909   6.766
 4509SOL     OW14425   4.245   2.224   2.621
 4509SOL    HW114426   4.158   2.210   2.669
 4509SOL    HW214427   4.316   2.249   2.688
 4510SOL     OW14428   4.182   1.079   4.142
 4510SOL    HW114429   4.234   1.116   4.065
 4510SOL    HW214430   4.092   1.123   4.146
 4511SOL     OW14431   6.673   3.045   7.000
 4511SOL    HW114432   6.648   3.084   6.912
 4511SOL    HW214433   6.720   3.113   0.030
 4512SOL     OW14434   3.150   1.025   5.735
 4512SOL    HW114435   3.233   1.081   5.729
 4512SOL    HW214436   3.098   1.034   5.650
 4513SOL     OW14437   5.953   5.314   0.404
 4513SOL    HW114438   6.008   5.245   0.453
 4513SOL    HW214439   5.997   5.336   0.317
 4514SOL     OW14440   4.381   1.212   6.673
 4514SOL    HW114441   4.317   1.289   6.670
 4514SOL    HW214442   4.473   1.247   6.691
 4515SOL     OW14443   7.015   1.337   5.679
 4515SOL    HW114444   0.049   1.285   5.742
 4515SOL    HW214445   6.924   1.347   5.720
 4516SOL     OW14446   1.854   0.315   6.944
 4516SOL    HW114447   1.837   0.382   6.872
 4516SOL    HW214448   1.941   0.335   6.989
 4517SOL     OW14449   4.297   0.856   0.041
 4517SOL    HW114450   4.211   0.816   0.008
 4517SOL    HW214451   4.293   0.865   0.140
 4518SOL     OW14452   6.769   0.553   2.709
 4518SOL    HW114453   6.817   0.598   2.785
 4518SOL    HW214454   6.751   0.620   2.637
 4519SOL     OW14455   6.277   0.933   1.623
 4519SOL    HW114456   6.333   0.910   1.544
 4519SOL    HW214457   6.326   0.909   1.707
 4520SOL     OW14458   4.367   6.452   4.494
 4520SOL    HW114459   4.455   6.405   4.489
 4520SOL    HW214460   4.354   6.488   4.586
 4521SOL     OW14461   6.177   1.844   4.458
 4521SOL    HW114462   6.165   1.772   4.526
 4521SOL    HW214463   6.101   1.908   4.464
 4522SOL     OW14464   6.225   6.302   3.320
 4522SOL    HW114465   6.164   6.341   3.251
 4522SOL    HW214466   6.171   6.266   3.396
 4523SOL     OW14467   0.967   4.398   7.015
 4523SOL    HW114468   0.869   4.375   7.012
 4523SOL    HW214469   1.020   4.320   6.981
 4524SOL     OW14470   6.084   2.472   3.476
 4524SOL    HW114471   6.014   2.414   3.518
 4524SOL    HW214472   6.060   2.488   3.380
 4525SOL     OW14473   5.014   0.914   5.095
 4525SOL    HW114474   5.069   0.878   5.019
 4525SOL    HW214475   4.947   0.980   5.059
 4526SOL     OW14476   6.597   0.828   1.181
 4526SOL    HW114477   6.625   0.733   1.194
 4526SOL    HW214478   6.515   0.831   1.123
 4527SOL     OW14479   5.149   1.257   3.535
 4527SOL    HW114480   5.172   1.323   3.463
 4527SOL    HW214481   5.161   1.300   3.624
 4528SOL     OW14482   5.175   7.021   0.323
 4528SOL    HW114483   5.153   6.949   0.257
 4528SOL    HW214484   5.263   0.038   0.299
 4529SOL     OW14485   3.250   0.699   5.242
 4529SOL    HW114486   3.257   0.603   5.270
 4529SOL    HW214487   3.274   0.758   5.318
 4530SOL     OW14488   2.049   4.545   5.951
 4530SOL    HW114489   2.036   4.447   5.936
 4530SOL    HW214490   2.123   4.578   5.892
 4531SOL     OW14491   0.165   3.225   4.957
 4531SOL    HW114492   0.108   3.307   4.964
 4531SOL    HW214493   0.195   3.197   5.048
 4532SOL     OW14494   6.220   2.034   3.529
 4532SOL    HW114495   6.270   2.113   3.564
 4532SOL    HW214496   6.209   2.043   3.430
 4533SOL     OW14497   0.875   1.153   1.713
 4533SOL    HW114498   0.921   1.241   1.707
 4533SOL    HW214499   0.888   1.103   1.627
 4534SOL     OW14500   4.861   3.832   4.097
 4534SOL    HW114501   4.791   3.822   4.168
 4534SOL    HW214502   4.934   3.765   4.111
 4535SOL     OW14503   4.247   0.970   2.514
 4535SOL    HW114504   4.188   0.931   2.443
 4535SOL    HW214505   4.329   1.010   2.471
 4536SOL     OW14506   3.868   1.490   4.119
 4536SOL    HW114507   3.827   1.544   4.045
 4536SOL    HW214508   3.953   1.533   4.149
 4537SOL     OW14509   4.458   3.131   6.863
 4537SOL    HW114510   4.373   3.129   6.916
 4537SOL    HW214511   4.447   3.076   6.780
 4538SOL     OW14512   1.840   0.283   3.710
 4538SOL    HW114513   1.785   0.362   3.738
 4538SOL    HW214514   1.917   0.314   3.655
 4539SOL     OW14515   2.760   0.511   4.941
 4539SOL    HW114516   2.816   0.489   4.861
 4539SOL    HW214517   2.682   0.567   4.913
 4540SOL     OW14518   3.027   2.478   5.564
 4540SOL    HW114519   3.116   2.518   5.542
 4540SOL    HW214520   3.019   2.388   5.521
 4541SOL     OW14521   5.855   2.164   0.479
 4541SOL    HW114522   5.804   2.144   0.563
 4541SOL    HW214523   5.949   2.190   0.502
 4542SOL     OW14524   6.837   1.335   2.340
 4542SOL    HW114525   6.748   1.335   2.386
 4542SOL    HW214526   6.896   1.403   2.382
 4543SOL     OW14527   4.433   1.766   1.437
 4543SOL    HW114528   4.432   1.667   1.423
 4543SOL    HW214529   4.432   1.785   1.535
 4544SOL     OW14530   3.156   6.242   5.926
 4544SOL    HW114531   3.123   6.232   6.020
 4544SOL    HW214532   3.249   6.276   5.927
 4545SOL     OW14533   5.171   4.049   4.603
 4545SOL    HW114534   5.161   4.082   4.697
 4545SOL    HW214535   5.260   4.079   4.567
 4546SOL     OW14536   1.345   0.898   5.563
 4546SOL    HW114537   1.254   0.903   5.523
 4546SOL    HW214538   1.340   0.927   5.659
 4547SOL     OW14539   5.509   2.458   2.727
 4547SOL    HW114540   5.516   2.504   2.638
 4547SOL    HW214541   5.413   2.434   2.744
 4548SOL     OW14542   1.012   3.668   4.151
 4548SOL    HW114543   1.038   3.764   4.144
 4548SOL    HW214544   0.915   3.658   4.133
 4549SOL     OW14545   0.135   4.383   1.391
 4549SOL    HW114546   0.130   4.446   1.314
 4549SOL    HW214547   0.043   4.354   1.417
 4550SOL     OW14548   0.806   5.319   2.640
 4550SOL    HW114549   0.858   5.304   2.724
 4550SOL    HW214550   0.854   5.276   2.564
 4551SOL     OW14551   0.390   2.217   5.308
 4551SOL    HW114552   0.445   2.229   5.391
 4551SOL    HW214553   0.424   2.138   5.257
 4552SOL     OW14554   6.566   3.667   0.961
 4552SOL    HW114555   6.585   3.684   0.864
 4552SOL    HW214556   6.556   3.569   0.976
 4553SOL     OW14557   3.149   4.381   6.725
 4553SOL    HW114558   3.072   4.425   6.770
 4553SOL    HW214559   3.147   4.282   6.744
 4554SOL     OW14560   5.808   0.269   1.552
 4554SOL    HW114561   5.804   0.200   1.480
 4554SOL    HW214562   5.860   0.348   1.520
 4555SOL     OW14563   2.933   2.208   5.704
 4555SOL    HW114564   2.850   2.264   5.693
 4555SOL    HW214565   2.956   2.165   5.617
 4556SOL     OW14566   5.062   3.305   4.118
 4556SOL    HW114567   5.143   3.318   4.174
 4556SOL    HW214568   4.987   3.272   4.175
 4557SOL     OW14569   4.568   6.134   5.801
 4557SOL    HW114570   4.500   6.097   5.738
 4557SOL    HW214571   4.651   6.078   5.796
 4558SOL     OW14572   1.031   4.579   5.079
 4558SOL    HW114573   1.095   4.520   5.031
 4558SOL    HW214574   0.995   4.531   5.159
 4559SOL     OW14575   0.387   4.224   1.499
 4559SOL    HW114576   0.330   4.288   1.551
 4559SOL    HW214577   0.439   4.167   1.562
 4560SOL     OW14578   4.992   4.144   1.855
 4560SOL    HW114579   5.069   4.152   1.918
 4560SOL    HW214580   4.946   4.232   1.846
 4561SOL     OW14581   1.882   2.039   2.411
 4561SOL    HW114582   1.947   1.964   2.425
 4561SOL    HW214583   1.924   2.108   2.351
 4562SOL     OW14584   2.694   6.151   5.511
 4562SOL    HW114585   2.668   6.055   5.519
 4562SOL    HW214586   2.782   6.158   5.465
 4563SOL     OW14587   0.243   3.133   0.976
 4563SOL    HW114588   0.164   3.144   0.916
 4563SOL    HW214589   0.267   3.036   0.982
 4564SOL     OW14590   6.626   5.991   1.046
 4564SOL    HW114591   6.527   6.004   1.044
 4564SOL    HW214592   6.670   6.074   1.080
 4565SOL     OW14593   0.783   1.221   5.385
 4565SOL    HW114594   0.691   1.211   5.347
 4565SOL    HW214595   0.818   1.130   5.409
 4566SOL     OW14596   6.673   2.726   0.512
 4566SOL    HW114597   6.597   2.660   0.512
 4566SOL    HW214598   6.669   2.782   0.595
 4567SOL     OW14599   6.288   0.226   0.125
 4567SOL    HW114600   6.334   0.303   0.168
 4567SOL    HW214601   6.339   0.142   0.143
 4568SOL     OW14602   2.471   4.221   6.020
 4568SOL    HW114603   2.420   4.285   6.077
 4568SOL    HW214604   2.420   4.202   5.937
 4569SOL     OW14605   1.817   1.854   2.698
 4569SOL    HW114606   1.724   1.840   2.733
 4569SOL    HW214607   1.841   1.951   2.707
 4570SOL     OW14608   0.504   6.683   3.550
 4570SOL    HW114609   0.443   6.617   3.508
 4570SOL    HW214610   0.582   6.700   3.490
 4571SOL     OW14611   4.054   4.147   6.179
 4571SOL    HW114612   4.145   4.162   6.141
 4571SOL    HW214613   3.985   4.189   6.120
 4572SOL     OW14614   1.321   6.898   6.936
 4572SOL    HW114615   1.367   6.817   6.900
 4572SOL    HW214616   1.365   6.980   6.898
 4573SOL     OW14617   6.307   0.274   0.500
 4573SOL    HW114618   6.250   0.232   0.571
 4573SOL    HW214619   6.340   0.363   0.533
 4574SOL     OW14620   5.927   3.913   0.931
 4574SOL    HW114621   5.981   3.854   0.870
 4574SOL    HW214622   5.973   4.001   0.941
 4575SOL     OW14623   6.175   1.078   6.161
 4575SOL    HW114624   6.167   1.177   6.176
 4575SOL    HW214625   6.109   1.030   6.219
 4576SOL     OW14626   2.571   6.505   6.200
 4576SOL    HW114627   2.536   6.547   6.284
 4576SOL    HW214628   2.604   6.412   6.220
 4577SOL     OW14629   1.308   2.409   4.762
 4577SOL    HW114630   1.297   2.351   4.682
 4577SOL    HW214631   1.339   2.500   4.733
 4578SOL     OW14632   0.571   3.207   4.983
 4578SOL    HW114633   0.586   3.111   5.007
 4578SOL    HW214634   0.644   3.263   5.022
 4579SOL     OW14635   4.342   0.855   2.981
 4579SOL    HW114636   4.321   0.803   2.897
 4579SOL    HW214637   4.437   0.838   3.007
 4580SOL     OW14638   5.440   4.624   0.341
 4580SOL    HW114639   5.487   4.687   0.279
 4580SOL    HW214640   5.349   4.660   0.363
 4581SOL     OW14641   2.459   4.783   2.500
 4581SOL    HW114642   2.412   4.860   2.545
 4581SOL    HW214643   2.488   4.811   2.409
 4582SOL     OW14644   5.572   7.004   5.009
 4582SOL    HW114645   5.616   6.955   4.934
 4582SOL    HW214646   5.482   6.963   5.026
 4583SOL     OW14647   2.785   2.277   6.012
 4583SOL    HW114648   2.750   2.314   5.926
 4583SOL    HW214649   2.755   2.335   6.087
 4584SOL     OW14650   0.394   4.972   5.950
 4584SOL    HW114651   0.332   4.985   6.028
 4584SOL    HW214652   0.479   4.930   5.982
 4585SOL     OW14653   2.730   6.063   3.103
 4585SOL    HW114654   2.800   6.112   3.050
 4585SOL    HW214655   2.703   6.119   3.181
 4586SOL     OW14656   3.224   5.593   0.825
 4586SOL    HW114657   3.230   5.684   0.866
 4586SOL    HW214658   3.301   5.579   0.763
 4587SOL     OW14659   3.572   3.871   2.596
 4587SOL    HW114660   3.528   3.843   2.510
 4587SOL    HW214661   3.576   3.971   2.600
 4588SOL     OW14662   3.416   3.363   5.102
 4588SOL    HW114663   3.501   3.320   5.070
 4588SOL    HW214664   3.414   3.364   5.202
 4589SOL     OW14665   6.298   1.245   2.514
 4589SOL    HW114666   6.198   1.249   2.508
 4589SOL    HW214667   6.329   1.292   2.597
 4590SOL     OW14668   5.288   5.973   1.574
 4590SOL    HW114669   5.240   5.985   1.662
 4590SOL    HW214670   5.345   6.053   1.556
 4591SOL     OW14671   0.550   6.069   4.472
 4591SOL    HW114672   0.585   6.163   4.478
 4591SOL    HW214673   0.514   6.041   4.561
 4592SOL     OW14674   2.796   1.775   1.994
 4592SOL    HW114675   2.845   1.720   2.061
 4592SOL    HW214676   2.858   1.801   1.920
 4593SOL     OW14677   4.652   5.131   3.161
 4593SOL    HW114678   4.714   5.189   3.214
 4593SOL    HW214679   4.593   5.189   3.104
 4594SOL     OW14680   2.720   1.595   2.984
 4594SOL    HW114681   2.805   1.596   2.932
 4594SOL    HW214682   2.647   1.556   2.927
 4595SOL     OW14683   3.976   3.204   6.481
 4595SOL    HW114684   3.954   3.198   6.579
 4595SOL    HW214685   3.894   3.231   6.431
 4596SOL     OW14686   5.988   6.776   2.594
 4596SOL    HW114687   6.069   6.788   2.651
 4596SOL    HW214688   6.016   6.752   2.501
 4597SOL     OW14689   4.123   5.392   6.159
 4597SOL    HW114690   4.153   5.374   6.065
 4597SOL    HW214691   4.199   5.430   6.212
 4598SOL     OW14692   2.479   6.275   6.685
 4598SOL    HW114693   2.511   6.350   6.743
 4598SOL    HW214694   2.534   6.272   6.601
 4599SOL     OW14695   0.926   4.881   1.002
 4599SOL    HW114696   0.941   4.911   1.097
 4599SOL    HW214697   0.976   4.941   0.940
 4600SOL     OW14698   1.140   5.264   5.437
 4600SOL    HW114699   1.043   5.285   5.442
 4600SOL    HW214700   1.184   5.322   5.368
 4601SOL     OW14701   2.154   0.525   5.848
 4601SOL    HW114702   2.114   0.445   5.802
 4601SOL    HW214703   2.130   0.607   5.797
 4602SOL     OW14704   1.842   6.157   1.340
 4602SOL    HW114705   1.784   6.136   1.418
 4602SOL    HW214706   1.926   6.202   1.372
 4603SOL     OW14707   3.073   6.516   0.858
 4603SOL    HW114708   3.130   6.553   0.785
 4603SOL    HW214709   2.977   6.538   0.840
 4604SOL     OW14710   4.407   0.596   0.792
 4604SOL    HW114711   4.414   0.502   0.824
 4604SOL    HW214712   4.419   0.659   0.869
 4605SOL     OW14713   2.673   0.473   3.259
 4605SOL    HW114714   2.770   0.454   3.241
 4605SOL    HW214715   2.647   0.558   3.214
 4606SOL     OW14716   1.106   6.182   2.054
 4606SOL    HW114717   1.114   6.179   1.954
 4606SOL    HW214718   1.121   6.276   2.086
 4607SOL     OW14719   1.897   2.537   1.204
 4607SOL    HW114720   1.961   2.467   1.171
 4607SOL    HW214721   1.815   2.493   1.239
 4608SOL     OW14722   0.557   6.095   3.809
 4608SOL    HW114723   0.557   6.091   3.709
 4608SOL    HW214724   0.495   6.167   3.840
 4609SOL     OW14725   4.764   5.347   6.842
 4609SOL    HW114726   4.773   5.421   6.909
 4609SOL    HW214727   4.670   5.344   6.809
 4610SOL     OW14728   5.409   3.046   0.883
 4610SOL    HW114729   5.358   2.966   0.915
 4610SOL    HW214730   5.344   3.119   0.860
 4611SOL     OW14731   0.676   5.636   6.096
 4611SOL    HW114732   0.721   5.551   6.070
 4611SOL    HW214733   0.614   5.619   6.173
 4612SOL     OW14734   1.780   5.452   0.108
 4612SOL    HW114735   1.878   5.434   0.102
 4612SOL    HW214736   1.765   5.548   0.132
 4613SOL     OW14737   2.888   6.291   1.987
 4613SOL    HW114738   2.850   6.201   1.964
 4613SOL    HW214739   2.889   6.349   1.905
 4614SOL     OW14740   6.803   3.199   4.730
 4614SOL    HW114741   6.779   3.286   4.772
 4614SOL    HW214742   6.862   3.147   4.792
 4615SOL     OW14743   1.930   0.089   0.223
 4615SOL    HW114744   1.992   0.115   0.149
 4615SOL    HW214745   1.835   0.095   0.191
 4616SOL     OW14746   6.698   0.493   5.313
 4616SOL    HW114747   6.743   0.457   5.231
 4616SOL    HW214748   6.615   0.542   5.286
 4617SOL     OW14749   0.682   2.560   2.436
 4617SOL    HW114750   0.760   2.591   2.380
 4617SOL    HW214751   0.660   2.631   2.503
 4618SOL     OW14752   2.186   2.947   4.847
 4618SOL    HW114753   2.241   2.963   4.929
 4618SOL    HW214754   2.096   2.913   4.874
 4619SOL     OW14755   3.405   6.730   3.557
 4619SOL    HW114756   3.504   6.714   3.546
 4619SOL    HW214757   3.381   6.817   3.515
 4620SOL     OW14758   2.224   4.600   0.195
 4620SOL    HW114759   2.233   4.501   0.182
 4620SOL    HW214760   2.128   4.626   0.193
 4621SOL     OW14761   5.537   1.039   2.134
 4621SOL    HW114762   5.459   1.036   2.197
 4621SOL    HW214763   5.588   1.124   2.149
 4622SOL     OW14764   2.637   4.888   0.542
 4622SOL    HW114765   2.672   4.838   0.462
 4622SOL    HW214766   2.663   4.839   0.625
 4623SOL     OW14767   5.305   6.571   0.244
 4623SOL    HW114768   5.232   6.635   0.218
 4623SOL    HW214769   5.265   6.482   0.265
 4624SOL     OW14770   4.024   6.898   3.495
 4624SOL    HW114771   3.981   6.814   3.527
 4624SOL    HW214772   3.991   6.976   3.549
 4625SOL     OW14773   2.383   4.326   0.768
 4625SOL    HW114774   2.306   4.313   0.830
 4625SOL    HW214775   2.385   4.420   0.735
 4626SOL     OW14776   5.083   4.556   2.328
 4626SOL    HW114777   5.009   4.497   2.297
 4626SOL    HW214778   5.152   4.564   2.256
 4627SOL     OW14779   2.535   4.549   4.605
 4627SOL    HW114780   2.453   4.540   4.548
 4627SOL    HW214781   2.537   4.474   4.673
 4628SOL     OW14782   6.277   4.332   4.164
 4628SOL    HW114783   6.299   4.339   4.067
 4628SOL    HW214784   6.283   4.422   4.206
 4629SOL     OW14785   2.175   5.367   5.287
 4629SOL    HW114786   2.099   5.412   5.333
 4629SOL    HW214787   2.156   5.269   5.280
 4630SOL     OW14788   3.351   5.361   2.854
 4630SOL    HW114789   3.416   5.350   2.930
 4630SOL    HW214790   3.396   5.407   2.778
 4631SOL     OW14791   1.882   6.219   2.836
 4631SOL    HW114792   1.879   6.136   2.893
 4631SOL    HW214793   1.908   6.195   2.743
 4632SOL     OW14794   3.571   4.891   2.372
 4632SOL    HW114795   3.566   4.841   2.459
 4632SOL    HW214796   3.619   4.977   2.386
 4633SOL     OW14797   5.528   0.291   4.700
 4633SOL    HW114798   5.493   0.244   4.618
 4633SOL    HW214799   5.597   0.234   4.744
 4634SOL     OW14800   3.083   4.970   5.836
 4634SOL    HW114801   3.049   4.894   5.781
 4634SOL    HW214802   3.179   4.985   5.815
 4635SOL     OW14803   5.116   3.856   1.463
 4635SOL    HW114804   5.064   3.802   1.529
 4635SOL    HW214805   5.099   3.821   1.371
 4636SOL     OW14806   1.852   4.523   6.843
 4636SOL    HW114807   1.897   4.612   6.839
 4636SOL    HW214808   1.761   4.534   6.883
 4637SOL     OW14809   0.913   6.729   0.835
 4637SOL    HW114810   0.974   6.666   0.788
 4637SOL    HW214811   0.823   6.728   0.791
 4638SOL     OW14812   4.734   4.207   6.671
 4638SOL    HW114813   4.683   4.289   6.697
 4638SOL    HW214814   4.695   4.168   6.588
 4639SOL     OW14815   3.059   4.218   6.105
 4639SOL    HW114816   3.062   4.317   6.113
 4639SOL    HW214817   3.047   4.178   6.196
 4640SOL     OW14818   5.064   4.001   3.813
 4640SOL    HW114819   5.127   4.063   3.859
 4640SOL    HW214820   5.081   3.907   3.842
 4641SOL     OW14821   2.368   6.929   5.002
 4641SOL    HW114822   2.294   6.873   5.037
 4641SOL    HW214823   2.411   6.978   5.079
 4642SOL     OW14824   0.842   5.404   4.186
 4642SOL    HW114825   0.903   5.471   4.142
 4642SOL    HW214826   0.860   5.313   4.148
 4643SOL     OW14827   6.240   2.716   1.003
 4643SOL    HW114828   6.229   2.656   1.082
 4643SOL    HW214829   6.190   2.679   0.925
 4644SOL     OW14830   6.591   5.230   4.971
 4644SOL    HW114831   6.504   5.274   4.948
 4644SOL    HW214832   6.634   5.279   5.047
 4645SOL     OW14833   0.776   0.782   4.537
 4645SOL    HW114834   0.775   0.875   4.573
 4645SOL    HW214835   0.869   0.756   4.512
 4646SOL     OW14836   1.898   5.970   4.002
 4646SOL    HW114837   1.872   5.874   4.015
 4646SOL    HW214838   1.913   5.987   3.904
 4647SOL     OW14839   1.480   0.712   3.052
 4647SOL    HW114840   1.395   0.660   3.062
 4647SOL    HW214841   1.542   0.662   2.992
 4648SOL     OW14842   4.012   0.930   2.680
 4648SOL    HW114843   3.937   0.995   2.689
 4648SOL    HW214844   4.070   0.958   2.603
 4649SOL     OW14845   5.468   6.875   7.020
 4649SOL    HW114846   5.467   6.931   6.937
 4649SOL    HW214847   5.544   6.902   0.053
 4650SOL     OW14848   4.367   5.307   2.700
 4650SOL    HW114849   4.345   5.268   2.790
 4650SOL    HW214850   4.300   5.378   2.677
 4651SOL     OW14851   6.933   2.812   0.655
 4651SOL    HW114852   6.999   2.810   0.729
 4651SOL    HW214853   6.883   2.725   0.652
 4652SOL     OW14854   6.633   6.834   4.034
 4652SOL    HW114855   6.661   6.750   4.081
 4652SOL    HW214856   6.614   6.813   3.938
 4653SOL     OW14857   5.716   4.821   0.938
 4653SOL    HW114858   5.648   4.750   0.955
 4653SOL    HW214859   5.670   4.907   0.914
 4654SOL     OW14860   0.888   0.098   0.418
 4654SOL    HW114861   0.917   0.165   0.349
 4654SOL    HW214862   0.791   0.112   0.440
 4655SOL     OW14863   4.857   4.201   1.282
 4655SOL    HW114864   4.863   4.115   1.230
 4655SOL    HW214865   4.874   4.182   1.379
 4656SOL     OW14866   1.217   0.796   2.489
 4656SOL    HW114867   1.272   0.713   2.501
 4656SOL    HW214868   1.231   0.857   2.567
 4657SOL     OW14869   4.918   6.421   1.674
 4657SOL    HW114870   5.012   6.392   1.690
 4657SOL    HW214871   4.856   6.345   1.696
 4658SOL     OW14872   3.785   1.293   2.912
 4658SOL    HW114873   3.824   1.235   2.984
 4658SOL    HW214874   3.691   1.317   2.935
 4659SOL     OW14875   3.196   4.963   5.072
 4659SOL    HW114876   3.161   5.035   5.132
 4659SOL    HW214877   3.136   4.883   5.077
 4660SOL     OW14878   1.241   4.348   6.409
 4660SOL    HW114879   1.154   4.328   6.454
 4660SOL    HW214880   1.295   4.263   6.402
 4661SOL     OW14881   2.949   4.458   5.603
 4661SOL    HW114882   2.877   4.469   5.672
 4661SOL    HW214883   2.948   4.537   5.542
 4662SOL     OW14884   3.161   0.248   5.577
 4662SOL    HW114885   3.129   0.233   5.671
 4662SOL    HW214886   3.101   0.198   5.514
 4663SOL     OW14887   0.191   2.295   2.271
 4663SOL    HW114888   0.280   2.338   2.254
 4663SOL    HW214889   0.118   2.364   2.262
 4664SOL     OW14890   1.680   1.352   0.792
 4664SOL    HW114891   1.672   1.452   0.794
 4664SOL    HW214892   1.635   1.316   0.711
 4665SOL     OW14893   3.476   7.012   6.735
 4665SOL    HW114894   3.397   0.046   6.746
 4665SOL    HW214895   3.448   6.925   6.694
 4666SOL     OW14896   1.535   2.436   0.535
 4666SOL    HW114897   1.519   2.374   0.458
 4666SOL    HW214898   1.470   2.512   0.530
 4667SOL     OW14899   6.370   3.423   2.229
 4667SOL    HW114900   6.381   3.348   2.164
 4667SOL    HW214901   6.335   3.387   2.316
 4668SOL     OW14902   4.146   2.039   2.403
 4668SOL    HW114903   4.050   2.063   2.395
 4668SOL    HW214904   4.181   2.067   2.493
 4669SOL     OW14905   5.073   5.894   6.343
 4669SOL    HW114906   5.058   5.972   6.281
 4669SOL    HW214907   4.986   5.865   6.382
 4670SOL     OW14908   2.775   2.484   5.316
 4670SOL    HW114909   2.852   2.425   5.341
 4670SOL    HW214910   2.802   2.580   5.325
 4671SOL     OW14911   6.565   2.686   1.180
 4671SOL    HW114912   6.479   2.686   1.129
 4671SOL    HW214913   6.587   2.593   1.210
 4672SOL     OW14914   2.740   4.427   6.060
 4672SOL    HW114915   2.835   4.412   6.087
 4672SOL    HW214916   2.721   4.377   5.976
 4673SOL     OW14917   5.277   0.148   1.934
 4673SOL    HW114918   5.229   0.235   1.934
 4673SOL    HW214919   5.354   0.151   1.998
 4674SOL     OW14920   5.511   0.210   6.235
 4674SOL    HW114921   5.500   0.115   6.264
 4674SOL    HW214922   5.488   0.271   6.311
 4675SOL     OW14923   1.800   1.588   6.113
 4675SOL    HW114924   1.843   1.510   6.159
 4675SOL    HW214925   1.841   1.600   6.023
 4676SOL     OW14926   0.147   6.569   3.717
 4676SOL    HW114927   0.238   6.549   3.679
 4676SOL    HW214928   0.136   6.517   3.802
 4677SOL     OW14929   2.536   1.593   6.770
 4677SOL    HW114930   2.468   1.644   6.717
 4677SOL    HW214931   2.616   1.651   6.785
 4678SOL     OW14932   1.799   4.511   3.123
 4678SOL    HW114933   1.761   4.489   3.213
 4678SOL    HW214934   1.826   4.607   3.121
 4679SOL     OW14935   4.198   0.695   0.613
 4679SOL    HW114936   4.294   0.666   0.616
 4679SOL    HW214937   4.187   0.768   0.546
 4680SOL     OW14938   3.322   1.540   0.486
 4680SOL    HW114939   3.332   1.462   0.547
 4680SOL    HW214940   3.239   1.529   0.431
 4681SOL     OW14941   5.394   5.385   6.641
 4681SOL    HW114942   5.456   5.326   6.589
 4681SOL    HW214943   5.339   5.329   6.703
 4682SOL     OW14944   4.386   4.410   5.587
 4682SOL    HW114945   4.327   4.331   5.571
 4682SOL    HW214946   4.350   4.490   5.538
 4683SOL     OW14947   4.265   5.045   2.534
 4683SOL    HW114948   4.197   4.971   2.530
 4683SOL    HW214949   4.244   5.106   2.610
 4684SOL     OW14950   5.908   0.814   5.206
 4684SOL    HW114951   5.967   0.826   5.286
 4684SOL    HW214952   5.924   0.888   5.141
 4685SOL     OW14953   0.933   6.009   5.780
 4685SOL    HW114954   0.903   5.952   5.856
 4685SOL    HW214955   0.997   5.959   5.722
 4686SOL     OW14956   3.966   5.368   0.289
 4686SOL    HW114957   3.997   5.421   0.211
 4686SOL    HW214958   3.927   5.282   0.258
 4687SOL     OW14959   6.330   3.932   4.858
 4687SOL    HW114960   6.295   3.957   4.948
 4687SOL    HW214961   6.283   3.849   4.826
 4688SOL     OW14962   5.781   4.373   4.574
 4688SOL    HW114963   5.851   4.407   4.512
 4688SOL    HW214964   5.704   4.338   4.520
 4689SOL     OW14965   5.347   1.113   0.240
 4689SOL    HW114966   5.302   1.175   0.175
 4689SOL    HW214967   5.311   1.021   0.228
 4690SOL     OW14968   0.839   0.361   6.741
 4690SOL    HW114969   0.880   0.272   6.760
 4690SOL    HW214970   0.880   0.430   6.801
 4691SOL     OW14971   2.591   5.297   1.779
 4691SOL    HW114972   2.519   5.340   1.835
 4691SOL    HW214973   2.634   5.223   1.831
 4692SOL     OW14974   5.971   5.658   1.925
 4692SOL    HW114975   5.953   5.615   1.837
 4692SOL    HW214976   6.054   5.713   1.919
 4693SOL     OW14977   1.072   1.720   3.522
 4693SOL    HW114978   1.061   1.809   3.477
 4693SOL    HW214979   1.038   1.726   3.616
 4694SOL     OW14980   1.707   0.758   6.946
 4694SOL    HW114981   1.666   0.744   6.856
 4694SOL    HW214982   1.634   0.763   7.015
 4695SOL     OW14983   1.569   3.294   1.834
 4695SOL    HW114984   1.612   3.204   1.845
 4695SOL    HW214985   1.608   3.357   1.901
 4696SOL     OW14986   0.503   4.425   0.151
 4696SOL    HW114987   0.444   4.346   0.135
 4696SOL    HW214988   0.449   4.502   0.184
 4697SOL     OW14989   1.886   2.871   0.387
 4697SOL    HW114990   1.904   2.805   0.460
 4697SOL    HW214991   1.791   2.902   0.393
 4698SOL     OW14992   4.528   5.099   2.558
 4698SOL    HW114993   4.451   5.042   2.532
 4698SOL    HW214994   4.495   5.175   2.614
 4699SOL     OW14995   1.639   6.754   2.409
 4699SOL    HW114996   1.647   6.848   2.439
 4699SOL    HW214997   1.559   6.743   2.350
 4700SOL     OW14998   6.882   1.214   3.379
 4700SOL    HW114999   6.851   1.302   3.415
 4700SOL    HW215000   6.919   1.227   3.287
 4701SOL     OW15001   2.544   2.621   0.136
 4701SOL    HW115002   2.512   2.597   0.045
 4701SOL    HW215003   2.471   2.603   0.203
 4702SOL     OW15004   4.625   5.125   0.120
 4702SOL    HW115005   4.557   5.179   0.070
 4702SOL    HW215006   4.714   5.171   0.115
 4703SOL     OW15007   0.702   1.558   1.670
 4703SOL    HW115008   0.604   1.571   1.689
 4703SOL    HW215009   0.735   1.630   1.610
 4704SOL     OW15010   0.644   6.274   0.393
 4704SOL    HW115011   0.563   6.243   0.343
 4704SOL    HW215012   0.620   6.288   0.489
 4705SOL     OW15013   3.382   3.081   2.223
 4705SOL    HW115014   3.309   3.021   2.189
 4705SOL    HW215015   3.416   3.045   2.310
 4706SOL     OW15016   3.018   0.308   0.153
 4706SOL    HW115017   3.107   0.342   0.182
 4706SOL    HW215018   3.021   0.208   0.144
 4707SOL     OW15019   1.846   6.730   1.078
 4707SOL    HW115020   1.881   6.819   1.108
 4707SOL    HW215021   1.869   6.716   0.982
 4708SOL     OW15022   1.072   1.495   6.330
 4708SOL    HW115023   0.997   1.505   6.395
 4708SOL    HW215024   1.076   1.400   6.298
 4709SOL     OW15025   4.596   5.589   5.601
 4709SOL    HW115026   4.622   5.635   5.686
 4709SOL    HW215027   4.648   5.626   5.525
 4710SOL     OW15028   4.740   0.332   5.726
 4710SOL    HW115029   4.812   0.271   5.693
 4710SOL    HW215030   4.728   0.320   5.824
 4711SOL     OW15031   6.018   1.326   1.387
 4711SOL    HW115032   6.103   1.333   1.439
 4711SOL    HW215033   5.940   1.343   1.447
 4712SOL     OW15034   2.541   4.366   0.160
 4712SOL    HW115035   2.590   4.289   0.119
 4712SOL    HW215036   2.455   4.381   0.111
 4713SOL     OW15037   3.730   4.362   0.661
 4713SOL    HW115038   3.773   4.415   0.735
 4713SOL    HW215039   3.724   4.266   0.688
 4714SOL     OW15040   0.541   1.892   6.584
 4714SOL    HW115041   0.460   1.933   6.541
 4714SOL    HW215042   0.582   1.826   6.521
 4715SOL     OW15043   5.524   2.536   2.452
 4715SOL    HW115044   5.548   2.447   2.413
 4715SOL    HW215045   5.558   2.609   2.392
 4716SOL     OW15046   4.506   5.799   6.437
 4716SOL    HW115047   4.422   5.750   6.458
 4716SOL    HW215048   4.582   5.759   6.488
 4717SOL     OW15049   6.899   0.186   3.940
 4717SOL    HW115050   6.815   0.216   3.894
 4717SOL    HW215051   6.977   0.235   3.902
 4718SOL     OW15052   5.398   2.780   1.914
 4718SOL    HW115053   5.349   2.867   1.922
 4718SOL    HW215054   5.497   2.796   1.915
 4719SOL     OW15055   4.790   3.194   1.740
 4719SOL    HW115056   4.834   3.143   1.665
 4719SOL    HW215057   4.725   3.135   1.787
 4720SOL     OW15058   2.165   5.637   6.130
 4720SOL    HW115059   2.264   5.651   6.131
 4720SOL    HW215060   2.142   5.561   6.191
 4721SOL     OW15061   6.604   2.171   2.307
 4721SOL    HW115062   6.510   2.185   2.337
 4721SOL    HW215063   6.666   2.224   2.364
 4722SOL     OW15064   0.830   5.607   6.444
 4722SOL    HW115065   0.765   5.639   6.375
 4722SOL    HW215066   0.823   5.507   6.452
 4723SOL     OW15067   2.460   3.603   6.053
 4723SOL    HW115068   2.492   3.698   6.059
 4723SOL    HW215069   2.368   3.596   6.091
 4724SOL     OW15070   6.143   6.572   2.784
 4724SOL    HW115071   6.103   6.541   2.698
 4724SOL    HW215072   6.228   6.622   2.766
 4725SOL     OW15073   6.233   5.040   1.815
 4725SOL    HW115074   6.270   5.105   1.882
 4725SOL    HW215075   6.135   5.055   1.805
 4726SOL     OW15076   1.464   2.389   5.671
 4726SOL    HW115077   1.387   2.376   5.609
 4726SOL    HW215078   1.544   2.417   5.619
 4727SOL     OW15079   1.176   5.794   1.089
 4727SOL    HW115080   1.183   5.740   1.172
 4727SOL    HW215081   1.239   5.759   1.020
 4728SOL     OW15082   5.981   1.115   1.834
 4728SOL    HW115083   5.981   1.214   1.847
 4728SOL    HW215084   6.047   1.073   1.896
 4729SOL     OW15085   3.402   2.054   0.844
 4729SOL    HW115086   3.441   1.967   0.874
 4729SOL    HW215087   3.449   2.129   0.892
 4730SOL     OW15088   3.297   6.420   5.574
 4730SOL    HW115089   3.340   6.381   5.656
 4730SOL    HW215090   3.293   6.351   5.503
 4731SOL     OW15091   4.167   0.528   7.007
 4731SOL    HW115092   4.131   0.449   6.958
 4731SOL    HW215093   4.163   0.608   6.947
 4732SOL     OW15094   1.292   3.470   5.846
 4732SOL    HW115095   1.309   3.435   5.938
 4732SOL    HW215096   1.359   3.542   5.825
 4733SOL     OW15097   1.272   3.875   3.847
 4733SOL    HW115098   1.337   3.940   3.887
 4733SOL    HW215099   1.321   3.794   3.817
 4734SOL     OW15100   3.747   2.608   0.239
 4734SOL    HW115101   3.750   2.594   0.140
 4734SOL    HW215102   3.816   2.676   0.266
 4735SOL     OW15103   6.197   5.846   3.733
 4735SOL    HW115104   6.153   5.919   3.785
 4735SOL    HW215105   6.240   5.781   3.797
 4736SOL     OW15106   6.976   1.861   5.295
 4736SOL    HW115107   6.954   1.872   5.392
 4736SOL    HW215108   6.961   1.766   5.267
 4737SOL     OW15109   2.565   4.726   2.037
 4737SOL    HW115110   2.651   4.683   2.010
 4737SOL    HW215111   2.584   4.806   2.095
 4738SOL     OW15112   0.293   6.208   3.028
 4738SOL    HW115113   0.292   6.206   2.928
 4738SOL    HW215114   0.239   6.131   3.063
 4739SOL     OW15115   3.864   0.775   3.492
 4739SOL    HW115116   3.859   0.872   3.471
 4739SOL    HW215117   3.894   0.763   3.587
 4740SOL     OW15118   0.849   1.359   1.319
 4740SOL    HW115119   0.805   1.301   1.251
 4740SOL    HW215120   0.946   1.335   1.326
 4741SOL     OW15121   4.681   3.501   0.875
 4741SOL    HW115122   4.639   3.506   0.784
 4741SOL    HW215123   4.691   3.593   0.912
 4742SOL     OW15124   3.314   7.010   6.443
 4742SOL    HW115125   3.292   0.007   6.538
 4742SOL    HW215126   3.265   0.048   6.382
 4743SOL     OW15127   1.786   3.376   3.908
 4743SOL    HW115128   1.885   3.376   3.899
 4743SOL    HW215129   1.755   3.286   3.938
 4744SOL     OW15130   1.848   4.114   0.443
 4744SOL    HW115131   1.811   4.021   0.445
 4744SOL    HW215132   1.787   4.175   0.493
 4745SOL     OW15133   3.005   4.549   6.539
 4745SOL    HW115134   3.002   4.452   6.518
 4745SOL    HW215135   3.100   4.580   6.543
 4746SOL     OW15136   5.205   5.637   2.603
 4746SOL    HW115137   5.304   5.637   2.611
 4746SOL    HW215138   5.165   5.589   2.682
 4747SOL     OW15139   1.875   3.408   6.877
 4747SOL    HW115140   1.906   3.347   6.951
 4747SOL    HW215141   1.938   3.402   6.800
 4748SOL     OW15142   1.908   5.188   0.850
 4748SOL    HW115143   1.915   5.279   0.892
 4748SOL    HW215144   1.884   5.198   0.753
 4749SOL     OW15145   2.227   6.498   5.732
 4749SOL    HW115146   2.284   6.540   5.662
 4749SOL    HW215147   2.255   6.402   5.745
 4750SOL     OW15148   0.672   4.135   4.056
 4750SOL    HW115149   0.673   4.106   3.960
 4750SOL    HW215150   0.603   4.206   4.069
 4751SOL     OW15151   4.073   1.524   2.052
 4751SOL    HW115152   4.002   1.547   1.985
 4751SOL    HW215153   4.046   1.559   2.142
 4752SOL     OW15154   4.367   0.872   6.305
 4752SOL    HW115155   4.418   0.786   6.306
 4752SOL    HW215156   4.422   0.944   6.345
 4753SOL     OW15157   5.306   0.333   4.118
 4753SOL    HW115158   5.342   0.332   4.212
 4753SOL    HW215159   5.226   0.272   4.113
 4754SOL     OW15160   5.849   6.148   4.432
 4754SOL    HW115161   5.895   6.173   4.347
 4754SOL    HW215162   5.754   6.124   4.413
 4755SOL     OW15163   2.421   0.191   0.621
 4755SOL    HW115164   2.505   0.148   0.587
 4755SOL    HW215165   2.431   0.290   0.617
 4756SOL     OW15166   5.580   2.802   0.270
 4756SOL    HW115167   5.622   2.756   0.348
 4756SOL    HW215168   5.480   2.793   0.277
 4757SOL     OW15169   2.773   1.804   0.855
 4757SOL    HW115170   2.837   1.854   0.914
 4757SOL    HW215171   2.825   1.750   0.788
 4758SOL     OW15172   2.066   6.371   3.954
 4758SOL    HW115173   1.976   6.353   3.915
 4758SOL    HW215174   2.070   6.334   4.047
 4759SOL     OW15175   6.544   4.362   5.358
 4759SOL    HW115176   6.571   4.325   5.447
 4759SOL    HW215177   6.529   4.460   5.365
 4760SOL     OW15178   2.145   2.136   0.777
 4760SOL    HW115179   2.048   2.143   0.756
 4760SOL    HW215180   2.187   2.067   0.718
 4761SOL     OW15181   0.994   5.709   0.265
 4761SOL    HW115182   0.915   5.716   0.326
 4761SOL    HW215183   1.006   5.795   0.215
 4762SOL     OW15184   0.750   6.174   2.178
 4762SOL    HW115185   0.664   6.158   2.129
 4762SOL    HW215186   0.820   6.205   2.114
 4763SOL     OW15187   5.707   6.769   3.300
 4763SOL    HW115188   5.677   6.673   3.302
 4763SOL    HW215189   5.660   6.817   3.225
 4764SOL     OW15190   4.860   3.823   4.444
 4764SOL    HW115191   4.957   3.837   4.466
 4764SOL    HW215192   4.838   3.726   4.452
 4765SOL     OW15193   4.766   1.223   4.070
 4765SOL    HW115194   4.776   1.274   4.156
 4765SOL    HW215195   4.723   1.282   4.001
 4766SOL     OW15196   5.457   6.104   4.448
 4766SOL    HW115197   5.504   6.018   4.467
 4766SOL    HW215198   5.437   6.110   4.350
 4767SOL     OW15199   3.250   5.519   5.323
 4767SOL    HW115200   3.307   5.577   5.265
 4767SOL    HW215201   3.248   5.558   5.416
 4768SOL     OW15202   4.826   2.210   6.094
 4768SOL    HW115203   4.827   2.114   6.066
 4768SOL    HW215204   4.736   2.232   6.132
 4769SOL     OW15205   4.701   4.374   6.961
 4769SOL    HW115206   4.792   4.380   7.003
 4769SOL    HW215207   4.646   4.306   7.010
 4770SOL     OW15208   0.651   0.940   4.276
 4770SOL    HW115209   0.567   0.890   4.253
 4770SOL    HW215210   0.701   0.962   4.192
 4771SOL     OW15211   2.911   6.161   5.366
 4771SOL    HW115212   2.935   6.075   5.412
 4771SOL    HW215213   2.993   6.200   5.323
 4772SOL     OW15214   3.936   4.830   1.059
 4772SOL    HW115215   3.980   4.875   1.137
 4772SOL    HW215216   3.939   4.731   1.072
 4773SOL     OW15217   6.797   5.239   3.419
 4773SOL    HW115218   6.792   5.264   3.515
 4773SOL    HW215219   6.885   5.195   3.400
 4774SOL     OW15220   1.654   3.168   1.330
 4774SOL    HW115221   1.664   3.073   1.358
 4774SOL    HW215222   1.611   3.221   1.403
 4775SOL     OW15223   5.304   6.761   2.813
 4775SOL    HW115224   5.256   6.684   2.771
 4775SOL    HW215225   5.237   6.829   2.845
 4776SOL     OW15226   1.329   6.562   5.406
 4776SOL    HW115227   1.282   6.509   5.335
 4776SOL    HW215228   1.416   6.519   5.427
 4777SOL     OW15229   2.421   5.300   1.145
 4777SOL    HW115230   2.404   5.238   1.069
 4777SOL    HW215231   2.334   5.330   1.184
 4778SOL     OW15232   6.208   2.732   3.791
 4778SOL    HW115233   6.156   2.772   3.866
 4778SOL    HW215234   6.155   2.740   3.706
 4779SOL     OW15235   6.267   5.559   2.560
 4779SOL    HW115236   6.268   5.643   2.614
 4779SOL    HW215237   6.175   5.519   2.563
 4780SOL     OW15238   6.167   1.218   0.048
 4780SOL    HW115239   6.123   1.142   0.001
 4780SOL    HW215240   6.121   1.235   0.135
 4781SOL     OW15241   2.454   5.733   2.485
 4781SOL    HW115242   2.407   5.744   2.573
 4781SOL    HW215243   2.470   5.823   2.445
 4782SOL     OW15244   5.944   5.624   0.218
 4782SOL    HW115245   6.004   5.545   0.223
 4782SOL    HW215246   5.937   5.668   0.308
 4783SOL     OW15247   4.879   4.069   0.172
 4783SOL    HW115248   4.780   4.059   0.169
 4783SOL    HW215249   4.916   4.069   0.080
 4784SOL     OW15250   6.392   3.646   6.942
 4784SOL    HW115251   6.453   3.711   6.896
 4784SOL    HW215252   6.298   3.679   6.938
 4785SOL     OW15253   1.447   6.446   3.068
 4785SOL    HW115254   1.515   6.426   2.998
 4785SOL    HW215255   1.445   6.544   3.087
 4786SOL     OW15256   2.398   1.004   0.397
 4786SOL    HW115257   2.329   1.075   0.388
 4786SOL    HW215258   2.375   0.927   0.337
 4787SOL     OW15259   4.002   1.503   2.318
 4787SOL    HW115260   4.015   1.404   2.323
 4787SOL    HW215261   4.053   1.547   2.391
 4788SOL     OW15262   7.001   6.194   6.330
 4788SOL    HW115263   6.981   6.266   6.264
 4788SOL    HW215264   0.053   6.222   6.388
 4789SOL     OW15265   4.420   1.963   1.258
 4789SOL    HW115266   4.399   1.896   1.329
 4789SOL    HW215267   4.352   2.037   1.260
 4790SOL     OW15268   6.159   2.091   5.197
 4790SOL    HW115269   6.196   2.172   5.153
 4790SOL    HW215270   6.069   2.112   5.236
 4791SOL     OW15271   0.133   2.614   1.457
 4791SOL    HW115272   0.036   2.634   1.468
 4791SOL    HW215273   0.179   2.695   1.418
 4792SOL     OW15274   2.129   4.598   3.546
 4792SOL    HW115275   2.097   4.533   3.615
 4792SOL    HW215276   2.125   4.554   3.456
 4793SOL     OW15277   1.986   2.721   5.065
 4793SOL    HW115278   1.949   2.770   4.986
 4793SOL    HW215279   2.066   2.770   5.100
 4794SOL     OW15280   4.613   0.517   4.668
 4794SOL    HW115281   4.570   0.482   4.585
 4794SOL    HW215282   4.701   0.558   4.645
 4795SOL     OW15283   6.233   2.129   4.274
 4795SOL    HW115284   6.333   2.133   4.281
 4795SOL    HW215285   6.204   2.173   4.190
 4796SOL     OW15286   4.880   1.813   4.915
 4796SOL    HW115287   4.829   1.786   4.996
 4796SOL    HW215288   4.957   1.751   4.901
 4797SOL     OW15289   0.973   6.104   5.393
 4797SOL    HW115290   0.925   6.057   5.320
 4797SOL    HW215291   1.064   6.131   5.362
 4798SOL     OW15292   0.542   3.533   4.944
 4798SOL    HW115293   0.444   3.517   4.938
 4798SOL    HW215294   0.581   3.476   5.016
 4799SOL     OW15295   4.765   1.784   0.504
 4799SOL    HW115296   4.852   1.811   0.463
 4799SOL    HW215297   4.700   1.761   0.432
 4800SOL     OW15298   2.930   2.680   6.490
 4800SOL    HW115299   2.922   2.581   6.490
 4800SOL    HW215300   2.900   2.716   6.401
 4801SOL     OW15301   3.014   2.334   6.682
 4801SOL    HW115302   3.027   2.247   6.729
 4801SOL    HW215303   3.072   2.404   6.724
 4802SOL     OW15304   1.259   7.003   1.699
 4802SOL    HW115305   1.238   0.051   1.764
 4802SOL    HW215306   1.205   7.014   1.616
 4803SOL     OW15307   0.164   5.053   0.489
 4803SOL    HW115308   0.166   4.965   0.536
 4803SOL    HW215309   0.075   5.096   0.502
 4804SOL     OW15310   6.255   6.278   1.401
 4804SOL    HW115311   6.240   6.238   1.492
 4804SOL    HW215312   6.170   6.320   1.369
 4805SOL     OW15313   6.332   2.218   2.343
 4805SOL    HW115314   6.275   2.226   2.425
 4805SOL    HW215315   6.310   2.293   2.281
 4806SOL     OW15316   1.000   4.469   2.930
 4806SOL    HW115317   0.959   4.484   3.020
 4806SOL    HW215318   0.955   4.527   2.862
 4807SOL     OW15319   0.898   4.834   0.322
 4807SOL    HW115320   0.817   4.870   0.368
 4807SOL    HW215321   0.871   4.758   0.263
 4808SOL     OW15322   5.181   4.741   0.296
 4808SOL    HW115323   5.094   4.694   0.282
 4808SOL    HW215324   5.164   4.836   0.320
 4809SOL     OW15325   3.483   4.708   0.492
 4809SOL    HW115326   3.456   4.777   0.559
 4809SOL    HW215327   3.473   4.617   0.531
 4810SOL     OW15328   1.728   4.993   2.701
 4810SOL    HW115329   1.771   4.996   2.610
 4810SOL    HW215330   1.786   4.941   2.763
 4811SOL     OW15331   2.659   4.199   1.583
 4811SOL    HW115332   2.745   4.249   1.592
 4811SOL    HW215333   2.635   4.192   1.486
 4812SOL     OW15334   7.018   5.443   1.902
 4812SOL    HW115335   6.986   5.397   1.985
 4812SOL    HW215336   7.015   5.379   1.825
 4813SOL     OW15337   6.204   1.976   6.812
 4813SOL    HW115338   6.198   2.006   6.717
 4813SOL    HW215339   6.292   2.003   6.850
 4814SOL     OW15340   0.212   3.352   1.144
 4814SOL    HW115341   0.223   3.286   1.070
 4814SOL    HW215342   0.146   3.317   1.210
 4815SOL     OW15343   5.410   3.646   2.580
 4815SOL    HW115344   5.321   3.677   2.547
 4815SOL    HW215345   5.462   3.723   2.617
 4816SOL     OW15346   2.433   4.766   1.146
 4816SOL    HW115347   2.393   4.849   1.185
 4816SOL    HW215348   2.488   4.719   1.215
 4817SOL     OW15349   1.614   1.533   6.328
 4817SOL    HW115350   1.517   1.556   6.316
 4817SOL    HW215351   1.659   1.530   6.239
 4818SOL     OW15352   0.595   6.488   4.280
 4818SOL    HW115353   0.598   6.559   4.210
 4818SOL    HW215354   0.559   6.528   4.365
 4819SOL     OW15355   1.606   2.009   0.383
 4819SOL    HW115356   1.583   1.982   0.476
 4819SOL    HW215357   1.653   1.933   0.337
 4820SOL     OW15358   6.303   2.525   2.577
 4820SOL    HW115359   6.284   2.573   2.491
 4820SOL    HW215360   6.223   2.532   2.637
 4821SOL     OW15361   0.749   6.610   2.129
 4821SOL    HW115362   0.789   6.667   2.057
 4821SOL    HW215363   0.733   6.518   2.093
 4822SOL     OW15364   2.073   3.788   4.608
 4822SOL    HW115365   2.130   3.796   4.690
 4822SOL    HW215366   1.992   3.846   4.618
 4823SOL     OW15367   1.945   0.680   4.264
 4823SOL    HW115368   2.024   0.623   4.240
 4823SOL    HW215369   1.892   0.634   4.336
 4824SOL     OW15370   5.127   1.691   4.590
 4824SOL    HW115371   5.176   1.645   4.665
 4824SOL    HW215372   5.035   1.652   4.582
 4825SOL     OW15373   1.559   2.605   3.898
 4825SOL    HW115374   1.606   2.556   3.825
 4825SOL    HW215375   1.545   2.544   3.976
 4826SOL     OW15376   6.242   1.315   6.598
 4826SOL    HW115377   6.228   1.331   6.501
 4826SOL    HW215378   6.320   1.370   6.630
 4827SOL     OW15379   6.407   1.876   1.068
 4827SOL    HW115380   6.379   1.931   1.147
 4827SOL    HW215381   6.334   1.813   1.044
 4828SOL     OW15382   5.543   3.141   0.451
 4828SOL    HW115383   5.497   3.203   0.387
 4828SOL    HW215384   5.498   3.052   0.449
 4829SOL     OW15385   4.132   6.742   6.503
 4829SOL    HW115386   4.200   6.796   6.552
 4829SOL    HW215387   4.045   6.792   6.502
 4830SOL     OW15388   4.006   6.658   3.802
 4830SOL    HW115389   4.003   6.657   3.702
 4830SOL    HW215390   4.086   6.605   3.832
 4831SOL     OW15391   6.927   4.707   6.156
 4831SOL    HW115392   6.913   4.669   6.247
 4831SOL    HW215393   7.022   4.694   6.129
 4832SOL     OW15394   3.574   3.430   4.595
 4832SOL    HW115395   3.595   3.501   4.528
 4832SOL    HW215396   3.512   3.363   4.555
 4833SOL     OW15397   4.661   2.197   3.114
 4833SOL    HW115398   4.645   2.155   3.024
 4833SOL    HW215399   4.758   2.189   3.137
 4834SOL     OW15400   3.980   6.495   1.035
 4834SOL    HW115401   3.957   6.590   1.054
 4834SOL    HW215402   3.914   6.435   1.080
 4835SOL     OW15403   6.135   1.530   6.788
 4835SOL    HW115404   6.084   1.446   6.767
 4835SOL    HW215405   6.182   1.520   6.875
 4836SOL     OW15406   5.514   2.925   4.494
 4836SOL    HW115407   5.467   2.956   4.576
 4836SOL    HW215408   5.588   2.989   4.471
 4837SOL     OW15409   6.556   3.721   2.738
 4837SOL    HW115410   6.548   3.624   2.761
 4837SOL    HW215411   6.552   3.775   2.822
 4838SOL     OW15412   1.000   5.101   0.192
 4838SOL    HW115413   0.982   5.105   0.094
 4838SOL    HW215414   0.972   5.012   0.228
 4839SOL     OW15415   1.847   3.566   6.507
 4839SOL    HW115416   1.874   3.562   6.603
 4839SOL    HW215417   1.905   3.632   6.459
 4840SOL     OW15418   6.803   4.851   5.952
 4840SOL    HW115419   6.887   4.870   5.902
 4840SOL    HW215420   6.824   4.813   6.041
 4841SOL     OW15421   2.700   5.694   1.836
 4841SOL    HW115422   2.783   5.687   1.892
 4841SOL    HW215423   2.696   5.617   1.773
 4842SOL     OW15424   3.691   5.166   2.974
 4842SOL    HW115425   3.649   5.084   2.935
 4842SOL    HW215426   3.675   5.168   3.073
 4843SOL     OW15427   6.944   3.106   1.003
 4843SOL    HW115428   6.850   3.138   1.012
 4843SOL    HW215429   6.992   3.119   1.090
 4844SOL     OW15430   1.078   3.050   6.076
 4844SOL    HW115431   1.040   3.123   6.018
 4844SOL    HW215432   1.177   3.062   6.083
 4845SOL     OW15433   5.206   5.361   6.201
 4845SOL    HW115434   5.256   5.275   6.205
 4845SOL    HW215435   5.162   5.378   6.289
 4846SOL     OW15436   0.036   2.992   4.069
 4846SOL    HW115437   7.020   2.976   3.979
 4846SOL    HW215438   0.004   2.922   4.133
 4847SOL     OW15439   2.749   0.960   6.527
 4847SOL    HW115440   2.662   0.940   6.572
 4847SOL    HW215441   2.770   0.886   6.462
 4848SOL     OW15442   1.607   0.841   4.213
 4848SOL    HW115443   1.699   0.842   4.175
 4848SOL    HW215444   1.549   0.905   4.163
 4849SOL     OW15445   1.194   5.422   6.893
 4849SOL    HW115446   1.188   5.420   6.992
 4849SOL    HW215447   1.188   5.516   6.861
 4850SOL     OW15448   3.686   1.321   1.991
 4850SOL    HW115449   3.779   1.288   1.976
 4850SOL    HW215450   3.685   1.421   1.993
 4851SOL     OW15451   4.149   6.893   5.725
 4851SOL    HW115452   4.224   6.959   5.725
 4851SOL    HW215453   4.164   6.825   5.653
 4852SOL     OW15454   1.458   5.762   5.207
 4852SOL    HW115455   1.379   5.809   5.168
 4852SOL    HW215456   1.440   5.664   5.212
 4853SOL     OW15457   3.433   1.031   3.283
 4853SOL    HW115458   3.516   0.979   3.302
 4853SOL    HW215459   3.444   1.125   3.315
 4854SOL     OW15460   4.199   6.724   1.387
 4854SOL    HW115461   4.163   6.774   1.309
 4854SOL    HW215462   4.292   6.754   1.406
 4855SOL     OW15463   6.001   2.833   3.983
 4855SOL    HW115464   5.942   2.886   3.922
 4855SOL    HW215465   5.945   2.792   4.055
 4856SOL     OW15466   1.177   3.117   2.977
 4856SOL    HW115467   1.102   3.053   2.994
 4856SOL    HW215468   1.238   3.118   3.056
 4857SOL     OW15469   3.034   1.959   4.711
 4857SOL    HW115470   3.099   2.000   4.774
 4857SOL    HW215471   2.996   2.030   4.652
 4858SOL     OW15472   0.874   0.175   4.255
 4858SOL    HW115473   0.866   0.274   4.239
 4858SOL    HW215474   0.818   0.150   4.334
 4859SOL     OW15475   1.027   6.775   4.209
 4859SOL    HW115476   1.108   6.790   4.267
 4859SOL    HW215477   1.046   6.701   4.145
 4860SOL     OW15478   4.276   4.407   1.711
 4860SOL    HW115479   4.336   4.355   1.771
 4860SOL    HW215480   4.196   4.352   1.688
 4861SOL     OW15481   6.066   5.326   6.754
 4861SOL    HW115482   6.154   5.288   6.724
 4861SOL    HW215483   6.081   5.388   6.831
 4862SOL     OW15484   2.368   4.556   5.141
 4862SOL    HW115485   2.341   4.480   5.082
 4862SOL    HW215486   2.467   4.570   5.135
 4863SOL     OW15487   5.323   3.863   0.900
 4863SOL    HW115488   5.326   3.939   0.835
 4863SOL    HW215489   5.413   3.852   0.943
 4864SOL     OW15490   4.405   1.236   2.494
 4864SOL    HW115491   4.319   1.217   2.542
 4864SOL    HW215492   4.473   1.271   2.559
 4865SOL     OW15493   2.129   6.600   4.248
 4865SOL    HW115494   2.119   6.502   4.232
 4865SOL    HW215495   2.193   6.615   4.324
 4866SOL     OW15496   6.336   4.099   1.623
 4866SOL    HW115497   6.336   4.170   1.694
 4866SOL    HW215498   6.347   4.143   1.534
 4867SOL     OW15499   4.029   5.535   2.054
 4867SOL    HW115500   3.980   5.482   1.985
 4867SOL    HW215501   4.119   5.495   2.070
 4868SOL     OW15502   6.502   4.856   2.456
 4868SOL    HW115503   6.598   4.882   2.455
 4868SOL    HW215504   6.464   4.868   2.548
 4869SOL     OW15505   0.954   1.076   1.459
 4869SOL    HW115506   1.000   1.133   1.391
 4869SOL    HW215507   0.879   1.026   1.415
 4870SOL     OW15508   6.889   5.852   1.831
 4870SOL    HW115509   6.946   5.826   1.753
 4870SOL    HW215510   6.935   5.829   1.916
 4871SOL     OW15511   0.981   0.611   4.848
 4871SOL    HW115512   1.023   0.690   4.893
 4871SOL    HW215513   0.882   0.620   4.852
 4872SOL     OW15514   6.582   6.203   3.961
 4872SOL    HW115515   6.543   6.276   4.017
 4872SOL    HW215516   6.584   6.233   3.865
 4873SOL     OW15517   6.609   4.988   3.649
 4873SOL    HW115518   6.682   4.953   3.590
 4873SOL    HW215519   6.540   5.033   3.593
 4874SOL     OW15520   6.031   2.922   3.202
 4874SOL    HW115521   6.019   2.899   3.105
 4874SOL    HW215522   6.119   2.888   3.234
 4875SOL     OW15523   5.904   2.719   1.585
 4875SOL    HW115524   5.969   2.675   1.522
 4875SOL    HW215525   5.833   2.653   1.611
 4876SOL     OW15526   5.635   1.746   4.443
 4876SOL    HW115527   5.602   1.735   4.536
 4876SOL    HW215528   5.727   1.708   4.435
 4877SOL     OW15529   1.146   2.102   6.485
 4877SOL    HW115530   1.181   2.089   6.578
 4877SOL    HW215531   1.184   2.185   6.446
 4878SOL     OW15532   6.398   0.381   3.022
 4878SOL    HW115533   6.450   0.373   2.937
 4878SOL    HW215534   6.378   0.290   3.057
 4879SOL     OW15535   4.241   5.379   3.157
 4879SOL    HW115536   4.281   5.470   3.169
 4879SOL    HW215537   4.260   5.323   3.237
 4880SOL     OW15538   5.439   3.410   0.017
 4880SOL    HW115539   5.386   3.495   0.015
 4880SOL    HW215540   5.460   3.386   0.112
 4881SOL     OW15541   1.545   1.008   6.344
 4881SOL    HW115542   1.643   1.009   6.327
 4881SOL    HW215543   1.521   1.078   6.411
 4882SOL     OW15544   4.628   1.537   4.735
 4882SOL    HW115545   4.542   1.544   4.685
 4882SOL    HW215546   4.610   1.513   4.830
 4883SOL     OW15547   5.467   4.098   1.885
 4883SOL    HW115548   5.498   4.004   1.905
 4883SOL    HW215549   5.373   4.096   1.850
 4884SOL     OW15550   3.191   0.199   1.202
 4884SOL    HW115551   3.187   0.144   1.285
 4884SOL    HW215552   3.285   0.202   1.168
 4885SOL     OW15553   1.182   5.466   2.963
 4885SOL    HW115554   1.163   5.502   3.054
 4885SOL    HW215555   1.265   5.411   2.966
 4886SOL     OW15556   0.364   5.733   0.655
 4886SOL    HW115557   0.311   5.817   0.648
 4886SOL    HW215558   0.348   5.690   0.744
 4887SOL     OW15559   0.620   0.672   2.833
 4887SOL    HW115560   0.600   0.666   2.735
 4887SOL    HW215561   0.718   0.687   2.846
 4888SOL     OW15562   2.236   6.626   4.479
 4888SOL    HW115563   2.318   6.668   4.519
 4888SOL    HW215564   2.231   6.530   4.508
 4889SOL     OW15565   6.437   1.161   6.332
 4889SOL    HW115566   6.360   1.220   6.305
 4889SOL    HW215567   6.508   1.217   6.374
 4890SOL     OW15568   1.124   2.078   6.748
 4890SOL    HW115569   1.036   2.123   6.746
 4890SOL    HW215570   1.123   2.005   6.817
 4891SOL     OW15571   1.661   4.869   6.901
 4891SOL    HW115572   1.615   4.835   6.818
 4891SOL    HW215573   1.592   4.889   6.971
 4892SOL     OW15574   3.623   6.413   2.056
 4892SOL    HW115575   3.579   6.412   1.967
 4892SOL    HW215576   3.617   6.322   2.098
 4893SOL     OW15577   6.886   4.018   1.523
 4893SOL    HW115578   6.943   3.941   1.494
 4893SOL    HW215579   6.793   4.004   1.491
 4894SOL     OW15580   2.226   1.768   2.818
 4894SOL    HW115581   2.249   1.840   2.883
 4894SOL    HW215582   2.299   1.699   2.818
 4895SOL     OW15583   0.735   5.106   3.459
 4895SOL    HW115584   0.715   5.012   3.484
 4895SOL    HW215585   0.716   5.166   3.537
 4896SOL     OW15586   1.643   5.494   1.954
 4896SOL    HW115587   1.545   5.484   1.934
 4896SOL    HW215588   1.656   5.571   2.016
 4897SOL     OW15589   2.912   4.153   6.356
 4897SOL    HW115590   2.962   4.174   6.439
 4897SOL    HW215591   2.841   4.223   6.341
 4898SOL     OW15592   3.440   1.276   4.151
 4898SOL    HW115593   3.491   1.233   4.076
 4898SOL    HW215594   3.489   1.356   4.183
 4899SOL     OW15595   6.415   5.066   3.030
 4899SOL    HW115596   6.317   5.086   3.032
 4899SOL    HW215597   6.429   4.967   3.020
 4900SOL     OW15598   2.204   5.873   4.693
 4900SOL    HW115599   2.108   5.873   4.666
 4900SOL    HW215600   2.229   5.782   4.727
 4901SOL     OW15601   3.181   6.533   6.096
 4901SOL    HW115602   3.177   6.617   6.041
 4901SOL    HW215603   3.256   6.475   6.063
 4902SOL     OW15604   2.788   1.819   4.629
 4902SOL    HW115605   2.789   1.796   4.531
 4902SOL    HW215606   2.882   1.824   4.662
 4903SOL     OW15607   3.229   6.025   6.655
 4903SOL    HW115608   3.182   5.938   6.672
 4903SOL    HW215609   3.182   6.074   6.582
 4904SOL     OW15610   1.811   0.289   4.173
 4904SOL    HW115611   1.904   0.259   4.192
 4904SOL    HW215612   1.759   0.292   4.258
 4905SOL     OW15613   3.690   0.491   2.379
 4905SOL    HW115614   3.639   0.462   2.298
 4905SOL    HW215615   3.641   0.565   2.425
 4906SOL     OW15616   4.809   2.054   5.690
 4906SOL    HW115617   4.894   2.014   5.723
 4906SOL    HW215618   4.819   2.153   5.682
 4907SOL     OW15619   4.256   5.960   0.910
 4907SOL    HW115620   4.163   5.968   0.944
 4907SOL    HW215621   4.255   5.947   0.811
 4908SOL     OW15622   5.238   5.172   6.750
 4908SOL    HW115623   5.160   5.148   6.692
 4908SOL    HW215624   5.206   5.190   6.843
 4909SOL     OW15625   6.763   0.317   4.401
 4909SOL    HW115626   6.692   0.365   4.453
 4909SOL    HW215627   6.749   0.219   4.407
 4910SOL     OW15628   4.876   6.597   4.650
 4910SOL    HW115629   4.966   6.597   4.607
 4910SOL    HW215630   4.838   6.505   4.646
 4911SOL     OW15631   1.202   3.527   3.986
 4911SOL    HW115632   1.151   3.571   4.060
 4911SOL    HW215633   1.289   3.493   4.021
 4912SOL     OW15634   5.625   1.384   0.050
 4912SOL    HW115635   5.701   1.429   0.003
 4912SOL    HW215636   5.641   1.285   0.051
 4913SOL     OW15637   3.924   3.260   4.808
 4913SOL    HW115638   3.826   3.279   4.808
 4913SOL    HW215639   3.950   3.218   4.895
 4914SOL     OW15640   3.588   7.022   5.082
 4914SOL    HW115641   3.547   6.982   5.163
 4914SOL    HW215642   3.522   0.055   5.035
 4915SOL     OW15643   4.340   0.611   4.681
 4915SOL    HW115644   4.256   0.558   4.669
 4915SOL    HW215645   4.417   0.557   4.647
 4916SOL     OW15646   1.463   0.533   3.737
 4916SOL    HW115647   1.373   0.509   3.773
 4916SOL    HW215648   1.516   0.579   3.808
 4917SOL     OW15649   2.081   5.025   1.568
 4917SOL    HW115650   2.058   4.956   1.500
 4917SOL    HW215651   2.127   4.982   1.645
 4918SOL     OW15652   3.826   5.941   2.219
 4918SOL    HW115653   3.917   5.900   2.215
 4918SOL    HW215654   3.761   5.872   2.252
 4919SOL     OW15655   3.028   2.105   6.829
 4919SOL    HW115656   3.014   2.068   6.921
 4919SOL    HW215657   3.029   2.029   6.763
 4920SOL     OW15658   5.505   0.793   4.842
 4920SOL    HW115659   5.447   0.869   4.873
 4920SOL    HW215660   5.552   0.753   4.921
 4921SOL     OW15661   1.619   4.237   0.516
 4921SOL    HW115662   1.656   4.329   0.529
 4921SOL    HW215663   1.561   4.214   0.594
 4922SOL     OW15664   2.361   2.844   4.611
 4922SOL    HW115665   2.356   2.915   4.682
 4922SOL    HW215666   2.284   2.782   4.621
 4923SOL     OW15667   3.752   1.971   1.255
 4923SOL    HW115668   3.656   1.951   1.275
 4923SOL    HW215669   3.775   1.935   1.165
 4924SOL     OW15670   2.595   2.034   5.837
 4924SOL    HW115671   2.631   1.950   5.797
 4924SOL    HW215672   2.662   2.073   5.901
 4925SOL     OW15673   5.991   6.511   1.820
 4925SOL    HW115674   5.959   6.595   1.864
 4925SOL    HW215675   5.954   6.505   1.728
 4926SOL     OW15676   5.507   1.893   0.347
 4926SOL    HW115677   5.509   1.878   0.248
 4926SOL    HW215678   5.468   1.983   0.367
 4927SOL     OW15679   4.129   3.738   4.319
 4927SOL    HW115680   4.134   3.640   4.301
 4927SOL    HW215681   4.093   3.786   4.240
 4928SOL     OW15682   1.154   0.323   6.462
 4928SOL    HW115683   1.156   0.294   6.558
 4928SOL    HW215684   1.098   0.259   6.410
 4929SOL     OW15685   1.027   4.830   4.428
 4929SOL    HW115686   1.034   4.806   4.525
 4929SOL    HW215687   1.118   4.844   4.391
 4930SOL     OW15688   4.598   0.823   3.168
 4930SOL    HW115689   4.583   0.724   3.159
 4930SOL    HW215690   4.538   0.859   3.239
 4931SOL     OW15691   0.059   0.240   0.735
 4931SOL    HW115692   6.994   0.228   0.692
 4931SOL    HW215693   0.060   0.326   0.787
 4932SOL     OW15694   2.685   3.378   1.808
 4932SOL    HW115695   2.749   3.453   1.791
 4932SOL    HW215696   2.604   3.413   1.856
 4933SOL     OW15697   1.825   0.158   3.382
 4933SOL    HW115698   1.738   0.168   3.431
 4933SOL    HW215699   1.877   0.243   3.388
 4934SOL     OW15700   2.571   5.342   2.906
 4934SOL    HW115701   2.487   5.353   2.958
 4934SOL    HW215702   2.648   5.331   2.968
 4935SOL     OW15703   1.383   1.308   6.307
 4935SOL    HW115704   1.288   1.275   6.305
 4935SOL    HW215705   1.394   1.381   6.240
 4936SOL     OW15706   2.275   4.971   1.771
 4936SOL    HW115707   2.353   4.986   1.711
 4936SOL    HW215708   2.290   4.889   1.826
 4937SOL     OW15709   6.946   2.495   6.258
 4937SOL    HW115710   6.909   2.586   6.278
 4937SOL    HW215711   6.909   2.462   6.171
 4938SOL     OW15712   2.574   6.228   6.238
 4938SOL    HW115713   2.585   6.219   6.139
 4938SOL    HW215714   2.485   6.190   6.265
 4939SOL     OW15715   6.528   2.088   4.216
 4939SOL    HW115716   6.520   2.146   4.136
 4939SOL    HW215717   6.586   2.009   4.195
 4940SOL     OW15718   0.655   0.942   4.913
 4940SOL    HW115719   0.617   0.849   4.914
 4940SOL    HW215720   0.695   0.963   5.001
 4941SOL     OW15721   4.954   2.630   5.274
 4941SOL    HW115722   5.018   2.560   5.307
 4941SOL    HW215723   4.943   2.620   5.175
 4942SOL     OW15724   5.571   3.214   5.965
 4942SOL    HW115725   5.608   3.132   5.920
 4942SOL    HW215726   5.645   3.274   5.992
 4943SOL     OW15727   4.623   3.746   5.781
 4943SOL    HW115728   4.602   3.836   5.817
 4943SOL    HW215729   4.576   3.676   5.836
 4944SOL     OW15730   2.547   4.428   1.670
 4944SOL    HW115731   2.589   4.338   1.662
 4944SOL    HW215732   2.618   4.497   1.684
 4945SOL     OW15733   1.378   0.279   4.265
 4945SOL    HW115734   1.295   0.269   4.210
 4945SOL    HW215735   1.367   0.230   4.351
 4946SOL     OW15736   1.443   5.229   0.158
 4946SOL    HW115737   1.390   5.147   0.182
 4946SOL    HW215738   1.458   5.231   0.059
 4947SOL     OW15739   2.079   0.516   0.786
 4947SOL    HW115740   2.048   0.534   0.693
 4947SOL    HW215741   1.999   0.498   0.844
 4948SOL     OW15742   1.431   3.176   2.733
 4948SOL    HW115743   1.480   3.163   2.646
 4948SOL    HW215744   1.416   3.274   2.748
 4949SOL     OW15745   5.914   4.961   5.500
 4949SOL    HW115746   6.000   4.996   5.537
 4949SOL    HW215747   5.903   4.866   5.529
 4950SOL     OW15748   2.088   5.160   4.304
 4950SOL    HW115749   2.131   5.137   4.392
 4950SOL    HW215750   2.079   5.078   4.249
 4951SOL     OW15751   5.916   0.755   4.866
 4951SOL    HW115752   5.877   0.768   4.775
 4951SOL    HW215753   5.845   0.722   4.929
 4952SOL     OW15754   0.309   0.876   5.914
 4952SOL    HW115755   0.359   0.791   5.900
 4952SOL    HW215756   0.212   0.857   5.923
 4953SOL     OW15757   1.705   6.808   3.069
 4953SOL    HW115758   1.712   6.713   3.098
 4953SOL    HW215759   1.796   6.849   3.066
 4954SOL     OW15760   3.619   3.225   0.192
 4954SOL    HW115761   3.673   3.303   0.161
 4954SOL    HW215762   3.625   3.217   0.291
 4955SOL     OW15763   3.375   6.702   6.841
 4955SOL    HW115764   3.345   6.633   6.907
 4955SOL    HW215765   3.475   6.705   6.839
 4956SOL     OW15766   2.132   6.533   5.061
 4956SOL    HW115767   2.168   6.443   5.086
 4956SOL    HW215768   2.128   6.541   4.962
 4957SOL     OW15769   5.401   2.389   1.929
 4957SOL    HW115770   5.371   2.464   1.870
 4957SOL    HW215771   5.321   2.342   1.966
 4958SOL     OW15772   0.460   5.160   5.736
 4958SOL    HW115773   0.401   5.126   5.663
 4958SOL    HW215774   0.441   5.111   5.821
 4959SOL     OW15775   6.194   1.870   0.142
 4959SOL    HW115776   6.271   1.909   0.092
 4959SOL    HW215777   6.226   1.798   0.203
 4960SOL     OW15778   3.543   4.892   3.393
 4960SOL    HW115779   3.552   4.979   3.345
 4960SOL    HW215780   3.446   4.868   3.400
 4961SOL     OW15781   4.156   0.879   5.820
 4961SOL    HW115782   4.233   0.824   5.785
 4961SOL    HW215783   4.176   0.909   5.913
 4962SOL     OW15784   5.815   2.370   0.163
 4962SOL    HW115785   5.791   2.273   0.169
 4962SOL    HW215786   5.735   2.422   0.133
 4963SOL     OW15787   6.849   6.114   0.705
 4963SOL    HW115788   6.769   6.078   0.753
 4963SOL    HW215789   6.862   6.063   0.620
 4964SOL     OW15790   2.864   0.820   3.925
 4964SOL    HW115791   2.865   0.740   3.985
 4964SOL    HW215792   2.958   0.852   3.912
 4965SOL     OW15793   0.358   1.174   2.002
 4965SOL    HW115794   0.380   1.205   2.094
 4965SOL    HW215795   0.399   1.084   1.986
 4966SOL     OW15796   2.287   6.323   5.180
 4966SOL    HW115797   2.234   6.377   5.246
 4966SOL    HW215798   2.317   6.239   5.223
 4967SOL     OW15799   4.124   5.027   5.408
 4967SOL    HW115800   4.084   5.020   5.317
 4967SOL    HW215801   4.109   5.119   5.444
 4968SOL     OW15802   6.677   1.860   4.207
 4968SOL    HW115803   6.771   1.827   4.222
 4968SOL    HW215804   6.648   1.834   4.115
 4969SOL     OW15805   2.595   5.765   3.091
 4969SOL    HW115806   2.615   5.671   3.118
 4969SOL    HW215807   2.616   5.777   2.994
 4970SOL     OW15808   2.458   2.631   2.488
 4970SOL    HW115809   2.480   2.536   2.464
 4970SOL    HW215810   2.498   2.653   2.576
 4971SOL     OW15811   6.087   5.716   3.337
 4971SOL    HW115812   6.014   5.784   3.330
 4971SOL    HW215813   6.106   5.697   3.433
 4972SOL     OW15814   1.168   3.835   0.803
 4972SOL    HW115815   1.089   3.819   0.862
 4972SOL    HW215816   1.139   3.836   0.707
 4973SOL     OW15817   1.601   6.511   2.626
 4973SOL    HW115818   1.607   6.426   2.573
 4973SOL    HW215819   1.583   6.588   2.564
 4974SOL     OW15820   6.402   4.584   1.076
 4974SOL    HW115821   6.336   4.631   1.135
 4974SOL    HW215822   6.353   4.535   1.004
 4975SOL     OW15823   6.022   4.052   5.419
 4975SOL    HW115824   6.017   4.136   5.366
 4975SOL    HW215825   6.004   3.974   5.359
 4976SOL     OW15826   1.886   1.171   3.888
 4976SOL    HW115827   1.920   1.250   3.837
 4976SOL    HW215828   1.935   1.089   3.859
 4977SOL     OW15829   4.000   4.896   0.241
 4977SOL    HW115830   3.998   4.975   0.302
 4977SOL    HW215831   3.930   4.906   0.171
 4978SOL     OW15832   6.532   3.744   4.820
 4978SOL    HW115833   6.537   3.693   4.734
 4978SOL    HW215834   6.478   3.827   4.807
 4979SOL     OW15835   6.969   0.016   6.740
 4979SOL    HW115836   6.879   0.058   6.734
 4979SOL    HW215837   6.978   6.971   6.668
 4980SOL     OW15838   5.350   6.124   3.327
 4980SOL    HW115839   5.295   6.042   3.344
 4980SOL    HW215840   5.317   6.170   3.245
 4981SOL     OW15841   4.881   5.530   0.294
 4981SOL    HW115842   4.837   5.617   0.270
 4981SOL    HW215843   4.918   5.488   0.212
 4982SOL     OW15844   2.796   1.177   5.640
 4982SOL    HW115845   2.735   1.255   5.629
 4982SOL    HW215846   2.891   1.206   5.626
 4983SOL     OW15847   6.041   3.494   4.593
 4983SOL    HW115848   5.971   3.557   4.626
 4983SOL    HW215849   6.073   3.437   4.669
 4984SOL     OW15850   5.485   4.164   3.215
 4984SOL    HW115851   5.517   4.069   3.210
 4984SOL    HW215852   5.401   4.173   3.162
 4985SOL     OW15853   5.968   6.849   3.236
 4985SOL    HW115854   5.883   6.797   3.242
 4985SOL    HW215855   5.996   6.877   3.328
 4986SOL     OW15856   0.001   4.175   1.735
 4986SOL    HW115857   6.971   4.135   1.662
 4986SOL    HW215858   6.982   4.260   1.766
 4987SOL     OW15859   1.241   0.902   2.213
 4987SOL    HW115860   1.261   0.855   2.298
 4987SOL    HW215861   1.228   0.835   2.140
 4988SOL     OW15862   5.389   0.690   2.372
 4988SOL    HW115863   5.428   0.760   2.431
 4988SOL    HW215864   5.443   0.606   2.379
 4989SOL     OW15865   5.245   0.460   1.349
 4989SOL    HW115866   5.307   0.383   1.362
 4989SOL    HW215867   5.236   0.511   1.435
 4990SOL     OW15868   2.485   2.239   5.672
 4990SOL    HW115869   2.534   2.164   5.716
 4990SOL    HW215870   2.409   2.203   5.618
 4991SOL     OW15871   6.144   5.086   4.186
 4991SOL    HW115872   6.228   5.074   4.240
 4991SOL    HW215873   6.166   5.079   4.089
 4992SOL     OW15874   5.102   0.996   3.488
 4992SOL    HW115875   5.098   0.973   3.391
 4992SOL    HW215876   5.111   1.094   3.499
 4993SOL     OW15877   2.545   5.728   4.076
 4993SOL    HW115878   2.533   5.672   3.994
 4993SOL    HW215879   2.473   5.706   4.142
 4994SOL     OW15880   1.581   0.949   3.725
 4994SOL    HW115881   1.641   0.873   3.750
 4994SOL    HW215882   1.496   0.943   3.778
 4995SOL     OW15883   0.167   2.083   5.546
 4995SOL    HW115884   0.226   2.110   5.470
 4995SOL    HW215885   0.076   2.123   5.533
 4996SOL     OW15886   0.817   1.852   2.723
 4996SOL    HW115887   0.807   1.755   2.704
 4996SOL    HW215888   0.904   1.885   2.685
 4997SOL     OW15889   5.487   2.813   3.025
 4997SOL    HW115890   5.447   2.767   3.104
 4997SOL    HW215891   5.425   2.883   2.991
 4998SOL     OW15892   2.244   4.340   4.994
 4998SOL    HW115893   2.271   4.244   4.984
 4998SOL    HW215894   2.228   4.380   4.904
 4999SOL     OW15895   6.481   3.560   0.194
 4999SOL    HW115896   6.494   3.467   0.229
 4999SOL    HW215897   6.496   3.561   0.095
 5000SOL     OW15898   2.833   0.061   3.218
 5000SOL    HW115899   2.873   0.128   3.156
 5000SOL    HW215900   2.885   7.000   3.212
 5001SOL     OW15901   0.170   3.954   0.929
 5001SOL    HW115902   0.229   3.991   1.002
 5001SOL    HW215903   0.219   3.960   0.842
 5002SOL     OW15904   0.664   3.588   3.316
 5002SOL    HW115905   0.689   3.527   3.240
 5002SOL    HW215906   0.743   3.644   3.341
 5003SOL     OW15907   2.668   6.195   2.480
 5003SOL    HW115908   2.658   6.239   2.390
 5003SOL    HW215909   2.608   6.239   2.546
 5004SOL     OW15910   3.463   5.469   6.405
 5004SOL    HW115911   3.430   5.562   6.387
 5004SOL    HW215912   3.407   5.403   6.356
 5005SOL     OW15913   3.287   2.843   0.676
 5005SOL    HW115914   3.337   2.780   0.735
 5005SOL    HW215915   3.196   2.806   0.658
 5006SOL     OW15916   5.375   0.490   0.542
 5006SOL    HW115917   5.302   0.556   0.561
 5006SOL    HW215918   5.442   0.492   0.616
 5007SOL     OW15919   1.208   6.912   0.500
 5007SOL    HW115920   1.129   6.966   0.530
 5007SOL    HW215921   1.275   6.971   0.456
 5008SOL     OW15922   6.459   6.713   2.433
 5008SOL    HW115923   6.414   6.627   2.457
 5008SOL    HW215924   6.553   6.712   2.469
 5009SOL     OW15925   0.841   0.010   1.000
 5009SOL    HW115926   0.920   6.975   0.986
 5009SOL    HW215927   0.782   6.995   1.071
 5010SOL     OW15928   4.036   3.738   2.543
 5010SOL    HW115929   4.087   3.695   2.618
 5010SOL    HW215930   4.081   3.717   2.456
 5011SOL     OW15931   1.918   3.921   1.985
 5011SOL    HW115932   2.010   3.908   2.022
 5011SOL    HW215933   1.912   3.882   1.894
 5012SOL     OW15934   6.003   4.418   6.008
 5012SOL    HW115935   5.929   4.355   5.986
 5012SOL    HW215936   6.013   4.423   6.108
 5013SOL     OW15937   5.088   1.672   6.423
 5013SOL    HW115938   5.109   1.606   6.495
 5013SOL    HW215939   5.045   1.626   6.346
 5014SOL     OW15940   5.582   4.219   0.399
 5014SOL    HW115941   5.501   4.250   0.349
 5014SOL    HW215942   5.657   4.283   0.383
 5015SOL     OW15943   4.850   1.776   4.397
 5015SOL    HW115944   4.815   1.774   4.490
 5015SOL    HW215945   4.784   1.734   4.335
 5016SOL     OW15946   2.007   2.094   0.249
 5016SOL    HW115947   1.976   2.104   0.154
 5016SOL    HW215948   2.071   2.017   0.254
 5017SOL     OW15949   1.809   2.555   0.001
 5017SOL    HW115950   1.859   2.563   6.939
 5017SOL    HW215951   1.818   2.640   0.053
 5018SOL     OW15952   0.008   4.145   2.083
 5018SOL    HW115953   0.029   4.238   2.051
 5018SOL    HW215954   6.998   4.149   2.176
 5019SOL     OW15955   1.329   4.907   6.551
 5019SOL    HW115956   1.388   4.828   6.569
 5019SOL    HW215957   1.320   4.920   6.452
 5020SOL     OW15958   5.259   0.129   6.436
 5020SOL    HW115959   5.320   0.179   6.498
 5020SOL    HW215960   5.181   0.186   6.413
 5021SOL     OW15961   0.814   1.440   6.040
 5021SOL    HW115962   0.817   1.416   6.137
 5021SOL    HW215963   0.901   1.482   6.014
 5022SOL     OW15964   0.717   1.500   6.686
 5022SOL    HW115965   0.634   1.501   6.630
 5022SOL    HW215966   0.711   1.571   6.755
 5023SOL     OW15967   6.585   2.765   1.445
 5023SOL    HW115968   6.589   2.864   1.459
 5023SOL    HW215969   6.588   2.745   1.347
 5024SOL     OW15970   5.550   5.295   1.923
 5024SOL    HW115971   5.598   5.301   1.835
 5024SOL    HW215972   5.561   5.203   1.961
 5025SOL     OW15973   3.194   1.730   2.025
 5025SOL    HW115974   3.163   1.709   2.117
 5025SOL    HW215975   3.132   1.689   1.958
 5026SOL     OW15976   6.329   5.709   5.746
 5026SOL    HW115977   6.333   5.773   5.670
 5026SOL    HW215978   6.401   5.732   5.812
 5027SOL     OW15979   0.339   6.159   2.254
 5027SOL    HW115980   0.319   6.195   2.345
 5027SOL    HW215981   0.347   6.060   2.258
 5028SOL     OW15982   0.508   1.558   2.832
 5028SOL    HW115983   0.593   1.506   2.838
 5028SOL    HW215984   0.524   1.642   2.779
 5029SOL     OW15985   6.885   2.769   2.820
 5029SOL    HW115986   6.808   2.826   2.790
 5029SOL    HW215987   6.963   2.827   2.841
 5030SOL     OW15988   0.385   6.997   0.036
 5030SOL    HW115989   0.303   6.992   7.003
 5030SOL    HW215990   0.421   6.905   0.049
 5031SOL     OW15991   5.966   0.149   5.159
 5031SOL    HW115992   5.979   0.244   5.190
 5031SOL    HW215993   5.869   0.127   5.159
 5032SOL     OW15994   1.952   2.744   1.024
 5032SOL    HW115995   1.943   2.676   1.097
 5032SOL    HW215996   1.917   2.832   1.056
 5033SOL     OW15997   2.744   6.288   5.945
 5033SOL    HW115998   2.812   6.267   5.874
 5033SOL    HW215999   2.696   6.372   5.922
 5034SOL     OW16000   4.880   0.520   2.795
 5034SOL    HW116001   4.922   0.548   2.709
 5034SOL    HW216002   4.804   0.581   2.818
 5035SOL     OW16003   0.543   4.363   0.437
 5035SOL    HW116004   0.621   4.307   0.467
 5035SOL    HW216005   0.554   4.387   0.341
 5036SOL     OW16006   0.319   4.677   0.151
 5036SOL    HW116007   0.222   4.659   0.167
 5036SOL    HW216008   0.338   4.673   0.053
 5037SOL     OW16009   5.226   2.729   3.323
 5037SOL    HW116010   5.132   2.757   3.301
 5037SOL    HW216011   5.275   2.807   3.363
 5038SOL     OW16012   2.099   4.020   6.256
 5038SOL    HW116013   2.024   4.063   6.206
 5038SOL    HW216014   2.123   4.076   6.335
 5039SOL     OW16015   3.105   4.334   5.271
 5039SOL    HW116016   3.035   4.403   5.255
 5039SOL    HW216017   3.073   4.245   5.237
 5040SOL     OW16018   2.438   5.177   6.336
 5040SOL    HW116019   2.377   5.125   6.395
 5040SOL    HW216020   2.520   5.203   6.387
 5041SOL     OW16021   1.688   1.511   1.706
 5041SOL    HW116022   1.683   1.589   1.768
 5041SOL    HW216023   1.756   1.529   1.635
 5042SOL     OW16024   6.469   3.052   0.549
 5042SOL    HW116025   6.369   3.042   0.553
 5042SOL    HW216026   6.501   3.031   0.457
 5043SOL     OW16027   3.520   0.466   5.987
 5043SOL    HW116028   3.617   0.452   6.007
 5043SOL    HW216029   3.466   0.403   6.044
 5044SOL     OW16030   0.603   6.706   0.674
 5044SOL    HW116031   0.638   6.708   0.580
 5044SOL    HW216032   0.617   6.796   0.716
 5045SOL     OW16033   5.597   1.664   6.427
 5045SOL    HW116034   5.576   1.620   6.514
 5045SOL    HW216035   5.518   1.717   6.396
 5046SOL     OW16036   3.395   4.137   2.911
 5046SOL    HW116037   3.326   4.068   2.887
 5046SOL    HW216038   3.386   4.160   3.008
 5047SOL     OW16039   6.687   3.581   2.427
 5047SOL    HW116040   6.740   3.644   2.484
 5047SOL    HW216041   6.690   3.490   2.468
 5048SOL     OW16042   0.405   1.320   2.254
 5048SOL    HW116043   0.465   1.400   2.263
 5048SOL    HW216044   0.460   1.237   2.255
 5049SOL     OW16045   5.952   1.751   5.496
 5049SOL    HW116046   5.896   1.812   5.439
 5049SOL    HW216047   6.046   1.786   5.499
 5050SOL     OW16048   1.467   0.529   1.211
 5050SOL    HW116049   1.380   0.567   1.244
 5050SOL    HW216050   1.527   0.603   1.183
 5051SOL     OW16051   4.783   4.906   1.074
 5051SOL    HW116052   4.743   4.817   1.095
 5051SOL    HW216053   4.717   4.978   1.096
 5052SOL     OW16054   2.198   6.856   6.430
 5052SOL    HW116055   2.104   6.825   6.443
 5052SOL    HW216056   2.199   6.955   6.416
 5053SOL     OW16057   2.216   3.997   2.810
 5053SOL    HW116058   2.234   3.909   2.767
 5053SOL    HW216059   2.123   3.998   2.847
 5054SOL     OW16060   3.389   6.352   4.975
 5054SOL    HW116061   3.412   6.260   4.944
 5054SOL    HW216062   3.352   6.405   4.898
 5055SOL     OW16063   1.557   0.724   5.583
 5055SOL    HW116064   1.467   0.768   5.585
 5055SOL    HW216065   1.597   0.734   5.492
 5056SOL     OW16066   6.643   4.656   0.702
 5056SOL    HW116067   6.728   4.679   0.750
 5056SOL    HW216068   6.589   4.593   0.759
 5057SOL     OW16069   6.523   6.137   5.192
 5057SOL    HW116070   6.438   6.171   5.233
 5057SOL    HW216071   6.505   6.105   5.099
 5058SOL     OW16072   2.631   3.148   5.372
 5058SOL    HW116073   2.587   3.075   5.319
 5058SOL    HW216074   2.572   3.229   5.372
 5059SOL     OW16075   5.777   1.762   3.431
 5059SOL    HW116076   5.752   1.858   3.446
 5059SOL    HW216077   5.855   1.739   3.488
 5060SOL     OW16078   1.050   1.695   5.177
 5060SOL    HW116079   1.089   1.653   5.258
 5060SOL    HW216080   1.012   1.624   5.117
 5061SOL     OW16081   3.555   3.356   3.084
 5061SOL    HW116082   3.506   3.310   3.010
 5061SOL    HW216083   3.618   3.292   3.127
 5062SOL     OW16084   5.380   0.901   3.335
 5062SOL    HW116085   5.326   0.889   3.419
 5062SOL    HW216086   5.319   0.922   3.259
 5063SOL     OW16087   1.061   0.115   2.402
 5063SOL    HW116088   1.128   0.123   2.476
 5063SOL    HW216089   1.109   0.105   2.315
 5064SOL     OW16090   4.837   3.942   1.800
 5064SOL    HW116091   4.746   3.957   1.762
 5064SOL    HW216092   4.871   4.027   1.840
 5065SOL     OW16093   1.695   1.975   3.804
 5065SOL    HW116094   1.699   1.896   3.743
 5065SOL    HW216095   1.610   1.974   3.857
 5066SOL     OW16096   4.018   4.572   1.128
 5066SOL    HW116097   3.955   4.501   1.158
 5066SOL    HW216098   4.100   4.570   1.185
 5067SOL     OW16099   3.503   1.090   2.543
 5067SOL    HW116100   3.536   1.161   2.480
 5067SOL    HW216101   3.453   1.020   2.491
 5068SOL     OW16102   2.705   5.228   6.780
 5068SOL    HW116103   2.678   5.324   6.774
 5068SOL    HW216104   2.787   5.213   6.724
 5069SOL     OW16105   2.045   3.136   5.579
 5069SOL    HW116106   2.055   3.235   5.563
 5069SOL    HW216107   2.133   3.092   5.564
 5070SOL     OW16108   4.762   4.305   4.096
 5070SOL    HW116109   4.718   4.373   4.155
 5070SOL    HW216110   4.829   4.253   4.148
 5071SOL     OW16111   4.136   1.173   3.374
 5071SOL    HW116112   4.147   1.251   3.312
 5071SOL    HW216113   4.167   1.089   3.327
 5072SOL     OW16114   1.126   0.902   1.575
 5072SOL    HW116115   1.063   0.970   1.537
 5072SOL    HW216116   1.077   0.842   1.637
 5073SOL     OW16117   1.012   4.880   1.264
 5073SOL    HW116118   0.929   4.912   1.309
 5073SOL    HW216119   1.091   4.929   1.299
 5074SOL     OW16120   3.357   2.470   0.991
 5074SOL    HW116121   3.261   2.482   0.963
 5074SOL    HW216122   3.363   2.464   1.090
 5075SOL     OW16123   1.032   2.464   6.198
 5075SOL    HW116124   1.046   2.545   6.140
 5075SOL    HW216125   1.011   2.385   6.141
 5076SOL     OW16126   5.222   0.663   0.823
 5076SOL    HW116127   5.162   0.585   0.840
 5076SOL    HW216128   5.311   0.646   0.867
 5077SOL     OW16129   2.229   4.367   5.484
 5077SOL    HW116130   2.293   4.426   5.533
 5077SOL    HW216131   2.271   4.338   5.397
 5078SOL     OW16132   0.300   1.009   4.243
 5078SOL    HW116133   0.383   1.064   4.238
 5078SOL    HW216134   0.323   0.912   4.235
 5079SOL     OW16135   2.035   3.252   4.925
 5079SOL    HW116136   1.941   3.281   4.909
 5079SOL    HW216137   2.077   3.224   4.838
 5080SOL     OW16138   6.148   6.597   6.431
 5080SOL    HW116139   6.050   6.606   6.414
 5080SOL    HW216140   6.185   6.522   6.376
 5081SOL     OW16141   3.636   3.149   5.206
 5081SOL    HW116142   3.618   3.153   5.305
 5081SOL    HW216143   3.569   3.089   5.163
 5082SOL     OW16144   5.144   5.501   1.730
 5082SOL    HW116145   5.137   5.592   1.771
 5082SOL    HW216146   5.191   5.507   1.642
 5083SOL     OW16147   2.652   0.435   2.879
 5083SOL    HW116148   2.565   0.417   2.925
 5083SOL    HW216149   2.723   0.377   2.919
 5084SOL     OW16150   0.318   4.337   4.239
 5084SOL    HW116151   0.402   4.362   4.189
 5084SOL    HW216152   0.341   4.272   4.312
 5085SOL     OW16153   6.064   2.643   6.388
 5085SOL    HW116154   6.016   2.673   6.470
 5085SOL    HW216155   6.062   2.716   6.319
 5086SOL     OW16156   1.008   5.406   3.405
 5086SOL    HW116157   1.079   5.393   3.473
 5086SOL    HW216158   0.992   5.319   3.357
 5087SOL     OW16159   1.640   5.562   3.090
 5087SOL    HW116160   1.644   5.662   3.096
 5087SOL    HW216161   1.650   5.523   3.182
 5088SOL     OW16162   6.028   0.197   4.094
 5088SOL    HW116163   6.072   0.107   4.105
 5088SOL    HW216164   6.041   0.229   4.001
 5089SOL     OW16165   5.591   3.777   3.857
 5089SOL    HW116166   5.562   3.845   3.924
 5089SOL    HW216167   5.635   3.701   3.903
 5090SOL     OW16168   2.130   3.852   2.328
 5090SOL    HW116169   2.172   3.921   2.386
 5090SOL    HW216170   2.141   3.878   2.232
 5091SOL     OW16171   0.293   1.360   1.544
 5091SOL    HW116172   0.312   1.283   1.606
 5091SOL    HW216173   0.194   1.371   1.534
 5092SOL     OW16174   3.651   3.814   3.114
 5092SOL    HW116175   3.652   3.897   3.058
 5092SOL    HW216176   3.664   3.838   3.210
 5093SOL     OW16177   2.938   1.389   0.472
 5093SOL    HW116178   3.012   1.421   0.413
 5093SOL    HW216179   2.969   1.311   0.526
 5094SOL     OW16180   2.463   5.646   6.034
 5094SOL    HW116181   2.513   5.722   6.077
 5094SOL    HW216182   2.461   5.568   6.096
 5095SOL     OW16183   6.354   2.140   3.865
 5095SOL    HW116184   6.416   2.194   3.921
 5095SOL    HW216185   6.340   2.051   3.907
 5096SOL     OW16186   3.914   5.093   6.776
 5096SOL    HW116187   3.899   5.011   6.721
 5096SOL    HW216188   3.837   5.156   6.764
 5097SOL     OW16189   1.445   6.890   6.450
 5097SOL    HW116190   1.345   6.879   6.453
 5097SOL    HW216191   1.468   6.986   6.465
 5098SOL     OW16192   2.654   0.367   1.878
 5098SOL    HW116193   2.734   0.309   1.890
 5098SOL    HW216194   2.571   0.311   1.881
 5099SOL     OW16195   1.042   0.253   0.251
 5099SOL    HW116196   1.134   0.277   0.285
 5099SOL    HW216197   1.028   0.295   0.161
 5100SOL     OW16198   3.265   5.473   4.993
 5100SOL    HW116199   3.304   5.382   4.982
 5100SOL    HW216200   3.338   5.541   4.996
 5101SOL     OW16201   4.937   0.113   0.285
 5101SOL    HW116202   5.036   0.106   0.299
 5101SOL    HW216203   4.914   0.077   0.194
 5102SOL     OW16204   5.650   6.772   4.503
 5102SOL    HW116205   5.709   6.847   4.475
 5102SOL    HW216206   5.644   6.705   4.429
 5103SOL     OW16207   0.434   0.301   3.919
 5103SOL    HW116208   0.390   0.215   3.944
 5103SOL    HW216209   0.445   0.304   3.820
 5104SOL     OW16210   1.813   6.169   2.233
 5104SOL    HW116211   1.789   6.190   2.138
 5104SOL    HW216212   1.901   6.212   2.255
 5105SOL     OW16213   2.686   2.905   0.745
 5105SOL    HW116214   2.618   2.867   0.682
 5105SOL    HW216215   2.639   2.948   0.823
 5106SOL     OW16216   4.271   2.106   0.438
 5106SOL    HW116217   4.283   2.204   0.424
 5106SOL    HW216218   4.360   2.062   0.447
 5107SOL     OW16219   3.446   1.645   0.792
 5107SOL    HW116220   3.402   1.692   0.716
 5107SOL    HW216221   3.466   1.550   0.766
 5108SOL     OW16222   3.907   4.079   4.956
 5108SOL    HW116223   3.834   4.033   4.906
 5108SOL    HW216224   3.892   4.178   4.953
 5109SOL     OW16225   1.070   1.762   0.367
 5109SOL    HW116226   1.000   1.753   0.437
 5109SOL    HW216227   1.042   1.713   0.284
 5110SOL     OW16228   0.784   0.764   5.922
 5110SOL    HW116229   0.740   0.803   5.841
 5110SOL    HW216230   0.804   0.837   5.987
 5111SOL     OW16231   1.496   0.476   4.969
 5111SOL    HW116232   1.405   0.440   4.992
 5111SOL    HW216233   1.487   0.572   4.943
 5112SOL     OW16234   1.824   1.272   3.280
 5112SOL    HW116235   1.753   1.203   3.292
 5112SOL    HW216236   1.899   1.255   3.344
 5113SOL     OW16237   1.951   6.997   1.116
 5113SOL    HW116238   1.920   0.033   1.190
 5113SOL    HW216239   1.966   0.026   1.033
 5114SOL     OW16240   3.489   1.080   6.477
 5114SOL    HW116241   3.469   1.105   6.572
 5114SOL    HW216242   3.403   1.069   6.427
 5115SOL     OW16243   1.880   4.952   4.210
 5115SOL    HW116244   1.926   4.947   4.298
 5115SOL    HW216245   1.815   4.877   4.202
 5116SOL     OW16246   0.184   6.871   6.101
 5116SOL    HW116247   0.123   6.916   6.036
 5116SOL    HW216248   0.275   6.912   6.095
 5117SOL     OW16249   2.296   4.370   4.491
 5117SOL    HW116250   2.277   4.333   4.582
 5117SOL    HW216251   2.326   4.297   4.430
 5118SOL     OW16252   5.084   0.128   6.920
 5118SOL    HW116253   5.095   0.140   6.821
 5118SOL    HW216254   5.136   0.048   6.950
 5119SOL     OW16255   5.182   0.947   1.962
 5119SOL    HW116256   5.195   0.904   2.051
 5119SOL    HW216257   5.087   0.973   1.950
 5120SOL     OW16258   3.786   0.378   3.962
 5120SOL    HW116259   3.854   0.337   4.023
 5120SOL    HW216260   3.695   0.366   4.000
 5121SOL     OW16261   2.543   2.275   6.398
 5121SOL    HW116262   2.541   2.207   6.325
 5121SOL    HW216263   2.471   2.342   6.383
 5122SOL     OW16264   3.444   6.716   3.138
 5122SOL    HW116265   3.359   6.718   3.191
 5122SOL    HW216266   3.441   6.787   3.067
 5123SOL     OW16267   4.125   2.206   4.780
 5123SOL    HW116268   4.194   2.263   4.735
 5123SOL    HW216269   4.035   2.225   4.741
 5124SOL     OW16270   2.488   5.514   4.755
 5124SOL    HW116271   2.532   5.426   4.736
 5124SOL    HW216272   2.522   5.550   4.842
 5125SOL     OW16273   5.846   3.436   4.334
 5125SOL    HW116274   5.893   3.411   4.249
 5125SOL    HW216275   5.798   3.523   4.321
 5126SOL     OW16276   6.264   4.906   5.135
 5126SOL    HW116277   6.316   4.990   5.119
 5126SOL    HW216278   6.316   4.828   5.101
 5127SOL     OW16279   1.117   4.215   6.905
 5127SOL    HW116280   1.113   4.166   6.817
 5127SOL    HW216281   1.198   4.273   6.907
 5128SOL     OW16282   6.863   0.405   6.495
 5128SOL    HW116283   6.870   0.496   6.455
 5128SOL    HW216284   6.852   0.412   6.594
 5129SOL     OW16285   5.766   6.973   2.623
 5129SOL    HW116286   5.848   6.917   2.611
 5129SOL    HW216287   5.744   6.979   2.720
 5130SOL     OW16288   0.886   5.865   3.642
 5130SOL    HW116289   0.841   5.851   3.730
 5130SOL    HW216290   0.893   5.963   3.623
 5131SOL     OW16291   2.679   5.085   3.797
 5131SOL    HW116292   2.720   5.147   3.864
 5131SOL    HW216293   2.667   5.133   3.710
 5132SOL     OW16294   3.271   2.429   6.286
 5132SOL    HW116295   3.231   2.519   6.307
 5132SOL    HW216296   3.340   2.440   6.215
 5133SOL     OW16297   1.409   5.225   6.911
 5133SOL    HW116298   1.327   5.283   6.910
 5133SOL    HW216299   1.415   5.173   6.826
 5134SOL     OW16300   6.917   2.059   2.601
 5134SOL    HW116301   6.839   2.119   2.581
 5134SOL    HW216302   7.001   2.101   2.567
 5135SOL     OW16303   5.736   3.565   3.962
 5135SOL    HW116304   5.711   3.469   3.956
 5135SOL    HW216305   5.747   3.592   4.057
 5136SOL     OW16306   5.278   0.292   0.084
 5136SOL    HW116307   5.374   0.304   0.110
 5136SOL    HW216308   5.266   0.323   7.014
 5137SOL     OW16309   5.286   4.102   5.659
 5137SOL    HW116310   5.210   4.068   5.603
 5137SOL    HW216311   5.315   4.192   5.624
 5138SOL     OW16312   3.946   2.802   5.513
 5138SOL    HW116313   3.935   2.888   5.463
 5138SOL    HW216314   4.039   2.767   5.497
 5139SOL     OW16315   1.403   1.582   3.465
 5139SOL    HW116316   1.344   1.545   3.537
 5139SOL    HW216317   1.405   1.682   3.472
 5140SOL     OW16318   3.917   2.603   6.197
 5140SOL    HW116319   3.881   2.582   6.106
 5140SOL    HW216320   4.016   2.617   6.192
 5141SOL     OW16321   6.267   4.086   1.018
 5141SOL    HW116322   6.299   3.992   1.005
 5141SOL    HW216323   6.195   4.087   1.088
 5142SOL     OW16324   5.876   6.768   2.213
 5142SOL    HW116325   5.780   6.764   2.242
 5142SOL    HW216326   5.917   6.677   2.219
 5143SOL     OW16327   6.643   4.706   4.328
 5143SOL    HW116328   6.679   4.677   4.239
 5143SOL    HW216329   6.586   4.634   4.367
 5144SOL     OW16330   0.728   5.142   5.612
 5144SOL    HW116331   0.787   5.140   5.693
 5144SOL    HW216332   0.633   5.153   5.639
 5145SOL     OW16333   3.568   5.738   5.833
 5145SOL    HW116334   3.609   5.720   5.744
 5145SOL    HW216335   3.473   5.767   5.821
 5146SOL     OW16336   3.176   4.012   5.669
 5146SOL    HW116337   3.147   4.052   5.755
 5146SOL    HW216338   3.114   3.938   5.644
 5147SOL     OW16339   6.519   5.447   2.937
 5147SOL    HW116340   6.606   5.401   2.916
 5147SOL    HW216341   6.473   5.472   2.852
 5148SOL     OW16342   6.292   0.218   1.824
 5148SOL    HW116343   6.346   0.134   1.818
 5148SOL    HW216344   6.216   0.214   1.760
 5149SOL     OW16345   6.301   6.017   3.144
 5149SOL    HW116346   6.251   6.086   3.197
 5149SOL    HW216347   6.384   5.991   3.193
 5150SOL     OW16348   2.185   5.774   3.319
 5150SOL    HW116349   2.245   5.817   3.386
 5150SOL    HW216350   2.217   5.797   3.227
 5151SOL     OW16351   6.788   3.355   2.021
 5151SOL    HW116352   6.734   3.417   2.077
 5151SOL    HW216353   6.791   3.265   2.066
 5152SOL     OW16354   1.878   4.918   0.131
 5152SOL    HW116355   1.944   4.994   0.133
 5152SOL    HW216356   1.833   4.916   0.041
 5153SOL     OW16357   1.332   1.299   6.868
 5153SOL    HW116358   1.244   1.262   6.897
 5153SOL    HW216359   1.402   1.228   6.873
 5154SOL     OW16360   1.009   2.632   5.650
 5154SOL    HW116361   1.028   2.687   5.569
 5154SOL    HW216362   0.976   2.541   5.621
 5155SOL     OW16363   4.313   0.414   2.259
 5155SOL    HW116364   4.254   0.352   2.208
 5155SOL    HW216365   4.402   0.422   2.213
 5156SOL     OW16366   5.304   3.944   6.191
 5156SOL    HW116367   5.308   3.880   6.115
 5156SOL    HW216368   5.397   3.974   6.215
 5157SOL     OW16369   3.711   1.954   3.340
 5157SOL    HW116370   3.674   1.878   3.394
 5157SOL    HW216371   3.766   1.917   3.265
 5158SOL     OW16372   3.537   1.928   1.502
 5158SOL    HW116373   3.455   1.893   1.457
 5158SOL    HW216374   3.537   2.028   1.499
 5159SOL     OW16375   6.011   3.735   5.050
 5159SOL    HW116376   6.106   3.765   5.039
 5159SOL    HW216377   5.984   3.743   5.146
 5160SOL     OW16378   0.356   4.469   3.006
 5160SOL    HW116379   0.272   4.486   3.058
 5160SOL    HW216380   0.333   4.443   2.913
 5161SOL     OW16381   1.929   3.773   5.943
 5161SOL    HW116382   1.896   3.739   6.031
 5161SOL    HW216383   1.894   3.714   5.870
 5162SOL     OW16384   0.888   4.899   2.734
 5162SOL    HW116385   0.940   4.956   2.671
 5162SOL    HW216386   0.837   4.958   2.797
 5163SOL     OW16387   3.234   6.570   0.048
 5163SOL    HW116388   3.187   6.533   0.128
 5163SOL    HW216389   3.330   6.544   0.051
 5164SOL     OW16390   4.596   2.015   6.615
 5164SOL    HW116391   4.524   1.979   6.674
 5164SOL    HW216392   4.561   2.093   6.563
 5165SOL     OW16393   6.733   3.817   5.656
 5165SOL    HW116394   6.780   3.889   5.604
 5165SOL    HW216395   6.793   3.738   5.666
 5166SOL     OW16396   0.548   5.744   2.157
 5166SOL    HW116397   0.503   5.663   2.120
 5166SOL    HW216398   0.643   5.723   2.177
 5167SOL     OW16399   6.967   5.666   5.865
 5167SOL    HW116400   6.946   5.744   5.923
 5167SOL    HW216401   6.898   5.657   5.794
 5168SOL     OW16402   4.861   3.426   1.906
 5168SOL    HW116403   4.829   3.516   1.877
 5168SOL    HW216404   4.803   3.355   1.866
 5169SOL     OW16405   4.096   2.132   4.239
 5169SOL    HW116406   3.997   2.145   4.243
 5169SOL    HW216407   4.128   2.093   4.325
 5170SOL     OW16408   0.519   4.332   5.274
 5170SOL    HW116409   0.608   4.340   5.319
 5170SOL    HW216410   0.458   4.275   5.330
 5171SOL     OW16411   0.990   5.233   5.119
 5171SOL    HW116412   0.967   5.138   5.098
 5171SOL    HW216413   0.955   5.256   5.210
 5172SOL     OW16414   1.325   3.107   2.348
 5172SOL    HW116415   1.281   3.158   2.274
 5172SOL    HW216416   1.255   3.060   2.403
 5173SOL     OW16417   5.274   5.162   4.927
 5173SOL    HW116418   5.335   5.096   4.884
 5173SOL    HW216419   5.181   5.152   4.890
 5174SOL     OW16420   2.153   4.747   3.111
 5174SOL    HW116421   2.056   4.772   3.108
 5174SOL    HW216422   2.196   4.790   3.191
 5175SOL     OW16423   2.270   3.469   6.919
 5175SOL    HW116424   2.358   3.487   6.873
 5175SOL    HW216425   2.198   3.463   6.850
 5176SOL     OW16426   5.225   3.567   6.512
 5176SOL    HW116427   5.240   3.518   6.598
 5176SOL    HW216428   5.210   3.664   6.532
 5177SOL     OW16429   5.741   0.436   0.489
 5177SOL    HW116430   5.709   0.515   0.541
 5177SOL    HW216431   5.833   0.452   0.456
 5178SOL     OW16432   1.131   3.391   2.073
 5178SOL    HW116433   1.098   3.483   2.052
 5178SOL    HW216434   1.079   3.324   2.020
 5179SOL     OW16435   4.317   5.244   4.133
 5179SOL    HW116436   4.400   5.225   4.081
 5179SOL    HW216437   4.278   5.159   4.166
 5180SOL     OW16438   2.735   2.147   0.922
 5180SOL    HW116439   2.771   2.164   1.014
 5180SOL    HW216440   2.637   2.127   0.928
 5181SOL     OW16441   5.606   1.104   2.713
 5181SOL    HW116442   5.595   1.040   2.636
 5181SOL    HW216443   5.546   1.076   2.787
 5182SOL     OW16444   3.810   3.878   1.762
 5182SOL    HW116445   3.884   3.909   1.822
 5182SOL    HW216446   3.747   3.819   1.814
 5183SOL     OW16447   3.724   1.594   2.312
 5183SOL    HW116448   3.822   1.573   2.309
 5183SOL    HW216449   3.674   1.517   2.350
 5184SOL     OW16450   0.420   1.484   4.743
 5184SOL    HW116451   0.412   1.492   4.644
 5184SOL    HW216452   0.361   1.551   4.787
 5185SOL     OW16453   5.905   0.700   2.860
 5185SOL    HW116454   5.907   0.800   2.852
 5185SOL    HW216455   5.998   0.667   2.876
 5186SOL     OW16456   6.406   2.601   0.454
 5186SOL    HW116457   6.427   2.536   0.381
 5186SOL    HW216458   6.378   2.689   0.414
 5187SOL     OW16459   1.135   6.533   4.079
 5187SOL    HW116460   1.211   6.567   4.134
 5187SOL    HW216461   1.169   6.464   4.014
 5188SOL     OW16462   0.731   5.780   1.337
 5188SOL    HW116463   0.657   5.843   1.314
 5188SOL    HW216464   0.747   5.718   1.260
 5189SOL     OW16465   3.853   5.273   1.096
 5189SOL    HW116466   3.918   5.242   1.165
 5189SOL    HW216467   3.767   5.298   1.140
 5190SOL     OW16468   0.938   1.814   4.505
 5190SOL    HW116469   0.860   1.857   4.549
 5190SOL    HW216470   0.906   1.742   4.443
 5191SOL     OW16471   4.308   6.868   2.018
 5191SOL    HW116472   4.229   6.929   2.015
 5191SOL    HW216473   4.364   6.881   1.937
 5192SOL     OW16474   2.361   5.603   2.272
 5192SOL    HW116475   2.400   5.632   2.359
 5192SOL    HW216476   2.424   5.540   2.227
 5193SOL     OW16477   4.831   4.747   4.732
 5193SOL    HW116478   4.866   4.684   4.801
 5193SOL    HW216479   4.778   4.819   4.776
 5194SOL     OW16480   4.748   1.827   7.012
 5194SOL    HW116481   4.663   1.775   6.999
 5194SOL    HW216482   4.822   1.765   0.013
 5195SOL     OW16483   7.016   6.170   4.018
 5195SOL    HW116484   6.959   6.181   4.099
 5195SOL    HW216485   0.060   6.099   4.035
 5196SOL     OW16486   3.745   6.131   0.964
 5196SOL    HW116487   3.694   6.193   0.904
 5196SOL    HW216488   3.686   6.055   0.991
 5197SOL     OW16489   2.098   4.865   5.900
 5197SOL    HW116490   2.086   4.768   5.877
 5197SOL    HW216491   2.145   4.873   5.988
 5198SOL     OW16492   4.384   7.018   3.355
 5198SOL    HW116493   4.291   0.022   3.331
 5198SOL    HW216494   4.426   6.972   3.277
 5199SOL     OW16495   1.786   5.616   0.788
 5199SOL    HW116496   1.828   5.707   0.783
 5199SOL    HW216497   1.826   5.558   0.717
 5200SOL     OW16498   1.085   2.840   5.151
 5200SOL    HW116499   1.152   2.894   5.202
 5200SOL    HW216500   1.005   2.896   5.130
 5201SOL     OW16501   0.184   0.057   2.841
 5201SOL    HW116502   0.206   0.103   2.755
 5201SOL    HW216503   0.245   0.090   2.914
 5202SOL     OW16504   5.870   3.357   5.709
 5202SOL    HW116505   5.909   3.402   5.789
 5202SOL    HW216506   5.875   3.258   5.721
 5203SOL     OW16507   2.393   1.898   0.073
 5203SOL    HW116508   2.418   1.811   0.031
 5203SOL    HW216509   2.380   1.967   0.002
 5204SOL     OW16510   4.157   5.850   6.826
 5204SOL    HW116511   4.202   5.779   6.771
 5204SOL    HW216512   4.222   5.888   6.892
 5205SOL     OW16513   0.863   5.908   0.930
 5205SOL    HW116514   0.817   5.845   0.993
 5205SOL    HW216515   0.898   5.987   0.981
 5206SOL     OW16516   0.674   4.995   6.303
 5206SOL    HW116517   0.707   4.924   6.366
 5206SOL    HW216518   0.721   5.081   6.322
 5207SOL     OW16519   0.951   6.157   3.705
 5207SOL    HW116520   1.034   6.152   3.649
 5207SOL    HW216521   0.973   6.132   3.799
 5208SOL     OW16522   4.440   2.617   6.109
 5208SOL    HW116523   4.506   2.612   6.034
 5208SOL    HW216524   4.463   2.547   6.178
 5209SOL     OW16525   5.819   6.483   2.368
 5209SOL    HW116526   5.728   6.483   2.410
 5209SOL    HW216527   5.810   6.468   2.269
 5210SOL     OW16528   4.453   3.028   6.610
 5210SOL    HW116529   4.461   3.048   6.512
 5210SOL    HW216530   4.509   2.949   6.633
 5211SOL     OW16531   3.664   2.627   5.309
 5211SOL    HW116532   3.567   2.603   5.306
 5211SOL    HW216533   3.688   2.658   5.401
 5212SOL     OW16534   0.051   3.254   0.828
 5212SOL    HW116535   0.024   3.350   0.826
 5212SOL    HW216536   7.000   3.199   0.865
 5213SOL     OW16537   4.903   4.147   6.124
 5213SOL    HW116538   4.918   4.148   6.025
 5213SOL    HW216539   4.834   4.077   6.147
 5214SOL     OW16540   5.459   1.500   6.084
 5214SOL    HW116541   5.505   1.589   6.087
 5214SOL    HW216542   5.368   1.509   6.123
 5215SOL     OW16543   7.023   4.895   3.734
 5215SOL    HW116544   6.972   4.843   3.803
 5215SOL    HW216545   0.025   4.984   3.772
 5216SOL     OW16546   4.952   5.011   2.358
 5216SOL    HW116547   5.003   4.929   2.385
 5216SOL    HW216548   5.015   5.078   2.319
 5217SOL     OW16549   4.232   5.123   4.456
 5217SOL    HW116550   4.146   5.152   4.415
 5217SOL    HW216551   4.240   5.161   4.549
 5218SOL     OW16552   0.874   0.734   2.903
 5218SOL    HW116553   0.887   0.769   2.996
 5218SOL    HW216554   0.960   0.743   2.852
 5219SOL     OW16555   4.560   1.462   4.977
 5219SOL    HW116556   4.561   1.375   5.026
 5219SOL    HW216557   4.529   1.534   5.040
 5220SOL     OW16558   0.615   5.827   2.476
 5220SOL    HW116559   0.658   5.785   2.397
 5220SOL    HW216560   0.681   5.884   2.525
 5221SOL     OW16561   5.685   2.557   3.887
 5221SOL    HW116562   5.663   2.649   3.918
 5221SOL    HW216563   5.784   2.546   3.880
 5222SOL     OW16564   3.405   6.334   3.123
 5222SOL    HW116565   3.482   6.295   3.072
 5222SOL    HW216566   3.359   6.261   3.174
 5223SOL     OW16567   6.135   2.560   0.547
 5223SOL    HW116568   6.227   2.529   0.522
 5223SOL    HW216569   6.068   2.523   0.483
 5224SOL     OW16570   6.694   2.451   4.456
 5224SOL    HW116571   6.666   2.355   4.448
 5224SOL    HW216572   6.626   2.501   4.510
 5225SOL     OW16573   0.147   0.791   3.721
 5225SOL    HW116574   0.231   0.760   3.764
 5225SOL    HW216575   0.074   0.795   3.789
 5226SOL     OW16576   6.853   5.984   4.785
 5226SOL    HW116577   6.781   5.930   4.829
 5226SOL    HW216578   6.814   6.069   4.750
 5227SOL     OW16579   0.375   3.264   4.794
 5227SOL    HW116580   0.453   3.257   4.857
 5227SOL    HW216581   0.293   3.227   4.838
 5228SOL     OW16582   6.352   2.280   1.035
 5228SOL    HW116583   6.432   2.245   0.987
 5228SOL    HW216584   6.294   2.331   0.972
 5229SOL     OW16585   1.642   5.891   0.004
 5229SOL    HW116586   1.708   5.954   6.988
 5229SOL    HW216587   1.637   5.906   0.102
 5230SOL     OW16588   0.708   5.616   1.906
 5230SOL    HW116589   0.679   5.706   1.874
 5230SOL    HW216590   0.805   5.620   1.932
 5231SOL     OW16591   4.638   2.662   4.402
 5231SOL    HW116592   4.696   2.585   4.427
 5231SOL    HW216593   4.651   2.737   4.466
 5232SOL     OW16594   2.514   3.180   5.980
 5232SOL    HW116595   2.563   3.241   6.042
 5232SOL    HW216596   2.579   3.125   5.928
 5233SOL     OW16597   5.115   1.193   2.435
 5233SOL    HW116598   5.025   1.168   2.401
 5233SOL    HW216599   5.127   1.157   2.528
 5234SOL     OW16600   2.872   1.068   6.199
 5234SOL    HW116601   2.925   1.131   6.255
 5234SOL    HW216602   2.919   1.054   6.111
 5235SOL     OW16603   2.006   2.084   0.524
 5235SOL    HW116604   1.980   2.099   0.429
 5235SOL    HW216605   2.095   2.037   0.527
 5236SOL     OW16606   5.110   4.808   2.440
 5236SOL    HW116607   5.087   4.722   2.394
 5236SOL    HW216608   5.207   4.808   2.464
 5237SOL     OW16609   2.123   1.222   5.120
 5237SOL    HW116610   2.178   1.273   5.054
 5237SOL    HW216611   2.027   1.252   5.113
 5238SOL     OW16612   0.873   4.568   0.211
 5238SOL    HW116613   0.944   4.557   0.141
 5238SOL    HW216614   0.911   4.545   0.301
 5239SOL     OW16615   3.596   2.910   4.161
 5239SOL    HW116616   3.599   3.004   4.194
 5239SOL    HW216617   3.525   2.901   4.092
 5240SOL     OW16618   3.069   1.580   5.923
 5240SOL    HW116619   3.102   1.644   5.854
 5240SOL    HW216620   3.014   1.629   5.990
 5241SOL     OW16621   0.572   5.296   4.919
 5241SOL    HW116622   0.535   5.385   4.892
 5241SOL    HW216623   0.530   5.224   4.864
 5242SOL     OW16624   0.222   6.294   6.468
 5242SOL    HW116625   0.184   6.383   6.494
 5242SOL    HW216626   0.267   6.302   6.379
 5243SOL     OW16627   0.882   4.965   1.528
 5243SOL    HW116628   0.789   4.946   1.497
 5243SOL    HW216629   0.929   5.021   1.460
 5244SOL     OW16630   3.763   5.388   0.002
 5244SOL    HW116631   3.698   5.448   0.049
 5244SOL    HW216632   3.780   5.307   0.058
 5245SOL     OW16633   3.965   4.642   0.382
 5245SOL    HW116634   3.994   4.727   0.337
 5245SOL    HW216635   3.866   4.634   0.376
 5246SOL     OW16636   5.989   3.715   2.058
 5246SOL    HW116637   6.018   3.802   2.097
 5246SOL    HW216638   6.069   3.658   2.039
 5247SOL     OW16639   1.652   1.032   0.473
 5247SOL    HW116640   1.693   0.958   0.526
 5247SOL    HW216641   1.674   1.020   0.376
 5248SOL     OW16642   5.564   1.274   3.551
 5248SOL    HW116643   5.591   1.369   3.564
 5248SOL    HW216644   5.492   1.250   3.616
 5249SOL     OW16645   0.017   4.945   5.591
 5249SOL    HW116646   0.015   4.949   5.691
 5249SOL    HW216647   6.949   4.939   5.556
 5250SOL     OW16648   2.030   6.660   5.867
 5250SOL    HW116649   2.092   6.593   5.827
 5250SOL    HW216650   1.991   6.623   5.951
 5251SOL     OW16651   0.845   3.687   6.982
 5251SOL    HW116652   0.808   3.704   0.049
 5251SOL    HW216653   0.771   3.659   6.921
 5252SOL     OW16654   1.895   6.228   0.374
 5252SOL    HW116655   1.941   6.141   0.396
 5252SOL    HW216656   1.872   6.276   0.458
 5253SOL     OW16657   5.378   4.549   4.345
 5253SOL    HW116658   5.371   4.649   4.349
 5253SOL    HW216659   5.288   4.509   4.362
 5254SOL     OW16660   4.513   1.192   3.201
 5254SOL    HW116661   4.473   1.280   3.224
 5254SOL    HW216662   4.525   1.186   3.102
 5255SOL     OW16663   6.068   1.062   5.711
 5255SOL    HW116664   5.979   1.074   5.668
 5255SOL    HW216665   6.061   0.992   5.782
 5256SOL     OW16666   4.282   1.078   3.607
 5256SOL    HW116667   4.205   1.091   3.544
 5256SOL    HW216668   4.306   0.981   3.612
 5257SOL     OW16669   5.549   6.416   2.068
 5257SOL    HW116670   5.548   6.316   2.078
 5257SOL    HW216671   5.467   6.454   2.110
 5258SOL     OW16672   6.064   3.947   2.203
 5258SOL    HW116673   6.092   4.007   2.129
 5258SOL    HW216674   6.118   3.968   2.285
 5259SOL     OW16675   5.548   6.128   1.139
 5259SOL    HW116676   5.566   6.169   1.049
 5259SOL    HW216677   5.488   6.189   1.191
 5260SOL     OW16678   5.038   3.716   1.243
 5260SOL    HW116679   5.089   3.692   1.160
 5260SOL    HW216680   5.011   3.633   1.291
 5261SOL     OW16681   1.084   3.844   0.058
 5261SOL    HW116682   1.108   3.922   0.114
 5261SOL    HW216683   0.993   3.859   0.017
 5262SOL     OW16684   2.694   1.267   2.728
 5262SOL    HW116685   2.691   1.222   2.817
 5262SOL    HW216686   2.785   1.306   2.713
 5263SOL     OW16687   2.009   1.855   4.180
 5263SOL    HW116688   1.985   1.892   4.269
 5263SOL    HW216689   2.075   1.780   4.191
 5264SOL     OW16690   5.968   2.259   2.865
 5264SOL    HW116691   5.954   2.269   2.964
 5264SOL    HW216692   5.888   2.215   2.825
 5265SOL     OW16693   6.242   4.100   4.314
 5265SOL    HW116694   6.150   4.067   4.293
 5265SOL    HW216695   6.258   4.188   4.269
 5266SOL     OW16696   2.469   5.857   0.850
 5266SOL    HW116697   2.510   5.944   0.821
 5266SOL    HW216698   2.518   5.822   0.930
 5267SOL     OW16699   4.852   3.897   4.907
 5267SOL    HW116700   4.841   3.804   4.942
 5267SOL    HW216701   4.821   3.962   4.976
 5268SOL     OW16702   5.761   0.055   6.496
 5268SOL    HW116703   5.688   0.050   6.428
 5268SOL    HW216704   5.751   7.004   6.562
 5269SOL     OW16705   1.012   6.654   3.422
 5269SOL    HW116706   1.099   6.687   3.384
 5269SOL    HW216707   1.010   6.670   3.520
 5270SOL     OW16708   5.933   1.410   1.129
 5270SOL    HW116709   5.962   1.385   1.221
 5270SOL    HW216710   5.975   1.348   1.062
 5271SOL     OW16711   5.979   5.700   4.658
 5271SOL    HW116712   6.015   5.624   4.604
 5271SOL    HW216713   5.937   5.768   4.598
 5272SOL     OW16714   2.979   5.217   1.971
 5272SOL    HW116715   2.939   5.159   1.900
 5272SOL    HW216716   2.937   5.197   2.059
 5273SOL     OW16717   0.114   3.110   3.597
 5273SOL    HW116718   0.139   3.015   3.619
 5273SOL    HW216719   0.150   3.171   3.668
 5274SOL     OW16720   6.194   0.083   2.525
 5274SOL    HW116721   6.280   0.129   2.546
 5274SOL    HW216722   6.212   7.014   2.495
 5275SOL     OW16723   3.381   2.097   0.242
 5275SOL    HW116724   3.335   2.081   0.330
 5275SOL    HW216725   3.439   2.177   0.250
 5276SOL     OW16726   1.451   0.374   0.806
 5276SOL    HW116727   1.360   0.376   0.846
 5276SOL    HW216728   1.455   0.307   0.732
 5277SOL     OW16729   1.403   1.527   3.113
 5277SOL    HW116730   1.311   1.554   3.141
 5277SOL    HW216731   1.425   1.437   3.152
 5278SOL     OW16732   5.638   0.283   3.518
 5278SOL    HW116733   5.538   0.286   3.529
 5278SOL    HW216734   5.666   0.346   3.446
 5279SOL     OW16735   2.018   5.191   6.200
 5279SOL    HW116736   2.078   5.269   6.217
 5279SOL    HW216737   2.058   5.109   6.241
 5280SOL     OW16738   2.860   6.289   4.679
 5280SOL    HW116739   2.810   6.271   4.594
 5280SOL    HW216740   2.804   6.262   4.757
 5281SOL     OW16741   0.472   1.495   2.536
 5281SOL    HW116742   0.494   1.423   2.602
 5281SOL    HW216743   0.556   1.529   2.494
 5282SOL     OW16744   2.345   2.023   2.866
 5282SOL    HW116745   2.346   2.071   2.954
 5282SOL    HW216746   2.417   1.954   2.865
 5283SOL     OW16747   4.588   6.423   1.513
 5283SOL    HW116748   4.565   6.424   1.611
 5283SOL    HW216749   4.609   6.516   1.484
 5284SOL     OW16750   5.102   3.543   3.502
 5284SOL    HW116751   5.091   3.641   3.490
 5284SOL    HW216752   5.052   3.514   3.584
 5285SOL     OW16753   2.135   4.761   3.788
 5285SOL    HW116754   2.076   4.724   3.717
 5285SOL    HW216755   2.225   4.782   3.750
 5286SOL     OW16756   1.491   3.999   0.643
 5286SOL    HW116757   1.584   4.021   0.616
 5286SOL    HW216758   1.493   3.933   0.718
 5287SOL     OW16759   2.351   6.509   1.346
 5287SOL    HW116760   2.370   6.596   1.390
 5287SOL    HW216761   2.398   6.504   1.258
 5288SOL     OW16762   4.003   0.341   1.836
 5288SOL    HW116763   4.085   0.385   1.870
 5288SOL    HW216764   3.940   0.324   1.911
 5289SOL     OW16765   1.669   4.694   6.236
 5289SOL    HW116766   1.586   4.694   6.181
 5289SOL    HW216767   1.729   4.619   6.208
 5290SOL     OW16768   1.532   4.701   5.114
 5290SOL    HW116769   1.533   4.649   5.199
 5290SOL    HW216770   1.572   4.792   5.129
 5291SOL     OW16771   2.483   5.664   5.553
 5291SOL    HW116772   2.406   5.698   5.607
 5291SOL    HW216773   2.449   5.605   5.479
 5292SOL     OW16774   6.955   3.886   0.080
 5292SOL    HW116775   6.882   3.874   0.012
 5292SOL    HW216776   7.010   3.803   0.085
 5293SOL     OW16777   1.294   0.586   3.959
 5293SOL    HW116778   1.215   0.641   3.989
 5293SOL    HW216779   1.367   0.595   4.026
 5294SOL     OW16780   4.609   3.462   5.551
 5294SOL    HW116781   4.643   3.515   5.629
 5294SOL    HW216782   4.516   3.492   5.529
 5295SOL     OW16783   5.259   0.345   2.539
 5295SOL    HW116784   5.265   0.359   2.440
 5295SOL    HW216785   5.345   0.310   2.573
 5296SOL     OW16786   2.205   5.103   0.379
 5296SOL    HW116787   2.224   5.172   0.448
 5296SOL    HW216788   2.269   5.027   0.390
 5297SOL     OW16789   3.502   2.239   0.981
 5297SOL    HW116790   3.453   2.321   0.953
 5297SOL    HW216791   3.479   2.217   1.076
 5298SOL     OW16792   0.908   5.727   6.888
 5298SOL    HW116793   0.866   5.702   6.800
 5298SOL    HW216794   1.003   5.696   6.889
 5299SOL     OW16795   2.277   2.605   1.407
 5299SOL    HW116796   2.370   2.583   1.439
 5299SOL    HW216797   2.282   2.636   1.312
 5300SOL     OW16798   0.434   6.121   1.689
 5300SOL    HW116799   0.357   6.183   1.709
 5300SOL    HW216800   0.410   6.028   1.718
 5301SOL     OW16801   5.046   2.922   0.530
 5301SOL    HW116802   5.033   2.856   0.604
 5301SOL    HW216803   4.960   2.972   0.515
 5302SOL     OW16804   6.294   4.428   2.790
 5302SOL    HW116805   6.210   4.380   2.767
 5302SOL    HW216806   6.319   4.407   2.885
 5303SOL     OW16807   6.750   6.152   2.951
 5303SOL    HW116808   6.689   6.230   2.962
 5303SOL    HW216809   6.711   6.072   2.994
 5304SOL     OW16810   6.774   1.387   5.785
 5304SOL    HW116811   6.767   1.430   5.875
 5304SOL    HW216812   6.689   1.338   5.765
 5305SOL     OW16813   1.161   5.664   4.323
 5305SOL    HW116814   1.202   5.748   4.360
 5305SOL    HW216815   1.062   5.667   4.337
 5306SOL     OW16816   0.476   5.689   5.003
 5306SOL    HW116817   0.539   5.764   5.020
 5306SOL    HW216818   0.483   5.622   5.077
 5307SOL     OW16819   4.504   0.050   0.122
 5307SOL    HW116820   4.476   0.140   0.156
 5307SOL    HW216821   4.473   0.040   0.027
 5308SOL     OW16822   0.956   6.043   4.275
 5308SOL    HW116823   0.883   6.016   4.213
 5308SOL    HW216824   1.037   6.068   4.223
 5309SOL     OW16825   3.347   4.046   1.907
 5309SOL    HW116826   3.308   4.072   1.995
 5309SOL    HW216827   3.405   3.965   1.919
 5310SOL     OW16828   5.580   2.529   2.076
 5310SOL    HW116829   5.509   2.473   2.034
 5310SOL    HW216830   5.538   2.609   2.120
 5311SOL     OW16831   0.021   6.036   1.510
 5311SOL    HW116832   7.011   5.994   1.426
 5311SOL    HW216833   0.063   5.966   1.568
 5312SOL     OW16834   0.400   3.712   1.967
 5312SOL    HW116835   0.399   3.811   1.978
 5312SOL    HW216836   0.315   3.683   1.923
 5313SOL     OW16837   1.422   3.999   0.019
 5313SOL    HW116838   1.408   3.961   6.952
 5313SOL    HW216839   1.361   4.077   0.031
 5314SOL     OW16840   2.957   5.572   0.487
 5314SOL    HW116841   2.934   5.524   0.402
 5314SOL    HW216842   3.024   5.643   0.468
 5315SOL     OW16843   3.739   3.685   1.557
 5315SOL    HW116844   3.689   3.724   1.480
 5315SOL    HW216845   3.771   3.758   1.617
 5316SOL     OW16846   6.758   4.756   4.661
 5316SOL    HW116847   6.824   4.803   4.719
 5316SOL    HW216848   6.698   4.822   4.617
 5317SOL     OW16849   0.211   0.387   5.158
 5317SOL    HW116850   0.277   0.381   5.083
 5317SOL    HW216851   0.157   0.470   5.149
 5318SOL     OW16852   0.464   1.754   5.953
 5318SOL    HW116853   0.485   1.674   6.008
 5318SOL    HW216854   0.481   1.734   5.857
 5319SOL     OW16855   4.523   6.420   6.576
 5319SOL    HW116856   4.580   6.487   6.623
 5319SOL    HW216857   4.501   6.345   6.638
 5320SOL     OW16858   5.619   5.201   6.569
 5320SOL    HW116859   5.643   5.238   6.479
 5320SOL    HW216860   5.702   5.170   6.616
 5321SOL     OW16861   0.844   4.253   2.801
 5321SOL    HW116862   0.890   4.338   2.828
 5321SOL    HW216863   0.766   4.275   2.741
 5322SOL     OW16864   3.828   5.838   5.877
 5322SOL    HW116865   3.731   5.824   5.859
 5322SOL    HW216866   3.856   5.781   5.954
 5323SOL     OW16867   4.498   3.220   0.759
 5323SOL    HW116868   4.597   3.215   0.770
 5323SOL    HW216869   4.474   3.303   0.708
 5324SOL     OW16870   3.743   2.581   1.714
 5324SOL    HW116871   3.838   2.608   1.693
 5324SOL    HW216872   3.743   2.509   1.783
 5325SOL     OW16873   5.252   6.873   3.863
 5325SOL    HW116874   5.258   6.782   3.906
 5325SOL    HW216875   5.173   6.922   3.899
 5326SOL     OW16876   0.001   5.457   3.435
 5326SOL    HW116877   6.963   5.535   3.433
 5326SOL    HW216878   0.091   5.487   3.465
 5327SOL     OW16879   6.505   5.084   5.271
 5327SOL    HW116880   6.568   5.105   5.346
 5327SOL    HW216881   6.472   4.990   5.280
 5328SOL     OW16882   4.688   2.695   5.377
 5328SOL    HW116883   4.783   2.702   5.345
 5328SOL    HW216884   4.658   2.784   5.411
 5329SOL     OW16885   0.647   3.557   6.788
 5329SOL    HW116886   0.702   3.506   6.722
 5329SOL    HW216887   0.630   3.501   6.869
 5330SOL     OW16888   3.749   4.280   6.755
 5330SOL    HW116889   3.661   4.238   6.778
 5330SOL    HW216890   3.734   4.367   6.709
 5331SOL     OW16891   5.581   1.065   1.492
 5331SOL    HW116892   5.629   1.098   1.573
 5331SOL    HW216893   5.487   1.041   1.516
 5332SOL     OW16894   6.783   4.567   0.220
 5332SOL    HW116895   6.781   4.469   0.241
 5332SOL    HW216896   6.862   4.587   0.163
 5333SOL     OW16897   1.120   0.965   3.874
 5333SOL    HW116898   1.094   1.054   3.912
 5333SOL    HW216899   1.056   0.941   3.800
 5334SOL     OW16900   3.391   5.274   5.418
 5334SOL    HW116901   3.361   5.361   5.380
 5334SOL    HW216902   3.322   5.241   5.483
 5335SOL     OW16903   0.385   4.965   2.059
 5335SOL    HW116904   0.297   4.983   2.015
 5335SOL    HW216905   0.377   4.884   2.117
 5336SOL     OW16906   2.178   1.882   3.314
 5336SOL    HW116907   2.192   1.789   3.349
 5336SOL    HW216908   2.122   1.878   3.232
 5337SOL     OW16909   5.129   4.510   1.717
 5337SOL    HW116910   5.077   4.469   1.642
 5337SOL    HW216911   5.192   4.579   1.680
 5338SOL     OW16912   5.853   0.943   6.096
 5338SOL    HW116913   5.773   0.890   6.122
 5338SOL    HW216914   5.908   0.963   6.178
 5339SOL     OW16915   5.381   1.165   3.165
 5339SOL    HW116916   5.347   1.136   3.255
 5339SOL    HW216917   5.414   1.259   3.171
 5340SOL     OW16918   5.804   4.040   1.281
 5340SOL    HW116919   5.900   4.038   1.308
 5340SOL    HW216920   5.757   4.113   1.331
 5341SOL     OW16921   3.205   4.988   5.468
 5341SOL    HW116922   3.119   4.949   5.499
 5341SOL    HW216923   3.190   5.040   5.384
 5342SOL     OW16924   5.534   6.525   4.860
 5342SOL    HW116925   5.448   6.478   4.879
 5342SOL    HW216926   5.611   6.468   4.891
 5343SOL     OW16927   4.127   3.599   5.132
 5343SOL    HW116928   4.078   3.551   5.059
 5343SOL    HW216929   4.099   3.695   5.133
 5344SOL     OW16930   0.840   1.839   0.798
 5344SOL    HW116931   0.754   1.793   0.821
 5344SOL    HW216932   0.884   1.872   0.881
 5345SOL     OW16933   5.492   6.607   0.008
 5345SOL    HW116934   5.477   6.705   7.015
 5345SOL    HW216935   5.482   6.589   0.106
 5346SOL     OW16936   2.950   5.982   3.767
 5346SOL    HW116937   2.964   5.907   3.703
 5346SOL    HW216938   2.962   6.069   3.719
 5347SOL     OW16939   0.372   3.599   2.588
 5347SOL    HW116940   0.358   3.565   2.495
 5347SOL    HW216941   0.397   3.696   2.585
 5348SOL     OW16942   6.976   1.002   6.701
 5348SOL    HW116943   6.905   1.026   6.634
 5348SOL    HW216944   7.018   1.086   6.737
 5349SOL     OW16945   2.542   3.689   0.381
 5349SOL    HW116946   2.493   3.603   0.365
 5349SOL    HW216947   2.545   3.707   0.479
 5350SOL     OW16948   1.979   7.018   5.379
 5350SOL    HW116949   2.055   7.015   5.444
 5350SOL    HW216950   2.001   0.055   5.304
 5351SOL     OW16951   0.216   5.591   2.024
 5351SOL    HW116952   0.151   5.545   1.964
 5351SOL    HW216953   0.307   5.552   2.010
 5352SOL     OW16954   2.283   4.944   2.640
 5352SOL    HW116955   2.265   5.042   2.650
 5352SOL    HW216956   2.270   4.898   2.727
 5353SOL     OW16957   3.983   5.617   4.466
 5353SOL    HW116958   4.069   5.573   4.494
 5353SOL    HW216959   4.001   5.713   4.442
 5354SOL     OW16960   1.940   4.424   0.585
 5354SOL    HW116961   1.857   4.460   0.541
 5354SOL    HW216962   1.988   4.364   0.520
 5355SOL     OW16963   5.953   5.012   3.754
 5355SOL    HW116964   5.928   4.915   3.759
 5355SOL    HW216965   5.985   5.033   3.661
 5356SOL     OW16966   6.855   3.422   2.799
 5356SOL    HW116967   6.904   3.490   2.854
 5356SOL    HW216968   6.897   3.415   2.709
 5357SOL     OW16969   3.481   5.221   0.908
 5357SOL    HW116970   3.470   5.242   1.005
 5357SOL    HW216971   3.539   5.291   0.865
 5358SOL     OW16972   4.498   2.091   1.007
 5358SOL    HW116973   4.512   2.029   1.084
 5358SOL    HW216974   4.453   2.174   1.038
 5359SOL     OW16975   2.708   2.026   6.545
 5359SOL    HW116976   2.733   2.084   6.467
 5359SOL    HW216977   2.651   2.078   6.608
 5360SOL     OW16978   4.585   6.068   3.889
 5360SOL    HW116979   4.557   5.978   3.853
 5360SOL    HW216980   4.532   6.140   3.844
 5361SOL     OW16981   2.601   6.779   4.274
 5361SOL    HW116982   2.663   6.712   4.232
 5361SOL    HW216983   2.528   6.802   4.211
 5362SOL     OW16984   6.836   5.878   2.406
 5362SOL    HW116985   6.845   5.966   2.451
 5362SOL    HW216986   6.832   5.805   2.475
 5363SOL     OW16987   6.052   5.824   5.880
 5363SOL    HW116988   5.994   5.887   5.829
 5363SOL    HW216989   6.079   5.748   5.822
 5364SOL     OW16990   6.129   6.890   1.637
 5364SOL    HW116991   6.065   6.872   1.712
 5364SOL    HW216992   6.210   6.834   1.648
 5365SOL     OW16993   3.139   2.988   2.409
 5365SOL    HW116994   3.058   3.045   2.422
 5365SOL    HW216995   3.156   2.978   2.311
 5366SOL     OW16996   6.459   6.423   1.282
 5366SOL    HW116997   6.433   6.517   1.307
 5366SOL    HW216998   6.389   6.360   1.313
 5367SOL     OW16999   0.278   0.138   1.933
 5367SOL    HW117000   0.264   0.163   1.837
 5367SOL    HW217001   0.375   0.141   1.955
 5368SOL     OW17002   6.195   6.864   2.716
 5368SOL    HW117003   6.182   6.953   2.671
 5368SOL    HW217004   6.271   6.870   2.781
 5369SOL     OW17005   2.168   6.624   0.992
 5369SOL    HW117006   2.148   6.551   1.059
 5369SOL    HW217007   2.177   6.711   1.040
 5370SOL     OW17008   4.426   3.691   0.989
 5370SOL    HW117009   4.429   3.623   1.062
 5370SOL    HW217010   4.516   3.734   0.980
 5371SOL     OW17011   0.814   4.915   5.369
 5371SOL    HW117012   0.796   5.013   5.378
 5371SOL    HW217013   0.874   4.898   5.291
 5372SOL     OW17014   0.839   6.509   2.907
 5372SOL    HW117015   0.914   6.523   2.971
 5372SOL    HW217016   0.862   6.433   2.845
 5373SOL     OW17017   4.012   6.564   5.535
 5373SOL    HW117018   3.943   6.612   5.589
 5373SOL    HW217019   3.969   6.516   5.459
 5374SOL     OW17020   2.765   5.172   0.717
 5374SOL    HW117021   2.746   5.077   0.696
 5374SOL    HW217022   2.758   5.187   0.816
 5375SOL     OW17023   0.531   5.933   5.709
 5375SOL    HW117024   0.536   5.932   5.809
 5375SOL    HW217025   0.560   6.022   5.675
 5376SOL     OW17026   0.971   2.865   1.592
 5376SOL    HW117027   1.049   2.867   1.655
 5376SOL    HW217028   0.979   2.785   1.533
 5377SOL     OW17029   0.774   0.202   2.812
 5377SOL    HW117030   0.832   0.210   2.730
 5377SOL    HW217031   0.683   0.171   2.785
 5378SOL     OW17032   6.719   6.870   2.425
 5378SOL    HW117033   6.670   6.915   2.351
 5378SOL    HW217034   6.789   6.932   2.462
 5379SOL     OW17035   1.175   3.575   5.024
 5379SOL    HW117036   1.148   3.497   5.081
 5379SOL    HW217037   1.157   3.553   4.928
 5380SOL     OW17038   3.379   6.891   1.492
 5380SOL    HW117039   3.445   6.957   1.527
 5380SOL    HW217040   3.310   6.872   1.562
 5381SOL     OW17041   6.791   6.103   1.877
 5381SOL    HW117042   6.811   6.170   1.805
 5381SOL    HW217043   6.844   6.020   1.861
 5382SOL     OW17044   2.997   2.096   2.153
 5382SOL    HW117045   2.967   2.190   2.136
 5382SOL    HW217046   3.064   2.069   2.084
 5383SOL     OW17047   1.612   3.057   4.747
 5383SOL    HW117048   1.607   2.990   4.672
 5383SOL    HW217049   1.548   3.030   4.819
 5384SOL     OW17050   4.936   6.502   4.983
 5384SOL    HW117051   4.946   6.403   4.975
 5384SOL    HW217052   4.847   6.530   4.946
 5385SOL     OW17053   4.250   3.301   5.270
 5385SOL    HW117054   4.247   3.398   5.243
 5385SOL    HW217055   4.318   3.288   5.341
 5386SOL     OW17056   5.333   2.064   3.872
 5386SOL    HW117057   5.321   2.133   3.943
 5386SOL    HW217058   5.390   2.101   3.799
 5387SOL     OW17059   2.410   6.343   2.918
 5387SOL    HW117060   2.382   6.250   2.945
 5387SOL    HW217061   2.330   6.403   2.917
 5388SOL     OW17062   1.135   0.762   2.817
 5388SOL    HW117063   1.190   0.834   2.776
 5388SOL    HW217064   1.159   0.674   2.777
 5389SOL     OW17065   3.946   1.215   4.203
 5389SOL    HW117066   3.923   1.289   4.140
 5389SOL    HW217067   3.937   1.247   4.297
 5390SOL     OW17068   5.901   4.127   3.294
 5390SOL    HW117069   6.000   4.121   3.306
 5390SOL    HW217070   5.874   4.076   3.212
 5391SOL     OW17071   2.500   1.825   0.791
 5391SOL    HW117072   2.440   1.835   0.871
 5391SOL    HW217073   2.595   1.818   0.822
 5392SOL     OW17074   5.575   3.605   0.515
 5392SOL    HW117075   5.559   3.540   0.590
 5392SOL    HW217076   5.634   3.679   0.547
 5393SOL     OW17077   4.837   0.794   4.855
 5393SOL    HW117078   4.802   0.761   4.943
 5393SOL    HW217079   4.762   0.832   4.802
 5394SOL     OW17080   1.213   5.450   0.738
 5394SOL    HW117081   1.254   5.436   0.648
 5394SOL    HW217082   1.182   5.362   0.775
 5395SOL     OW17083   5.283   0.684   1.183
 5395SOL    HW117084   5.329   0.669   1.096
 5395SOL    HW217085   5.261   0.596   1.225
 5396SOL     OW17086   5.518   4.511   1.821
 5396SOL    HW117087   5.500   4.544   1.728
 5396SOL    HW217088   5.578   4.431   1.816
 5397SOL     OW17089   6.903   1.848   1.960
 5397SOL    HW117090   6.950   1.839   2.048
 5397SOL    HW217091   6.932   1.773   1.899
 5398SOL     OW17092   3.198   2.114   4.158
 5398SOL    HW117093   3.162   2.147   4.245
 5398SOL    HW217094   3.292   2.144   4.147
 5399SOL     OW17095   2.602   6.761   6.094
 5399SOL    HW117096   2.599   6.807   6.183
 5399SOL    HW217097   2.601   6.662   6.108
 5400SOL     OW17098   3.327   3.494   0.170
 5400SOL    HW117099   3.386   3.570   0.197
 5400SOL    HW217100   3.362   3.453   0.086
 5401SOL     OW17101   5.787   4.070   2.136
 5401SOL    HW117102   5.813   3.973   2.140
 5401SOL    HW217103   5.856   4.120   2.084
 5402SOL     OW17104   3.257   6.358   1.024
 5402SOL    HW117105   3.169   6.394   0.993
 5402SOL    HW217106   3.318   6.434   1.047
 5403SOL     OW17107   5.040   3.298   6.198
 5403SOL    HW117108   5.115   3.279   6.260
 5403SOL    HW217109   5.043   3.395   6.171
 5404SOL     OW17110   0.868   0.511   1.904
 5404SOL    HW117111   0.797   0.546   1.843
 5404SOL    HW217112   0.879   0.573   1.982
 5405SOL     OW17113   5.290   4.838   6.405
 5405SOL    HW117114   5.274   4.774   6.480
 5405SOL    HW217115   5.308   4.929   6.442
 5406SOL     OW17116   2.110   0.922   5.182
 5406SOL    HW117117   2.022   0.875   5.184
 5406SOL    HW217118   2.095   1.021   5.173
 5407SOL     OW17119   3.223   1.969   1.187
 5407SOL    HW117120   3.130   1.972   1.149
 5407SOL    HW217121   3.261   2.061   1.188
 5408SOL     OW17122   4.436   0.684   4.925
 5408SOL    HW117123   4.420   0.667   4.828
 5408SOL    HW217124   4.479   0.604   4.967
 5409SOL     OW17125   6.322   1.750   3.087
 5409SOL    HW117126   6.282   1.823   3.031
 5409SOL    HW217127   6.421   1.748   3.073
 5410SOL     OW17128   0.943   2.063   6.296
 5410SOL    HW117129   0.980   2.020   6.214
 5410SOL    HW217130   1.017   2.076   6.362
 5411SOL     OW17131   5.789   5.424   6.247
 5411SOL    HW117132   5.730   5.346   6.228
 5411SOL    HW217133   5.733   5.501   6.280
 5412SOL     OW17134   2.896   1.403   6.504
 5412SOL    HW117135   2.812   1.349   6.513
 5412SOL    HW217136   2.884   1.473   6.433
 5413SOL     OW17137   0.735   0.156   6.539
 5413SOL    HW117138   0.758   0.233   6.598
 5413SOL    HW217139   0.639   0.163   6.511
 5414SOL     OW17140   6.435   4.851   4.775
 5414SOL    HW117141   6.515   4.912   4.782
 5414SOL    HW217142   6.427   4.797   4.858
 5415SOL     OW17143   2.423   6.745   1.463
 5415SOL    HW117144   2.478   6.756   1.546
 5415SOL    HW217145   2.343   6.804   1.468
 5416SOL     OW17146   2.910   4.891   5.094
 5416SOL    HW117147   2.884   4.796   5.080
 5416SOL    HW217148   2.862   4.949   5.028
 5417SOL     OW17149   4.265   6.760   4.990
 5417SOL    HW117150   4.237   6.780   4.897
 5417SOL    HW217151   4.187   6.728   5.043
 5418SOL     OW17152   5.274   6.413   4.881
 5418SOL    HW117153   5.204   6.366   4.936
 5418SOL    HW217154   5.272   6.378   4.787
 5419SOL     OW17155   3.404   6.157   0.949
 5419SOL    HW117156   3.334   6.223   0.978
 5419SOL    HW217157   3.435   6.105   1.029
 5420SOL     OW17158   1.819   1.880   1.427
 5420SOL    HW117159   1.863   1.917   1.508
 5420SOL    HW217160   1.842   1.937   1.347
 5421SOL     OW17161   3.249   5.228   1.948
 5421SOL    HW117162   3.289   5.136   1.956
 5421SOL    HW217163   3.150   5.223   1.966
 5422SOL     OW17164   0.624   4.464   4.352
 5422SOL    HW117165   0.580   4.472   4.441
 5422SOL    HW217166   0.691   4.538   4.341
 5423SOL     OW17167   5.533   5.215   6.865
 5423SOL    HW117168   5.500   5.121   6.874
 5423SOL    HW217169   5.505   5.252   6.777
 5424SOL     OW17170   5.731   3.913   4.345
 5424SOL    HW117171   5.702   4.004   4.314
 5424SOL    HW217172   5.667   3.881   4.415
 5425SOL     OW17173   5.606   1.736   5.079
 5425SOL    HW117174   5.531   1.802   5.082
 5425SOL    HW217175   5.573   1.646   5.106
 5426SOL     OW17176   5.856   6.006   2.710
 5426SOL    HW117177   5.944   5.986   2.667
 5426SOL    HW217178   5.865   6.085   2.771
 5427SOL     OW17179   5.030   3.433   0.089
 5427SOL    HW117180   4.944   3.421   0.040
 5427SOL    HW217181   5.042   3.530   0.112
 5428SOL     OW17182   5.894   6.754   1.907
 5428SOL    HW117183   5.855   6.781   1.995
 5428SOL    HW217184   5.835   6.787   1.833
 5429SOL     OW17185   1.842   0.485   5.746
 5429SOL    HW117186   1.853   0.565   5.686
 5429SOL    HW217187   1.907   0.414   5.719
 5430SOL     OW17188   1.796   2.873   5.662
 5430SOL    HW117189   1.804   2.931   5.581
 5430SOL    HW217190   1.881   2.823   5.676
 5431SOL     OW17191   2.935   3.868   6.213
 5431SOL    HW117192   2.878   3.788   6.230
 5431SOL    HW217193   2.895   3.948   6.256
 5432SOL     OW17194   3.688   5.317   6.553
 5432SOL    HW117195   3.714   5.330   6.457
 5432SOL    HW217196   3.679   5.220   6.573
 5433SOL     OW17197   0.846   0.958   2.108
 5433SOL    HW117198   0.827   0.864   2.078
 5433SOL    HW217199   0.814   1.022   2.039
 5434SOL     OW17200   4.107   0.942   4.783
 5434SOL    HW117201   4.065   1.029   4.810
 5434SOL    HW217202   4.192   0.960   4.733
 5435SOL     OW17203   6.630   3.234   0.690
 5435SOL    HW117204   6.615   3.330   0.667
 5435SOL    HW217205   6.568   3.177   0.636
 5436SOL     OW17206   5.671   4.678   3.841
 5436SOL    HW117207   5.598   4.611   3.853
 5436SOL    HW217208   5.640   4.750   3.779
 5437SOL     OW17209   3.133   4.988   4.795
 5437SOL    HW117210   3.140   4.995   4.895
 5437SOL    HW217211   3.056   4.928   4.772
 5438SOL     OW17212   5.879   4.169   2.393
 5438SOL    HW117213   5.862   4.156   2.296
 5438SOL    HW217214   5.977   4.177   2.410
 5439SOL     OW17215   0.423   3.355   6.971
 5439SOL    HW117216   0.445   3.312   6.884
 5439SOL    HW217217   0.507   3.373   7.022
 5440SOL     OW17218   6.484   6.559   3.438
 5440SOL    HW117219   6.505   6.656   3.454
 5440SOL    HW217220   6.556   6.502   3.478
 5441SOL     OW17221   4.954   3.397   3.687
 5441SOL    HW117222   4.878   3.393   3.753
 5441SOL    HW217223   4.960   3.311   3.638
 5442SOL     OW17224   3.446   0.527   3.121
 5442SOL    HW117225   3.520   0.467   3.091
 5442SOL    HW217226   3.465   0.620   3.093
 5443SOL     OW17227   3.641   6.195   4.080
 5443SOL    HW117228   3.640   6.096   4.091
 5443SOL    HW217229   3.718   6.234   4.129
 5444SOL     OW17230   0.060   0.568   3.556
 5444SOL    HW117231   0.115   0.566   3.472
 5444SOL    HW217232   0.099   0.635   3.620
 5445SOL     OW17233   5.680   4.229   3.807
 5445SOL    HW117234   5.610   4.183   3.753
 5445SOL    HW217235   5.641   4.310   3.851
 5446SOL     OW17236   5.961   5.476   4.103
 5446SOL    HW117237   6.024   5.509   4.174
 5446SOL    HW217238   5.935   5.381   4.122
 5447SOL     OW17239   1.293   1.335   0.484
 5447SOL    HW117240   1.236   1.384   0.550
 5447SOL    HW217241   1.280   1.375   0.393
 5448SOL     OW17242   4.324   4.720   4.072
 5448SOL    HW117243   4.276   4.756   3.992
 5448SOL    HW217244   4.264   4.658   4.122
 5449SOL     OW17245   2.281   1.926   0.626
 5449SOL    HW117246   2.337   1.937   0.544
 5449SOL    HW217247   2.330   1.869   0.692
 5450SOL     OW17248   3.508   0.225   1.336
 5450SOL    HW117249   3.526   0.163   1.413
 5450SOL    HW217250   3.487   0.316   1.371
 5451SOL     OW17251   1.814   6.225   3.571
 5451SOL    HW117252   1.870   6.302   3.540
 5451SOL    HW217253   1.781   6.174   3.492
 5452SOL     OW17254   2.556   4.488   0.986
 5452SOL    HW117255   2.508   4.554   0.928
 5452SOL    HW217256   2.491   4.442   1.046
 5453SOL     OW17257   5.193   4.161   2.027
 5453SOL    HW117258   5.206   4.078   2.083
 5453SOL    HW217259   5.246   4.236   2.067
 5454SOL     OW17260   5.771   5.680   0.446
 5454SOL    HW117261   5.698   5.747   0.431
 5454SOL    HW217262   5.731   5.592   0.472
 5455SOL     OW17263   0.229   2.295   3.568
 5455SOL    HW117264   0.263   2.388   3.558
 5455SOL    HW217265   0.167   2.274   3.492
 5456SOL     OW17266   3.258   1.776   6.581
 5456SOL    HW117267   3.265   1.677   6.598
 5456SOL    HW217268   3.317   1.825   6.645
 5457SOL     OW17269   6.562   2.219   0.855
 5457SOL    HW117270   6.553   2.248   0.759
 5457SOL    HW217271   6.579   2.121   0.858
 5458SOL     OW17272   6.848   5.442   0.080
 5458SOL    HW117273   6.843   5.453   7.006
 5458SOL    HW217274   6.889   5.353   0.102
 5459SOL     OW17275   2.258   4.580   5.760
 5459SOL    HW117276   2.336   4.517   5.760
 5459SOL    HW217277   2.238   4.608   5.666
 5460SOL     OW17278   3.016   0.361   2.536
 5460SOL    HW117279   2.945   0.291   2.544
 5460SOL    HW217280   3.009   0.424   2.613
 5461SOL     OW17281   0.566   6.829   4.450
 5461SOL    HW117282   0.529   6.743   4.486
 5461SOL    HW217283   0.565   6.827   4.350
 5462SOL     OW17284   5.421   6.001   0.183
 5462SOL    HW117285   5.477   6.024   0.103
 5462SOL    HW217286   5.478   5.954   0.250
 5463SOL     OW17287   0.394   2.032   0.225
 5463SOL    HW117288   0.454   2.019   0.304
 5463SOL    HW217289   0.400   2.127   0.194
 5464SOL     OW17290   6.183   6.537   4.857
 5464SOL    HW117291   6.282   6.534   4.864
 5464SOL    HW217292   6.156   6.599   4.783
 5465SOL     OW17293   5.906   0.891   3.827
 5465SOL    HW117294   5.938   0.818   3.766
 5465SOL    HW217295   5.806   0.888   3.831
 5466SOL     OW17296   4.993   2.708   5.706
 5466SOL    HW117297   5.009   2.740   5.613
 5466SOL    HW217298   5.078   2.709   5.758
 5467SOL     OW17299   6.294   3.694   3.059
 5467SOL    HW117300   6.324   3.619   3.119
 5467SOL    HW217301   6.248   3.764   3.113
 5468SOL     OW17302   6.482   1.899   5.282
 5468SOL    HW117303   6.462   1.854   5.369
 5468SOL    HW217304   6.401   1.900   5.225
 5469SOL     OW17305   3.249   6.180   5.464
 5469SOL    HW117306   3.224   6.156   5.370
 5469SOL    HW217307   3.323   6.121   5.496
 5470SOL     OW17308   3.410   5.547   3.733
 5470SOL    HW117309   3.496   5.498   3.741
 5470SOL    HW217310   3.381   5.579   3.823
 5471SOL     OW17311   6.564   0.813   3.102
 5471SOL    HW117312   6.662   0.832   3.111
 5471SOL    HW217313   6.518   0.895   3.067
 5472SOL     OW17314   2.787   3.656   6.278
 5472SOL    HW117315   2.860   3.589   6.293
 5472SOL    HW217316   2.711   3.637   6.340
 5473SOL     OW17317   2.197   3.141   0.772
 5473SOL    HW117318   2.129   3.071   0.750
 5473SOL    HW217319   2.163   3.199   0.846
 5474SOL     OW17320   1.019   4.258   4.752
 5474SOL    HW117321   1.043   4.167   4.785
 5474SOL    HW217322   0.970   4.308   4.823
 5475SOL     OW17323   1.293   1.993   0.569
 5475SOL    HW117324   1.290   1.897   0.599
 5475SOL    HW217325   1.208   2.039   0.594
 5476SOL     OW17326   2.123   4.694   5.190
 5476SOL    HW117327   2.207   4.641   5.185
 5476SOL    HW217328   2.048   4.635   5.220
 5477SOL     OW17329   1.964   4.115   2.487
 5477SOL    HW117330   1.883   4.072   2.447
 5477SOL    HW217331   1.940   4.158   2.574
 5478SOL     OW17332   3.974   0.075   5.772
 5478SOL    HW117333   4.022   7.011   5.769
 5478SOL    HW217334   3.938   0.090   5.865
 5479SOL     OW17335   5.163   2.214   4.898
 5479SOL    HW117336   5.101   2.142   4.931
 5479SOL    HW217337   5.153   2.224   4.799
 5480SOL     OW17338   5.438   5.520   4.101
 5480SOL    HW117339   5.372   5.589   4.131
 5480SOL    HW217340   5.522   5.566   4.071
 5481SOL     OW17341   4.665   1.415   4.387
 5481SOL    HW117342   4.749   1.361   4.372
 5481SOL    HW217343   4.674   1.503   4.341
 5482SOL     OW17344   3.838   3.495   2.237
 5482SOL    HW117345   3.796   3.513   2.147
 5482SOL    HW217346   3.907   3.423   2.228
 5483SOL     OW17347   0.638   2.205   5.077
 5483SOL    HW117348   0.732   2.199   5.111
 5483SOL    HW217349   0.589   2.121   5.099
 5484SOL     OW17350   4.641   0.501   3.737
 5484SOL    HW117351   4.728   0.493   3.689
 5484SOL    HW217352   4.577   0.553   3.681
 5485SOL     OW17353   3.504   0.107   5.395
 5485SOL    HW117354   3.586   0.140   5.348
 5485SOL    HW217355   3.468   0.027   5.347
 5486SOL     OW17356   1.892   5.473   5.230
 5486SOL    HW117357   1.929   5.472   5.323
 5486SOL    HW217358   1.922   5.391   5.182
 5487SOL     OW17359   4.816   3.163   6.323
 5487SOL    HW117360   4.827   3.180   6.421
 5487SOL    HW217361   4.895   3.199   6.274
 5488SOL     OW17362   5.673   0.692   1.381
 5488SOL    HW117363   5.592   0.695   1.439
 5488SOL    HW217364   5.755   0.689   1.438
 5489SOL     OW17365   1.685   4.914   1.278
 5489SOL    HW117366   1.714   5.009   1.268
 5489SOL    HW217367   1.597   4.902   1.232
 5490SOL     OW17368   3.877   6.922   0.154
 5490SOL    HW117369   3.838   6.831   0.169
 5490SOL    HW217370   3.851   6.983   0.229
 5491SOL     OW17371   1.843   3.478   0.750
 5491SOL    HW117372   1.853   3.394   0.804
 5491SOL    HW217373   1.921   3.487   0.688
 5492SOL     OW17374   0.568   2.001   6.246
 5492SOL    HW117375   0.639   1.996   6.176
 5492SOL    HW217376   0.579   1.926   6.310
 5493SOL     OW17377   3.972   3.930   4.432
 5493SOL    HW117378   3.987   4.016   4.384
 5493SOL    HW217379   4.034   3.860   4.394
 5494SOL     OW17380   6.441   2.393   6.104
 5494SOL    HW117381   6.394   2.408   6.017
 5494SOL    HW217382   6.478   2.300   6.106
 5495SOL     OW17383   3.958   2.050   1.430
 5495SOL    HW117384   3.863   2.041   1.400
 5495SOL    HW217385   3.997   1.959   1.443
 5496SOL     OW17386   2.403   0.321   3.276
 5496SOL    HW117387   2.446   0.231   3.269
 5496SOL    HW217388   2.472   0.392   3.265
 5497SOL     OW17389   0.351   1.949   3.707
 5497SOL    HW117390   0.434   1.985   3.665
 5497SOL    HW217391   0.351   1.971   3.804
 5498SOL     OW17392   6.206   6.305   1.048
 5498SOL    HW117393   6.193   6.404   1.059
 5498SOL    HW217394   6.304   6.285   1.046
 5499SOL     OW17395   7.024   0.837   4.836
 5499SOL    HW117396   7.021   0.908   4.766
 5499SOL    HW217397   0.030   0.751   4.796
 5500SOL     OW17398   1.636   0.370   0.373
 5500SOL    HW117399   1.724   0.379   0.420
 5500SOL    HW217400   1.566   0.343   0.439
 5501SOL     OW17401   3.998   6.397   0.304
 5501SOL    HW117402   3.905   6.386   0.270
 5501SOL    HW217403   4.005   6.360   0.397
 5502SOL     OW17404   5.780   3.800   0.084
 5502SOL    HW117405   5.726   3.810   0.168
 5502SOL    HW217406   5.758   3.713   0.040
 5503SOL     OW17407   0.126   5.729   2.420
 5503SOL    HW117408   0.095   5.736   2.515
 5503SOL    HW217409   0.093   5.644   2.380
 5504SOL     OW17410   4.166   0.882   5.295
 5504SOL    HW117411   4.251   0.933   5.280
 5504SOL    HW217412   4.172   0.833   5.383
 5505SOL     OW17413   1.780   5.243   4.143
 5505SOL    HW117414   1.853   5.181   4.172
 5505SOL    HW217415   1.768   5.236   4.044
 5506SOL     OW17416   1.095   2.243   6.007
 5506SOL    HW117417   1.097   2.232   5.907
 5506SOL    HW217418   1.088   2.153   6.050
 5507SOL     OW17419   2.736   0.426   3.870
 5507SOL    HW117420   2.765   0.385   3.784
 5507SOL    HW217421   2.816   0.450   3.925
 5508SOL     OW17422   0.780   0.477   5.907
 5508SOL    HW117423   0.776   0.576   5.897
 5508SOL    HW217424   0.875   0.446   5.898
 5509SOL     OW17425   0.703   6.521   0.213
 5509SOL    HW117426   0.710   6.441   0.273
 5509SOL    HW217427   0.782   6.580   0.226
 5510SOL     OW17428   5.194   5.573   0.976
 5510SOL    HW117429   5.290   5.600   0.969
 5510SOL    HW217430   5.135   5.652   0.959
 5511SOL     OW17431   1.949   1.321   4.160
 5511SOL    HW117432   2.032   1.370   4.134
 5511SOL    HW217433   1.915   1.269   4.082
 5512SOL     OW17434   5.883   1.950   1.449
 5512SOL    HW117435   5.922   1.864   1.418
 5512SOL    HW217436   5.954   2.020   1.452
 5513SOL     OW17437   4.431   5.271   7.001
 5513SOL    HW117438   4.401   5.351   6.948
 5513SOL    HW217439   4.357   5.204   7.004
 5514SOL     OW17440   3.772   6.815   3.768
 5514SOL    HW117441   3.718   6.847   3.845
 5514SOL    HW217442   3.855   6.771   3.801
 5515SOL     OW17443   0.560   5.081   1.266
 5515SOL    HW117444   0.479   5.024   1.281
 5515SOL    HW217445   0.536   5.157   1.205
 5516SOL     OW17446   2.081   4.050   6.763
 5516SOL    HW117447   2.158   4.108   6.788
 5516SOL    HW217448   2.115   3.963   6.727
 5517SOL     OW17449   1.718   3.433   2.005
 5517SOL    HW117450   1.817   3.422   2.018
 5517SOL    HW217451   1.701   3.517   1.953
 5518SOL     OW17452   6.396   6.117   6.416
 5518SOL    HW117453   6.320   6.063   6.452
 5518SOL    HW217454   6.403   6.203   6.467
 5519SOL     OW17455   5.269   3.154   2.964
 5519SOL    HW117456   5.203   3.138   3.037
 5519SOL    HW217457   5.235   3.225   2.903
 5520SOL     OW17458   6.139   5.928   1.812
 5520SOL    HW117459   6.078   6.005   1.795
 5520SOL    HW217460   6.233   5.962   1.823
 5521SOL     OW17461   5.309   0.009   1.606
 5521SOL    HW117462   5.240   0.081   1.610
 5521SOL    HW217463   5.267   6.949   1.575
 5522SOL     OW17464   0.128   5.379   0.231
 5522SOL    HW117465   0.114   5.470   0.192
 5522SOL    HW217466   0.217   5.376   0.277
 5523SOL     OW17467   3.476   0.007   2.452
 5523SOL    HW117468   3.550   0.070   2.473
 5523SOL    HW217469   3.510   6.958   2.393
 5524SOL     OW17470   5.300   5.453   5.375
 5524SOL    HW117471   5.239   5.481   5.300
 5524SOL    HW217472   5.395   5.459   5.345
 5525SOL     OW17473   0.400   2.296   0.721
 5525SOL    HW117474   0.319   2.353   0.733
 5525SOL    HW217475   0.458   2.303   0.803
 5526SOL     OW17476   4.888   4.939   4.356
 5526SOL    HW117477   4.886   5.003   4.279
 5526SOL    HW217478   4.795   4.924   4.389
 5527SOL     OW17479   5.377   3.779   3.707
 5527SOL    HW117480   5.382   3.751   3.612
 5527SOL    HW217481   5.466   3.765   3.751
 5528SOL     OW17482   1.022   1.379   6.687
 5528SOL    HW117483   1.119   1.394   6.667
 5528SOL    HW217484   0.975   1.467   6.697
 5529SOL     OW17485   2.344   0.571   2.912
 5529SOL    HW117486   2.377   0.632   2.841
 5529SOL    HW217487   2.274   0.618   2.966
 5530SOL     OW17488   6.099   2.458   2.018
 5530SOL    HW117489   6.099   2.366   1.977
 5530SOL    HW217490   6.181   2.468   2.075
 5531SOL     OW17491   3.284   3.321   1.955
 5531SOL    HW117492   3.277   3.231   1.997
 5531SOL    HW217493   3.331   3.384   2.017
 5532SOL     OW17494   0.805   2.655   0.396
 5532SOL    HW117495   0.783   2.638   0.300
 5532SOL    HW217496   0.812   2.568   0.445
 5533SOL     OW17497   3.645   1.415   3.282
 5533SOL    HW117498   3.566   1.394   3.340
 5533SOL    HW217499   3.625   1.387   3.188
 5534SOL     OW17500   0.899   2.053   5.720
 5534SOL    HW117501   0.919   1.965   5.678
 5534SOL    HW217502   0.820   2.044   5.781
 5535SOL     OW17503   0.187   2.840   3.591
 5535SOL    HW117504   0.173   2.779   3.669
 5535SOL    HW217505   0.105   2.841   3.534
 5536SOL     OW17506   2.853   1.640   4.329
 5536SOL    HW117507   2.765   1.598   4.305
 5536SOL    HW217508   2.916   1.628   4.253
 5537SOL     OW17509   2.831   1.133   2.508
 5537SOL    HW117510   2.781   1.065   2.454
 5537SOL    HW217511   2.768   1.178   2.572
 5538SOL     OW17512   2.556   6.374   5.566
 5538SOL    HW117513   2.597   6.290   5.531
 5538SOL    HW217514   2.483   6.350   5.630
 5539SOL     OW17515   1.221   3.296   1.003
 5539SOL    HW117516   1.230   3.197   0.996
 5539SOL    HW217517   1.292   3.340   0.947
 5540SOL     OW17518   5.672   4.015   3.405
 5540SOL    HW117519   5.738   4.056   3.343
 5540SOL    HW217520   5.590   4.072   3.409
 5541SOL     OW17521   6.083   0.242   6.407
 5541SOL    HW117522   6.176   0.278   6.409
 5541SOL    HW217523   6.059   0.214   6.314
 5542SOL     OW17524   5.606   4.440   5.841
 5542SOL    HW117525   5.652   4.529   5.838
 5542SOL    HW217526   5.507   4.453   5.835
 5543SOL     OW17527   3.601   5.209   5.984
 5543SOL    HW117528   3.520   5.177   5.935
 5543SOL    HW217529   3.602   5.169   6.076
 5544SOL     OW17530   5.933   6.092   5.835
 5544SOL    HW117531   6.019   6.141   5.846
 5544SOL    HW217532   5.893   6.075   5.925
 5545SOL     OW17533   3.874   1.602   1.880
 5545SOL    HW117534   3.785   1.608   1.925
 5545SOL    HW217535   3.915   1.693   1.874
 5546SOL     OW17536   1.261   5.619   4.629
 5546SOL    HW117537   1.246   5.679   4.550
 5546SOL    HW217538   1.335   5.555   4.608
 5547SOL     OW17539   2.793   0.265   4.404
 5547SOL    HW117540   2.844   0.237   4.486
 5547SOL    HW217541   2.708   0.213   4.399
 5548SOL     OW17542   5.357   3.788   5.953
 5548SOL    HW117543   5.384   3.868   5.901
 5548SOL    HW217544   5.438   3.741   5.988
 5549SOL     OW17545   4.064   3.651   6.961
 5549SOL    HW117546   4.021   3.575   6.911
 5549SOL    HW217547   4.151   3.620   6.999
 5550SOL     OW17548   2.457   4.466   1.922
 5550SOL    HW117549   2.500   4.423   1.842
 5550SOL    HW217550   2.508   4.549   1.946
 5551SOL     OW17551   1.904   0.119   3.131
 5551SOL    HW117552   1.950   0.090   3.215
 5551SOL    HW217553   1.853   0.203   3.149
 5552SOL     OW17554   0.127   0.278   0.091
 5552SOL    HW117555   0.035   0.270   0.129
 5552SOL    HW217556   0.121   0.305   7.020
 5553SOL     OW17557   5.194   6.085   6.922
 5553SOL    HW117558   5.130   6.081   6.845
 5553SOL    HW217559   5.281   6.045   6.895
 5554SOL     OW17560   4.183   1.674   5.571
 5554SOL    HW117561   4.202   1.694   5.475
 5554SOL    HW217562   4.097   1.718   5.598
 5555SOL     OW17563   2.125   4.534   3.969
 5555SOL    HW117564   2.202   4.471   3.979
 5555SOL    HW217565   2.154   4.614   3.917
 5556SOL     OW17566   6.275   1.770   3.439
 5556SOL    HW117567   6.258   1.845   3.502
 5556SOL    HW217568   6.191   1.719   3.424
 5557SOL     OW17569   3.438   6.860   2.912
 5557SOL    HW117570   3.363   6.806   2.872
 5557SOL    HW217571   3.520   6.848   2.858
 5558SOL     OW17572   4.494   3.348   6.330
 5558SOL    HW117573   4.440   3.345   6.247
 5558SOL    HW217574   4.504   3.255   6.367
 5559SOL     OW17575   2.802   0.913   2.359
 5559SOL    HW117576   2.840   0.889   2.270
 5559SOL    HW217577   2.745   0.838   2.392
 5560SOL     OW17578   1.026   6.963   3.298
 5560SOL    HW117579   1.029   0.009   3.228
 5560SOL    HW217580   1.103   6.900   3.286
 5561SOL     OW17581   1.451   2.445   4.105
 5561SOL    HW117582   1.461   2.353   4.065
 5561SOL    HW217583   1.384   2.442   4.179
 5562SOL     OW17584   3.039   2.256   0.333
 5562SOL    HW117585   3.122   2.202   0.348
 5562SOL    HW217586   2.967   2.227   0.395
 5563SOL     OW17587   4.160   5.374   2.340
 5563SOL    HW117588   4.155   5.443   2.412
 5563SOL    HW217589   4.227   5.401   2.272
 5564SOL     OW17590   4.877   0.970   1.967
 5564SOL    HW117591   4.810   0.897   1.982
 5564SOL    HW217592   4.828   1.057   1.957
 5565SOL     OW17593   4.960   1.548   6.246
 5565SOL    HW117594   4.888   1.611   6.219
 5565SOL    HW217595   4.923   1.455   6.251
 5566SOL     OW17596   2.168   5.610   6.875
 5566SOL    HW117597   2.146   5.703   6.905
 5566SOL    HW217598   2.217   5.562   6.947
 5567SOL     OW17599   0.542   4.068   1.652
 5567SOL    HW117600   0.610   4.132   1.687
 5567SOL    HW217601   0.581   4.018   1.574
 5568SOL     OW17602   4.048   2.222   3.508
 5568SOL    HW117603   4.144   2.197   3.492
 5568SOL    HW217604   4.045   2.308   3.559
 5569SOL     OW17605   2.128   1.493   2.366
 5569SOL    HW117606   2.222   1.528   2.364
 5569SOL    HW217607   2.113   1.444   2.452
 5570SOL     OW17608   5.712   4.454   5.171
 5570SOL    HW117609   5.735   4.430   5.077
 5570SOL    HW217610   5.721   4.553   5.183
 5571SOL     OW17611   0.191   5.945   0.644
 5571SOL    HW117612   0.184   6.045   0.643
 5571SOL    HW217613   0.099   5.905   0.645
 5572SOL     OW17614   1.184   2.672   4.963
 5572SOL    HW117615   1.133   2.731   5.025
 5572SOL    HW217616   1.158   2.692   4.869
 5573SOL     OW17617   1.618   3.444   6.451
 5573SOL    HW117618   1.622   3.387   6.369
 5573SOL    HW217619   1.711   3.470   6.478
 5574SOL     OW17620   6.061   1.785   3.941
 5574SOL    HW117621   6.048   1.853   4.014
 5574SOL    HW217622   6.135   1.815   3.881
 5575SOL     OW17623   6.796   1.351   0.857
 5575SOL    HW117624   6.710   1.380   0.898
 5575SOL    HW217625   6.853   1.306   0.926
 5576SOL     OW17626   1.205   5.939   2.152
 5576SOL    HW117627   1.214   5.875   2.076
 5576SOL    HW217628   1.169   6.026   2.119
 5577SOL     OW17629   2.760   2.741   5.408
 5577SOL    HW117630   2.690   2.747   5.336
 5577SOL    HW217631   2.715   2.736   5.497
 5578SOL     OW17632   4.226   4.504   0.267
 5578SOL    HW117633   4.155   4.561   0.309
 5578SOL    HW217634   4.289   4.472   0.337
 5579SOL     OW17635   0.171   3.889   6.399
 5579SOL    HW117636   0.195   3.909   6.305
 5579SOL    HW217637   0.156   3.790   6.410
 5580SOL     OW17638   4.694   2.849   5.753
 5580SOL    HW117639   4.643   2.859   5.667
 5580SOL    HW217640   4.752   2.929   5.767
 5581SOL     OW17641   2.927   6.503   1.783
 5581SOL    HW117642   2.918   6.601   1.799
 5581SOL    HW217643   3.014   6.484   1.737
 5582SOL     OW17644   3.833   3.283   3.891
 5582SOL    HW117645   3.823   3.322   3.982
 5582SOL    HW217646   3.843   3.183   3.899
 5583SOL     OW17647   4.190   0.503   2.991
 5583SOL    HW117648   4.193   0.503   3.091
 5583SOL    HW217649   4.120   0.567   2.959
 5584SOL     OW17650   5.201   4.289   3.802
 5584SOL    HW117651   5.116   4.284   3.749
 5584SOL    HW217652   5.179   4.300   3.899
 5585SOL     OW17653   4.464   6.415   4.061
 5585SOL    HW117654   4.388   6.384   4.118
 5585SOL    HW217655   4.544   6.433   4.118
 5586SOL     OW17656   0.101   2.198   6.978
 5586SOL    HW117657   0.095   2.222   0.050
 5586SOL    HW217658   0.194   2.214   6.945
 5587SOL     OW17659   4.065   6.199   2.213
 5587SOL    HW117660   4.059   6.288   2.167
 5587SOL    HW217661   4.030   6.128   2.152
 5588SOL     OW17662   1.498   6.953   2.937
 5588SOL    HW117663   1.569   6.932   3.004
 5588SOL    HW217664   1.424   7.003   2.981
 5589SOL     OW17665   5.897   2.314   6.260
 5589SOL    HW117666   5.903   2.232   6.317
 5589SOL    HW217667   5.968   2.379   6.287
 5590SOL     OW17668   6.386   6.208   2.934
 5590SOL    HW117669   6.472   6.256   2.949
 5590SOL    HW217670   6.369   6.145   3.010
 5591SOL     OW17671   6.120   0.691   6.477
 5591SOL    HW117672   6.205   0.743   6.469
 5591SOL    HW217673   6.116   0.647   6.567
 5592SOL     OW17674   0.741   4.143   2.436
 5592SOL    HW117675   0.791   4.173   2.355
 5592SOL    HW217676   0.695   4.056   2.417
 5593SOL     OW17677   6.846   2.402   5.996
 5593SOL    HW117678   6.796   2.316   6.007
 5593SOL    HW217679   6.923   2.388   5.934
 5594SOL     OW17680   2.910   1.083   6.938
 5594SOL    HW117681   2.895   1.147   7.014
 5594SOL    HW217682   2.853   1.002   6.950
 5595SOL     OW17683   5.999   0.389   5.294
 5595SOL    HW117684   5.922   0.440   5.332
 5595SOL    HW217685   6.084   0.439   5.311
 5596SOL     OW17686   5.131   0.199   2.733
 5596SOL    HW117687   5.098   0.254   2.809
 5596SOL    HW217688   5.172   0.258   2.664
 5597SOL     OW17689   6.514   1.458   5.349
 5597SOL    HW117690   6.510   1.481   5.446
 5597SOL    HW217691   6.549   1.537   5.298
 5598SOL     OW17692   6.049   2.423   4.147
 5598SOL    HW117693   6.061   2.427   4.246
 5598SOL    HW217694   6.070   2.331   4.114
 5599SOL     OW17695   0.087   3.092   2.202
 5599SOL    HW117696   0.135   3.081   2.115
 5599SOL    HW217697   7.014   3.107   2.184
 5600SOL     OW17698   2.241   0.279   2.114
 5600SOL    HW117699   2.167   0.216   2.136
 5600SOL    HW217700   2.203   0.364   2.078
 5601SOL     OW17701   3.417   1.559   6.410
 5601SOL    HW117702   3.446   1.464   6.397
 5601SOL    HW217703   3.349   1.583   6.341
 5602SOL     OW17704   0.438   0.465   2.356
 5602SOL    HW117705   0.520   0.516   2.382
 5602SOL    HW217706   0.365   0.485   2.421
 5603SOL     OW17707   5.666   2.273   6.487
 5603SOL    HW117708   5.709   2.184   6.469
 5603SOL    HW217709   5.680   2.333   6.409
 5604SOL     OW17710   7.006   2.261   5.458
 5604SOL    HW117711   6.943   2.335   5.485
 5604SOL    HW217712   0.052   2.298   5.398
 5605SOL     OW17713   1.633   0.179   4.600
 5605SOL    HW117714   1.649   0.081   4.594
 5605SOL    HW217715   1.585   0.200   4.685
 5606SOL     OW17716   5.755   0.814   0.929
 5606SOL    HW117717   5.690   0.784   0.999
 5606SOL    HW217718   5.743   0.911   0.912
 5607SOL     OW17719   5.643   1.805   4.064
 5607SOL    HW117720   5.569   1.741   4.085
 5607SOL    HW217721   5.698   1.767   3.990
 5608SOL     OW17722   6.209   1.501   2.921
 5608SOL    HW117723   6.234   1.561   2.845
 5608SOL    HW217724   6.171   1.556   2.995
 5609SOL     OW17725   4.860   6.103   1.005
 5609SOL    HW117726   4.762   6.115   1.022
 5609SOL    HW217727   4.881   6.134   0.912
 5610SOL     OW17728   5.418   4.186   1.533
 5610SOL    HW117729   5.388   4.103   1.485
 5610SOL    HW217730   5.338   4.239   1.560
 5611SOL     OW17731   1.014   5.041   2.554
 5611SOL    HW117732   0.940   5.057   2.489
 5611SOL    HW217733   1.065   5.127   2.568
 5612SOL     OW17734   3.935   3.500   0.263
 5612SOL    HW117735   3.923   3.599   0.258
 5612SOL    HW217736   4.030   3.479   0.286
 5613SOL     OW17737   5.792   4.984   4.977
 5613SOL    HW117738   5.882   4.996   5.020
 5613SOL    HW217739   5.804   4.956   4.882
 5614SOL     OW17740   5.233   3.599   4.864
 5614SOL    HW117741   5.253   3.569   4.957
 5614SOL    HW217742   5.197   3.692   4.867
 5615SOL     OW17743   6.488   1.549   4.092
 5615SOL    HW117744   6.558   1.608   4.050
 5615SOL    HW217745   6.445   1.598   4.168
 5616SOL     OW17746   2.041   3.032   4.523
 5616SOL    HW117747   1.946   3.018   4.495
 5616SOL    HW217748   2.100   3.026   4.442
 5617SOL     OW17749   1.364   4.032   5.219
 5617SOL    HW117750   1.304   3.966   5.265
 5617SOL    HW217751   1.434   3.983   5.167
 5618SOL     OW17752   6.664   4.750   3.480
 5618SOL    HW117753   6.700   4.793   3.398
 5618SOL    HW217754   6.618   4.665   3.456
 5619SOL     OW17755   3.283   3.903   3.500
 5619SOL    HW117756   3.334   3.988   3.517
 5619SOL    HW217757   3.260   3.860   3.587
 5620SOL     OW17758   4.489   3.565   6.520
 5620SOL    HW117759   4.508   3.527   6.610
 5620SOL    HW217760   4.511   3.498   6.450
 5621SOL     OW17761   1.232   2.905   6.337
 5621SOL    HW117762   1.257   2.957   6.419
 5621SOL    HW217763   1.164   2.955   6.285
 5622SOL     OW17764   5.296   6.740   5.665
 5622SOL    HW117765   5.325   6.713   5.757
 5622SOL    HW217766   5.218   6.802   5.672
 5623SOL     OW17767   4.483   6.377   5.323
 5623SOL    HW117768   4.448   6.307   5.261
 5623SOL    HW217769   4.575   6.352   5.352
 5624SOL     OW17770   0.277   4.994   3.991
 5624SOL    HW117771   0.185   5.012   3.955
 5624SOL    HW217772   0.292   4.895   3.996
 5625SOL     OW17773   6.789   5.900   5.402
 5625SOL    HW117774   6.857   5.973   5.412
 5625SOL    HW217775   6.810   5.846   5.321
 5626SOL     OW17776   2.534   5.403   4.097
 5626SOL    HW117777   2.510   5.456   4.015
 5626SOL    HW217778   2.462   5.337   4.117
 5627SOL     OW17779   6.787   4.982   6.278
 5627SOL    HW117780   6.696   5.024   6.280
 5627SOL    HW217781   6.856   5.053   6.262
 5628SOL     OW17782   1.831   2.352   1.517
 5628SOL    HW117783   1.803   2.436   1.565
 5628SOL    HW217784   1.881   2.293   1.580
 5629SOL     OW17785   5.166   3.072   2.250
 5629SOL    HW117786   5.069   3.100   2.248
 5629SOL    HW217787   5.180   2.997   2.186
 5630SOL     OW17788   1.843   4.229   6.757
 5630SOL    HW117789   1.912   4.157   6.762
 5630SOL    HW217790   1.886   4.318   6.776
 5631SOL     OW17791   4.961   1.089   1.394
 5631SOL    HW117792   4.949   0.990   1.401
 5631SOL    HW217793   4.918   1.122   1.309
 5632SOL     OW17794   3.319   1.965   5.496
 5632SOL    HW117795   3.376   1.884   5.478
 5632SOL    HW217796   3.325   2.027   5.418
 5633SOL     OW17797   6.274   4.657   4.619
 5633SOL    HW117798   6.321   4.722   4.677
 5633SOL    HW217799   6.222   4.706   4.549
 5634SOL     OW17800   2.017   4.662   4.686
 5634SOL    HW117801   1.931   4.660   4.635
 5634SOL    HW217802   2.086   4.711   4.633
 5635SOL     OW17803   1.891   5.937   6.850
 5635SOL    HW117804   1.948   6.005   6.895
 5635SOL    HW217805   1.899   5.948   6.751
 5636SOL     OW17806   6.124   6.939   5.198
 5636SOL    HW117807   6.070   7.019   5.171
 5636SOL    HW217808   6.079   6.856   5.167
 5637SOL     OW17809   3.122   0.382   3.546
 5637SOL    HW117810   3.139   0.455   3.480
 5637SOL    HW217811   3.123   0.293   3.499
 5638SOL     OW17812   6.463   4.345   0.701
 5638SOL    HW117813   6.482   4.310   0.793
 5638SOL    HW217814   6.423   4.436   0.708
 5639SOL     OW17815   2.431   0.417   2.232
 5639SOL    HW117816   2.355   0.365   2.193
 5639SOL    HW217817   2.516   0.365   2.224
 5640SOL     OW17818   3.047   0.940   2.742
 5640SOL    HW117819   3.049   0.869   2.672
 5640SOL    HW217820   3.085   1.025   2.704
 5641SOL     OW17821   0.852   5.042   5.887
 5641SOL    HW117822   0.796   4.995   5.955
 5641SOL    HW217823   0.918   5.101   5.933
 5642SOL     OW17824   0.857   5.392   4.939
 5642SOL    HW117825   0.907   5.326   4.996
 5642SOL    HW217826   0.769   5.352   4.912
 5643SOL     OW17827   3.557   0.934   4.266
 5643SOL    HW117828   3.564   0.835   4.265
 5643SOL    HW217829   3.583   0.971   4.177
 5644SOL     OW17830   3.477   0.532   4.514
 5644SOL    HW117831   3.559   0.505   4.565
 5644SOL    HW217832   3.432   0.608   4.561
 5645SOL     OW17833   5.754   4.708   2.841
 5645SOL    HW117834   5.661   4.736   2.819
 5645SOL    HW217835   5.768   4.614   2.811
 5646SOL     OW17836   0.833   5.617   3.419
 5646SOL    HW117837   0.787   5.604   3.507
 5646SOL    HW217838   0.910   5.555   3.412
 5647SOL     OW17839   5.991   6.721   0.860
 5647SOL    HW117840   6.060   6.703   0.790
 5647SOL    HW217841   5.987   6.819   0.878
 5648SOL     OW17842   1.524   1.142   3.567
 5648SOL    HW117843   1.425   1.151   3.576
 5648SOL    HW217844   1.555   1.059   3.615
 5649SOL     OW17845   6.684   0.286   5.472
 5649SOL    HW117846   6.700   0.375   5.429
 5649SOL    HW217847   6.635   0.227   5.408
 5650SOL     OW17848   1.567   5.108   0.975
 5650SOL    HW117849   1.647   5.108   1.035
 5650SOL    HW217850   1.582   5.172   0.899
 5651SOL     OW17851   0.247   1.187   1.755
 5651SOL    HW117852   0.149   1.182   1.742
 5651SOL    HW217853   0.267   1.194   1.853
 5652SOL     OW17854   6.254   6.885   2.352
 5652SOL    HW117855   6.327   6.844   2.406
 5652SOL    HW217856   6.293   6.942   2.279
 5653SOL     OW17857   0.511   6.127   6.502
 5653SOL    HW117858   0.610   6.127   6.517
 5653SOL    HW217859   0.478   6.222   6.495
 5654SOL     OW17860   6.527   6.586   5.786
 5654SOL    HW117861   6.608   6.527   5.794
 5654SOL    HW217862   6.547   6.661   5.723
 5655SOL     OW17863   2.044   3.794   5.161
 5655SOL    HW117864   2.091   3.729   5.220
 5655SOL    HW217865   2.056   3.887   5.195
 5656SOL     OW17866   0.191   3.519   0.522
 5656SOL    HW117867   0.127   3.447   0.496
 5656SOL    HW217868   0.281   3.500   0.482
 5657SOL     OW17869   5.653   1.131   0.196
 5657SOL    HW117870   5.555   1.112   0.201
 5657SOL    HW217871   5.680   1.188   0.274
 5658SOL     OW17872   3.804   5.146   5.833
 5658SOL    HW117873   3.732   5.194   5.883
 5658SOL    HW217874   3.765   5.067   5.785
 5659SOL     OW17875   4.068   3.708   3.589
 5659SOL    HW117876   4.112   3.654   3.660
 5659SOL    HW217877   4.107   3.685   3.500
 5660SOL     OW17878   5.998   0.203   6.133
 5660SOL    HW117879   5.981   0.104   6.137
 5660SOL    HW217880   5.916   0.252   6.162
 5661SOL     OW17881   1.612   4.743   4.858
 5661SOL    HW117882   1.550   4.812   4.822
 5661SOL    HW217883   1.580   4.713   4.948
 5662SOL     OW17884   3.200   5.643   3.483
 5662SOL    HW117885   3.259   5.637   3.563
 5662SOL    HW217886   3.255   5.656   3.401
 5663SOL     OW17887   2.158   3.182   6.931
 5663SOL    HW117888   2.131   3.269   6.973
 5663SOL    HW217889   2.257   3.176   6.929
 5664SOL     OW17890   6.292   3.905   4.503
 5664SOL    HW117891   6.388   3.880   4.508
 5664SOL    HW217892   6.282   3.992   4.455
 5665SOL     OW17893   1.601   2.197   0.156
 5665SOL    HW117894   1.617   2.109   0.202
 5665SOL    HW217895   1.673   2.261   0.181
 5666SOL     OW17896   5.916   5.784   1.444
 5666SOL    HW117897   5.909   5.882   1.464
 5666SOL    HW217898   6.005   5.750   1.477
 5667SOL     OW17899   0.939   4.897   3.945
 5667SOL    HW117900   0.991   4.930   4.024
 5667SOL    HW217901   0.968   4.804   3.923
 5668SOL     OW17902   5.306   1.772   5.084
 5668SOL    HW117903   5.252   1.782   5.168
 5668SOL    HW217904   5.249   1.796   5.005
 5669SOL     OW17905   0.580   3.083   0.051
 5669SOL    HW117906   0.596   3.157   0.117
 5669SOL    HW217907   0.659   3.074   7.015
 5670SOL     OW17908   6.523   2.739   3.733
 5670SOL    HW117909   6.424   2.729   3.739
 5670SOL    HW217910   6.556   2.695   3.649
 5671SOL     OW17911   0.529   6.023   0.141
 5671SOL    HW117912   0.596   5.967   0.094
 5671SOL    HW217913   0.566   6.055   0.228
 5672SOL     OW17914   4.231   4.818   6.721
 5672SOL    HW117915   4.312   4.807   6.778
 5672SOL    HW217916   4.240   4.762   6.639
 5673SOL     OW17917   0.862   6.757   1.945
 5673SOL    HW117918   0.919   6.738   1.865
 5673SOL    HW217919   0.771   6.785   1.916
 5674SOL     OW17920   0.041   4.878   5.123
 5674SOL    HW117921   6.972   4.876   5.156
 5674SOL    HW217922   0.092   4.950   5.171
 5675SOL     OW17923   4.215   2.120   5.737
 5675SOL    HW117924   4.197   2.215   5.762
 5675SOL    HW217925   4.157   2.095   5.660
 5676SOL     OW17926   2.251   2.803   2.462
 5676SOL    HW117927   2.187   2.795   2.539
 5676SOL    HW217928   2.341   2.768   2.490
 5677SOL     OW17929   7.009   1.191   1.716
 5677SOL    HW117930   6.925   1.186   1.771
 5677SOL    HW217931   7.014   1.111   1.655
 5678SOL     OW17932   3.710   6.745   3.034
 5678SOL    HW117933   3.727   6.681   2.959
 5678SOL    HW217934   3.612   6.756   3.047
 5679SOL     OW17935   1.051   1.253   4.324
 5679SOL    HW117936   0.987   1.180   4.304
 5679SOL    HW217937   1.144   1.221   4.307
 5680SOL     OW17938   1.403   4.888   0.011
 5680SOL    HW117939   1.384   4.946   6.956
 5680SOL    HW217940   1.371   4.935   0.094
 5681SOL     OW17941   0.369   4.589   0.465
 5681SOL    HW117942   0.345   4.645   0.545
 5681SOL    HW217943   0.437   4.521   0.493
 5682SOL     OW17944   2.483   4.456   5.713
 5682SOL    HW117945   2.560   4.490   5.768
 5682SOL    HW217946   2.495   4.358   5.695
 5683SOL     OW17947   3.726   0.562   0.041
 5683SOL    HW117948   3.762   0.631   0.104
 5683SOL    HW217949   3.765   0.473   0.064
 5684SOL     OW17950   2.932   3.645   5.250
 5684SOL    HW117951   2.874   3.588   5.308
 5684SOL    HW217952   2.972   3.588   5.177
 5685SOL     OW17953   1.572   3.168   2.478
 5685SOL    HW117954   1.645   3.205   2.420
 5685SOL    HW217955   1.490   3.155   2.422
 5686SOL     OW17956   3.094   0.908   6.390
 5686SOL    HW117957   3.060   0.827   6.343
 5686SOL    HW217958   3.029   0.935   6.461
 5687SOL     OW17959   0.174   4.669   6.175
 5687SOL    HW117960   0.255   4.665   6.118
 5687SOL    HW217961   0.193   4.626   6.264
 5688SOL     OW17962   0.350   2.348   0.363
 5688SOL    HW117963   0.279   2.303   0.419
 5688SOL    HW217964   0.440   2.325   0.400
 5689SOL     OW17965   4.455   1.023   0.849
 5689SOL    HW117966   4.532   1.043   0.787
 5689SOL    HW217967   4.469   0.934   0.893
 5690SOL     OW17968   2.548   6.111   0.803
 5690SOL    HW117969   2.603   6.148   0.878
 5690SOL    HW217970   2.562   6.166   0.721
 5691SOL     OW17971   3.094   6.747   2.057
 5691SOL    HW117972   3.088   6.650   2.082
 5691SOL    HW217973   3.047   6.801   2.126
 5692SOL     OW17974   6.182   2.990   0.512
 5692SOL    HW117975   6.143   3.078   0.485
 5692SOL    HW217976   6.174   2.979   0.611
 5693SOL     OW17977   5.705   2.268   2.731
 5693SOL    HW117978   5.747   2.273   2.640
 5693SOL    HW217979   5.641   2.343   2.743
 5694SOL     OW17980   0.748   1.939   3.891
 5694SOL    HW117981   0.811   2.011   3.918
 5694SOL    HW217982   0.707   1.898   3.973
 5695SOL     OW17983   0.987   2.522   2.829
 5695SOL    HW117984   0.927   2.475   2.764
 5695SOL    HW217985   0.997   2.617   2.802
 5696SOL     OW17986   1.359   1.157   2.911
 5696SOL    HW117987   1.334   1.217   2.835
 5696SOL    HW217988   1.344   1.205   2.998
 5697SOL     OW17989   5.943   2.336   1.418
 5697SOL    HW117990   6.023   2.277   1.407
 5697SOL    HW217991   5.915   2.372   1.329
 5698SOL     OW17992   0.895   3.765   3.329
 5698SOL    HW117993   0.969   3.827   3.352
 5698SOL    HW217994   0.932   3.675   3.306
 5699SOL     OW17995   6.850   2.523   2.999
 5699SOL    HW117996   6.893   2.589   2.938
 5699SOL    HW217997   6.778   2.569   3.052
 5700SOL     OW17998   0.228   6.691   4.066
 5700SOL    HW117999   0.256   6.767   4.007
 5700SOL    HW218000   0.130   6.674   4.052
 5701SOL     OW18001   1.311   0.935   2.702
 5701SOL    HW118002   1.305   0.985   2.788
 5701SOL    HW218003   1.405   0.907   2.685
 5702SOL     OW18004   2.418   6.123   5.334
 5702SOL    HW118005   2.495   6.170   5.290
 5702SOL    HW218006   2.452   6.046   5.387
 5703SOL     OW18007   6.405   4.519   1.500
 5703SOL    HW118008   6.319   4.488   1.459
 5703SOL    HW218009   6.394   4.526   1.599
 5704SOL     OW18010   4.287   5.020   2.269
 5704SOL    HW118011   4.290   4.920   2.272
 5704SOL    HW218012   4.288   5.056   2.363
 5705SOL     OW18013   4.914   0.808   1.203
 5705SOL    HW118014   5.004   0.851   1.197
 5705SOL    HW218015   4.906   0.758   1.289
 5706SOL     OW18016   6.326   3.545   0.607
 5706SOL    HW118017   6.297   3.633   0.569
 5706SOL    HW218018   6.423   3.532   0.589
 5707SOL     OW18019   0.023   6.743   0.644
 5707SOL    HW118020   7.004   6.810   0.583
 5707SOL    HW218021   0.037   6.657   0.595
 5708SOL     OW18022   5.116   6.249   1.083
 5708SOL    HW118023   5.051   6.187   1.040
 5708SOL    HW218024   5.146   6.210   1.171
 5709SOL     OW18025   1.285   0.143   2.597
 5709SOL    HW118026   1.340   0.084   2.656
 5709SOL    HW218027   1.342   0.214   2.558
 5710SOL     OW18028   2.715   3.192   6.989
 5710SOL    HW118029   2.768   3.125   6.937
 5710SOL    HW218030   2.728   3.176   0.062
 5711SOL     OW18031   5.261   1.106   2.676
 5711SOL    HW118032   5.237   1.021   2.723
 5711SOL    HW218033   5.291   1.174   2.742
 5712SOL     OW18034   0.855   6.308   6.514
 5712SOL    HW118035   0.925   6.369   6.550
 5712SOL    HW218036   0.880   6.213   6.533
 5713SOL     OW18037   2.527   3.094   1.412
 5713SOL    HW118038   2.429   3.107   1.429
 5713SOL    HW218039   2.570   3.058   1.495
 5714SOL     OW18040   0.730   5.484   6.829
 5714SOL    HW118041   0.642   5.442   6.849
 5714SOL    HW218042   0.799   5.450   6.892
 5715SOL     OW18043   0.892   6.395   3.438
 5715SOL    HW118044   0.942   6.478   3.414
 5715SOL    HW218045   0.905   6.326   3.366
 5716SOL     OW18046   1.414   3.958   6.754
 5716SOL    HW118047   1.361   4.037   6.724
 5716SOL    HW218048   1.504   3.960   6.711
 5717SOL     OW18049   1.803   5.881   0.862
 5717SOL    HW118050   1.818   5.954   0.929
 5717SOL    HW218051   1.713   5.894   0.819
 5718SOL     OW18052   0.403   2.527   5.573
 5718SOL    HW118053   0.472   2.570   5.515
 5718SOL    HW218054   0.406   2.568   5.665
 5719SOL     OW18055   3.575   1.633   6.643
 5719SOL    HW118056   3.526   1.592   6.566
 5719SOL    HW218057   3.522   1.619   6.727
 5720SOL     OW18058   1.578   5.055   4.615
 5720SOL    HW118059   1.552   5.148   4.643
 5720SOL    HW218060   1.505   4.991   4.638
 5721SOL     OW18061   0.482   4.409   1.140
 5721SOL    HW118062   0.461   4.325   1.090
 5721SOL    HW218063   0.521   4.386   1.229
 5722SOL     OW18064   6.310   1.190   5.654
 5722SOL    HW118065   6.224   1.140   5.665
 5722SOL    HW218066   6.354   1.162   5.569
 5723SOL     OW18067   4.812   3.459   6.930
 5723SOL    HW118068   4.837   3.553   6.951
 5723SOL    HW218069   4.813   3.445   6.831
 5724SOL     OW18070   4.674   2.792   4.682
 5724SOL    HW118071   4.641   2.823   4.771
 5724SOL    HW218072   4.698   2.695   4.688
 5725SOL     OW18073   5.419   5.113   3.545
 5725SOL    HW118074   5.511   5.149   3.562
 5725SOL    HW218075   5.354   5.155   3.607
 5726SOL     OW18076   0.114   4.596   5.068
 5726SOL    HW118077   0.200   4.572   5.112
 5726SOL    HW218078   0.098   4.694   5.076
 5727SOL     OW18079   6.920   1.776   4.291
 5727SOL    HW118080   6.925   1.696   4.232
 5727SOL    HW218081   6.998   1.776   4.354
 5728SOL     OW18082   3.992   1.063   6.261
 5728SOL    HW118083   3.929   0.986   6.252
 5728SOL    HW218084   3.956   1.141   6.211
 5729SOL     OW18085   1.003   1.358   0.319
 5729SOL    HW118086   1.013   1.439   0.261
 5729SOL    HW218087   1.030   1.277   0.266
 5730SOL     OW18088   4.598   5.449   6.411
 5730SOL    HW118089   4.598   5.489   6.503
 5730SOL    HW218090   4.691   5.446   6.376
 5731SOL     OW18091   0.621   6.612   4.035
 5731SOL    HW118092   0.573   6.582   3.952
 5731SOL    HW218093   0.715   6.579   4.032
 5732SOL     OW18094   6.331   5.315   4.940
 5732SOL    HW118095   6.290   5.393   4.894
 5732SOL    HW218096   6.318   5.232   4.885
 5733SOL     OW18097   3.957   6.949   4.992
 5733SOL    HW118098   3.911   7.009   5.057
 5733SOL    HW218099   3.981   6.863   5.037
 5734SOL     OW18100   0.987   6.748   6.036
 5734SOL    HW118101   0.926   6.671   6.052
 5734SOL    HW218102   1.074   6.731   6.082
 5735SOL     OW18103   3.943   2.132   2.059
 5735SOL    HW118104   4.002   2.204   2.023
 5735SOL    HW218105   3.859   2.126   2.004
 5736SOL     OW18106   5.919   3.892   0.479
 5736SOL    HW118107   5.987   3.850   0.540
 5736SOL    HW218108   5.933   3.859   0.386
 5737SOL     OW18109   4.901   5.913   0.413
 5737SOL    HW118110   4.836   5.875   0.347
 5737SOL    HW218111   4.984   5.942   0.365
 5738SOL     OW18112   3.038   3.264   6.034
 5738SOL    HW118113   3.121   3.301   6.076
 5738SOL    HW218114   3.032   3.295   5.939
 5739SOL     OW18115   0.977   7.017   5.799
 5739SOL    HW118116   0.920   7.023   5.881
 5739SOL    HW218117   1.073   7.009   5.825
 5740SOL     OW18118   4.491   3.574   1.256
 5740SOL    HW118119   4.511   3.478   1.236
 5740SOL    HW218120   4.393   3.590   1.250
 5741SOL     OW18121   6.728   4.230   4.528
 5741SOL    HW118122   6.686   4.283   4.454
 5741SOL    HW218123   6.818   4.197   4.499
 5742SOL     OW18124   4.556   6.855   3.091
 5742SOL    HW118125   4.597   6.816   3.174
 5742SOL    HW218126   4.538   6.781   3.025
 5743SOL     OW18127   2.829   5.584   5.195
 5743SOL    HW118128   2.780   5.627   5.119
 5743SOL    HW218129   2.928   5.595   5.181
 5744SOL     OW18130   5.094   1.897   2.133
 5744SOL    HW118131   5.134   1.820   2.083
 5744SOL    HW218132   5.045   1.862   2.213
 5745SOL     OW18133   2.102   1.105   4.262
 5745SOL    HW118134   2.140   1.121   4.353
 5745SOL    HW218135   2.065   1.191   4.226
 5746SOL     OW18136   5.340   6.548   1.159
 5746SOL    HW118137   5.366   6.644   1.149
 5746SOL    HW218138   5.260   6.541   1.218
 5747SOL     OW18139   0.514   4.540   2.548
 5747SOL    HW118140   0.460   4.534   2.465
 5747SOL    HW218141   0.511   4.634   2.583
 5748SOL     OW18142   1.580   6.285   0.768
 5748SOL    HW118143   1.509   6.342   0.726
 5748SOL    HW218144   1.581   6.195   0.726
 5749SOL     OW18145   1.075   6.301   4.441
 5749SOL    HW118146   0.992   6.254   4.411
 5749SOL    HW218147   1.053   6.396   4.464
 5750SOL     OW18148   7.001   5.923   4.316
 5750SOL    HW118149   6.927   5.858   4.298
 5750SOL    HW218150   6.963   6.015   4.324
 5751SOL     OW18151   2.734   2.401   4.214
 5751SOL    HW118152   2.669   2.462   4.170
 5751SOL    HW218153   2.737   2.421   4.312
 5752SOL     OW18154   6.548   0.469   0.213
 5752SOL    HW118155   6.613   0.515   0.153
 5752SOL    HW218156   6.597   0.404   0.271
 5753SOL     OW18157   3.837   3.162   4.459
 5753SOL    HW118158   3.807   3.099   4.531
 5753SOL    HW218159   3.891   3.235   4.500
 5754SOL     OW18160   6.448   4.777   1.427
 5754SOL    HW118161   6.431   4.680   1.442
 5754SOL    HW218162   6.541   4.790   1.395
 5755SOL     OW18163   2.108   2.995   6.151
 5755SOL    HW118164   2.205   3.014   6.134
 5755SOL    HW218165   2.066   2.959   6.068
 5756SOL     OW18166   5.828   0.212   3.313
 5756SOL    HW118167   5.923   0.233   3.338
 5756SOL    HW218168   5.792   0.143   3.376
 5757SOL     OW18169   6.471   6.923   3.106
 5757SOL    HW118170   6.443   6.830   3.129
 5757SOL    HW218171   6.567   6.924   3.078
 5758SOL     OW18172   2.590   0.857   4.847
 5758SOL    HW118173   2.647   0.863   4.765
 5758SOL    HW218174   2.633   0.907   4.922
 5759SOL     OW18175   5.316   1.620   6.796
 5759SOL    HW118176   5.292   1.715   6.817
 5759SOL    HW218177   5.405   1.618   6.750
 5760SOL     OW18178   0.344   4.211   0.579
 5760SOL    HW118179   0.270   4.266   0.620
 5760SOL    HW218180   0.396   4.267   0.516
 5761SOL     OW18181   5.952   5.778   6.122
 5761SOL    HW118182   5.885   5.704   6.123
 5761SOL    HW218183   5.992   5.786   6.031
 5762SOL     OW18184   4.790   4.995   0.753
 5762SOL    HW118185   4.748   5.013   0.664
 5762SOL    HW218186   4.722   4.954   0.814
 5763SOL     OW18187   0.295   0.059   0.320
 5763SOL    HW118188   0.332   0.037   0.229
 5763SOL    HW218189   0.305   7.004   0.380
 5764SOL     OW18190   5.159   5.265   5.516
 5764SOL    HW118191   5.193   5.319   5.439
 5764SOL    HW218192   5.200   5.173   5.513
 5765SOL     OW18193   6.267   2.806   0.322
 5765SOL    HW118194   6.188   2.746   0.307
 5765SOL    HW218195   6.249   2.865   0.401
 5766SOL     OW18196   2.080   2.319   6.345
 5766SOL    HW118197   2.150   2.358   6.284
 5766SOL    HW218198   1.989   2.337   6.308
 5767SOL     OW18199   1.583   1.465   0.180
 5767SOL    HW118200   1.636   1.504   0.105
 5767SOL    HW218201   1.645   1.442   0.255
 5768SOL     OW18202   0.877   6.126   3.354
 5768SOL    HW118203   0.893   6.028   3.342
 5768SOL    HW218204   0.878   6.149   3.452
 5769SOL     OW18205   2.449   5.743   4.382
 5769SOL    HW118206   2.544   5.715   4.368
 5769SOL    HW218207   2.389   5.663   4.374
 5770SOL     OW18208   6.064   6.642   0.496
 5770SOL    HW118209   6.130   6.640   0.571
 5770SOL    HW218210   6.021   6.732   0.492
 5771SOL     OW18211   1.234   6.794   3.291
 5771SOL    HW118212   1.283   6.765   3.209
 5771SOL    HW218213   1.295   6.850   3.348
 5772SOL     OW18214   6.085   2.224   0.665
 5772SOL    HW118215   6.036   2.277   0.734
 5772SOL    HW218216   6.072   2.126   0.683
 5773SOL     OW18217   4.629   0.863   3.625
 5773SOL    HW118218   4.653   0.935   3.690
 5773SOL    HW218219   4.708   0.842   3.568
 5774SOL     OW18220   2.976   5.817   3.521
 5774SOL    HW118221   2.908   5.745   3.503
 5774SOL    HW218222   3.067   5.778   3.515
 5775SOL     OW18223   1.398   1.557   2.054
 5775SOL    HW118224   1.338   1.486   2.091
 5775SOL    HW218225   1.352   1.604   1.979
 5776SOL     OW18226   0.135   0.223   5.395
 5776SOL    HW118227   0.168   0.277   5.318
 5776SOL    HW218228   0.065   0.158   5.363
 5777SOL     OW18229   6.505   0.111   5.345
 5777SOL    HW118230   6.524   0.070   5.435
 5777SOL    HW218231   6.412   0.148   5.345
 5778SOL     OW18232   1.354   0.834   1.474
 5778SOL    HW118233   1.358   0.737   1.499
 5778SOL    HW218234   1.275   0.877   1.518
 5779SOL     OW18235   5.169   2.147   0.393
 5779SOL    HW118236   5.241   2.205   0.355
 5779SOL    HW218237   5.144   2.077   0.325
 5780SOL     OW18238   6.156   5.333   3.188
 5780SOL    HW118239   6.166   5.433   3.192
 5780SOL    HW218240   6.246   5.291   3.178
 5781SOL     OW18241   0.266   4.478   4.470
 5781SOL    HW118242   0.330   4.422   4.523
 5781SOL    HW218243   0.244   4.431   4.385
 5782SOL     OW18244   0.878   1.271   0.573
 5782SOL    HW118245   0.928   1.302   0.492
 5782SOL    HW218246   0.793   1.226   0.544
 5783SOL     OW18247   1.817   0.776   1.638
 5783SOL    HW118248   1.884   0.834   1.685
 5783SOL    HW218249   1.779   0.825   1.560
 5784SOL     OW18250   6.998   6.147   0.187
 5784SOL    HW118251   7.007   6.050   0.210
 5784SOL    HW218252   6.945   6.156   0.103
 5785SOL     OW18253   1.650   1.693   0.466
 5785SOL    HW118254   1.606   1.620   0.413
 5785SOL    HW218255   1.722   1.735   0.411
 5786SOL     OW18256   0.526   4.659   1.099
 5786SOL    HW118257   0.471   4.677   1.017
 5786SOL    HW218258   0.514   4.563   1.125
 5787SOL     OW18259   3.980   2.105   5.495
 5787SOL    HW118260   3.932   2.066   5.417
 5787SOL    HW218261   4.060   2.156   5.463
 5788SOL     OW18262   3.107   1.197   1.338
 5788SOL    HW118263   3.204   1.180   1.320
 5788SOL    HW218264   3.096   1.289   1.377
 5789SOL     OW18265   2.720   4.277   0.583
 5789SOL    HW118266   2.668   4.269   0.668
 5789SOL    HW218267   2.661   4.257   0.505
 5790SOL     OW18268   0.082   4.855   4.734
 5790SOL    HW118269   0.142   4.851   4.814
 5790SOL    HW218270   0.062   4.762   4.703
 5791SOL     OW18271   3.165   1.723   2.295
 5791SOL    HW118272   3.113   1.806   2.314
 5791SOL    HW218273   3.125   1.645   2.343
 5792SOL     OW18274   5.245   2.605   2.280
 5792SOL    HW118275   5.190   2.573   2.203
 5792SOL    HW218276   5.328   2.650   2.246
 5793SOL     OW18277   6.020   0.523   4.289
 5793SOL    HW118278   5.968   0.454   4.340
 5793SOL    HW218279   6.097   0.555   4.345
 5794SOL     OW18280   2.423   0.597   5.846
 5794SOL    HW118281   2.455   0.676   5.899
 5794SOL    HW218282   2.327   0.579   5.867
 5795SOL     OW18283   0.293   6.602   0.224
 5795SOL    HW118284   0.360   6.638   0.159
 5795SOL    HW218285   0.341   6.544   0.291
 5796SOL     OW18286   4.884   0.851   6.325
 5796SOL    HW118287   4.866   0.776   6.388
 5796SOL    HW218288   4.833   0.838   6.240
 5797SOL     OW18289   4.946   2.281   0.345
 5797SOL    HW118290   5.030   2.234   0.371
 5797SOL    HW218291   4.969   2.358   0.285
 5798SOL     OW18292   6.656   5.360   3.953
 5798SOL    HW118293   6.638   5.264   3.973
 5798SOL    HW218294   6.737   5.390   4.004
 5799SOL     OW18295   0.092   0.662   4.270
 5799SOL    HW118296   0.064   0.566   4.276
 5799SOL    HW218297   0.116   0.685   4.176
 5800SOL     OW18298   0.070   0.021   2.104
 5800SOL    HW118299   0.139   0.059   2.042
 5800SOL    HW218300   0.040   6.957   2.070
 5801SOL     OW18301   1.692   2.363   3.549
 5801SOL    HW118302   1.598   2.369   3.515
 5801SOL    HW218303   1.756   2.362   3.472
 5802SOL     OW18304   0.100   3.129   2.814
 5802SOL    HW118305   0.156   3.211   2.828
 5802SOL    HW218306   0.034   3.121   2.889
 5803SOL     OW18307   2.186   5.963   2.829
 5803SOL    HW118308   2.278   5.924   2.826
 5803SOL    HW218309   2.177   6.034   2.759
 5804SOL     OW18310   0.403   5.097   3.149
 5804SOL    HW118311   0.431   5.136   3.236
 5804SOL    HW218312   0.431   5.001   3.145
 5805SOL     OW18313   1.916   2.704   0.599
 5805SOL    HW118314   1.855   2.708   0.678
 5805SOL    HW218315   2.009   2.683   0.631
 5806SOL     OW18316   6.550   5.490   4.219
 5806SOL    HW118317   6.512   5.398   4.211
 5806SOL    HW218318   6.618   5.492   4.292
 5807SOL     OW18319   0.801   4.552   0.644
 5807SOL    HW118320   0.773   4.468   0.690
 5807SOL    HW218321   0.818   4.623   0.713
 5808SOL     OW18322   6.851   5.686   4.199
 5808SOL    HW118323   6.782   5.747   4.160
 5808SOL    HW218324   6.843   5.596   4.157
 5809SOL     OW18325   6.248   1.479   5.199
 5809SOL    HW118326   6.331   1.475   5.254
 5809SOL    HW218327   6.260   1.424   5.116
 5810SOL     OW18328   5.011   1.171   6.005
 5810SOL    HW118329   4.934   1.111   5.985
 5810SOL    HW218330   5.084   1.118   6.049
 5811SOL     OW18331   3.828   0.841   4.955
 5811SOL    HW118332   3.834   0.928   5.003
 5811SOL    HW218333   3.896   0.839   4.881
 5812SOL     OW18334   5.389   3.330   5.615
 5812SOL    HW118335   5.338   3.333   5.701
 5812SOL    HW218336   5.416   3.235   5.597
 5813SOL     OW18337   2.278   1.348   0.732
 5813SOL    HW118338   2.280   1.277   0.802
 5813SOL    HW218339   2.278   1.438   0.776
 5814SOL     OW18340   6.612   3.522   2.162
 5814SOL    HW118341   6.643   3.564   2.247
 5814SOL    HW218342   6.523   3.478   2.177
 5815SOL     OW18343   4.055   1.794   3.569
 5815SOL    HW118344   3.997   1.715   3.550
 5815SOL    HW218345   4.000   1.877   3.562
 5816SOL     OW18346   4.830   4.519   0.739
 5816SOL    HW118347   4.879   4.436   0.710
 5816SOL    HW218348   4.766   4.546   0.667
 5817SOL     OW18349   6.240   4.640   5.601
 5817SOL    HW118350   6.220   4.582   5.680
 5817SOL    HW218351   6.207   4.733   5.619
 5818SOL     OW18352   6.635   5.113   5.524
 5818SOL    HW118353   6.691   5.031   5.538
 5818SOL    HW218354   6.667   5.186   5.584
 5819SOL     OW18355   3.727   0.104   6.888
 5819SOL    HW118356   3.636   0.068   6.871
 5819SOL    HW218357   3.793   0.029   6.887
 5820SOL     OW18358   4.181   4.865   3.601
 5820SOL    HW118359   4.240   4.784   3.602
 5820SOL    HW218360   4.120   4.861   3.522
 5821SOL     OW18361   6.984   0.899   1.864
 5821SOL    HW118362   7.014   0.899   1.959
 5821SOL    HW218363   0.039   0.902   1.804
 5822SOL     OW18364   1.546   2.630   1.712
 5822SOL    HW118365   1.638   2.605   1.743
 5822SOL    HW218366   1.478   2.583   1.767
 5823SOL     OW18367   2.925   0.595   4.551
 5823SOL    HW118368   2.878   0.630   4.470
 5823SOL    HW218369   3.006   0.543   4.523
 5824SOL     OW18370   0.038   6.065   2.853
 5824SOL    HW118371   0.079   6.144   2.808
 5824SOL    HW218372   7.022   6.093   2.940
 5825SOL     OW18373   0.063   6.832   4.571
 5825SOL    HW118374   0.149   6.793   4.604
 5825SOL    HW218375   0.064   6.931   4.584
 5826SOL     OW18376   0.114   5.280   6.415
 5826SOL    HW118377   0.077   5.276   6.508
 5826SOL    HW218378   0.095   5.370   6.376
 5827SOL     OW18379   1.773   3.800   5.044
 5827SOL    HW118380   1.868   3.819   5.066
 5827SOL    HW218381   1.716   3.878   5.071
 5828SOL     OW18382   5.496   1.689   2.187
 5828SOL    HW118383   5.557   1.624   2.143
 5828SOL    HW218384   5.543   1.777   2.197
 5829SOL     OW18385   1.977   0.250   4.474
 5829SOL    HW118386   1.897   0.191   4.480
 5829SOL    HW218387   2.047   0.206   4.417
 5830SOL     OW18388   5.794   6.912   5.947
 5830SOL    HW118389   5.754   6.884   5.860
 5830SOL    HW218390   5.893   6.901   5.944
 5831SOL     OW18391   1.218   0.555   5.902
 5831SOL    HW118392   1.153   0.507   5.842
 5831SOL    HW218393   1.306   0.561   5.856
 5832SOL     OW18394   3.055   5.004   6.819
 5832SOL    HW118395   3.023   4.993   6.913
 5832SOL    HW218396   3.115   4.927   6.795
 5833SOL     OW18397   4.010   3.848   5.127
 5833SOL    HW118398   3.963   3.917   5.072
 5833SOL    HW218399   4.081   3.893   5.182
 5834SOL     OW18400   0.247   3.296   0.151
 5834SOL    HW118401   0.304   3.256   0.223
 5834SOL    HW218402   0.305   3.347   0.087
 5835SOL     OW18403   5.467   2.574   3.242
 5835SOL    HW118404   5.472   2.503   3.172
 5835SOL    HW218405   5.372   2.596   3.261
 5836SOL     OW18406   3.363   0.120   1.855
 5836SOL    HW118407   3.283   0.152   1.905
 5836SOL    HW218408   3.411   0.198   1.814
 5837SOL     OW18409   3.496   3.972   0.054
 5837SOL    HW118410   3.457   3.966   6.987
 5837SOL    HW218411   3.451   3.907   0.114
 5838SOL     OW18412   2.994   1.933   1.001
 5838SOL    HW118413   3.029   1.863   0.939
 5838SOL    HW218414   3.029   2.022   0.974
 5839SOL     OW18415   0.829   2.347   1.931
 5839SOL    HW118416   0.875   2.316   2.015
 5839SOL    HW218417   0.891   2.407   1.880
 5840SOL     OW18418   1.769   4.934   6.127
 5840SOL    HW118419   1.718   4.954   6.043
 5840SOL    HW218420   1.732   4.851   6.169
 5841SOL     OW18421   4.869   1.071   2.425
 5841SOL    HW118422   4.813   1.008   2.478
 5841SOL    HW218423   4.813   1.147   2.393
 5842SOL     OW18424   4.753   2.933   1.559
 5842SOL    HW118425   4.761   2.885   1.646
 5842SOL    HW218426   4.666   2.911   1.516
 5843SOL     OW18427   1.407   4.152   2.528
 5843SOL    HW118428   1.323   4.205   2.518
 5843SOL    HW218429   1.435   4.152   2.624
 5844SOL     OW18430   1.291   6.054   5.637
 5844SOL    HW118431   1.254   6.144   5.616
 5844SOL    HW218432   1.353   6.026   5.564
 5845SOL     OW18433   0.674   0.632   2.299
 5845SOL    HW118434   0.606   0.703   2.279
 5845SOL    HW218435   0.727   0.658   2.380
 5846SOL     OW18436   6.292   3.676   6.342
 5846SOL    HW118437   6.365   3.697   6.406
 5846SOL    HW218438   6.319   3.706   6.250
 5847SOL     OW18439   2.764   2.296   2.306
 5847SOL    HW118440   2.802   2.351   2.232
 5847SOL    HW218441   2.739   2.205   2.271
 5848SOL     OW18442   1.398   5.692   3.215
 5848SOL    HW118443   1.495   5.715   3.216
 5848SOL    HW218444   1.379   5.630   3.139
 5849SOL     OW18445   1.719   0.251   5.476
 5849SOL    HW118446   1.639   0.213   5.522
 5849SOL    HW218447   1.725   0.215   5.384
 5850SOL     OW18448   6.481   3.441   1.652
 5850SOL    HW118449   6.402   3.481   1.606
 5850SOL    HW218450   6.512   3.502   1.725
 5851SOL     OW18451   5.076   2.932   3.018
 5851SOL    HW118452   5.089   2.834   3.033
 5851SOL    HW218453   5.101   2.983   3.100
 5852SOL     OW18454   5.857   6.074   3.195
 5852SOL    HW118455   5.890   6.002   3.133
 5852SOL    HW218456   5.851   6.038   3.288
 5853SOL     OW18457   3.626   5.286   5.145
 5853SOL    HW118458   3.596   5.298   5.239
 5853SOL    HW218459   3.718   5.248   5.143
 5854SOL     OW18460   4.309   4.888   6.266
 5854SOL    HW118461   4.278   4.845   6.181
 5854SOL    HW218462   4.369   4.825   6.314
 5855SOL     OW18463   1.601   0.971   4.874
 5855SOL    HW118464   1.678   0.911   4.851
 5855SOL    HW218465   1.532   0.918   4.923
 5856SOL     OW18466   2.133   6.035   3.573
 5856SOL    HW118467   2.192   6.101   3.528
 5856SOL    HW218468   2.157   5.943   3.544
 5857SOL     OW18469   6.125   2.625   5.800
 5857SOL    HW118470   6.115   2.666   5.710
 5857SOL    HW218471   6.099   2.529   5.796
 5858SOL     OW18472   2.964   2.235   2.498
 5858SOL    HW118473   3.047   2.233   2.442
 5858SOL    HW218474   2.886   2.263   2.441
 5859SOL     OW18475   6.495   6.072   1.835
 5859SOL    HW118476   6.437   6.103   1.910
 5859SOL    HW218477   6.589   6.063   1.868
 5860SOL     OW18478   6.916   4.146   3.209
 5860SOL    HW118479   6.907   4.051   3.180
 5860SOL    HW218480   6.833   4.197   3.187
 5861SOL     OW18481   5.270   1.566   4.077
 5861SOL    HW118482   5.199   1.611   4.130
 5861SOL    HW218483   5.358   1.572   4.125
 5862SOL     OW18484   5.874   5.611   0.885
 5862SOL    HW118485   5.961   5.562   0.890
 5862SOL    HW218486   5.887   5.704   0.919
 5863SOL     OW18487   3.003   2.101   5.158
 5863SOL    HW118488   3.048   2.177   5.111
 5863SOL    HW218489   3.070   2.029   5.176
 5864SOL     OW18490   3.470   4.136   2.632
 5864SOL    HW118491   3.370   4.131   2.630
 5864SOL    HW218492   3.502   4.129   2.726
 5865SOL     OW18493   6.154   0.023   5.751
 5865SOL    HW118494   6.060   0.054   5.736
 5865SOL    HW218495   6.199   0.010   5.662
 5866SOL     OW18496   3.484   4.471   0.640
 5866SOL    HW118497   3.572   4.426   0.625
 5866SOL    HW218498   3.440   4.431   0.721
 5867SOL     OW18499   2.243   3.350   1.080
 5867SOL    HW118500   2.183   3.280   1.043
 5867SOL    HW218501   2.266   3.416   1.009
 5868SOL     OW18502   1.720   1.563   5.393
 5868SOL    HW118503   1.704   1.566   5.491
 5868SOL    HW218504   1.632   1.549   5.346
 5869SOL     OW18505   2.036   6.606   3.213
 5869SOL    HW118506   2.026   6.694   3.260
 5869SOL    HW218507   1.949   6.580   3.171
 5870SOL     OW18508   4.493   6.824   5.118
 5870SOL    HW118509   4.412   6.786   5.073
 5870SOL    HW218510   4.543   6.882   5.053
 5871SOL     OW18511   3.422   3.483   1.455
 5871SOL    HW118512   3.419   3.583   1.456
 5871SOL    HW218513   3.395   3.450   1.364
 5872SOL     OW18514   4.613   6.429   1.109
 5872SOL    HW118515   4.698   6.448   1.059
 5872SOL    HW218516   4.597   6.502   1.176
 5873SOL     OW18517   3.577   1.121   2.196
 5873SOL    HW118518   3.597   1.178   2.116
 5873SOL    HW218519   3.636   1.149   2.272
 5874SOL     OW18520   2.997   4.476   6.107
 5874SOL    HW118521   3.037   4.490   6.017
 5874SOL    HW218522   3.001   4.561   6.159
 5875SOL     OW18523   4.070   1.342   0.260
 5875SOL    HW118524   4.045   1.377   0.170
 5875SOL    HW218525   4.053   1.244   0.263
 5876SOL     OW18526   3.868   3.215   1.116
 5876SOL    HW118527   3.796   3.283   1.104
 5876SOL    HW218528   3.947   3.238   1.059
 5877SOL     OW18529   0.578   0.195   1.691
 5877SOL    HW118530   0.642   0.119   1.705
 5877SOL    HW218531   0.491   0.159   1.656
 5878SOL     OW18532   6.429   5.253   4.215
 5878SOL    HW118533   6.469   5.176   4.165
 5878SOL    HW218534   6.337   5.229   4.245
 5879SOL     OW18535   1.440   4.074   6.394
 5879SOL    HW118536   1.434   4.134   6.314
 5879SOL    HW218537   1.357   4.020   6.401
 5880SOL     OW18538   4.434   4.434   6.128
 5880SOL    HW118539   4.503   4.404   6.063
 5880SOL    HW218540   4.463   4.520   6.171
 5881SOL     OW18541   0.799   6.801   2.529
 5881SOL    HW118542   0.815   6.798   2.628
 5881SOL    HW218543   0.707   6.767   2.510
 5882SOL     OW18544   6.927   5.366   0.720
 5882SOL    HW118545   6.917   5.418   0.805
 5882SOL    HW218546   7.024   5.363   0.694
 5883SOL     OW18547   0.750   1.341   6.313
 5883SOL    HW118548   0.710   1.285   6.240
 5883SOL    HW218549   0.747   1.291   6.399
 5884SOL     OW18550   3.616   1.227   4.407
 5884SOL    HW118551   3.708   1.211   4.370
 5884SOL    HW218552   3.557   1.149   4.384
 5885SOL     OW18553   0.544   0.077   2.802
 5885SOL    HW118554   0.491   0.025   2.734
 5885SOL    HW218555   0.564   0.019   2.880
 5886SOL     OW18556   0.208   2.084   4.505
 5886SOL    HW118557   0.205   2.168   4.451
 5886SOL    HW218558   0.128   2.028   4.483
 5887SOL     OW18559   2.719   2.051   2.197
 5887SOL    HW118560   2.817   2.039   2.181
 5887SOL    HW218561   2.672   2.058   2.109
 5888SOL     OW18562   3.163   0.587   1.496
 5888SOL    HW118563   3.143   0.682   1.473
 5888SOL    HW218564   3.183   0.580   1.594
 5889SOL     OW18565   0.914   0.272   0.708
 5889SOL    HW118566   0.815   0.274   0.719
 5889SOL    HW218567   0.948   0.179   0.721
 5890SOL     OW18568   2.076   1.193   3.372
 5890SOL    HW118569   2.056   1.112   3.317
 5890SOL    HW218570   2.114   1.165   3.460
 5891SOL     OW18571   3.526   3.085   6.709
 5891SOL    HW118572   3.447   3.102   6.650
 5891SOL    HW218573   3.513   3.000   6.759
 5892SOL     OW18574   0.910   5.652   1.651
 5892SOL    HW118575   0.975   5.583   1.683
 5892SOL    HW218576   0.823   5.608   1.626
 5893SOL     OW18577   2.373   4.332   3.931
 5893SOL    HW118578   2.341   4.239   3.947
 5893SOL    HW218579   2.411   4.339   3.839
 5894SOL     OW18580   6.277   5.595   3.862
 5894SOL    HW118581   6.268   5.607   3.960
 5894SOL    HW218582   6.370   5.562   3.841
 5895SOL     OW18583   5.509   3.973   4.021
 5895SOL    HW118584   5.459   4.017   3.947
 5895SOL    HW218585   5.451   3.905   4.065
 5896SOL     OW18586   3.527   0.768   0.422
 5896SOL    HW118587   3.442   0.759   0.370
 5896SOL    HW218588   3.597   0.709   0.381
 5897SOL     OW18589   4.391   0.535   1.589
 5897SOL    HW118590   4.307   0.555   1.538
 5897SOL    HW218591   4.394   0.437   1.611
 5898SOL     OW18592   2.212   6.884   3.693
 5898SOL    HW118593   2.168   6.840   3.771
 5898SOL    HW218594   2.278   6.821   3.652
 5899SOL     OW18595   6.003   5.719   6.841
 5899SOL    HW118596   6.046   5.789   6.899
 5899SOL    HW218597   5.937   5.668   6.896
 5900SOL     OW18598   6.184   5.070   3.918
 5900SOL    HW118599   6.129   5.002   3.871
 5900SOL    HW218600   6.189   5.153   3.863
 5901SOL     OW18601   2.248   1.092   0.061
 5901SOL    HW118602   2.292   1.017   0.112
 5901SOL    HW218603   2.230   1.063   6.992
 5902SOL     OW18604   6.148   1.961   5.498
 5902SOL    HW118605   6.145   1.990   5.402
 5902SOL    HW218606   6.186   2.035   5.554
 5903SOL     OW18607   4.898   4.736   0.024
 5903SOL    HW118608   4.913   4.682   6.966
 5903SOL    HW218609   4.930   4.685   0.104
 5904SOL     OW18610   0.963   4.239   1.618
 5904SOL    HW118611   0.894   4.169   1.600
 5904SOL    HW218612   0.921   4.315   1.669
 5905SOL     OW18613   6.141   6.565   3.365
 5905SOL    HW118614   6.223   6.518   3.397
 5905SOL    HW218615   6.096   6.511   3.294
 5906SOL     OW18616   3.809   2.079   4.226
 5906SOL    HW118617   3.760   2.066   4.312
 5906SOL    HW218618   3.833   1.990   4.188
 5907SOL     OW18619   1.652   4.719   0.922
 5907SOL    HW118620   1.715   4.645   0.947
 5907SOL    HW218621   1.697   4.782   0.859
 5908SOL     OW18622   0.192   3.165   6.881
 5908SOL    HW118623   0.105   3.119   6.894
 5908SOL    HW218624   0.185   3.259   6.914
 5909SOL     OW18625   6.631   5.448   0.800
 5909SOL    HW118626   6.603   5.421   0.892
 5909SOL    HW218627   6.705   5.388   0.768
 5910SOL     OW18628   0.330   4.334   3.628
 5910SOL    HW118629   0.230   4.331   3.635
 5910SOL    HW218630   0.359   4.284   3.546
 5911SOL     OW18631   0.138   5.868   6.665
 5911SOL    HW118632   0.238   5.870   6.673
 5911SOL    HW218633   0.111   5.793   6.606
 5912SOL     OW18634   6.021   1.209   6.455
 5912SOL    HW118635   6.038   1.189   6.551
 5912SOL    HW218636   5.923   1.206   6.437
 5913SOL     OW18637   5.211   3.135   6.547
 5913SOL    HW118638   5.234   3.192   6.469
 5913SOL    HW218639   5.273   3.056   6.550
 5914SOL     OW18640   1.451   4.906   6.050
 5914SOL    HW118641   1.366   4.942   6.013
 5914SOL    HW218642   1.480   4.826   5.997
 5915SOL     OW18643   4.713   5.524   1.055
 5915SOL    HW118644   4.689   5.570   0.969
 5915SOL    HW218645   4.803   5.481   1.045
 5916SOL     OW18646   5.013   6.915   4.233
 5916SOL    HW118647   5.020   6.943   4.137
 5916SOL    HW218648   4.964   6.986   4.285
 5917SOL     OW18649   2.926   3.534   4.079
 5917SOL    HW118650   2.958   3.493   3.994
 5917SOL    HW218651   2.900   3.461   4.143
 5918SOL     OW18652   1.743   3.638   6.123
 5918SOL    HW118653   1.811   3.567   6.141
 5918SOL    HW218654   1.666   3.598   6.072
 5919SOL     OW18655   3.303   3.282   2.929
 5919SOL    HW118656   3.259   3.356   2.981
 5919SOL    HW218657   3.298   3.302   2.832
 5920SOL     OW18658   4.618   0.268   6.900
 5920SOL    HW118659   4.718   0.278   6.892
 5920SOL    HW218660   4.577   0.357   6.916
 5921SOL     OW18661   3.782   5.462   6.762
 5921SOL    HW118662   3.742   5.427   6.847
 5921SOL    HW218663   3.738   5.417   6.684
 5922SOL     OW18664   5.308   5.103   2.985
 5922SOL    HW118665   5.315   5.200   2.960
 5922SOL    HW218666   5.224   5.065   2.948
 5923SOL     OW18667   6.283   1.467   1.410
 5923SOL    HW118668   6.301   1.373   1.381
 5923SOL    HW218669   6.305   1.530   1.335
 5924SOL     OW18670   6.162   0.657   2.960
 5924SOL    HW118671   6.239   0.610   2.917
 5924SOL    HW218672   6.183   0.754   2.971
 5925SOL     OW18673   4.074   6.817   2.267
 5925SOL    HW118674   4.017   6.879   2.213
 5925SOL    HW218675   4.150   6.868   2.306
 5926SOL     OW18676   4.156   5.394   0.904
 5926SOL    HW118677   4.176   5.431   0.995
 5926SOL    HW218678   4.090   5.453   0.858
 5927SOL     OW18679   1.417   3.878   2.158
 5927SOL    HW118680   1.497   3.841   2.111
 5927SOL    HW218681   1.436   3.885   2.256
 5928SOL     OW18682   4.217   0.302   0.893
 5928SOL    HW118683   4.280   0.281   0.819
 5928SOL    HW218684   4.261   0.362   0.959
 5929SOL     OW18685   0.163   6.947   6.909
 5929SOL    HW118686   0.114   7.007   6.845
 5929SOL    HW218687   0.103   6.873   6.937
 5930SOL     OW18688   0.140   3.344   3.411
 5930SOL    HW118689   0.154   3.249   3.440
 5930SOL    HW218690   0.225   3.379   3.373
 5931SOL     OW18691   0.008   5.618   2.686
 5931SOL    HW118692   0.025   5.695   2.748
 5931SOL    HW218693   0.034   5.533   2.731
 5932SOL     OW18694   3.261   0.128   0.552
 5932SOL    HW118695   3.350   0.083   0.542
 5932SOL    HW218696   3.273   0.227   0.558
 5933SOL     OW18697   6.842   6.269   2.702
 5933SOL    HW118698   6.749   6.293   2.678
 5933SOL    HW218699   6.844   6.230   2.795
 5934SOL     OW18700   3.604   2.864   4.454
 5934SOL    HW118701   3.606   2.851   4.355
 5934SOL    HW218702   3.695   2.887   4.487
 5935SOL     OW18703   5.381   5.143   6.223
 5935SOL    HW118704   5.347   5.063   6.174
 5935SOL    HW218705   5.379   5.125   6.321
 5936SOL     OW18706   3.561   2.790   1.415
 5936SOL    HW118707   3.623   2.866   1.394
 5936SOL    HW218708   3.614   2.707   1.432
 5937SOL     OW18709   6.733   4.389   2.494
 5937SOL    HW118710   6.643   4.352   2.472
 5937SOL    HW218711   6.750   4.470   2.438
 5938SOL     OW18712   0.107   5.804   2.878
 5938SOL    HW118713   0.078   5.786   2.972
 5938SOL    HW218714   0.103   5.902   2.860
 5939SOL     OW18715   2.400   6.874   3.186
 5939SOL    HW118716   2.426   6.802   3.250
 5939SOL    HW218717   2.412   6.842   3.093
 5940SOL     OW18718   5.314   5.563   1.479
 5940SOL    HW118719   5.222   5.590   1.448
 5940SOL    HW218720   5.348   5.490   1.420
 5941SOL     OW18721   5.928   3.003   2.558
 5941SOL    HW118722   5.960   3.077   2.497
 5941SOL    HW218723   5.830   3.014   2.574
 5942SOL     OW18724   5.004   4.065   6.957
 5942SOL    HW118725   5.008   4.152   6.908
 5942SOL    HW218726   4.981   3.991   6.894
 5943SOL     OW18727   3.079   4.754   6.274
 5943SOL    HW118728   3.072   4.680   6.341
 5943SOL    HW218729   3.173   4.761   6.241
 5944SOL     OW18730   6.566   2.911   1.019
 5944SOL    HW118731   6.607   2.840   1.077
 5944SOL    HW218732   6.467   2.911   1.031
 5945SOL     OW18733   6.509   5.056   4.536
 5945SOL    HW118734   6.578   5.096   4.477
 5945SOL    HW218735   6.542   5.055   4.631
 5946SOL     OW18736   4.073   3.586   6.278
 5946SOL    HW118737   3.995   3.616   6.332
 5946SOL    HW218738   4.126   3.519   6.330
 5947SOL     OW18739   3.166   3.442   2.406
 5947SOL    HW118740   3.163   3.364   2.468
 5947SOL    HW218741   3.215   3.416   2.323
 5948SOL     OW18742   3.938   5.198   3.816
 5948SOL    HW118743   3.922   5.263   3.741
 5948SOL    HW218744   3.895   5.111   3.794
 5949SOL     OW18745   5.214   3.334   2.081
 5949SOL    HW118746   5.155   3.414   2.095
 5949SOL    HW218747   5.158   3.255   2.056
 5950SOL     OW18748   4.790   1.343   5.688
 5950SOL    HW118749   4.871   1.292   5.660
 5950SOL    HW218750   4.708   1.294   5.657
 5951SOL     OW18751   1.613   5.969   4.116
 5951SOL    HW118752   1.575   5.993   4.026
 5951SOL    HW218753   1.711   5.990   4.117
 5952SOL     OW18754   5.547   4.657   3.399
 5952SOL    HW118755   5.459   4.645   3.353
 5952SOL    HW218756   5.610   4.705   3.337
 5953SOL     OW18757   6.604   2.826   5.865
 5953SOL    HW118758   6.638   2.773   5.943
 5953SOL    HW218759   6.504   2.830   5.869
 5954SOL     OW18760   6.749   4.446   5.620
 5954SOL    HW118761   6.739   4.526   5.679
 5954SOL    HW218762   6.823   4.462   5.555
 5955SOL     OW18763   4.404   5.804   2.801
 5955SOL    HW118764   4.309   5.790   2.829
 5955SOL    HW218765   4.439   5.719   2.760
 5956SOL     OW18766   4.367   1.803   4.861
 5956SOL    HW118767   4.295   1.871   4.849
 5956SOL    HW218768   4.370   1.744   4.780
 5957SOL     OW18769   4.372   0.495   5.743
 5957SOL    HW118770   4.375   0.579   5.796
 5957SOL    HW218771   4.324   0.424   5.795
 5958SOL     OW18772   5.472   6.572   3.021
 5958SOL    HW118773   5.393   6.590   3.079
 5958SOL    HW218774   5.450   6.595   2.926
 5959SOL     OW18775   4.202   2.774   5.412
 5959SOL    HW118776   4.216   2.872   5.399
 5959SOL    HW218777   4.141   2.739   5.341
 5960SOL     OW18778   3.904   5.439   4.868
 5960SOL    HW118779   3.950   5.353   4.845
 5960SOL    HW218780   3.827   5.453   4.805
 5961SOL     OW18781   4.881   1.563   2.602
 5961SOL    HW118782   4.792   1.608   2.596
 5961SOL    HW218783   4.901   1.543   2.698
 5962SOL     OW18784   5.833   6.520   0.491
 5962SOL    HW118785   5.797   6.511   0.398
 5962SOL    HW218786   5.923   6.563   0.487
 5963SOL     OW18787   4.267   3.696   5.760
 5963SOL    HW118788   4.346   3.648   5.799
 5963SOL    HW218789   4.197   3.708   5.831
 5964SOL     OW18790   0.481   5.548   5.416
 5964SOL    HW118791   0.439   5.584   5.499
 5964SOL    HW218792   0.509   5.624   5.357
 5965SOL     OW18793   1.920   1.872   6.451
 5965SOL    HW118794   1.837   1.832   6.489
 5965SOL    HW218795   1.920   1.861   6.352
 5966SOL     OW18796   2.071   5.828   5.593
 5966SOL    HW118797   1.978   5.812   5.561
 5966SOL    HW218798   2.101   5.919   5.566
 5967SOL     OW18799   3.904   6.901   6.531
 5967SOL    HW118800   3.883   6.844   6.610
 5967SOL    HW218801   3.830   6.966   6.516
 5968SOL     OW18802   5.082   2.154   0.694
 5968SOL    HW118803   5.044   2.071   0.735
 5968SOL    HW218804   5.071   2.150   0.595
 5969SOL     OW18805   0.016   6.933   6.494
 5969SOL    HW118806   0.104   6.893   6.468
 5969SOL    HW218807   6.994   6.966   6.413
 5970SOL     OW18808   0.284   4.269   2.266
 5970SOL    HW118809   0.250   4.226   2.349
 5970SOL    HW218810   0.367   4.223   2.236
 5971SOL     OW18811   0.526   1.267   2.710
 5971SOL    HW118812   0.622   1.281   2.732
 5971SOL    HW218813   0.517   1.200   2.637
 5972SOL     OW18814   6.092   5.406   5.949
 5972SOL    HW118815   6.123   5.374   5.859
 5972SOL    HW218816   6.008   5.459   5.938
 5973SOL     OW18817   1.650   3.636   2.833
 5973SOL    HW118818   1.571   3.642   2.773
 5973SOL    HW218819   1.626   3.583   2.914
 5974SOL     OW18820   6.016   5.830   6.380
 5974SOL    HW118821   5.982   5.814   6.287
 5974SOL    HW218822   5.946   5.802   6.446
 5975SOL     OW18823   4.787   0.190   0.554
 5975SOL    HW118824   4.825   0.274   0.594
 5975SOL    HW218825   4.804   0.189   0.456
 5976SOL     OW18826   3.648   2.659   5.883
 5976SOL    HW118827   3.584   2.583   5.887
 5976SOL    HW218828   3.644   2.702   5.793
 5977SOL     OW18829   1.632   5.473   6.717
 5977SOL    HW118830   1.680   5.550   6.758
 5977SOL    HW218831   1.558   5.444   6.778
 5978SOL     OW18832   4.409   5.472   1.771
 5978SOL    HW118833   4.426   5.409   1.695
 5978SOL    HW218834   4.402   5.565   1.736
 5979SOL     OW18835   5.673   1.021   3.062
 5979SOL    HW118836   5.678   1.091   3.134
 5979SOL    HW218837   5.578   1.010   3.033
 5980SOL     OW18838   3.772   3.873   1.183
 5980SOL    HW118839   3.741   3.915   1.097
 5980SOL    HW218840   3.829   3.939   1.232
 5981SOL     OW18841   5.105   2.364   1.340
 5981SOL    HW118842   5.078   2.276   1.379
 5981SOL    HW218843   5.201   2.360   1.311
 5982SOL     OW18844   6.493   3.089   2.556
 5982SOL    HW118845   6.415   3.135   2.515
 5982SOL    HW218846   6.496   3.110   2.654
 5983SOL     OW18847   1.328   1.474   4.094
 5983SOL    HW118848   1.371   1.390   4.128
 5983SOL    HW218849   1.332   1.476   3.994
 5984SOL     OW18850   6.566   5.735   3.463
 5984SOL    HW118851   6.496   5.763   3.398
 5984SOL    HW218852   6.552   5.782   3.550
 5985SOL     OW18853   6.757   2.800   4.044
 5985SOL    HW118854   6.659   2.781   4.050
 5985SOL    HW218855   6.799   2.738   3.977
 5986SOL     OW18856   3.146   3.607   4.231
 5986SOL    HW118857   3.108   3.547   4.301
 5986SOL    HW218858   3.074   3.666   4.195
 5987SOL     OW18859   5.060   0.189   4.132
 5987SOL    HW118860   4.962   0.201   4.146
 5987SOL    HW218861   5.079   0.179   4.035
 5988SOL     OW18862   4.680   6.989   6.097
 5988SOL    HW118863   4.717   6.942   6.017
 5988SOL    HW218864   4.747   0.028   6.133
 5989SOL     OW18865   1.793   6.073   6.597
 5989SOL    HW118866   1.746   6.101   6.681
 5989SOL    HW218867   1.828   6.153   6.550
 5990SOL     OW18868   3.747   3.961   0.367
 5990SOL    HW118869   3.687   3.919   0.299
 5990SOL    HW218870   3.776   4.051   0.334
 5991SOL     OW18871   3.367   5.170   0.054
 5991SOL    HW118872   3.396   5.169   6.984
 5991SOL    HW218873   3.411   5.245   0.103
 5992SOL     OW18874   3.470   0.410   2.232
 5992SOL    HW118875   3.484   0.492   2.177
 5992SOL    HW218876   3.374   0.403   2.259
 5993SOL     OW18877   3.355   5.289   6.253
 5993SOL    HW118878   3.302   5.268   6.171
 5993SOL    HW218879   3.437   5.231   6.255
 5994SOL     OW18880   5.699   2.824   2.392
 5994SOL    HW118881   5.717   2.865   2.303
 5994SOL    HW218882   5.687   2.896   2.460
 5995SOL     OW18883   4.884   3.793   2.449
 5995SOL    HW118884   4.891   3.857   2.373
 5995SOL    HW218885   4.790   3.789   2.482
 5996SOL     OW18886   1.301   6.460   0.946
 5996SOL    HW118887   1.297   6.461   0.846
 5996SOL    HW218888   1.282   6.551   0.981
 5997SOL     OW18889   0.134   5.984   2.539
 5997SOL    HW118890   0.040   6.010   2.560
 5997SOL    HW218891   0.138   5.946   2.446
 5998SOL     OW18892   5.619   0.987   3.698
 5998SOL    HW118893   5.569   1.064   3.739
 5998SOL    HW218894   5.658   1.016   3.611
 5999SOL     OW18895   1.672   1.517   2.084
 5999SOL    HW118896   1.713   1.437   2.127
 5999SOL    HW218897   1.572   1.511   2.089
 6000SOL     OW18898   3.737   0.112   0.751
 6000SOL    HW118899   3.720   0.132   0.848
 6000SOL    HW218900   3.740   0.013   0.739
 6001SOL     OW18901   0.571   4.007   7.021
 6001SOL    HW118902   0.544   4.032   6.928
 6001SOL    HW218903   0.517   3.928   0.026
 6002SOL     OW18904   5.483   0.819   0.580
 6002SOL    HW118905   5.415   0.850   0.646
 6002SOL    HW218906   5.520   0.731   0.610
 6003SOL     OW18907   5.786   2.095   4.962
 6003SOL    HW118908   5.690   2.073   4.948
 6003SOL    HW218909   5.831   2.019   5.011
 6004SOL     OW18910   6.773   3.782   2.612
 6004SOL    HW118911   6.773   3.870   2.565
 6004SOL    HW218912   6.687   3.771   2.662
 6005SOL     OW18913   4.630   5.969   4.409
 6005SOL    HW118914   4.719   5.985   4.366
 6005SOL    HW218915   4.558   5.988   4.343
 6006SOL     OW18916   2.575   1.334   5.677
 6006SOL    HW118917   2.502   1.266   5.683
 6006SOL    HW218918   2.570   1.380   5.588
 6007SOL     OW18919   5.004   4.055   5.582
 6007SOL    HW118920   4.979   3.961   5.557
 6007SOL    HW218921   5.055   4.096   5.507
 6008SOL     OW18922   2.565   4.534   5.447
 6008SOL    HW118923   2.638   4.585   5.490
 6008SOL    HW218924   2.602   4.449   5.408
 6009SOL     OW18925   2.024   0.696   3.044
 6009SOL    HW118926   2.053   0.791   3.058
 6009SOL    HW218927   2.064   0.638   3.115
 6010SOL     OW18928   1.212   4.779   4.232
 6010SOL    HW118929   1.310   4.768   4.219
 6010SOL    HW218930   1.171   4.691   4.255
 6011SOL     OW18931   4.727   2.581   3.184
 6011SOL    HW118932   4.722   2.658   3.121
 6011SOL    HW218933   4.738   2.496   3.133
 6012SOL     OW18934   5.542   0.841   0.289
 6012SOL    HW118935   5.471   0.783   0.328
 6012SOL    HW218936   5.557   0.920   0.348
 6013SOL     OW18937   4.828   1.879   2.640
 6013SOL    HW118938   4.843   1.977   2.631
 6013SOL    HW218939   4.888   1.830   2.576
 6014SOL     OW18940   4.034   3.235   2.307
 6014SOL    HW118941   3.983   3.153   2.282
 6014SOL    HW218942   4.064   3.228   2.402
 6015SOL     OW18943   6.064   4.045   3.702
 6015SOL    HW118944   6.078   4.117   3.633
 6015SOL    HW218945   6.091   3.957   3.664
 6016SOL     OW18946   6.660   2.056   5.407
 6016SOL    HW118947   6.715   1.994   5.463
 6016SOL    HW218948   6.582   2.006   5.368
 6017SOL     OW18949   6.556   4.179   3.128
 6017SOL    HW118950   6.480   4.231   3.090
 6017SOL    HW218951   6.600   4.231   3.201
 6018SOL     OW18952   4.020   0.451   6.594
 6018SOL    HW118953   4.099   0.509   6.613
 6018SOL    HW218954   3.939   0.491   6.637
 6019SOL     OW18955   6.971   1.283   4.300
 6019SOL    HW118956   6.916   1.323   4.373
 6019SOL    HW218957   0.040   1.268   4.333
 6020SOL     OW18958   1.266   4.681   0.702
 6020SOL    HW118959   1.210   4.718   0.628
 6020SOL    HW218960   1.328   4.752   0.735
 6021SOL     OW18961   4.983   0.368   3.381
 6021SOL    HW118962   5.021   0.278   3.404
 6021SOL    HW218963   4.885   0.368   3.397
 6022SOL     OW18964   5.378   2.479   4.137
 6022SOL    HW118965   5.408   2.538   4.212
 6022SOL    HW218966   5.452   2.417   4.112
 6023SOL     OW18967   5.884   0.959   2.174
 6023SOL    HW118968   5.821   1.033   2.148
 6023SOL    HW218969   5.836   0.894   2.232
 6024SOL     OW18970   1.592   4.894   2.970
 6024SOL    HW118971   1.600   4.815   2.908
 6024SOL    HW218972   1.496   4.906   2.995
 6025SOL     OW18973   4.031   1.610   3.028
 6025SOL    HW118974   3.942   1.593   3.070
 6025SOL    HW218975   4.083   1.674   3.085
 6026SOL     OW18976   0.345   4.206   5.422
 6026SOL    HW118977   0.409   4.157   5.481
 6026SOL    HW218978   0.269   4.241   5.478
 6027SOL     OW18979   0.851   3.167   5.784
 6027SOL    HW118980   0.942   3.209   5.792
 6027SOL    HW218981   0.856   3.086   5.726
 6028SOL     OW18982   6.565   5.307   0.165
 6028SOL    HW118983   6.504   5.325   0.088
 6028SOL    HW218984   6.631   5.381   0.173
 6029SOL     OW18985   2.297   6.548   4.749
 6029SOL    HW118986   2.293   6.646   4.729
 6029SOL    HW218987   2.375   6.508   4.702
 6030SOL     OW18988   3.851   5.441   2.275
 6030SOL    HW118989   3.816   5.355   2.238
 6030SOL    HW218990   3.924   5.475   2.216
 6031SOL     OW18991   2.851   5.383   3.806
 6031SOL    HW118992   2.813   5.322   3.876
 6031SOL    HW218993   2.935   5.424   3.840
 6032SOL     OW18994   2.088   4.504   2.745
 6032SOL    HW118995   2.156   4.575   2.763
 6032SOL    HW218996   2.004   4.546   2.712
 6033SOL     OW18997   3.077   2.207   3.173
 6033SOL    HW118998   3.004   2.239   3.113
 6033SOL    HW218999   3.065   2.247   3.264
 6034SOL     OW19000   1.273   5.946   4.838
 6034SOL    HW119001   1.269   5.861   4.785
 6034SOL    HW219002   1.263   6.024   4.777
 6035SOL     OW19003   0.251   1.045   2.407
 6035SOL    HW119004   0.228   1.080   2.497
 6035SOL    HW219005   0.219   1.109   2.337
 6036SOL     OW19006   5.279   4.974   3.351
 6036SOL    HW119007   5.211   4.925   3.405
 6036SOL    HW219008   5.351   5.009   3.410
 6037SOL     OW19009   3.912   5.868   6.706
 6037SOL    HW119010   3.995   5.851   6.758
 6037SOL    HW219011   3.868   5.781   6.685
 6038SOL     OW19012   1.909   2.098   5.582
 6038SOL    HW119013   1.838   2.159   5.619
 6038SOL    HW219014   1.931   2.126   5.489
 6039SOL     OW19015   3.181   3.726   2.306
 6039SOL    HW119016   3.120   3.791   2.351
 6039SOL    HW219017   3.183   3.640   2.358
 6040SOL     OW19018   1.092   1.695   6.869
 6040SOL    HW119019   1.123   1.781   6.911
 6040SOL    HW219020   1.137   1.683   6.781
 6041SOL     OW19021   3.171   0.662   4.973
 6041SOL    HW119022   3.244   0.631   4.912
 6041SOL    HW219023   3.210   0.691   5.060
 6042SOL     OW19024   4.766   6.151   2.546
 6042SOL    HW119025   4.851   6.112   2.511
 6042SOL    HW219026   4.756   6.130   2.643
 6043SOL     OW19027   0.653   4.684   5.230
 6043SOL    HW119028   0.679   4.779   5.246
 6043SOL    HW219029   0.600   4.678   5.145
 6044SOL     OW19030   1.239   2.544   1.380
 6044SOL    HW119031   1.184   2.528   1.462
 6044SOL    HW219032   1.216   2.477   1.310
 6045SOL     OW19033   5.685   4.395   2.511
 6045SOL    HW119034   5.716   4.308   2.473
 6045SOL    HW219035   5.647   4.452   2.439
 6046SOL     OW19036   3.460   2.460   0.582
 6046SOL    HW119037   3.383   2.399   0.598
 6046SOL    HW219038   3.482   2.462   0.485
 6047SOL     OW19039   4.545   2.097   1.967
 6047SOL    HW119040   4.560   2.181   2.018
 6047SOL    HW219041   4.505   2.119   1.877
 6048SOL     OW19042   4.774   5.309   4.995
 6048SOL    HW119043   4.838   5.242   5.032
 6048SOL    HW219044   4.683   5.268   4.988
 6049SOL     OW19045   4.886   3.163   6.610
 6049SOL    HW119046   4.986   3.164   6.605
 6049SOL    HW219047   4.853   3.070   6.592
 6050SOL     OW19048   3.900   5.632   5.336
 6050SOL    HW119049   3.825   5.694   5.358
 6050SOL    HW219050   3.964   5.630   5.413
 6051SOL     OW19051   2.372   0.277   4.075
 6051SOL    HW119052   2.382   0.363   4.024
 6051SOL    HW219053   2.275   0.260   4.091
 6052SOL     OW19054   6.897   0.559   0.230
 6052SOL    HW119055   6.951   0.509   0.298
 6052SOL    HW219056   6.861   0.643   0.272
 6053SOL     OW19057   4.093   1.665   6.327
 6053SOL    HW119058   4.192   1.652   6.325
 6053SOL    HW219059   4.049   1.578   6.348
 6054SOL     OW19060   2.038   3.370   0.081
 6054SOL    HW119061   2.029   3.460   0.125
 6054SOL    HW219062   2.032   3.298   0.150
 6055SOL     OW19063   4.902   0.683   5.219
 6055SOL    HW119064   4.942   0.773   5.201
 6055SOL    HW219065   4.909   0.627   5.137
 6056SOL     OW19066   4.989   2.811   4.386
 6056SOL    HW119067   4.940   2.856   4.461
 6056SOL    HW219068   5.086   2.803   4.409
 6057SOL     OW19069   5.862   3.018   3.838
 6057SOL    HW119070   5.783   3.010   3.899
 6057SOL    HW219071   5.845   3.090   3.770
 6058SOL     OW19072   5.203   2.814   1.546
 6058SOL    HW119073   5.118   2.830   1.494
 6058SOL    HW219074   5.188   2.839   1.641
 6059SOL     OW19075   5.621   4.561   4.796
 6059SOL    HW119076   5.565   4.633   4.837
 6059SOL    HW219077   5.562   4.494   4.751
 6060SOL     OW19078   3.230   3.957   0.241
 6060SOL    HW119079   3.141   3.954   0.285
 6060SOL    HW219080   3.219   3.969   0.143
 6061SOL     OW19081   4.085   2.490   1.114
 6061SOL    HW119082   4.166   2.430   1.116
 6061SOL    HW219083   4.003   2.435   1.129
 6062SOL     OW19084   2.392   1.103   5.166
 6062SOL    HW119085   2.315   1.158   5.135
 6062SOL    HW219086   2.476   1.136   5.124
 6063SOL     OW19087   4.093   2.116   6.126
 6063SOL    HW119088   4.147   2.060   6.064
 6063SOL    HW219089   4.007   2.141   6.083
 6064SOL     OW19090   2.079   6.188   0.720
 6064SOL    HW119091   2.086   6.089   0.707
 6064SOL    HW219092   2.042   6.207   0.810
 6065SOL     OW19093   6.998   6.852   1.927
 6065SOL    HW119094   6.904   6.823   1.911
 6065SOL    HW219095   0.037   6.785   1.888
 6066SOL     OW19096   4.630   1.217   6.261
 6066SOL    HW119097   4.624   1.138   6.322
 6066SOL    HW219098   4.548   1.273   6.271
 6067SOL     OW19099   5.654   1.012   5.560
 6067SOL    HW119100   5.647   0.983   5.464
 6067SOL    HW219101   5.719   1.088   5.567
 6068SOL     OW19102   5.572   3.588   4.611
 6068SOL    HW119103   5.570   3.556   4.705
 6068SOL    HW219104   5.560   3.510   4.549
 6069SOL     OW19105   6.179   2.443   5.390
 6069SOL    HW119106   6.220   2.402   5.471
 6069SOL    HW219107   6.246   2.442   5.315
 6070SOL     OW19108   2.926   2.435   0.627
 6070SOL    HW119109   2.909   2.364   0.560
 6070SOL    HW219110   2.885   2.410   0.714
 6071SOL     OW19111   5.226   5.515   3.417
 6071SOL    HW119112   5.288   5.517   3.339
 6071SOL    HW219113   5.204   5.420   3.441
 6072SOL     OW19114   0.014   0.420   1.871
 6072SOL    HW119115   6.993   0.421   1.960
 6072SOL    HW219116   6.995   0.486   1.810
 6073SOL     OW19117   6.124   3.434   6.857
 6073SOL    HW119118   6.063   3.362   6.891
 6073SOL    HW219119   6.089   3.523   6.884
 6074SOL     OW19120   1.418   6.566   3.407
 6074SOL    HW119121   1.370   6.648   3.377
 6074SOL    HW219122   1.358   6.487   3.396
 6075SOL     OW19123   6.723   1.455   6.049
 6075SOL    HW119124   6.665   1.508   6.111
 6075SOL    HW219125   6.696   1.359   6.052
 6076SOL     OW19126   3.042   5.495   4.497
 6076SOL    HW119127   2.948   5.522   4.519
 6076SOL    HW219128   3.100   5.576   4.494
 6077SOL     OW19129   5.975   5.882   0.988
 6077SOL    HW119130   5.934   5.843   1.070
 6077SOL    HW219131   6.073   5.860   0.986
 6078SOL     OW19132   4.184   5.159   0.248
 6078SOL    HW119133   4.204   5.255   0.270
 6078SOL    HW219134   4.212   5.140   0.154
 6079SOL     OW19135   4.715   3.958   6.120
 6079SOL    HW119136   4.784   3.893   6.087
 6079SOL    HW219137   4.658   3.913   6.189
 6080SOL     OW19138   6.975   0.502   1.159
 6080SOL    HW119139   7.000   0.441   1.085
 6080SOL    HW219140   6.979   0.452   1.246
 6081SOL     OW19141   6.456   3.792   5.618
 6081SOL    HW119142   6.457   3.796   5.718
 6081SOL    HW219143   6.549   3.802   5.583
 6082SOL     OW19144   2.227   1.941   3.914
 6082SOL    HW119145   2.131   1.949   3.943
 6082SOL    HW219146   2.233   1.960   3.816
 6083SOL     OW19147   6.873   5.025   6.862
 6083SOL    HW119148   6.925   5.008   6.945
 6083SOL    HW219149   6.789   5.075   6.884
 6084SOL     OW19150   0.713   0.203   3.739
 6084SOL    HW119151   0.635   0.235   3.687
 6084SOL    HW219152   0.776   0.153   3.678
 6085SOL     OW19153   0.675   4.747   0.482
 6085SOL    HW119154   0.595   4.788   0.526
 6085SOL    HW219155   0.707   4.669   0.535
 6086SOL     OW19156   4.192   0.321   6.283
 6086SOL    HW119157   4.100   0.297   6.253
 6086SOL    HW219158   4.251   0.332   6.203
 6087SOL     OW19159   3.641   5.463   0.814
 6087SOL    HW119160   3.572   5.468   0.741
 6087SOL    HW219161   3.627   5.539   0.878
 6088SOL     OW19162   5.912   5.544   3.802
 6088SOL    HW119163   5.941   5.521   3.895
 6088SOL    HW219164   5.834   5.486   3.776
 6089SOL     OW19165   5.411   3.554   1.193
 6089SOL    HW119166   5.461   3.627   1.144
 6089SOL    HW219167   5.334   3.524   1.137
 6090SOL     OW19168   2.277   5.707   5.720
 6090SOL    HW119169   2.189   5.720   5.675
 6090SOL    HW219170   2.278   5.758   5.806
 6091SOL     OW19171   1.558   1.300   0.558
 6091SOL    HW119172   1.597   1.210   0.538
 6091SOL    HW219173   1.458   1.295   0.550
 6092SOL     OW19174   3.797   0.159   2.793
 6092SOL    HW119175   3.811   0.102   2.874
 6092SOL    HW219176   3.862   0.235   2.794
 6093SOL     OW19177   1.765   3.602   2.314
 6093SOL    HW119178   1.721   3.651   2.239
 6093SOL    HW219179   1.864   3.600   2.299
 6094SOL     OW19180   2.892   6.650   1.405
 6094SOL    HW119181   2.851   6.690   1.323
 6094SOL    HW219182   2.884   6.714   1.481
 6095SOL     OW19183   5.005   3.842   0.683
 6095SOL    HW119184   4.964   3.929   0.655
 6095SOL    HW219185   5.096   3.833   0.642
 6096SOL     OW19186   0.038   0.260   3.312
 6096SOL    HW119187   7.024   0.270   3.221
 6096SOL    HW219188   0.137   0.277   3.309
 6097SOL     OW19189   2.652   6.804   2.542
 6097SOL    HW119190   2.631   6.807   2.640
 6097SOL    HW219191   2.745   6.771   2.529
 6098SOL     OW19192   1.704   2.267   5.331
 6098SOL    HW119193   1.681   2.302   5.240
 6098SOL    HW219194   1.622   2.225   5.371
 6099SOL     OW19195   6.561   6.080   6.971
 6099SOL    HW119196   6.470   6.071   6.929
 6099SOL    HW219197   6.618   6.139   6.914
 6100SOL     OW19198   4.874   5.178   0.370
 6100SOL    HW119199   4.963   5.222   0.375
 6100SOL    HW219200   4.844   5.174   0.275
 6101SOL     OW19201   6.148   2.824   4.541
 6101SOL    HW119202   6.177   2.785   4.453
 6101SOL    HW219203   6.228   2.832   4.601
 6102SOL     OW19204   3.340   6.924   3.829
 6102SOL    HW119205   3.355   7.017   3.864
 6102SOL    HW219206   3.244   6.900   3.839
 6103SOL     OW19207   6.781   2.308   2.487
 6103SOL    HW119208   6.824   2.298   2.577
 6103SOL    HW219209   6.711   2.380   2.492
 6104SOL     OW19210   6.205   0.564   5.339
 6104SOL    HW119211   6.302   0.549   5.321
 6104SOL    HW219212   6.194   0.635   5.408
 6105SOL     OW19213   2.948   6.611   6.221
 6105SOL    HW119214   3.035   6.591   6.177
 6105SOL    HW219215   2.959   6.685   6.287
 6106SOL     OW19216   2.704   4.120   6.121
 6106SOL    HW119217   2.642   4.158   6.053
 6106SOL    HW219218   2.698   4.172   6.206
 6107SOL     OW19219   2.913   5.142   4.408
 6107SOL    HW119220   2.818   5.166   4.386
 6107SOL    HW219221   2.952   5.212   4.468
 6108SOL     OW19222   1.284   2.632   1.897
 6108SOL    HW119223   1.298   2.689   1.978
 6108SOL    HW219224   1.340   2.550   1.904
 6109SOL     OW19225   5.289   2.783   5.159
 6109SOL    HW119226   5.213   2.837   5.122
 6109SOL    HW219227   5.269   2.757   5.254
 6110SOL     OW19228   4.149   4.015   0.376
 6110SOL    HW119229   4.206   4.044   0.452
 6110SOL    HW219230   4.076   4.082   0.362
 6111SOL     OW19231   2.351   4.230   2.314
 6111SOL    HW119232   2.395   4.180   2.390
 6111SOL    HW219233   2.257   4.251   2.339
 6112SOL     OW19234   4.029   0.242   2.419
 6112SOL    HW119235   4.011   0.167   2.483
 6112SOL    HW219236   4.128   0.259   2.415
 6113SOL     OW19237   2.388   1.215   6.417
 6113SOL    HW119238   2.310   1.236   6.357
 6113SOL    HW219239   2.464   1.182   6.361
 6114SOL     OW19240   5.161   6.167   1.345
 6114SOL    HW119241   5.087   6.211   1.395
 6114SOL    HW219242   5.164   6.070   1.368
 6115SOL     OW19243   5.271   6.956   4.325
 6115SOL    HW119244   5.186   6.966   4.274
 6115SOL    HW219245   5.335   6.899   4.275
 6116SOL     OW19246   3.498   1.019   6.949
 6116SOL    HW119247   3.418   1.002   7.006
 6116SOL    HW219248   3.547   0.934   6.934
 6117SOL     OW19249   1.435   1.150   4.759
 6117SOL    HW119250   1.512   1.091   4.779
 6117SOL    HW219251   1.466   1.245   4.756
 6118SOL     OW19252   6.704   0.961   2.132
 6118SOL    HW119253   6.637   0.948   2.205
 6118SOL    HW219254   6.747   1.051   2.142
 6119SOL     OW19255   1.359   3.250   6.303
 6119SOL    HW119256   1.376   3.179   6.370
 6119SOL    HW219257   1.261   3.266   6.294
 6120SOL     OW19258   3.605   6.505   4.889
 6120SOL    HW119259   3.634   6.589   4.936
 6120SOL    HW219260   3.516   6.476   4.924
 6121SOL     OW19261   1.068   3.276   5.542
 6121SOL    HW119262   1.102   3.361   5.502
 6121SOL    HW219263   1.082   3.278   5.641
 6122SOL     OW19264   4.236   5.918   0.647
 6122SOL    HW119265   4.276   5.840   0.599
 6122SOL    HW219266   4.252   6.002   0.595
 6123SOL     OW19267   6.115   6.880   6.804
 6123SOL    HW119268   6.121   6.832   6.892
 6123SOL    HW219269   6.208   6.895   6.769
 6124SOL     OW19270   2.392   0.117   6.168
 6124SOL    HW119271   2.351   0.167   6.092
 6124SOL    HW219272   2.375   0.019   6.156
 6125SOL     OW19273   1.280   5.168   0.781
 6125SOL    HW119274   1.284   5.265   0.803
 6125SOL    HW219275   1.318   5.115   0.857
 6126SOL     OW19276   1.158   0.224   4.121
 6126SOL    HW119277   1.193   0.140   4.080
 6126SOL    HW219278   1.059   0.226   4.114
 6127SOL     OW19279   4.092   6.889   1.192
 6127SOL    HW119280   4.001   6.858   1.221
 6127SOL    HW219281   4.087   6.983   1.159
 6128SOL     OW19282   5.937   3.464   0.307
 6128SOL    HW119283   5.977   3.556   0.303
 6128SOL    HW219284   6.007   3.396   0.285
 6129SOL     OW19285   6.735   3.181   3.217
 6129SOL    HW119286   6.764   3.266   3.260
 6129SOL    HW219287   6.753   3.104   3.278
 6130SOL     OW19288   6.134   2.200   4.045
 6130SOL    HW119289   6.091   2.113   4.070
 6130SOL    HW219290   6.189   2.188   3.963
 6131SOL     OW19291   0.073   1.248   5.147
 6131SOL    HW119292   0.031   1.337   5.128
 6131SOL    HW219293   0.172   1.253   5.130
 6132SOL     OW19294   4.703   2.357   0.206
 6132SOL    HW119295   4.642   2.279   0.221
 6132SOL    HW219296   4.792   2.338   0.247
 6133SOL     OW19297   1.325   2.888   2.038
 6133SOL    HW119298   1.394   2.896   1.966
 6133SOL    HW219299   1.303   2.979   2.073
 6134SOL     OW19300   3.630   4.523   6.597
 6134SOL    HW119301   3.541   4.534   6.640
 6134SOL    HW219302   3.621   4.469   6.513
 6135SOL     OW19303   0.529   0.478   2.094
 6135SOL    HW119304   0.501   0.473   2.190
 6135SOL    HW219305   0.529   0.386   2.054
 6136SOL     OW19306   1.151   2.568   2.383
 6136SOL    HW119307   1.134   2.642   2.318
 6136SOL    HW219308   1.181   2.607   2.470
 6137SOL     OW19309   6.571   2.561   3.542
 6137SOL    HW119310   6.631   2.525   3.470
 6137SOL    HW219311   6.476   2.533   3.523
 6138SOL     OW19312   4.109   6.971   3.257
 6138SOL    HW119313   4.078   0.040   3.239
 6138SOL    HW219314   4.081   6.944   3.349
 6139SOL     OW19315   0.932   0.526   6.257
 6139SOL    HW119316   1.008   0.538   6.194
 6139SOL    HW219317   0.967   0.506   6.349
 6140SOL     OW19318   0.748   6.547   1.381
 6140SOL    HW119319   0.719   6.543   1.477
 6140SOL    HW219320   0.793   6.634   1.364
 6141SOL     OW19321   0.018   6.403   6.122
 6141SOL    HW119322   0.057   6.483   6.166
 6141SOL    HW219323   0.081   6.369   6.052
 6142SOL     OW19324   1.377   5.804   0.395
 6142SOL    HW119325   1.434   5.772   0.470
 6142SOL    HW219326   1.328   5.726   0.355
 6143SOL     OW19327   6.966   4.139   1.243
 6143SOL    HW119328   6.950   4.173   1.150
 6143SOL    HW219329   6.932   4.045   1.249
 6144SOL     OW19330   5.276   4.212   3.065
 6144SOL    HW119331   5.185   4.191   3.100
 6144SOL    HW219332   5.289   4.167   2.977
 6145SOL     OW19333   4.854   5.317   3.214
 6145SOL    HW119334   4.833   5.381   3.288
 6145SOL    HW219335   4.935   5.264   3.237
 6146SOL     OW19336   2.597   5.851   3.375
 6146SOL    HW119337   2.534   5.805   3.437
 6146SOL    HW219338   2.551   5.871   3.288
 6147SOL     OW19339   1.554   2.744   4.476
 6147SOL    HW119340   1.555   2.644   4.476
 6147SOL    HW219341   1.482   2.777   4.415
 6148SOL     OW19342   6.166   6.966   4.156
 6148SOL    HW119343   6.257   6.965   4.116
 6148SOL    HW219344   6.126   6.874   4.150
 6149SOL     OW19345   2.960   5.875   1.119
 6149SOL    HW119346   2.970   5.940   1.194
 6149SOL    HW219347   2.952   5.782   1.156
 6150SOL     OW19348   4.584   5.010   0.534
 6150SOL    HW119349   4.637   4.955   0.470
 6150SOL    HW219350   4.496   4.966   0.551
 6151SOL     OW19351   6.102   4.647   6.406
 6151SOL    HW119352   6.088   4.642   6.505
 6151SOL    HW219353   6.049   4.575   6.362
 6152SOL     OW19354   6.021   5.212   4.531
 6152SOL    HW119355   5.941   5.187   4.478
 6152SOL    HW219356   6.016   5.169   4.621
 6153SOL     OW19357   5.483   4.584   1.150
 6153SOL    HW119358   5.424   4.565   1.072
 6153SOL    HW219359   5.499   4.682   1.157
 6154SOL     OW19360   6.167   2.272   2.535
 6154SOL    HW119361   6.074   2.309   2.541
 6154SOL    HW219362   6.231   2.334   2.579
 6155SOL     OW19363   1.727   1.982   4.286
 6155SOL    HW119364   1.801   2.044   4.259
 6155SOL    HW219365   1.668   1.964   4.208
 6156SOL     OW19366   3.953   4.391   1.399
 6156SOL    HW119367   4.005   4.348   1.473
 6156SOL    HW219368   3.860   4.411   1.430
 6157SOL     OW19369   0.779   0.103   4.986
 6157SOL    HW119370   0.831   0.104   5.071
 6157SOL    HW219371   0.702   0.166   4.993
 6158SOL     OW19372   3.950   1.296   6.135
 6158SOL    HW119373   3.936   1.266   6.041
 6158SOL    HW219374   3.880   1.365   6.159
 6159SOL     OW19375   4.823   2.730   2.392
 6159SOL    HW119376   4.795   2.728   2.296
 6159SOL    HW219377   4.908   2.783   2.401
 6160SOL     OW19378   5.120   1.505   6.634
 6160SOL    HW119379   5.030   1.489   6.676
 6160SOL    HW219380   5.181   1.547   6.701
 6161SOL     OW19381   4.702   1.142   4.923
 6161SOL    HW119382   4.714   1.096   5.011
 6161SOL    HW219383   4.606   1.167   4.912
 6162SOL     OW19384   0.718   6.346   3.658
 6162SOL    HW119385   0.773   6.401   3.596
 6162SOL    HW219386   0.773   6.270   3.694
 6163SOL     OW19387   6.485   6.636   0.902
 6163SOL    HW119388   6.522   6.544   0.890
 6163SOL    HW219389   6.540   6.687   0.967
 6164SOL     OW19390   3.824   3.179   1.929
 6164SOL    HW119391   3.750   3.126   1.970
 6164SOL    HW219392   3.910   3.129   1.939
 6165SOL     OW19393   4.749   0.774   0.160
 6165SOL    HW119394   4.843   0.788   0.191
 6165SOL    HW219395   4.686   0.801   0.232
 6166SOL     OW19396   5.371   1.233   6.182
 6166SOL    HW119397   5.318   1.171   6.125
 6166SOL    HW219398   5.388   1.318   6.133
 6167SOL     OW19399   1.035   5.190   3.635
 6167SOL    HW119400   1.096   5.130   3.687
 6167SOL    HW219401   1.045   5.170   3.538
 6168SOL     OW19402   1.262   3.937   1.615
 6168SOL    HW119403   1.235   4.019   1.565
 6168SOL    HW219404   1.182   3.895   1.657
 6169SOL     OW19405   1.430   2.443   0.940
 6169SOL    HW119406   1.432   2.373   1.011
 6169SOL    HW219407   1.508   2.432   0.879
 6170SOL     OW19408   0.864   4.379   5.736
 6170SOL    HW119409   0.793   4.369   5.806
 6170SOL    HW219410   0.909   4.467   5.747
 6171SOL     OW19411   0.638   3.330   0.585
 6171SOL    HW119412   0.680   3.254   0.534
 6171SOL    HW219413   0.579   3.293   0.657
 6172SOL     OW19414   1.775   2.985   2.506
 6172SOL    HW119415   1.690   3.036   2.496
 6172SOL    HW219416   1.764   2.893   2.470
 6173SOL     OW19417   6.832   5.313   1.715
 6173SOL    HW119418   6.821   5.390   1.778
 6173SOL    HW219419   6.744   5.291   1.672
 6174SOL     OW19420   5.039   5.677   3.541
 6174SOL    HW119421   5.115   5.631   3.495
 6174SOL    HW219422   4.998   5.744   3.479
 6175SOL     OW19423   4.169   0.224   3.968
 6175SOL    HW119424   4.184   0.200   3.872
 6175SOL    HW219425   4.173   0.323   3.978
 6176SOL     OW19426   5.461   4.028   5.847
 6176SOL    HW119427   5.418   4.067   5.765
 6176SOL    HW219428   5.560   4.033   5.839
 6177SOL     OW19429   5.756   1.089   0.965
 6177SOL    HW119430   5.660   1.088   0.937
 6177SOL    HW219431   5.763   1.121   1.060
 6178SOL     OW19432   4.591   4.706   2.380
 6178SOL    HW119433   4.648   4.729   2.301
 6178SOL    HW219434   4.502   4.752   2.370
 6179SOL     OW19435   6.219   5.026   3.482
 6179SOL    HW119436   6.266   4.938   3.485
 6179SOL    HW219437   6.284   5.099   3.461
 6180SOL     OW19438   3.016   4.162   0.953
 6180SOL    HW119439   2.927   4.207   0.959
 6180SOL    HW219440   3.007   4.066   0.979
 6181SOL     OW19441   4.321   6.304   0.264
 6181SOL    HW119442   4.340   6.322   0.168
 6181SOL    HW219443   4.308   6.391   0.312
 6182SOL     OW19444   5.120   3.288   5.442
 6182SOL    HW119445   5.152   3.268   5.349
 6182SOL    HW219446   5.194   3.332   5.494
 6183SOL     OW19447   1.000   2.779   3.492
 6183SOL    HW119448   1.028   2.826   3.408
 6183SOL    HW219449   0.955   2.693   3.469
 6184SOL     OW19450   2.633   6.656   6.651
 6184SOL    HW119451   2.541   6.686   6.627
 6184SOL    HW219452   2.678   6.620   6.569
 6185SOL     OW19453   0.304   3.874   5.968
 6185SOL    HW119454   0.393   3.841   5.938
 6185SOL    HW219455   0.248   3.797   5.998
 6186SOL     OW19456   0.543   0.876   0.454
 6186SOL    HW119457   0.597   0.799   0.420
 6186SOL    HW219458   0.540   0.872   0.554
 6187SOL     OW19459   5.092   4.161   4.049
 6187SOL    HW119460   5.077   4.086   3.984
 6187SOL    HW219461   5.019   4.160   4.118
 6188SOL     OW19462   2.819   1.860   6.765
 6188SOL    HW119463   2.911   1.879   6.731
 6188SOL    HW219464   2.752   1.877   6.692
 6189SOL     OW19465   4.395   4.518   2.943
 6189SOL    HW119466   4.319   4.574   2.909
 6189SOL    HW219467   4.416   4.543   3.037
 6190SOL     OW19468   0.925   4.159   5.272
 6190SOL    HW119469   0.870   4.229   5.225
 6190SOL    HW219470   0.921   4.074   5.220
 6191SOL     OW19471   2.666   2.342   6.936
 6191SOL    HW119472   2.710   2.253   6.924
 6191SOL    HW219473   2.588   2.333   6.997
 6192SOL     OW19474   2.989   2.485   5.997
 6192SOL    HW119475   2.965   2.557   5.931
 6192SOL    HW219476   2.908   2.429   6.015
 6193SOL     OW19477   5.016   0.104   1.569
 6193SOL    HW119478   4.990   0.008   1.563
 6193SOL    HW219479   5.014   0.145   1.477
 6194SOL     OW19480   0.907   0.287   1.228
 6194SOL    HW119481   0.961   0.340   1.293
 6194SOL    HW219482   0.812   0.283   1.259
 6195SOL     OW19483   4.054   5.649   4.975
 6195SOL    HW119484   4.113   5.685   4.903
 6195SOL    HW219485   4.002   5.571   4.940
 6196SOL     OW19486   5.913   3.356   2.076
 6196SOL    HW119487   5.826   3.346   2.124
 6196SOL    HW219488   5.969   3.274   2.092
 6197SOL     OW19489   3.938   5.176   0.677
 6197SOL    HW119490   3.910   5.119   0.754
 6197SOL    HW219491   3.914   5.271   0.695
 6198SOL     OW19492   4.446   6.979   1.791
 6198SOL    HW119493   4.356   6.956   1.754
 6198SOL    HW219494   4.486   0.028   1.737
 6199SOL     OW19495   1.090   1.553   0.135
 6199SOL    HW119496   1.110   1.588   0.044
 6199SOL    HW219497   1.175   1.537   0.185
 6200SOL     OW19498   1.087   1.048   5.749
 6200SOL    HW119499   1.154   1.122   5.760
 6200SOL    HW219500   1.098   0.982   5.823
 6201SOL     OW19501   0.537   4.002   5.514
 6201SOL    HW119502   0.532   3.963   5.606
 6201SOL    HW219503   0.531   3.929   5.446
 6202SOL     OW19504   4.547   1.314   1.517
 6202SOL    HW119505   4.535   1.382   1.589
 6202SOL    HW219506   4.593   1.234   1.555
 6203SOL     OW19507   6.466   5.395   1.803
 6203SOL    HW119508   6.549   5.444   1.776
 6203SOL    HW219509   6.490   5.326   1.871
 6204SOL     OW19510   6.898   5.417   4.095
 6204SOL    HW119511   6.974   5.437   4.032
 6204SOL    HW219512   6.931   5.357   4.168
 6205SOL     OW19513   6.394   5.533   0.662
 6205SOL    HW119514   6.475   5.483   0.694
 6205SOL    HW219515   6.354   5.485   0.584
 6206SOL     OW19516   5.507   2.191   3.058
 6206SOL    HW119517   5.544   2.205   3.150
 6206SOL    HW219518   5.448   2.267   3.034
 6207SOL     OW19519   1.627   5.386   5.410
 6207SOL    HW119520   1.708   5.444   5.403
 6207SOL    HW219521   1.653   5.296   5.445
 6208SOL     OW19522   5.363   2.997   5.755
 6208SOL    HW119523   5.310   2.912   5.748
 6208SOL    HW219524   5.303   3.072   5.781
 6209SOL     OW19525   3.484   5.822   6.608
 6209SOL    HW119526   3.474   5.916   6.573
 6209SOL    HW219527   3.398   5.791   6.646
 6210SOL     OW19528   5.363   3.725   4.087
 6210SOL    HW119529   5.271   3.744   4.051
 6210SOL    HW219530   5.378   3.626   4.089
 6211SOL     OW19531   2.999   5.929   6.005
 6211SOL    HW119532   3.090   5.961   6.030
 6211SOL    HW219533   2.932   5.964   6.070
 6212SOL     OW19534   2.924   4.818   4.798
 6212SOL    HW119535   2.942   4.750   4.870
 6212SOL    HW219536   2.826   4.833   4.790
 6213SOL     OW19537   6.105   0.002   0.232
 6213SOL    HW119538   6.129   6.950   0.174
 6213SOL    HW219539   6.030   0.054   0.190
 6214SOL     OW19540   5.042   5.387   4.455
 6214SOL    HW119541   4.962   5.330   4.435
 6214SOL    HW219542   5.110   5.332   4.504
 6215SOL     OW19543   4.154   2.338   6.578
 6215SOL    HW119544   4.198   2.367   6.663
 6215SOL    HW219545   4.086   2.407   6.551
 6216SOL     OW19546   6.555   1.819   2.791
 6216SOL    HW119547   6.509   1.733   2.768
 6216SOL    HW219548   6.567   1.825   2.890
 6217SOL     OW19549   0.788   3.354   2.415
 6217SOL    HW119550   0.718   3.380   2.348
 6217SOL    HW219551   0.868   3.413   2.403
 6218SOL     OW19552   3.856   6.725   6.305
 6218SOL    HW119553   3.835   6.791   6.377
 6218SOL    HW219554   3.871   6.635   6.345
 6219SOL     OW19555   1.487   1.737   4.928
 6219SOL    HW119556   1.403   1.767   4.882
 6219SOL    HW219557   1.559   1.726   4.860
 6220SOL     OW19558   2.772   0.985   4.993
 6220SOL    HW119559   2.851   0.939   4.953
 6220SOL    HW219560   2.804   1.050   5.062
 6221SOL     OW19561   5.931   6.969   0.460
 6221SOL    HW119562   5.890   6.906   0.393
 6221SOL    HW219563   6.016   7.006   0.423
 6222SOL     OW19564   1.468   6.957   1.948
 6222SOL    HW119565   1.514   6.920   1.867
 6222SOL    HW219566   1.376   6.918   1.954
 6223SOL     OW19567   1.529   4.964   4.068
 6223SOL    HW119568   1.490   5.038   4.013
 6223SOL    HW219569   1.537   4.994   4.163
 6224SOL     OW19570   3.676   1.070   6.097
 6224SOL    HW119571   3.583   1.034   6.099
 6224SOL    HW219572   3.738   1.007   6.143
 6225SOL     OW19573   4.165   3.412   6.468
 6225SOL    HW119574   4.253   3.371   6.490
 6225SOL    HW219575   4.096   3.340   6.461
 6226SOL     OW19576   0.694   1.517   4.808
 6226SOL    HW119577   0.616   1.535   4.748
 6226SOL    HW219578   0.755   1.596   4.808
 6227SOL     OW19579   3.466   4.978   5.064
 6227SOL    HW119580   3.373   4.942   5.061
 6227SOL    HW219581   3.512   4.947   5.147
 6228SOL     OW19582   0.722   3.436   1.750
 6228SOL    HW119583   0.739   3.338   1.742
 6228SOL    HW219584   0.646   3.452   1.813
 6229SOL     OW19585   0.986   2.158   4.496
 6229SOL    HW119586   0.961   2.115   4.582
 6229SOL    HW219587   0.986   2.089   4.423
 6230SOL     OW19588   0.444   2.356   4.226
 6230SOL    HW119589   0.416   2.451   4.237
 6230SOL    HW219590   0.505   2.331   4.301
 6231SOL     OW19591   6.296   5.871   0.291
 6231SOL    HW119592   6.270   5.966   0.310
 6231SOL    HW219593   6.391   5.857   0.317
 6232SOL     OW19594   6.352   1.268   0.782
 6232SOL    HW119595   6.392   1.358   0.798
 6232SOL    HW219596   6.419   1.209   0.737
 6233SOL     OW19597   6.605   2.121   1.372
 6233SOL    HW119598   6.663   2.050   1.331
 6233SOL    HW219599   6.661   2.182   1.427
 6234SOL     OW19600   0.023   0.403   5.582
 6234SOL    HW119601   0.074   0.349   5.514
 6234SOL    HW219602   6.999   0.477   5.536
 6235SOL     OW19603   6.909   0.023   1.277
 6235SOL    HW119604   6.846   0.100   1.279
 6235SOL    HW219605   6.923   7.019   1.182
 6236SOL     OW19606   0.869   4.478   1.430
 6236SOL    HW119607   0.948   4.420   1.450
 6236SOL    HW219608   0.869   4.503   1.334
 6237SOL     OW19609   3.874   0.242   6.483
 6237SOL    HW119610   3.914   0.332   6.498
 6237SOL    HW219611   3.775   0.246   6.499
 6238SOL     OW19612   4.576   5.501   2.659
 6238SOL    HW119613   4.497   5.439   2.651
 6238SOL    HW219614   4.647   5.457   2.715
 6239SOL     OW19615   3.789   1.061   1.532
 6239SOL    HW119616   3.857   1.134   1.521
 6239SOL    HW219617   3.743   1.044   1.445
 6240SOL     OW19618   2.343   4.014   5.860
 6240SOL    HW119619   2.294   3.941   5.909
 6240SOL    HW219620   2.291   4.040   5.779
 6241SOL     OW19621   2.968   0.353   2.108
 6241SOL    HW119622   2.955   0.426   2.041
 6241SOL    HW219623   2.970   0.265   2.062
 6242SOL     OW19624   3.813   0.453   3.689
 6242SOL    HW119625   3.823   0.423   3.784
 6242SOL    HW219626   3.893   0.425   3.636
 6243SOL     OW19627   6.912   6.419   5.344
 6243SOL    HW119628   6.915   6.489   5.415
 6243SOL    HW219629   6.824   6.372   5.345
 6244SOL     OW19630   5.662   3.101   2.912
 6244SOL    HW119631   5.642   3.103   3.010
 6244SOL    HW219632   5.578   3.117   2.860
 6245SOL     OW19633   1.425   3.780   0.808
 6245SOL    HW119634   1.328   3.804   0.814
 6245SOL    HW219635   1.460   3.758   0.899
 6246SOL     OW19636   1.096   2.070   5.413
 6246SOL    HW119637   1.156   2.084   5.335
 6246SOL    HW219638   1.034   1.994   5.394
 6247SOL     OW19639   0.114   5.654   3.770
 6247SOL    HW119640   0.044   5.720   3.743
 6247SOL    HW219641   0.199   5.673   3.720
 6248SOL     OW19642   3.814   3.816   6.891
 6248SOL    HW119643   3.861   3.870   6.960
 6248SOL    HW219644   3.880   3.781   6.825
 6249SOL     OW19645   7.023   3.681   0.589
 6249SOL    HW119646   0.079   3.622   0.585
 6249SOL    HW219647   0.028   3.777   0.590
 6250SOL     OW19648   6.462   0.574   1.100
 6250SOL    HW119649   6.552   0.543   1.129
 6250SOL    HW219650   6.396   0.562   1.175
 6251SOL     OW19651   4.279   5.471   5.535
 6251SOL    HW119652   4.315   5.555   5.495
 6251SOL    HW219653   4.344   5.397   5.521
 6252SOL     OW19654   2.895   6.334   6.190
 6252SOL    HW119655   2.839   6.334   6.107
 6252SOL    HW219656   2.926   6.427   6.210
 6253SOL     OW19657   2.626   4.756   4.144
 6253SOL    HW119658   2.669   4.735   4.232
 6253SOL    HW219659   2.574   4.677   4.113
 6254SOL     OW19660   6.167   1.058   1.337
 6254SOL    HW119661   6.180   0.963   1.366
 6254SOL    HW219662   6.084   1.095   1.378
 6255SOL     OW19663   3.108   0.820   1.118
 6255SOL    HW119664   3.077   0.853   1.029
 6255SOL    HW219665   3.101   0.721   1.121
 6256SOL     OW19666   3.434   5.196   2.248
 6256SOL    HW119667   3.435   5.120   2.184
 6256SOL    HW219668   3.437   5.282   2.197
 6257SOL     OW19669   5.003   2.734   0.729
 6257SOL    HW119670   5.005   2.646   0.682
 6257SOL    HW219671   4.962   2.722   0.820
 6258SOL     OW19672   2.664   0.973   3.536
 6258SOL    HW119673   2.603   1.051   3.523
 6258SOL    HW219674   2.623   0.892   3.495
 6259SOL     OW19675   1.479   2.120   6.515
 6259SOL    HW119676   1.427   2.127   6.431
 6259SOL    HW219677   1.465   2.202   6.571
 6260SOL     OW19678   3.218   5.746   0.393
 6260SOL    HW119679   3.164   5.792   0.464
 6260SOL    HW219680   3.234   5.651   0.420
 6261SOL     OW19681   4.535   0.694   0.008
 6261SOL    HW119682   4.472   0.770   0.023
 6261SOL    HW219683   4.619   0.710   0.060
 6262SOL     OW19684   2.410   6.623   1.869
 6262SOL    HW119685   2.418   6.527   1.893
 6262SOL    HW219686   2.419   6.633   1.769
 6263SOL     OW19687   0.040   0.078   4.306
 6263SOL    HW119688   0.124   0.030   4.332
 6263SOL    HW219689   7.002   0.013   4.263
 6264SOL     OW19690   1.809   0.497   1.583
 6264SOL    HW119691   1.896   0.448   1.589
 6264SOL    HW219692   1.820   0.588   1.623
 6265SOL     OW19693   3.921   3.757   0.131
 6265SOL    HW119694   3.943   3.855   0.126
 6265SOL    HW219695   3.966   3.709   0.055
 6266SOL     OW19696   4.441   0.178   3.778
 6266SOL    HW119697   4.431   0.086   3.815
 6266SOL    HW219698   4.498   0.233   3.839
 6267SOL     OW19699   2.436   6.878   5.338
 6267SOL    HW119700   2.342   6.847   5.353
 6267SOL    HW219701   2.436   6.976   5.323
 6268SOL     OW19702   2.933   1.344   2.357
 6268SOL    HW119703   2.894   1.343   2.265
 6268SOL    HW219704   2.886   1.275   2.413
 6269SOL     OW19705   6.749   6.737   1.925
 6269SOL    HW119706   6.701   6.660   1.884
 6269SOL    HW219707   6.718   6.751   2.019
 6270SOL     OW19708   0.434   0.730   6.283
 6270SOL    HW119709   0.532   0.713   6.298
 6270SOL    HW219710   0.395   0.654   6.231
 6271SOL     OW19711   5.804   2.283   6.017
 6271SOL    HW119712   5.843   2.293   6.108
 6271SOL    HW219713   5.801   2.186   5.993
 6272SOL     OW19714   0.682   2.271   6.899
 6272SOL    HW119715   0.620   2.273   6.821
 6272SOL    HW219716   0.719   2.179   6.910
 6273SOL     OW19717   0.542   6.449   2.578
 6273SOL    HW119718   0.554   6.523   2.512
 6273SOL    HW219719   0.567   6.362   2.536
 6274SOL     OW19720   2.974   6.940   5.820
 6274SOL    HW119721   2.882   6.980   5.823
 6274SOL    HW219722   2.967   6.842   5.802
 6275SOL     OW19723   2.098   6.432   6.997
 6275SOL    HW119724   2.048   6.518   6.994
 6275SOL    HW219725   2.195   6.450   6.981
 6276SOL     OW19726   2.141   4.956   4.117
 6276SOL    HW119727   2.204   4.896   4.068
 6276SOL    HW219728   2.056   4.964   4.066
 6277SOL     OW19729   5.027   3.093   0.834
 6277SOL    HW119730   5.086   3.165   0.798
 6277SOL    HW219731   5.084   3.024   0.880
 6278SOL     OW19732   4.521   6.865   4.756
 6278SOL    HW119733   4.613   6.828   4.762
 6278SOL    HW219734   4.509   6.938   4.824
 6279SOL     OW19735   3.607   6.120   0.150
 6279SOL    HW119736   3.513   6.150   0.133
 6279SOL    HW219737   3.615   6.023   0.127
 6280SOL     OW19738   0.020   1.226   6.508
 6280SOL    HW119739   7.002   1.243   6.419
 6280SOL    HW219740   0.106   1.175   6.495
 6281SOL     OW19741   0.078   5.164   4.179
 6281SOL    HW119742   0.157   5.219   4.154
 6281SOL    HW219743   0.047   5.190   4.271
 6282SOL     OW19744   6.711   5.463   5.893
 6282SOL    HW119745   6.619   5.426   5.881
 6282SOL    HW219746   6.740   5.449   5.987
 6283SOL     OW19747   6.999   3.515   4.436
 6283SOL    HW119748   7.024   3.492   4.342
 6283SOL    HW219749   6.910   3.475   4.458
 6284SOL     OW19750   1.521   4.325   4.979
 6284SOL    HW119751   1.442   4.351   5.034
 6284SOL    HW219752   1.491   4.300   4.887
 6285SOL     OW19753   6.908   3.399   3.974
 6285SOL    HW119754   6.913   3.343   3.891
 6285SOL    HW219755   6.872   3.489   3.951
 6286SOL     OW19756   6.412   2.462   4.170
 6286SOL    HW119757   6.391   2.428   4.262
 6286SOL    HW219758   6.439   2.558   4.176
 6287SOL     OW19759   3.303   4.960   4.588
 6287SOL    HW119760   3.317   5.052   4.551
 6287SOL    HW219761   3.227   4.961   4.653
 6288SOL     OW19762   4.912   4.388   2.181
 6288SOL    HW119763   4.827   4.348   2.216
 6288SOL    HW219764   4.932   4.350   2.090
 6289SOL     OW19765   2.095   4.943   6.949
 6289SOL    HW119766   2.186   4.918   6.915
 6289SOL    HW219767   2.104   4.982   0.016
 6290SOL     OW19768   5.996   4.710   5.842
 6290SOL    HW119769   5.954   4.662   5.765
 6290SOL    HW219770   5.973   4.663   5.927
 6291SOL     OW19771   4.022   3.852   3.851
 6291SOL    HW119772   4.028   3.839   3.752
 6291SOL    HW219773   4.075   3.780   3.896
 6292SOL     OW19774   1.849   2.120   4.764
 6292SOL    HW119775   1.916   2.165   4.705
 6292SOL    HW219776   1.800   2.051   4.712
 6293SOL     OW19777   4.392   1.597   1.065
 6293SOL    HW119778   4.326   1.643   1.124
 6293SOL    HW219779   4.457   1.547   1.121
 6294SOL     OW19780   3.598   0.106   3.908
 6294SOL    HW119781   3.530   0.173   3.937
 6294SOL    HW219782   3.600   0.030   3.973
 6295SOL     OW19783   5.012   4.736   4.509
 6295SOL    HW119784   4.990   4.749   4.606
 6295SOL    HW219785   4.937   4.774   4.453
 6296SOL     OW19786   0.039   5.411   5.866
 6296SOL    HW119787   7.022   5.501   5.876
 6296SOL    HW219788   0.110   5.400   5.935
 6297SOL     OW19789   5.589   0.483   5.204
 6297SOL    HW119790   5.513   0.422   5.180
 6297SOL    HW219791   5.601   0.484   5.303
 6298SOL     OW19792   1.523   3.356   6.679
 6298SOL    HW119793   1.429   3.387   6.689
 6298SOL    HW219794   1.558   3.384   6.590
 6299SOL     OW19795   6.310   2.479   2.213
 6299SOL    HW119796   6.292   2.548   2.283
 6299SOL    HW219797   6.409   2.463   2.207
 6300SOL     OW19798   6.767   1.051   6.557
 6300SOL    HW119799   6.671   1.022   6.559
 6300SOL    HW219800   6.796   1.065   6.463
 6301SOL     OW19801   2.789   0.153   6.892
 6301SOL    HW119802   2.788   0.135   6.990
 6301SOL    HW219803   2.782   0.067   6.841
 6302SOL     OW19804   1.697   1.751   4.770
 6302SOL    HW119805   1.739   1.664   4.743
 6302SOL    HW219806   1.765   1.806   4.820
 6303SOL     OW19807   1.029   0.726   5.181
 6303SOL    HW119808   0.949   0.669   5.193
 6303SOL    HW219809   1.054   0.767   5.269
 6304SOL     OW19810   3.497   0.666   1.678
 6304SOL    HW119811   3.425   0.735   1.666
 6304SOL    HW219812   3.555   0.691   1.756
 6305SOL     OW19813   6.066   6.373   0.760
 6305SOL    HW119814   6.118   6.457   0.745
 6305SOL    HW219815   6.086   6.338   0.852
 6306SOL     OW19816   6.966   4.446   4.005
 6306SOL    HW119817   6.951   4.480   4.098
 6306SOL    HW219818   0.039   4.428   3.992
 6307SOL     OW19819   3.442   4.121   4.303
 6307SOL    HW119820   3.484   4.085   4.386
 6307SOL    HW219821   3.514   4.157   4.243
 6308SOL     OW19822   2.127   2.734   4.384
 6308SOL    HW119823   2.144   2.720   4.482
 6308SOL    HW219824   2.048   2.680   4.356
 6309SOL     OW19825   6.197   6.081   4.199
 6309SOL    HW119826   6.225   6.050   4.108
 6309SOL    HW219827   6.267   6.057   4.265
 6310SOL     OW19828   1.858   6.097   2.580
 6310SOL    HW119829   1.889   6.009   2.542
 6310SOL    HW219830   1.785   6.080   2.645
 6311SOL     OW19831   5.172   1.513   6.089
 6311SOL    HW119832   5.094   1.542   6.146
 6311SOL    HW219833   5.139   1.491   5.997
 6312SOL     OW19834   0.106   6.336   5.172
 6312SOL    HW119835   0.011   6.348   5.200
 6312SOL    HW219836   0.128   6.239   5.168
 6313SOL     OW19837   6.988   6.044   3.612
 6313SOL    HW119838   0.061   6.033   3.632
 6313SOL    HW219839   6.939   6.059   3.698
 6314SOL     OW19840   4.071   6.499   1.772
 6314SOL    HW119841   3.993   6.559   1.759
 6314SOL    HW219842   4.095   6.495   1.869
 6315SOL     OW19843   3.155   2.131   5.836
 6315SOL    HW119844   3.076   2.166   5.785
 6315SOL    HW219845   3.165   2.182   5.921
 6316SOL     OW19846   5.081   2.155   6.289
 6316SOL    HW119847   5.035   2.074   6.325
 6316SOL    HW219848   5.180   2.143   6.297
 6317SOL     OW19849   5.418   4.770   2.146
 6317SOL    HW119850   5.381   4.833   2.077
 6317SOL    HW219851   5.370   4.682   2.140
 6318SOL     OW19852   4.438   6.908   5.966
 6318SOL    HW119853   4.435   6.820   5.919
 6318SOL    HW219854   4.520   6.913   6.022
 6319SOL     OW19855   6.623   1.663   5.207
 6319SOL    HW119856   6.574   1.747   5.232
 6319SOL    HW219857   6.634   1.660   5.108
 6320SOL     OW19858   6.873   6.569   5.064
 6320SOL    HW119859   6.896   6.506   5.138
 6320SOL    HW219860   6.886   6.663   5.095
 6321SOL     OW19861   4.621   3.272   1.055
 6321SOL    HW119862   4.624   3.343   0.984
 6321SOL    HW219863   4.711   3.229   1.064
 6322SOL     OW19864   1.764   2.700   0.818
 6322SOL    HW119865   1.813   2.728   0.901
 6322SOL    HW219866   1.747   2.602   0.821
 6323SOL     OW19867   2.071   2.177   1.769
 6323SOL    HW119868   2.096   2.241   1.697
 6323SOL    HW219869   2.082   2.221   1.858
 6324SOL     OW19870   5.030   1.168   0.861
 6324SOL    HW119871   4.977   1.199   0.782
 6324SOL    HW219872   5.045   1.069   0.855
 6325SOL     OW19873   1.887   3.219   2.629
 6325SOL    HW119874   1.854   3.132   2.593
 6325SOL    HW219875   1.885   3.288   2.557
 6326SOL     OW19876   5.284   5.032   1.412
 6326SOL    HW119877   5.336   5.027   1.326
 6326SOL    HW219878   5.193   5.068   1.393
 6327SOL     OW19879   0.513   1.283   4.887
 6327SOL    HW119880   0.488   1.196   4.845
 6327SOL    HW219881   0.463   1.357   4.843
 6328SOL     OW19882   4.212   3.918   0.118
 6328SOL    HW119883   4.281   3.854   0.152
 6328SOL    HW219884   4.192   3.987   0.188
 6329SOL     OW19885   1.729   3.125   3.984
 6329SOL    HW119886   1.773   3.102   4.071
 6329SOL    HW219887   1.711   3.041   3.933
 6330SOL     OW19888   5.655   6.751   1.676
 6330SOL    HW119889   5.626   6.683   1.744
 6330SOL    HW219890   5.630   6.842   1.707
 6331SOL     OW19891   6.387   3.408   5.294
 6331SOL    HW119892   6.470   3.419   5.239
 6331SOL    HW219893   6.311   3.382   5.234
 6332SOL     OW19894   0.614   2.561   0.789
 6332SOL    HW119895   0.678   2.580   0.863
 6332SOL    HW219896   0.521   2.555   0.826
 6333SOL     OW19897   4.495   6.662   5.579
 6333SOL    HW119898   4.441   6.637   5.499
 6333SOL    HW219899   4.507   6.761   5.582
 6334SOL     OW19900   3.337   1.393   2.537
 6334SOL    HW119901   3.398   1.380   2.459
 6334SOL    HW219902   3.380   1.355   2.619
 6335SOL     OW19903   4.546   0.765   0.979
 6335SOL    HW119904   4.536   0.784   1.077
 6335SOL    HW219905   4.638   0.731   0.961
 6336SOL     OW19906   1.511   2.350   6.694
 6336SOL    HW119907   1.430   2.400   6.667
 6336SOL    HW219908   1.487   2.279   6.760
 6337SOL     OW19909   4.750   5.310   5.340
 6337SOL    HW119910   4.726   5.400   5.304
 6337SOL    HW219911   4.752   5.244   5.266
 6338SOL     OW19912   3.257   2.148   3.798
 6338SOL    HW119913   3.240   2.140   3.700
 6338SOL    HW219914   3.173   2.131   3.848
 6339SOL     OW19915   1.064   3.774   3.685
 6339SOL    HW119916   0.976   3.787   3.731
 6339SOL    HW219917   1.134   3.829   3.730
 6340SOL     OW19918   1.312   5.135   1.570
 6340SOL    HW119919   1.398   5.102   1.609
 6340SOL    HW219920   1.289   5.081   1.490
 6341SOL     OW19921   6.679   4.422   4.007
 6341SOL    HW119922   6.642   4.489   3.943
 6341SOL    HW219923   6.777   4.408   3.988
 6342SOL     OW19924   2.865   1.068   1.075
 6342SOL    HW119925   2.860   1.145   1.138
 6342SOL    HW219926   2.775   1.026   1.065
 6343SOL     OW19927   4.583   0.651   6.385
 6343SOL    HW119928   4.524   0.603   6.450
 6343SOL    HW219929   4.677   0.653   6.419
 6344SOL     OW19930   4.757   2.098   4.539
 6344SOL    HW119931   4.800   2.039   4.471
 6344SOL    HW219932   4.735   2.044   4.620
 6345SOL     OW19933   5.889   2.742   2.710
 6345SOL    HW119934   5.803   2.746   2.761
 6345SOL    HW219935   5.903   2.829   2.663
 6346SOL     OW19936   6.095   5.630   3.603
 6346SOL    HW119937   6.040   5.586   3.674
 6346SOL    HW219938   6.147   5.706   3.643
 6347SOL     OW19939   1.932   1.100   0.119
 6347SOL    HW119940   1.864   1.051   0.173
 6347SOL    HW219941   2.023   1.064   0.140
 6348SOL     OW19942   1.577   3.012   5.917
 6348SOL    HW119943   1.508   2.977   5.980
 6348SOL    HW219944   1.557   2.979   5.824
 6349SOL     OW19945   1.730   0.677   0.997
 6349SOL    HW119946   1.669   0.646   0.924
 6349SOL    HW219947   1.681   0.743   1.054
 6350SOL     OW19948   0.789   5.153   4.035
 6350SOL    HW119949   0.706   5.105   4.062
 6350SOL    HW219950   0.858   5.086   4.008
 6351SOL     OW19951   6.142   3.661   3.529
 6351SOL    HW119952   6.114   3.685   3.622
 6351SOL    HW219953   6.183   3.741   3.485
 6352SOL     OW19954   2.790   6.979   5.170
 6352SOL    HW119955   2.834   6.890   5.184
 6352SOL    HW219956   2.813   7.013   5.078
 6353SOL     OW19957   0.766   6.382   6.270
 6353SOL    HW119958   0.779   6.351   6.364
 6353SOL    HW219959   0.754   6.303   6.210
 6354SOL     OW19960   3.140   5.119   3.639
 6354SOL    HW119961   3.113   5.023   3.651
 6354SOL    HW219962   3.085   5.160   3.566
 6355SOL     OW19963   2.252   5.205   6.782
 6355SOL    HW119964   2.218   5.115   6.755
 6355SOL    HW219965   2.176   5.270   6.781
 6356SOL     OW19966   4.957   5.684   1.326
 6356SOL    HW119967   4.958   5.707   1.229
 6356SOL    HW219968   4.924   5.590   1.337
 6357SOL     OW19969   6.380   3.316   2.829
 6357SOL    HW119970   6.297   3.367   2.804
 6357SOL    HW219971   6.459   3.376   2.819
 6358SOL     OW19972   6.757   2.166   6.961
 6358SOL    HW119973   6.760   2.141   6.864
 6358SOL    HW219974   6.755   2.084   7.017
 6359SOL     OW19975   6.363   0.599   0.622
 6359SOL    HW119976   6.322   0.687   0.643
 6359SOL    HW219977   6.444   0.613   0.564
 6360SOL     OW19978   1.040   3.883   5.566
 6360SOL    HW119979   1.018   3.786   5.569
 6360SOL    HW219980   0.962   3.936   5.599
 6361SOL     OW19981   1.219   0.103   0.804
 6361SOL    HW119982   1.150   0.041   0.768
 6361SOL    HW219983   1.177   0.164   0.872
 6362SOL     OW19984   0.745   5.601   0.095
 6362SOL    HW119985   0.765   5.504   0.081
 6362SOL    HW219986   0.796   5.655   0.028
 6363SOL     OW19987   2.208   5.712   3.793
 6363SOL    HW119988   2.165   5.714   3.704
 6363SOL    HW219989   2.278   5.783   3.798
 6364SOL     OW19990   2.652   1.893   5.525
 6364SOL    HW119991   2.679   1.977   5.478
 6364SOL    HW219992   2.726   1.863   5.585
 6365SOL     OW19993   4.832   0.093   4.342
 6365SOL    HW119994   4.733   0.085   4.350
 6365SOL    HW219995   4.858   0.189   4.352
 6366SOL     OW19996   1.117   5.529   5.285
 6366SOL    HW119997   1.180   5.566   5.353
 6366SOL    HW219998   1.144   5.559   5.194
 6367SOL     OW19999   4.095   1.631   4.003
 6367SOL    HW120000   4.176   1.689   4.006
 6367SOL    HW220001   4.094   1.580   3.917
 6368SOL     OW20002   3.494   5.060   3.646
 6368SOL    HW120003   3.454   4.979   3.603
 6368SOL    HW220004   3.446   5.142   3.614
 6369SOL     OW20005   2.621   0.445   4.584
 6369SOL    HW120006   2.699   0.406   4.535
 6369SOL    HW220007   2.568   0.502   4.521
 6370SOL     OW20008   6.619   3.197   3.783
 6370SOL    HW120009   6.589   3.175   3.875
 6370SOL    HW220010   6.719   3.207   3.782
 6371SOL     OW20011   5.523   4.960   3.065
 6371SOL    HW120012   5.480   4.869   3.068
 6371SOL    HW220013   5.452   5.029   3.052
 6372SOL     OW20014   1.525   1.278   1.773
 6372SOL    HW120015   1.584   1.353   1.742
 6372SOL    HW220016   1.499   1.293   1.868
 6373SOL     OW20017   4.698   4.421   2.885
 6373SOL    HW120018   4.735   4.421   2.978
 6373SOL    HW220019   4.598   4.410   2.889
 6374SOL     OW20020   4.124   3.490   2.760
 6374SOL    HW120021   4.073   3.478   2.845
 6374SOL    HW220022   4.128   3.403   2.711
 6375SOL     OW20023   6.840   1.681   2.726
 6375SOL    HW120024   6.919   1.675   2.786
 6375SOL    HW220025   6.779   1.754   2.758
 6376SOL     OW20026   5.387   2.014   5.869
 6376SOL    HW120027   5.394   2.019   5.769
 6376SOL    HW220028   5.441   2.088   5.910
 6377SOL     OW20029   0.454   0.867   5.425
 6377SOL    HW120030   0.546   0.829   5.421
 6377SOL    HW220031   0.454   0.961   5.389
 6378SOL     OW20032   4.522   4.458   3.825
 6378SOL    HW120033   4.578   4.537   3.849
 6378SOL    HW220034   4.488   4.415   3.909
 6379SOL     OW20035   1.249   4.440   5.388
 6379SOL    HW120036   1.346   4.459   5.408
 6379SOL    HW220037   1.194   4.519   5.415
 6380SOL     OW20038   0.678   1.499   5.405
 6380SOL    HW120039   0.617   1.427   5.371
 6380SOL    HW220040   0.769   1.487   5.365
 6381SOL     OW20041   4.113   2.991   1.161
 6381SOL    HW120042   4.193   3.051   1.151
 6381SOL    HW220043   4.124   2.912   1.101
 6382SOL     OW20044   3.117   2.132   0.893
 6382SOL    HW120045   3.108   2.219   0.942
 6382SOL    HW220046   3.214   2.115   0.875
 6383SOL     OW20047   2.263   2.802   3.101
 6383SOL    HW120048   2.242   2.836   3.009
 6383SOL    HW220049   2.240   2.873   3.168
 6384SOL     OW20050   6.596   3.459   2.865
 6384SOL    HW120051   6.686   3.426   2.835
 6384SOL    HW220052   6.595   3.467   2.965
 6385SOL     OW20053   6.982   3.440   3.570
 6385SOL    HW120054   0.035   3.407   3.516
 6385SOL    HW220055   7.013   3.508   3.636
 6386SOL     OW20056   2.317   3.166   6.624
 6386SOL    HW120057   2.278   3.160   6.533
 6386SOL    HW220058   2.255   3.124   6.690
 6387SOL     OW20059   6.838   2.056   6.631
 6387SOL    HW120060   6.824   2.080   6.535
 6387SOL    HW220061   6.841   1.956   6.640
 6388SOL     OW20062   4.491   6.326   1.763
 6388SOL    HW120063   4.401   6.322   1.719
 6388SOL    HW220064   4.488   6.273   1.848
 6389SOL     OW20065   0.176   6.321   1.127
 6389SOL    HW120066   0.184   6.247   1.194
 6389SOL    HW220067   0.193   6.285   1.036
 6390SOL     OW20068   0.469   0.674   5.836
 6390SOL    HW120069   0.461   0.600   5.904
 6390SOL    HW220070   0.430   0.643   5.749
 6391SOL     OW20071   1.514   6.732   6.256
 6391SOL    HW120072   1.518   6.808   6.321
 6391SOL    HW220073   1.443   6.750   6.188
 6392SOL     OW20074   2.869   5.697   2.764
 6392SOL    HW120075   2.958   5.667   2.728
 6392SOL    HW220076   2.884   5.765   2.836
 6393SOL     OW20077   0.613   5.896   1.910
 6393SOL    HW120078   0.614   5.864   2.005
 6393SOL    HW220079   0.518   5.898   1.878
 6394SOL     OW20080   2.017   4.950   0.972
 6394SOL    HW120081   1.935   5.006   0.959
 6394SOL    HW220082   2.069   4.948   0.886
 6395SOL     OW20083   6.881   2.638   1.486
 6395SOL    HW120084   6.804   2.659   1.426
 6395SOL    HW220085   6.847   2.622   1.579
 6396SOL     OW20086   5.458   3.329   6.790
 6396SOL    HW120087   5.461   3.368   6.882
 6396SOL    HW220088   5.381   3.265   6.783
 6397SOL     OW20089   5.952   1.706   1.373
 6397SOL    HW120090   5.872   1.666   1.328
 6397SOL    HW220091   5.997   1.635   1.428
 6398SOL     OW20092   3.187   6.805   1.660
 6398SOL    HW120093   3.091   6.777   1.649
 6398SOL    HW220094   3.230   6.748   1.729
 6399SOL     OW20095   1.686   0.030   0.067
 6399SOL    HW120096   1.729   7.006   7.016
 6399SOL    HW220097   1.602   0.073   0.036
 6400SOL     OW20098   2.278   5.101   3.022
 6400SOL    HW120099   2.258   5.025   3.084
 6400SOL    HW220100   2.205   5.110   2.955
 6401SOL     OW20101   5.137   6.076   3.598
 6401SOL    HW120102   5.213   6.128   3.637
 6401SOL    HW220103   5.155   5.978   3.608
 6402SOL     OW20104   2.394   2.636   3.263
 6402SOL    HW120105   2.348   2.659   3.349
 6402SOL    HW220106   2.359   2.694   3.190
 6403SOL     OW20107   6.831   5.417   6.194
 6403SOL    HW120108   6.786   5.481   6.257
 6403SOL    HW220109   6.930   5.429   6.200
 6404SOL     OW20110   3.682   0.862   2.320
 6404SOL    HW120111   3.620   0.793   2.283
 6404SOL    HW220112   3.710   0.925   2.247
 6405SOL     OW20113   3.397   0.571   3.817
 6405SOL    HW120114   3.432   0.651   3.865
 6405SOL    HW220115   3.462   0.544   3.745
 6406SOL     OW20116   0.697   2.771   2.605
 6406SOL    HW120117   0.792   2.803   2.610
 6406SOL    HW220118   0.637   2.838   2.650
 6407SOL     OW20119   2.095   0.203   4.129
 6407SOL    HW120120   2.107   0.134   4.201
 6407SOL    HW220121   2.040   0.164   4.055
 6408SOL     OW20122   5.315   1.435   0.553
 6408SOL    HW120123   5.354   1.470   0.468
 6408SOL    HW220124   5.346   1.491   0.630
 6409SOL     OW20125   6.112   4.555   3.918
 6409SOL    HW120126   6.066   4.542   4.006
 6409SOL    HW220127   6.110   4.470   3.866
 6410SOL     OW20128   2.246   1.268   6.188
 6410SOL    HW120129   2.203   1.342   6.240
 6410SOL    HW220130   2.278   1.303   6.100
 6411SOL     OW20131   0.535   2.808   2.880
 6411SOL    HW120132   0.466   2.877   2.857
 6411SOL    HW220133   0.599   2.846   2.947
 6412SOL     OW20134   1.708   1.944   4.561
 6412SOL    HW120135   1.738   1.915   4.470
 6412SOL    HW220136   1.678   1.864   4.614
 6413SOL     OW20137   3.800   4.898   3.518
 6413SOL    HW120138   3.823   4.891   3.615
 6413SOL    HW220139   3.702   4.918   3.508
 6414SOL     OW20140   5.586   0.958   6.781
 6414SOL    HW120141   5.505   0.970   6.839
 6414SOL    HW220142   5.565   0.895   6.707
 6415SOL     OW20143   1.733   3.533   3.371
 6415SOL    HW120144   1.714   3.548   3.468
 6415SOL    HW220145   1.783   3.612   3.335
 6416SOL     OW20146   1.501   0.384   6.843
 6416SOL    HW120147   1.417   0.438   6.849
 6416SOL    HW220148   1.545   0.379   6.933
 6417SOL     OW20149   5.880   4.911   0.578
 6417SOL    HW120150   5.797   4.951   0.540
 6417SOL    HW220151   5.902   4.827   0.530
 6418SOL     OW20152   5.111   3.275   2.571
 6418SOL    HW120153   5.136   3.178   2.565
 6418SOL    HW220154   5.043   3.296   2.500
 6419SOL     OW20155   1.202   4.804   3.461
 6419SOL    HW120156   1.231   4.774   3.370
 6419SOL    HW220157   1.281   4.809   3.521
 6420SOL     OW20158   2.438   6.400   3.927
 6420SOL    HW120159   2.516   6.366   3.875
 6420SOL    HW220160   2.440   6.500   3.928
 6421SOL     OW20161   4.597   0.123   2.291
 6421SOL    HW120162   4.567   0.120   2.386
 6421SOL    HW220163   4.696   0.133   2.288
 6422SOL     OW20164   6.834   0.438   5.091
 6422SOL    HW120165   6.870   0.531   5.100
 6422SOL    HW220166   6.879   0.392   5.015
 6423SOL     OW20167   4.677   6.130   3.536
 6423SOL    HW120168   4.741   6.060   3.567
 6423SOL    HW220169   4.676   6.206   3.601
 6424SOL     OW20170   0.187   4.419   4.838
 6424SOL    HW120171   0.198   4.464   4.927
 6424SOL    HW220172   0.118   4.469   4.785
 6425SOL     OW20173   6.601   6.335   3.047
 6425SOL    HW120174   6.568   6.323   3.140
 6425SOL    HW220175   6.609   6.432   3.027
 6426SOL     OW20176   0.985   4.850   3.100
 6426SOL    HW120177   0.965   4.791   3.022
 6426SOL    HW220178   0.968   4.799   3.185
 6427SOL     OW20179   4.022   3.942   4.114
 6427SOL    HW120180   3.925   3.953   4.135
 6427SOL    HW220181   4.033   3.912   4.020
 6428SOL     OW20182   5.816   3.620   6.507
 6428SOL    HW120183   5.718   3.622   6.529
 6428SOL    HW220184   5.833   3.674   6.425
 6429SOL     OW20185   0.679   1.426   5.672
 6429SOL    HW120186   0.678   1.474   5.584
 6429SOL    HW220187   0.755   1.459   5.727
 6430SOL     OW20188   5.937   1.157   3.716
 6430SOL    HW120189   5.995   1.156   3.634
 6430SOL    HW220190   5.921   1.063   3.746
 6431SOL     OW20191   4.274   6.568   3.848
 6431SOL    HW120192   4.271   6.515   3.764
 6431SOL    HW220193   4.342   6.528   3.910
 6432SOL     OW20194   4.318   4.198   6.119
 6432SOL    HW120195   4.305   4.188   6.021
 6432SOL    HW220196   4.374   4.278   6.138
 6433SOL     OW20197   1.657   5.237   5.795
 6433SOL    HW120198   1.670   5.175   5.872
 6433SOL    HW220199   1.640   5.185   5.712
 6434SOL     OW20200   2.543   5.894   6.098
 6434SOL    HW120201   2.517   5.940   6.013
 6434SOL    HW220202   2.643   5.896   6.108
 6435SOL     OW20203   5.073   6.747   0.772
 6435SOL    HW120204   5.106   6.815   0.707
 6435SOL    HW220205   5.139   6.672   0.778
 6436SOL     OW20206   1.225   2.919   2.722
 6436SOL    HW120207   1.217   2.927   2.623
 6436SOL    HW220208   1.245   3.009   2.761
 6437SOL     OW20209   1.812   1.778   0.272
 6437SOL    HW120210   1.881   1.843   0.239
 6437SOL    HW220211   1.831   1.688   0.232
 6438SOL     OW20212   0.162   3.376   5.471
 6438SOL    HW120213   0.126   3.434   5.544
 6438SOL    HW220214   0.193   3.289   5.510
 6439SOL     OW20215   5.613   1.732   1.709
 6439SOL    HW120216   5.637   1.804   1.645
 6439SOL    HW220217   5.683   1.661   1.708
 6440SOL     OW20218   2.583   1.542   6.212
 6440SOL    HW120219   2.634   1.479   6.270
 6440SOL    HW220220   2.556   1.622   6.266
 6441SOL     OW20221   0.335   7.018   1.661
 6441SOL    HW120222   0.308   6.924   1.685
 6441SOL    HW220223   0.256   0.054   1.672
 6442SOL     OW20224   2.370   1.394   5.080
 6442SOL    HW120225   2.448   1.334   5.063
 6442SOL    HW220226   2.390   1.485   5.044
 6443SOL     OW20227   3.784   2.300   5.617
 6443SOL    HW120228   3.858   2.232   5.612
 6443SOL    HW220229   3.711   2.274   5.555
 6444SOL     OW20230   5.671   3.508   4.873
 6444SOL    HW120231   5.678   3.409   4.866
 6444SOL    HW220232   5.719   3.540   4.954
 6445SOL     OW20233   3.803   2.918   4.607
 6445SOL    HW120234   3.768   2.913   4.700
 6445SOL    HW220235   3.883   2.860   4.597
 6446SOL     OW20236   1.145   1.043   6.609
 6446SOL    HW120237   1.209   0.984   6.560
 6446SOL    HW220238   1.053   1.034   6.569
 6447SOL     OW20239   5.775   5.077   3.007
 6447SOL    HW120240   5.691   5.037   3.045
 6447SOL    HW220241   5.834   5.004   2.972
 6448SOL     OW20242   4.737   5.938   1.742
 6448SOL    HW120243   4.720   5.872   1.815
 6448SOL    HW220244   4.758   5.888   1.657
 6449SOL     OW20245   3.878   6.039   1.237
 6449SOL    HW120246   3.930   5.959   1.269
 6449SOL    HW220247   3.872   6.106   1.311
 6450SOL     OW20248   1.428   3.390   0.833
 6450SOL    HW120249   1.468   3.447   0.904
 6450SOL    HW220250   1.395   3.447   0.758
 6451SOL     OW20251   2.109   0.757   5.693
 6451SOL    HW120252   2.170   0.760   5.615
 6451SOL    HW220253   2.021   0.797   5.668
 6452SOL     OW20254   4.359   5.022   3.268
 6452SOL    HW120255   4.291   4.948   3.272
 6452SOL    HW220256   4.397   5.026   3.176
 6453SOL     OW20257   2.326   6.676   2.135
 6453SOL    HW120258   2.403   6.724   2.176
 6453SOL    HW220259   2.347   6.657   2.039
 6454SOL     OW20260   0.660   2.217   3.150
 6454SOL    HW120261   0.641   2.215   3.052
 6454SOL    HW220262   0.747   2.172   3.169
 6455SOL     OW20263   0.076   3.457   4.183
 6455SOL    HW120264   0.027   3.455   4.096
 6455SOL    HW220265   0.112   3.549   4.199
 6456SOL     OW20266   1.429   1.276   3.248
 6456SOL    HW120267   1.482   1.192   3.259
 6456SOL    HW220268   1.394   1.306   3.337
 6457SOL     OW20269   5.322   1.371   1.687
 6457SOL    HW120270   5.290   1.323   1.604
 6457SOL    HW220271   5.310   1.311   1.766
 6458SOL     OW20272   1.028   5.598   4.102
 6458SOL    HW120273   1.060   5.624   4.011
 6458SOL    HW220274   1.101   5.613   4.168
 6459SOL     OW20275   6.129   3.051   1.308
 6459SOL    HW120276   6.035   3.027   1.282
 6459SOL    HW220277   6.126   3.120   1.380
 6460SOL     OW20278   5.744   6.212   6.399
 6460SOL    HW120279   5.714   6.248   6.488
 6460SOL    HW220280   5.729   6.113   6.397
 6461SOL     OW20281   2.181   4.646   6.687
 6461SOL    HW120282   2.093   4.659   6.734
 6461SOL    HW220283   2.164   4.614   6.594
 6462SOL     OW20284   2.185   3.355   4.437
 6462SOL    HW120285   2.193   3.314   4.528
 6462SOL    HW220286   2.227   3.295   4.370
 6463SOL     OW20287   6.078   2.346   7.017
 6463SOL    HW120288   6.007   2.382   0.053
 6463SOL    HW220289   6.104   2.416   6.951
 6464SOL     OW20290   1.330   4.313   4.516
 6464SOL    HW120291   1.344   4.390   4.454
 6464SOL    HW220292   1.275   4.243   4.470
 6465SOL     OW20293   6.791   3.305   2.417
 6465SOL    HW120294   6.725   3.233   2.392
 6465SOL    HW220295   6.884   3.268   2.412
 6466SOL     OW20296   6.988   1.160   5.953
 6466SOL    HW120297   0.029   1.235   5.945
 6466SOL    HW220298   0.010   1.077   5.985
 6467SOL     OW20299   4.088   0.809   0.385
 6467SOL    HW120300   4.008   0.816   0.445
 6467SOL    HW220301   4.089   0.720   0.341
 6468SOL     OW20302   2.755   6.455   1.074
 6468SOL    HW120303   2.841   6.499   1.099
 6468SOL    HW220304   2.769   6.398   0.994
 6469SOL     OW20305   4.416   2.009   3.650
 6469SOL    HW120306   4.494   2.024   3.710
 6469SOL    HW220307   4.364   1.930   3.682
 6470SOL     OW20308   5.817   2.697   0.930
 6470SOL    HW120309   5.844   2.601   0.939
 6470SOL    HW220310   5.835   2.728   0.837
 6471SOL     OW20311   0.158   6.365   5.886
 6471SOL    HW120312   0.176   6.460   5.861
 6471SOL    HW220313   0.106   6.321   5.813
 6472SOL     OW20314   0.071   5.769   1.611
 6472SOL    HW120315   0.007   5.743   1.539
 6472SOL    HW220316   0.130   5.691   1.632
 6473SOL     OW20317   2.720   1.788   4.882
 6473SOL    HW120318   2.812   1.785   4.922
 6473SOL    HW220319   2.725   1.817   4.787
 6474SOL     OW20320   3.127   5.289   6.448
 6474SOL    HW120321   3.059   5.261   6.380
 6474SOL    HW220322   3.216   5.298   6.404
 6475SOL     OW20323   6.132   5.348   3.531
 6475SOL    HW120324   6.180   5.299   3.603
 6475SOL    HW220325   6.141   5.447   3.546
 6476SOL     OW20326   4.729   3.698   1.185
 6476SOL    HW120327   4.640   3.673   1.224
 6476SOL    HW220328   4.801   3.646   1.231
 6477SOL     OW20329   6.144   4.917   0.289
 6477SOL    HW120330   6.132   4.819   0.303
 6477SOL    HW220331   6.104   4.944   0.202
 6478SOL     OW20332   3.167   0.393   2.288
 6478SOL    HW120333   3.124   0.382   2.378
 6478SOL    HW220334   3.096   0.396   2.217
 6479SOL     OW20335   3.976   5.665   3.847
 6479SOL    HW120336   3.923   5.690   3.765
 6479SOL    HW220337   4.038   5.739   3.871
 6480SOL     OW20338   3.180   1.191   6.793
 6480SOL    HW120339   3.127   1.108   6.778
 6480SOL    HW220340   3.137   1.246   6.864
 6481SOL     OW20341   3.527   2.078   2.213
 6481SOL    HW120342   3.534   1.983   2.182
 6481SOL    HW220343   3.572   2.138   2.147
 6482SOL     OW20344   6.804   1.181   5.502
 6482SOL    HW120345   6.829   1.257   5.442
 6482SOL    HW220346   6.868   1.177   5.579
 6483SOL     OW20347   0.888   0.023   3.042
 6483SOL    HW120348   0.881   0.073   2.956
 6483SOL    HW220349   0.937   6.962   3.027
 6484SOL     OW20350   4.033   0.077   1.442
 6484SOL    HW120351   3.987   7.014   1.459
 6484SOL    HW220352   4.021   0.102   1.346
 6485SOL     OW20353   2.088   5.178   3.877
 6485SOL    HW120354   2.185   5.155   3.871
 6485SOL    HW220355   2.073   5.241   3.953
 6486SOL     OW20356   0.930   4.154   3.056
 6486SOL    HW120357   0.849   4.118   3.104
 6486SOL    HW220358   0.909   4.164   2.959
 6487SOL     OW20359   0.722   6.657   5.214
 6487SOL    HW120360   0.722   6.561   5.185
 6487SOL    HW220361   0.807   6.701   5.184
 6488SOL     OW20362   3.558   6.121   4.656
 6488SOL    HW120363   3.624   6.195   4.662
 6488SOL    HW220364   3.604   6.037   4.629
 6489SOL     OW20365   3.052   3.586   6.084
 6489SOL    HW120366   2.958   3.553   6.089
 6489SOL    HW220367   3.054   3.675   6.037
 6490SOL     OW20368   3.977   1.460   6.724
 6490SOL    HW120369   3.890   1.467   6.774
 6490SOL    HW220370   4.048   1.426   6.786
 6491SOL     OW20371   4.075   0.877   1.334
 6491SOL    HW120372   4.104   0.920   1.419
 6491SOL    HW220373   4.129   0.915   1.258
 6492SOL     OW20374   4.265   4.479   6.313
 6492SOL    HW120375   4.321   4.462   6.232
 6492SOL    HW220376   4.287   4.412   6.384
 6493SOL     OW20377   1.697   4.315   6.014
 6493SOL    HW120378   1.643   4.353   5.939
 6493SOL    HW220379   1.759   4.385   6.048
 6494SOL     OW20380   6.397   0.593   3.463
 6494SOL    HW120381   6.336   0.670   3.482
 6494SOL    HW220382   6.398   0.575   3.365
 6495SOL     OW20383   6.318   0.276   4.615
 6495SOL    HW120384   6.264   0.207   4.568
 6495SOL    HW220385   6.277   0.297   4.704
 6496SOL     OW20386   5.899   1.395   3.148
 6496SOL    HW120387   5.962   1.446   3.090
 6496SOL    HW220388   5.830   1.351   3.091
 6497SOL     OW20389   0.852   1.259   0.833
 6497SOL    HW120390   0.923   1.291   0.896
 6497SOL    HW220391   0.880   1.276   0.739
 6498SOL     OW20392   1.523   3.574   3.611
 6498SOL    HW120393   1.467   3.635   3.554
 6498SOL    HW220394   1.521   3.607   3.705
 6499SOL     OW20395   5.620   3.484   5.684
 6499SOL    HW120396   5.552   3.422   5.646
 6499SOL    HW220397   5.710   3.442   5.679
 6500SOL     OW20398   6.574   3.885   4.519
 6500SOL    HW120399   6.557   3.955   4.588
 6500SOL    HW220400   6.660   3.838   4.539
 6501SOL     OW20401   6.983   1.271   6.264
 6501SOL    HW120402   6.973   1.362   6.222
 6501SOL    HW220403   6.934   1.204   6.208
 6502SOL     OW20404   6.971   2.695   2.498
 6502SOL    HW120405   7.013   2.780   2.529
 6502SOL    HW220406   6.873   2.697   2.516
 6503SOL     OW20407   5.205   1.602   3.578
 6503SOL    HW120408   5.144   1.675   3.610
 6503SOL    HW220409   5.262   1.571   3.654
 6504SOL     OW20410   4.341   6.342   5.590
 6504SOL    HW120411   4.387   6.330   5.501
 6504SOL    HW220412   4.409   6.336   5.663
 6505SOL     OW20413   5.639   5.379   0.022
 6505SOL    HW120414   5.605   5.323   6.972
 6505SOL    HW220415   5.562   5.423   0.068
 6506SOL     OW20416   6.985   2.301   3.101
 6506SOL    HW120417   6.918   2.227   3.107
 6506SOL    HW220418   6.940   2.385   3.071
 6507SOL     OW20419   1.473   5.285   6.299
 6507SOL    HW120420   1.474   5.308   6.202
 6507SOL    HW220421   1.552   5.227   6.320
 6508SOL     OW20422   1.578   0.835   2.613
 6508SOL    HW120423   1.613   0.920   2.575
 6508SOL    HW220424   1.624   0.757   2.570
 6509SOL     OW20425   3.796   1.093   4.766
 6509SOL    HW120426   3.751   1.019   4.715
 6509SOL    HW220427   3.771   1.085   4.863
 6510SOL     OW20428   6.207   5.506   7.015
 6510SOL    HW120429   6.290   5.468   6.974
 6510SOL    HW220430   6.226   5.597   0.026
 6511SOL     OW20431   4.004   1.332   5.243
 6511SOL    HW120432   3.990   1.234   5.256
 6511SOL    HW220433   4.085   1.361   5.293
 6512SOL     OW20434   4.346   6.606   1.886
 6512SOL    HW120435   4.415   6.545   1.925
 6512SOL    HW220436   4.321   6.676   1.953
 6513SOL     OW20437   2.864   4.867   3.129
 6513SOL    HW120438   2.888   4.815   3.211
 6513SOL    HW220439   2.772   4.907   3.140
 6514SOL     OW20440   6.135   1.423   4.078
 6514SOL    HW120441   6.202   1.417   4.004
 6514SOL    HW220442   6.077   1.341   4.076
 6515SOL     OW20443   0.416   5.141   4.189
 6515SOL    HW120444   0.385   5.083   4.114
 6515SOL    HW220445   0.468   5.086   4.255
 6516SOL     OW20446   0.382   3.730   1.675
 6516SOL    HW120447   0.383   3.694   1.582
 6516SOL    HW220448   0.303   3.790   1.686
 6517SOL     OW20449   6.525   1.692   1.241
 6517SOL    HW120450   6.512   1.736   1.152
 6517SOL    HW220451   6.478   1.745   1.312
 6518SOL     OW20452   0.303   1.020   0.368
 6518SOL    HW120453   0.243   0.949   0.333
 6518SOL    HW220454   0.390   0.979   0.396
 6519SOL     OW20455   0.645   2.582   3.086
 6519SOL    HW120456   0.682   2.675   3.092
 6519SOL    HW220457   0.641   2.554   2.990
 6520SOL     OW20458   5.903   5.162   1.286
 6520SOL    HW120459   5.850   5.184   1.368
 6520SOL    HW220460   5.898   5.064   1.269
 6521SOL     OW20461   2.325   2.901   4.284
 6521SOL    HW120462   2.402   2.881   4.345
 6521SOL    HW220463   2.244   2.850   4.315
 6522SOL     OW20464   3.254   5.205   5.648
 6522SOL    HW120465   3.181   5.270   5.671
 6522SOL    HW220466   3.213   5.120   5.616
 6523SOL     OW20467   3.321   1.724   0.128
 6523SOL    HW120468   3.410   1.742   0.171
 6523SOL    HW220469   3.277   1.810   0.105
 6524SOL     OW20470   3.384   3.602   1.724
 6524SOL    HW120471   3.314   3.671   1.738
 6524SOL    HW220472   3.363   3.549   1.642
 6525SOL     OW20473   2.348   5.183   3.424
 6525SOL    HW120474   2.342   5.275   3.384
 6525SOL    HW220475   2.265   5.164   3.476
 6526SOL     OW20476   2.371   0.502   0.114
 6526SOL    HW120477   2.323   0.506   0.027
 6526SOL    HW220478   2.451   0.442   0.106
 6527SOL     OW20479   0.864   1.865   5.340
 6527SOL    HW120480   0.922   1.800   5.291
 6527SOL    HW220481   0.768   1.844   5.322
 6528SOL     OW20482   6.346   0.991   5.186
 6528SOL    HW120483   6.389   0.901   5.180
 6528SOL    HW220484   6.387   1.052   5.119
 6529SOL     OW20485   1.901   0.748   2.778
 6529SOL    HW120486   1.941   0.720   2.691
 6529SOL    HW220487   1.967   0.730   2.852
 6530SOL     OW20488   0.085   2.792   0.437
 6530SOL    HW120489   0.027   2.825   0.513
 6530SOL    HW220490   0.181   2.799   0.464
 6531SOL     OW20491   5.075   2.890   5.014
 6531SOL    HW120492   5.117   2.892   4.924
 6531SOL    HW220493   4.975   2.896   5.005
 6532SOL     OW20494   6.871   0.911   1.171
 6532SOL    HW120495   6.784   0.877   1.206
 6532SOL    HW220496   6.945   0.848   1.196
 6533SOL     OW20497   4.901   0.048   0.795
 6533SOL    HW120498   4.861   0.086   0.712
 6533SOL    HW220499   4.832   7.022   0.845
 6534SOL     OW20500   4.378   4.515   1.371
 6534SOL    HW120501   4.416   4.607   1.384
 6534SOL    HW220502   4.431   4.449   1.423
 6535SOL     OW20503   6.419   3.951   4.162
 6535SOL    HW120504   6.351   4.001   4.216
 6535SOL    HW220505   6.504   4.004   4.157
 6536SOL     OW20506   0.638   0.890   5.707
 6536SOL    HW120507   0.569   0.827   5.742
 6536SOL    HW220508   0.601   0.983   5.704
 6537SOL     OW20509   0.267   5.238   6.724
 6537SOL    HW120510   0.333   5.167   6.697
 6537SOL    HW220511   0.191   5.196   6.773
 6538SOL     OW20512   2.183   3.583   6.187
 6538SOL    HW120513   2.095   3.603   6.146
 6538SOL    HW220514   2.184   3.615   6.282
 6539SOL     OW20515   4.852   0.698   6.922
 6539SOL    HW120516   4.870   0.781   6.868
 6539SOL    HW220517   4.809   0.723   7.009
 6540SOL     OW20518   4.572   1.942   5.704
 6540SOL    HW120519   4.519   1.975   5.625
 6540SOL    HW220520   4.661   1.987   5.704
 6541SOL     OW20521   4.137   1.944   4.813
 6541SOL    HW120522   4.044   1.909   4.821
 6541SOL    HW220523   4.135   2.042   4.797
 6542SOL     OW20524   6.526   3.106   4.226
 6542SOL    HW120525   6.488   3.075   4.314
 6542SOL    HW220526   6.451   3.119   4.161
 6543SOL     OW20527   4.996   2.887   6.041
 6543SOL    HW120528   5.048   2.801   6.050
 6543SOL    HW220529   4.931   2.894   6.116
 6544SOL     OW20530   0.996   6.197   2.691
 6544SOL    HW120531   0.960   6.199   2.784
 6544SOL    HW220532   1.095   6.208   2.693
 6545SOL     OW20533   4.077   1.129   0.536
 6545SOL    HW120534   4.049   1.075   0.457
 6545SOL    HW220535   4.000   1.186   0.567
 6546SOL     OW20536   3.264   4.407   0.293
 6546SOL    HW120537   3.334   4.339   0.272
 6546SOL    HW220538   3.288   4.455   0.377
 6547SOL     OW20539   4.879   1.261   6.248
 6547SOL    HW120540   4.912   1.207   6.171
 6547SOL    HW220541   4.782   1.240   6.264
 6548SOL     OW20542   0.413   4.167   1.029
 6548SOL    HW120543   0.407   4.084   1.084
 6548SOL    HW220544   0.498   4.166   0.976
 6549SOL     OW20545   4.779   0.646   2.016
 6549SOL    HW120546   4.731   0.629   1.930
 6549SOL    HW220547   4.715   0.678   2.085
 6550SOL     OW20548   0.086   7.006   3.224
 6550SOL    HW120549   0.123   0.073   3.239
 6550SOL    HW220550   0.131   6.941   3.286
 6551SOL     OW20551   2.087   4.737   2.518
 6551SOL    HW120552   2.165   4.787   2.556
 6551SOL    HW220553   2.007   4.797   2.515
 6552SOL     OW20554   1.845   0.428   0.551
 6552SOL    HW120555   1.894   0.516   0.558
 6552SOL    HW220556   1.905   0.355   0.582
 6553SOL     OW20557   6.895   2.464   3.611
 6553SOL    HW120558   6.969   2.503   3.556
 6553SOL    HW220559   6.821   2.434   3.551
 6554SOL     OW20560   0.677   0.291   5.172
 6554SOL    HW120561   0.718   0.267   5.260
 6554SOL    HW220562   0.639   0.384   5.177
 6555SOL     OW20563   5.486   1.374   3.030
 6555SOL    HW120564   5.498   1.444   3.100
 6555SOL    HW220565   5.575   1.337   3.004
 6556SOL     OW20566   5.027   4.460   4.156
 6556SOL    HW120567   5.014   4.527   4.082
 6556SOL    HW220568   4.941   4.449   4.207
 6557SOL     OW20569   3.438   0.101   2.964
 6557SOL    HW120570   3.427   0.002   2.956
 6557SOL    HW220571   3.402   0.146   2.882
 6558SOL     OW20572   0.044   4.964   0.043
 6558SOL    HW120573   7.010   4.951   0.123
 6558SOL    HW220574   0.037   5.059   0.012
 6559SOL     OW20575   0.220   3.584   6.468
 6559SOL    HW120576   0.281   3.611   6.542
 6559SOL    HW220577   0.274   3.558   6.388
 6560SOL     OW20578   4.531   4.743   1.450
 6560SOL    HW120579   4.593   4.739   1.371
 6560SOL    HW220580   4.497   4.837   1.460
 6561SOL     OW20581   3.241   3.995   1.314
 6561SOL    HW120582   3.216   3.911   1.265
 6561SOL    HW220583   3.303   3.973   1.389
 6562SOL     OW20584   6.300   3.278   0.489
 6562SOL    HW120585   6.292   3.358   0.548
 6562SOL    HW220586   6.214   3.264   0.439
 6563SOL     OW20587   4.737   5.851   0.083
 6563SOL    HW120588   4.796   5.930   0.100
 6563SOL    HW220589   4.679   5.868   0.004
 6564SOL     OW20590   6.876   3.890   3.089
 6564SOL    HW120591   6.960   3.873   3.141
 6564SOL    HW220592   6.798   3.856   3.141
 6565SOL     OW20593   5.234   2.099   3.139
 6565SOL    HW120594   5.290   2.163   3.086
 6565SOL    HW220595   5.257   2.005   3.113
 6566SOL     OW20596   4.262   6.194   1.946
 6566SOL    HW120597   4.355   6.178   1.980
 6566SOL    HW220598   4.225   6.276   1.989
 6567SOL     OW20599   4.724   1.051   2.795
 6567SOL    HW120600   4.719   1.150   2.812
 6567SOL    HW220601   4.686   1.032   2.704
 6568SOL     OW20602   2.869   1.083   3.751
 6568SOL    HW120603   2.953   1.053   3.796
 6568SOL    HW220604   2.838   1.013   3.686
 6569SOL     OW20605   2.795   3.450   0.312
 6569SOL    HW120606   2.828   3.377   0.372
 6569SOL    HW220607   2.705   3.480   0.343
 6570SOL     OW20608   3.495   0.669   2.098
 6570SOL    HW120609   3.437   0.749   2.084
 6570SOL    HW220610   3.582   0.683   2.052
 6571SOL     OW20611   3.285   5.174   1.682
 6571SOL    HW120612   3.189   5.191   1.657
 6571SOL    HW220613   3.298   5.191   1.779
 6572SOL     OW20614   6.939   5.191   5.403
 6572SOL    HW120615   6.899   5.281   5.381
 6572SOL    HW220616   6.975   5.192   5.496
 6573SOL     OW20617   1.508   1.920   1.998
 6573SOL    HW120618   1.576   1.907   1.926
 6573SOL    HW220619   1.417   1.930   1.958
 6574SOL     OW20620   2.879   5.412   2.534
 6574SOL    HW120621   2.780   5.404   2.523
 6574SOL    HW220622   2.903   5.507   2.555
 6575SOL     OW20623   0.723   0.410   2.980
 6575SOL    HW120624   0.703   0.477   2.908
 6575SOL    HW220625   0.762   0.328   2.939
 6576SOL     OW20626   2.345   6.240   0.391
 6576SOL    HW120627   2.400   6.276   0.316
 6576SOL    HW220628   2.261   6.199   0.355
 6577SOL     OW20629   1.172   2.064   4.125
 6577SOL    HW120630   1.216   2.153   4.113
 6577SOL    HW220631   1.230   2.006   4.183
 6578SOL     OW20632   0.582   5.484   3.174
 6578SOL    HW120633   0.609   5.534   3.092
 6578SOL    HW220634   0.554   5.549   3.245
 6579SOL     OW20635   6.788   3.301   4.193
 6579SOL    HW120636   6.830   3.334   4.108
 6579SOL    HW220637   6.782   3.201   4.190
 6580SOL     OW20638   0.863   2.524   1.263
 6580SOL    HW120639   0.911   2.600   1.220
 6580SOL    HW220640   0.929   2.458   1.298
 6581SOL     OW20641   3.072   0.804   0.155
 6581SOL    HW120642   3.009   0.760   0.091
 6581SOL    HW220643   3.022   0.836   0.235
 6582SOL     OW20644   0.597   1.167   3.044
 6582SOL    HW120645   0.619   1.070   3.035
 6582SOL    HW220646   0.508   1.178   3.087
 6583SOL     OW20647   4.539   0.654   5.588
 6583SOL    HW120648   4.496   0.598   5.659
 6583SOL    HW220649   4.631   0.680   5.617
 6584SOL     OW20650   4.494   2.568   1.016
 6584SOL    HW120651   4.472   2.653   1.065
 6584SOL    HW220652   4.556   2.589   0.940
 6585SOL     OW20653   6.348   6.512   6.898
 6585SOL    HW120654   6.423   6.519   6.832
 6585SOL    HW220655   6.265   6.552   6.859
 6586SOL     OW20656   5.721   0.694   5.061
 6586SOL    HW120657   5.803   0.722   5.112
 6586SOL    HW220658   5.672   0.624   5.113
 6587SOL     OW20659   1.840   5.717   5.484
 6587SOL    HW120660   1.749   5.700   5.522
 6587SOL    HW220661   1.833   5.734   5.386
 6588SOL     OW20662   0.959   3.166   1.645
 6588SOL    HW120663   0.891   3.101   1.613
 6588SOL    HW220664   1.046   3.150   1.598
 6589SOL     OW20665   5.054   0.881   0.834
 6589SOL    HW120666   4.960   0.847   0.822
 6589SOL    HW220667   5.114   0.805   0.856
 6590SOL     OW20668   0.570   1.155   5.696
 6590SOL    HW120669   0.491   1.161   5.635
 6590SOL    HW220670   0.622   1.240   5.693
 6591SOL     OW20671   5.972   5.256   2.654
 6591SOL    HW120672   6.003   5.314   2.578
 6591SOL    HW220673   5.872   5.259   2.659
 6592SOL     OW20674   5.275   6.909   3.537
 6592SOL    HW120675   5.245   6.884   3.629
 6592SOL    HW220676   5.343   6.843   3.506
 6593SOL     OW20677   1.744   2.253   2.507
 6593SOL    HW120678   1.795   2.339   2.503
 6593SOL    HW220679   1.794   2.182   2.458
 6594SOL     OW20680   3.773   1.775   0.038
 6594SOL    HW120681   3.704   1.736   0.099
 6594SOL    HW220682   3.735   1.781   6.970
 6595SOL     OW20683   1.131   4.004   6.640
 6595SOL    HW120684   1.174   3.945   6.571
 6595SOL    HW220685   1.057   3.955   6.684
 6596SOL     OW20686   3.140   6.214   4.630
 6596SOL    HW120687   3.056   6.265   4.646
 6596SOL    HW220688   3.215   6.277   4.611
 6597SOL     OW20689   1.402   5.514   1.829
 6597SOL    HW120690   1.303   5.508   1.826
 6597SOL    HW220691   1.438   5.524   1.736
 6598SOL     OW20692   1.320   5.416   4.274
 6598SOL    HW120693   1.267   5.500   4.265
 6598SOL    HW220694   1.416   5.439   4.290
 6599SOL     OW20695   4.494   6.090   6.413
 6599SOL    HW120696   4.403   6.103   6.376
 6599SOL    HW220697   4.519   5.993   6.408
 6600SOL     OW20698   4.917   5.136   5.163
 6600SOL    HW120699   4.924   5.038   5.145
 6600SOL    HW220700   4.998   5.167   5.213
 6601SOL     OW20701   1.368   2.103   4.773
 6601SOL    HW120702   1.448   2.163   4.780
 6601SOL    HW220703   1.313   2.129   4.694
 6602SOL     OW20704   1.009   0.728   1.762
 6602SOL    HW120705   0.930   0.788   1.777
 6602SOL    HW220706   1.064   0.724   1.845
 6603SOL     OW20707   6.736   2.883   3.678
 6603SOL    HW120708   6.669   2.848   3.743
 6603SOL    HW220709   6.690   2.935   3.606
 6604SOL     OW20710   1.554   0.617   0.754
 6604SOL    HW120711   1.467   0.666   0.758
 6604SOL    HW220712   1.538   0.522   0.728
 6605SOL     OW20713   5.276   4.396   1.907
 6605SOL    HW120714   5.199   4.441   1.862
 6605SOL    HW220715   5.361   4.416   1.858
 6606SOL     OW20716   0.499   6.151   2.036
 6606SOL    HW120717   0.492   6.118   1.941
 6606SOL    HW220718   0.411   6.140   2.082
 6607SOL     OW20719   2.097   3.601   2.250
 6607SOL    HW120720   2.140   3.584   2.161
 6607SOL    HW220721   2.118   3.694   2.279
 6608SOL     OW20722   6.254   6.628   0.731
 6608SOL    HW120723   6.323   6.645   0.802
 6608SOL    HW220724   6.299   6.596   0.648
 6609SOL     OW20725   4.767   0.746   6.111
 6609SOL    HW120726   4.671   0.719   6.104
 6609SOL    HW220727   4.825   0.665   6.117
 6610SOL     OW20728   2.351   6.819   6.889
 6610SOL    HW120729   2.389   6.840   6.799
 6610SOL    HW220730   2.419   6.837   6.959
 6611SOL     OW20731   4.896   2.632   3.854
 6611SOL    HW120732   4.920   2.702   3.786
 6611SOL    HW220733   4.976   2.614   3.912
 6612SOL     OW20734   5.865   1.848   5.741
 6612SOL    HW120735   5.889   1.785   5.667
 6612SOL    HW220736   5.865   1.799   5.828
 6613SOL     OW20737   6.203   6.498   5.351
 6613SOL    HW120738   6.136   6.531   5.285
 6613SOL    HW220739   6.183   6.536   5.441
 6614SOL     OW20740   4.656   5.723   0.315
 6614SOL    HW120741   4.689   5.749   0.224
 6614SOL    HW220742   4.588   5.650   0.306
 6615SOL     OW20743   1.665   5.776   1.726
 6615SOL    HW120744   1.659   5.861   1.673
 6615SOL    HW220745   1.710   5.794   1.814
 6616SOL     OW20746   5.159   0.920   6.293
 6616SOL    HW120747   5.075   0.883   6.332
 6616SOL    HW220748   5.169   1.016   6.319
 6617SOL     OW20749   4.620   5.033   3.660
 6617SOL    HW120750   4.687   4.970   3.700
 6617SOL    HW220751   4.668   5.104   3.608
 6618SOL     OW20752   1.449   2.587   2.341
 6618SOL    HW120753   1.468   2.682   2.364
 6618SOL    HW220754   1.353   2.566   2.360
 6619SOL     OW20755   5.764   0.253   4.159
 6619SOL    HW120756   5.859   0.239   4.130
 6619SOL    HW220757   5.723   0.327   4.105
 6620SOL     OW20758   1.899   2.420   5.409
 6620SOL    HW120759   1.890   2.435   5.507
 6620SOL    HW220760   1.834   2.350   5.380
 6621SOL     OW20761   3.719   3.224   6.356
 6621SOL    HW120762   3.633   3.179   6.335
 6621SOL    HW220763   3.701   3.319   6.382
 6622SOL     OW20764   5.891   6.501   1.577
 6622SOL    HW120765   5.841   6.583   1.605
 6622SOL    HW220766   5.879   6.486   1.479
 6623SOL     OW20767   3.112   3.127   5.267
 6623SOL    HW120768   3.162   3.136   5.180
 6623SOL    HW220769   3.166   3.073   5.331
 6624SOL     OW20770   0.244   4.948   6.197
 6624SOL    HW120771   0.159   4.997   6.213
 6624SOL    HW220772   0.230   4.850   6.210
 6625SOL     OW20773   5.009   1.588   5.303
 6625SOL    HW120774   5.100   1.611   5.337
 6625SOL    HW220775   5.003   1.490   5.286
 6626SOL     OW20776   4.415   5.007   5.116
 6626SOL    HW120777   4.337   4.949   5.095
 6626SOL    HW220778   4.383   5.089   5.165
 6627SOL     OW20779   2.026   6.200   5.283
 6627SOL    HW120780   1.987   6.278   5.332
 6627SOL    HW220781   1.960   6.125   5.284
 6628SOL     OW20782   4.758   5.222   4.542
 6628SOL    HW120783   4.662   5.219   4.516
 6628SOL    HW220784   4.773   5.300   4.603
 6629SOL     OW20785   4.610   5.987   6.869
 6629SOL    HW120786   4.694   5.959   6.822
 6629SOL    HW220787   4.538   6.002   6.801
 6630SOL     OW20788   4.172   1.655   1.223
 6630SOL    HW120789   4.176   1.661   1.323
 6630SOL    HW220790   4.122   1.573   1.197
 6631SOL     OW20791   2.164   5.107   3.599
 6631SOL    HW120792   2.154   5.130   3.696
 6631SOL    HW220793   2.088   5.049   3.570
 6632SOL     OW20794   0.102   0.029   1.424
 6632SOL    HW120795   0.044   0.016   1.344
 6632SOL    HW220796   0.070   6.993   1.498
 6633SOL     OW20797   1.591   4.447   6.533
 6633SOL    HW120798   1.592   4.434   6.434
 6633SOL    HW220799   1.668   4.505   6.561
 6634SOL     OW20800   5.042   1.957   4.705
 6634SOL    HW120801   5.084   1.880   4.658
 6634SOL    HW220802   4.985   1.924   4.780
 6635SOL     OW20803   4.588   4.890   3.036
 6635SOL    HW120804   4.647   4.834   2.977
 6635SOL    HW220805   4.639   4.971   3.067
 6636SOL     OW20806   4.833   1.875   6.034
 6636SOL    HW120807   4.824   1.792   6.088
 6636SOL    HW220808   4.930   1.895   6.021
 6637SOL     OW20809   1.038   6.818   6.942
 6637SOL    HW120810   1.028   6.740   7.004
 6637SOL    HW220811   1.134   6.844   6.937
 6638SOL     OW20812   2.988   3.877   3.490
 6638SOL    HW120813   3.087   3.883   3.482
 6638SOL    HW220814   2.946   3.893   3.401
 6639SOL     OW20815   5.247   4.954   6.077
 6639SOL    HW120816   5.184   4.887   6.038
 6639SOL    HW220817   5.249   5.036   6.019
 6640SOL     OW20818   0.885   1.714   4.817
 6640SOL    HW120819   0.836   1.795   4.785
 6640SOL    HW220820   0.943   1.739   4.894
 6641SOL     OW20821   2.300   1.847   6.037
 6641SOL    HW120822   2.236   1.895   6.096
 6641SOL    HW220823   2.252   1.813   5.956
 6642SOL     OW20824   1.745   5.694   6.845
 6642SOL    HW120825   1.692   5.732   6.921
 6642SOL    HW220826   1.827   5.749   6.830
 6643SOL     OW20827   6.033   5.368   0.147
 6643SOL    HW120828   5.979   5.298   0.101
 6643SOL    HW220829   6.086   5.419   0.079
 6644SOL     OW20830   2.746   5.786   1.432
 6644SOL    HW120831   2.726   5.883   1.421
 6644SOL    HW220832   2.675   5.744   1.489
 6645SOL     OW20833   6.381   4.512   0.306
 6645SOL    HW120834   6.383   4.559   0.394
 6645SOL    HW220835   6.432   4.564   0.238
 6646SOL     OW20836   3.932   0.613   5.086
 6646SOL    HW120837   3.883   0.675   5.025
 6646SOL    HW220838   4.030   0.620   5.068
 6647SOL     OW20839   5.188   1.137   1.112
 6647SOL    HW120840   5.113   1.090   1.159
 6647SOL    HW220841   5.156   1.168   1.022
 6648SOL     OW20842   3.621   6.562   3.733
 6648SOL    HW120843   3.667   6.644   3.768
 6648SOL    HW220844   3.530   6.555   3.774
 6649SOL     OW20845   5.357   0.992   6.926
 6649SOL    HW120846   5.332   0.924   6.994
 6649SOL    HW220847   5.329   1.083   6.958
 6650SOL     OW20848   4.008   1.096   5.653
 6650SOL    HW120849   4.053   1.182   5.675
 6650SOL    HW220850   4.069   1.020   5.673
 6651SOL     OW20851   2.776   1.389   5.856
 6651SOL    HW120852   2.702   1.348   5.803
 6651SOL    HW220853   2.864   1.367   5.814
 6652SOL     OW20854   0.801   4.426   0.897
 6652SOL    HW120855   0.895   4.402   0.872
 6652SOL    HW220856   0.802   4.483   0.979
 6653SOL     OW20857   3.758   3.728   2.339
 6653SOL    HW120858   3.801   3.644   2.307
 6653SOL    HW220859   3.753   3.794   2.264
 6654SOL     OW20860   1.274   4.951   1.332
 6654SOL    HW120861   1.346   4.942   1.264
 6654SOL    HW220862   1.255   4.862   1.372
 6655SOL     OW20863   1.012   0.532   3.627
 6655SOL    HW120864   0.963   0.605   3.675
 6655SOL    HW220865   1.035   0.459   3.692
 6656SOL     OW20866   5.587   2.319   4.031
 6656SOL    HW120867   5.621   2.225   4.028
 6656SOL    HW220868   5.637   2.375   3.966
 6657SOL     OW20869   6.409   4.780   6.503
 6657SOL    HW120870   6.489   4.765   6.446
 6657SOL    HW220871   6.369   4.692   6.529
 6658SOL     OW20872   6.627   0.746   4.812
 6658SOL    HW120873   6.692   0.804   4.861
 6658SOL    HW220874   6.609   0.785   4.721
 6659SOL     OW20875   2.009   2.978   0.648
 6659SOL    HW120876   1.953   2.899   0.675
 6659SOL    HW220877   1.949   3.051   0.617
 6660SOL     OW20878   1.010   5.168   1.362
 6660SOL    HW120879   0.918   5.208   1.371
 6660SOL    HW220880   1.045   5.186   1.270
 6661SOL     OW20881   1.199   6.671   5.029
 6661SOL    HW120882   1.182   6.738   5.100
 6661SOL    HW220883   1.197   6.579   5.069
 6662SOL     OW20884   1.412   6.993   0.330
 6662SOL    HW120885   1.413   0.047   0.268
 6662SOL    HW220886   1.504   6.956   0.337
 6663SOL     OW20887   6.421   5.009   4.033
 6663SOL    HW120888   6.496   5.006   3.966
 6663SOL    HW220889   6.334   4.996   3.987
 6664SOL     OW20890   2.145   6.456   0.708
 6664SOL    HW120891   2.152   6.360   0.733
 6664SOL    HW220892   2.163   6.467   0.610
 6665SOL     OW20893   2.235   5.610   4.756
 6665SOL    HW120894   2.161   5.542   4.755
 6665SOL    HW220895   2.323   5.564   4.748
 6666SOL     OW20896   6.314   0.261   5.875
 6666SOL    HW120897   6.232   0.205   5.864
 6666SOL    HW220898   6.392   0.215   5.831
 6667SOL     OW20899   6.770   6.391   7.021
 6667SOL    HW120900   6.760   6.339   6.936
 6667SOL    HW220901   6.867   6.403   0.017
 6668SOL     OW20902   6.892   5.141   1.138
 6668SOL    HW120903   6.921   5.236   1.125
 6668SOL    HW220904   6.835   5.113   1.060
 6669SOL     OW20905   1.785   2.615   3.001
 6669SOL    HW120906   1.750   2.648   3.089
 6669SOL    HW220907   1.854   2.679   2.967
 6670SOL     OW20908   3.731   1.075   5.652
 6670SOL    HW120909   3.829   1.070   5.637
 6670SOL    HW220910   3.688   1.123   5.575
 6671SOL     OW20911   5.243   6.547   0.737
 6671SOL    HW120912   5.280   6.497   0.816
 6671SOL    HW220913   5.317   6.565   0.672
 6672SOL     OW20914   6.557   2.557   6.896
 6672SOL    HW120915   6.629   2.620   6.926
 6672SOL    HW220916   6.569   2.468   6.942
 6673SOL     OW20917   4.954   5.143   4.162
 6673SOL    HW120918   4.969   5.079   4.087
 6673SOL    HW220919   5.043   5.171   4.200
 6674SOL     OW20920   0.270   4.045   6.190
 6674SOL    HW120921   0.282   3.985   6.111
 6674SOL    HW220922   0.262   4.140   6.159
 6675SOL     OW20923   5.349   3.955   1.356
 6675SOL    HW120924   5.439   3.916   1.374
 6675SOL    HW220925   5.281   3.907   1.411
 6676SOL     OW20926   0.823   4.074   5.849
 6676SOL    HW120927   0.802   4.120   5.763
 6676SOL    HW220928   0.834   3.976   5.833
 6677SOL     OW20929   1.607   1.919   5.833
 6677SOL    HW120930   1.591   1.930   5.735
 6677SOL    HW220931   1.573   1.830   5.862
 6678SOL     OW20932   2.675   3.337   6.652
 6678SOL    HW120933   2.695   3.387   6.736
 6678SOL    HW220934   2.622   3.255   6.673
 6679SOL     OW20935   3.338   1.267   3.671
 6679SOL    HW120936   3.256   1.314   3.704
 6679SOL    HW220937   3.326   1.169   3.680
 6680SOL     OW20938   5.117   6.609   6.896
 6680SOL    HW120939   5.116   6.677   6.822
 6680SOL    HW220940   5.026   6.602   6.937
 6681SOL     OW20941   3.546   5.999   1.385
 6681SOL    HW120942   3.467   6.043   1.428
 6681SOL    HW220943   3.562   5.911   1.428
 6682SOL     OW20944   0.489   4.118   2.151
 6682SOL    HW120945   0.492   4.068   2.064
 6682SOL    HW220946   0.533   4.063   2.222
 6683SOL     OW20947   5.913   3.252   5.008
 6683SOL    HW120948   5.903   3.262   5.107
 6683SOL    HW220949   5.823   3.263   4.965
 6684SOL     OW20950   2.891   0.070   1.620
 6684SOL    HW120951   2.871   0.140   1.689
 6684SOL    HW220952   2.822   0.075   1.547
 6685SOL     OW20953   6.220   3.224   5.626
 6685SOL    HW120954   6.164   3.186   5.553
 6685SOL    HW220955   6.259   3.311   5.595
 6686SOL     OW20956   5.049   6.239   4.915
 6686SOL    HW120957   5.050   6.186   4.831
 6686SOL    HW220958   5.027   6.178   4.992
 6687SOL     OW20959   1.426   3.432   0.027
 6687SOL    HW120960   1.345   3.442   6.994
 6687SOL    HW220961   1.478   3.518   0.025
 6688SOL     OW20962   6.333   4.601   2.544
 6688SOL    HW120963   6.279   4.684   2.561
 6688SOL    HW220964   6.335   4.545   2.626
 6689SOL     OW20965   4.261   3.115   0.321
 6689SOL    HW120966   4.310   3.029   0.338
 6689SOL    HW220967   4.163   3.100   0.335
 6690SOL     OW20968   1.203   1.592   0.951
 6690SOL    HW120969   1.107   1.619   0.951
 6690SOL    HW220970   1.218   1.523   1.022
 6691SOL     OW20971   2.819   6.563   2.271
 6691SOL    HW120972   2.837   6.583   2.367
 6691SOL    HW220973   2.904   6.566   2.219
 6692SOL     OW20974   3.643   3.534   4.987
 6692SOL    HW120975   3.707   3.560   5.060
 6692SOL    HW220976   3.670   3.446   4.950
 6693SOL     OW20977   4.363   3.068   5.669
 6693SOL    HW120978   4.269   3.100   5.679
 6693SOL    HW220979   4.362   2.971   5.645
 6694SOL     OW20980   3.574   5.699   0.925
 6694SOL    HW120981   3.651   5.736   0.977
 6694SOL    HW220982   3.556   5.758   0.846
 6695SOL     OW20983   3.230   2.294   0.659
 6695SOL    HW120984   3.142   2.338   0.642
 6695SOL    HW220985   3.247   2.290   0.758
 6696SOL     OW20986   3.163   3.043   5.826
 6696SOL    HW120987   3.162   3.130   5.778
 6696SOL    HW220988   3.079   2.992   5.805
 6697SOL     OW20989   4.870   2.427   3.001
 6697SOL    HW120990   4.810   2.467   2.931
 6697SOL    HW220991   4.829   2.342   3.035
 6698SOL     OW20992   2.527   2.814   1.551
 6698SOL    HW120993   2.506   2.758   1.470
 6698SOL    HW220994   2.615   2.784   1.589
 6699SOL     OW20995   2.589   5.861   5.398
 6699SOL    HW120996   2.545   5.835   5.311
 6699SOL    HW220997   2.561   5.797   5.470
 6700SOL     OW20998   0.812   0.045   1.732
 6700SOL    HW120999   0.866   0.018   1.811
 6700SOL    HW221000   0.829   7.008   1.656
 6701SOL     OW21001   5.567   4.108   2.522
 6701SOL    HW121002   5.543   4.180   2.587
 6701SOL    HW221003   5.659   4.074   2.542
 6702SOL     OW21004   3.371   2.214   1.250
 6702SOL    HW121005   3.388   2.186   1.344
 6702SOL    HW221006   3.304   2.289   1.248
 6703SOL     OW21007   6.533   2.308   0.017
 6703SOL    HW121008   6.467   2.242   0.054
 6703SOL    HW221009   6.610   2.259   7.001
 6704SOL     OW21010   3.523   1.339   3.026
 6704SOL    HW121011   3.480   1.428   3.043
 6704SOL    HW221012   3.454   1.267   3.033
 6705SOL     OW21013   0.125   3.102   1.566
 6705SOL    HW121014   0.085   3.025   1.617
 6705SOL    HW221015   0.221   3.081   1.545
 6706SOL     OW21016   2.143   4.477   2.450
 6706SOL    HW121017   2.243   4.477   2.450
 6706SOL    HW221018   2.110   4.567   2.480
 6707SOL     OW21019   6.708   6.411   3.506
 6707SOL    HW121020   6.722   6.316   3.478
 6707SOL    HW221021   6.796   6.453   3.527
 6708SOL     OW21022   6.803   5.433   1.418
 6708SOL    HW121023   6.857   5.353   1.392
 6708SOL    HW221024   6.769   5.420   1.511
 6709SOL     OW21025   2.949   6.473   3.074
 6709SOL    HW121026   2.871   6.525   3.108
 6709SOL    HW221027   3.029   6.533   3.065
 6710SOL     OW21028   3.592   0.309   6.550
 6710SOL    HW121029   3.494   0.294   6.539
 6710SOL    HW221030   3.613   0.330   6.645
 6711SOL     OW21031   4.811   5.344   6.050
 6711SOL    HW121032   4.770   5.263   6.008
 6711SOL    HW221033   4.867   5.392   5.983
 6712SOL     OW21034   5.214   4.088   0.179
 6712SOL    HW121035   5.287   4.022   0.194
 6712SOL    HW221036   5.150   4.052   0.111
 6713SOL     OW21037   2.054   0.345   2.466
 6713SOL    HW121038   2.092   0.324   2.557
 6713SOL    HW221039   2.094   0.430   2.432
 6714SOL     OW21040   6.335   0.916   6.037
 6714SOL    HW121041   6.259   0.971   6.073
 6714SOL    HW221042   6.414   0.926   6.097
 6715SOL     OW21043   0.637   0.424   0.222
 6715SOL    HW121044   0.638   0.516   0.183
 6715SOL    HW221045   0.552   0.378   0.196
 6716SOL     OW21046   0.383   5.817   1.493
 6716SOL    HW121047   0.417   5.885   1.429
 6716SOL    HW221048   0.286   5.800   1.475
 6717SOL     OW21049   3.873   3.200   6.737
 6717SOL    HW121050   3.786   3.243   6.763
 6717SOL    HW221051   3.867   3.101   6.752
 6718SOL     OW21052   5.448   0.625   0.966
 6718SOL    HW121053   5.444   0.528   0.988
 6718SOL    HW221054   5.514   0.670   1.026
 6719SOL     OW21055   2.309   0.147   6.478
 6719SOL    HW121056   2.274   0.172   6.388
 6719SOL    HW221057   2.409   0.154   6.478
 6720SOL     OW21058   1.300   6.855   3.966
 6720SOL    HW121059   1.375   6.847   4.032
 6720SOL    HW221060   1.295   6.950   3.934
 6721SOL     OW21061   6.918   0.238   0.218
 6721SOL    HW121062   6.925   0.306   0.291
 6721SOL    HW221063   6.858   0.164   0.246
 6722SOL     OW21064   6.660   3.004   1.846
 6722SOL    HW121065   6.742   2.970   1.892
 6722SOL    HW221066   6.687   3.066   1.772
 6723SOL     OW21067   2.040   6.131   3.256
 6723SOL    HW121068   2.127   6.166   3.220
 6723SOL    HW221069   2.006   6.194   3.326
 6724SOL     OW21070   1.858   3.363   5.732
 6724SOL    HW121071   1.897   3.295   5.794
 6724SOL    HW221072   1.909   3.363   5.646
 6725SOL     OW21073   0.404   3.199   1.731
 6725SOL    HW121074   0.495   3.209   1.771
 6725SOL    HW221075   0.371   3.289   1.702
 6726SOL     OW21076   0.552   2.182   5.536
 6726SOL    HW121077   0.649   2.202   5.517
 6726SOL    HW221078   0.513   2.256   5.591
 6727SOL     OW21079   0.069   3.701   5.228
 6727SOL    HW121080   6.996   3.720   5.226
 6727SOL    HW221081   0.109   3.721   5.138
 6728SOL     OW21082   3.571   1.753   3.025
 6728SOL    HW121083   3.577   1.851   3.010
 6728SOL    HW221084   3.478   1.729   3.054
 6729SOL     OW21085   6.831   1.460   3.001
 6729SOL    HW121086   6.783   1.487   3.084
 6729SOL    HW221087   6.894   1.533   2.974
 6730SOL     OW21088   2.429   6.697   0.897
 6730SOL    HW121089   2.354   6.635   0.921
 6730SOL    HW221090   2.434   6.771   0.963
 6731SOL     OW21091   0.708   6.097   1.325
 6731SOL    HW121092   0.777   6.030   1.353
 6731SOL    HW221093   0.701   6.097   1.225
 6732SOL     OW21094   5.456   4.402   4.660
 6732SOL    HW121095   5.495   4.389   4.569
 6732SOL    HW221096   5.360   4.429   4.651
 6733SOL     OW21097   4.218   6.088   0.105
 6733SOL    HW121098   4.238   6.151   0.180
 6733SOL    HW221099   4.129   6.109   0.066
 6734SOL     OW21100   6.371   2.400   4.435
 6734SOL    HW121101   6.413   2.435   4.519
 6734SOL    HW221102   6.272   2.397   4.447
 6735SOL     OW21103   6.760   4.338   4.793
 6735SOL    HW121104   6.768   4.320   4.695
 6735SOL    HW221105   6.708   4.264   4.836
 6736SOL     OW21106   2.934   3.462   0.086
 6736SOL    HW121107   2.855   3.464   0.147
 6736SOL    HW221108   3.010   3.416   0.131
 6737SOL     OW21109   1.682   2.411   0.761
 6737SOL    HW121110   1.761   2.352   0.745
 6737SOL    HW221111   1.619   2.405   0.683
 6738SOL     OW21112   1.541   5.604   2.810
 6738SOL    HW121113   1.594   5.568   2.887
 6738SOL    HW221114   1.469   5.664   2.845
 6739SOL     OW21115   3.533   6.002   5.258
 6739SOL    HW121116   3.575   5.916   5.231
 6739SOL    HW221117   3.485   5.990   5.345
 6740SOL     OW21118   1.630   0.339   4.385
 6740SOL    HW121119   1.651   0.295   4.473
 6740SOL    HW221120   1.544   0.301   4.349
 6741SOL     OW21121   4.410   1.526   5.569
 6741SOL    HW121122   4.334   1.590   5.578
 6741SOL    HW221123   4.488   1.560   5.622
 6742SOL     OW21124   6.533   6.096   2.398
 6742SOL    HW121125   6.571   6.023   2.342
 6742SOL    HW221126   6.512   6.061   2.489
 6743SOL     OW21127   3.268   5.464   0.456
 6743SOL    HW121128   3.198   5.411   0.505
 6743SOL    HW221129   3.319   5.402   0.396
 6744SOL     OW21130   5.758   4.270   5.978
 6744SOL    HW121131   5.764   4.186   5.923
 6744SOL    HW221132   5.678   4.323   5.950
 6745SOL     OW21133   0.070   0.286   3.036
 6745SOL    HW121134   0.012   0.292   2.955
 6745SOL    HW221135   0.140   0.215   3.023
 6746SOL     OW21136   0.542   1.313   3.785
 6746SOL    HW121137   0.455   1.290   3.827
 6746SOL    HW221138   0.617   1.280   3.843
 6747SOL     OW21139   5.707   1.092   5.129
 6747SOL    HW121140   5.641   1.147   5.077
 6747SOL    HW221141   5.782   1.065   5.069
 6748SOL     OW21142   2.128   1.178   3.684
 6748SOL    HW121143   2.056   1.247   3.684
 6748SOL    HW221144   2.186   1.189   3.764
 6749SOL     OW21145   3.054   6.145   0.555
 6749SOL    HW121146   2.989   6.070   0.570
 6749SOL    HW221147   3.143   6.107   0.530
 6750SOL     OW21148   3.758   2.255   5.249
 6750SOL    HW121149   3.786   2.160   5.261
 6750SOL    HW221150   3.832   2.316   5.278
 6751SOL     OW21151   4.018   0.365   3.559
 6751SOL    HW121152   3.992   0.413   3.475
 6751SOL    HW221153   4.117   0.358   3.564
 6752SOL     OW21154   0.725   1.952   2.960
 6752SOL    HW121155   0.628   1.966   2.940
 6752SOL    HW221156   0.770   1.911   2.881
 6753SOL     OW21157   3.552   0.744   6.742
 6753SOL    HW121158   3.642   0.710   6.713
 6753SOL    HW221159   3.484   0.722   6.672
 6754SOL     OW21160   0.427   1.588   0.321
 6754SOL    HW121161   0.520   1.624   0.322
 6754SOL    HW221162   0.427   1.497   0.279
 6755SOL     OW21163   4.217   0.789   3.492
 6755SOL    HW121164   4.277   0.836   3.427
 6755SOL    HW221165   4.194   0.699   3.457
 6756SOL     OW21166   3.927   4.925   5.566
 6756SOL    HW121167   3.998   4.976   5.516
 6756SOL    HW221168   3.958   4.910   5.660
 6757SOL     OW21169   4.563   1.461   1.782
 6757SOL    HW121170   4.624   1.497   1.853
 6757SOL    HW221171   4.481   1.519   1.778
 6758SOL     OW21172   6.367   2.088   1.650
 6758SOL    HW121173   6.360   2.111   1.747
 6758SOL    HW221174   6.442   2.139   1.609
 6759SOL     OW21175   0.684   4.511   4.753
 6759SOL    HW121176   0.781   4.528   4.770
 6759SOL    HW221177   0.643   4.470   4.834
 6760SOL     OW21178   6.199   4.032   2.755
 6760SOL    HW121179   6.157   4.090   2.684
 6760SOL    HW221180   6.298   4.029   2.741
 6761SOL     OW21181   6.492   2.163   6.285
 6761SOL    HW121182   6.396   2.191   6.291
 6761SOL    HW221183   6.505   2.078   6.336
 6762SOL     OW21184   0.627   5.671   3.852
 6762SOL    HW121185   0.681   5.614   3.789
 6762SOL    HW221186   0.595   5.616   3.928
 6763SOL     OW21187   0.488   4.770   2.701
 6763SOL    HW121188   0.408   4.767   2.761
 6763SOL    HW221189   0.486   4.854   2.647
 6764SOL     OW21190   1.952   4.635   0.193
 6764SOL    HW121191   1.890   4.559   0.210
 6764SOL    HW221192   1.904   4.707   0.143
 6765SOL     OW21193   5.323   3.779   3.412
 6765SOL    HW121194   5.256   3.817   3.475
 6765SOL    HW221195   5.277   3.747   3.329
 6766SOL     OW21196   5.227   6.285   6.242
 6766SOL    HW121197   5.264   6.378   6.245
 6766SOL    HW221198   5.298   6.220   6.267
 6767SOL     OW21199   1.217   2.090   0.984
 6767SOL    HW121200   1.294   2.095   0.919
 6767SOL    HW221201   1.151   2.162   0.963
 6768SOL     OW21202   1.121   6.399   3.667
 6768SOL    HW121203   1.037   6.364   3.709
 6768SOL    HW221204   1.114   6.498   3.658
 6769SOL     OW21205   2.497   0.316   5.364
 6769SOL    HW121206   2.514   0.332   5.266
 6769SOL    HW221207   2.553   0.380   5.417
 6770SOL     OW21208   4.654   1.824   3.449
 6770SOL    HW121209   4.674   1.872   3.535
 6770SOL    HW221210   4.737   1.780   3.416
 6771SOL     OW21211   4.012   1.253   2.387
 6771SOL    HW121212   4.048   1.256   2.481
 6771SOL    HW221213   4.032   1.163   2.348
 6772SOL     OW21214   4.341   2.345   2.400
 6772SOL    HW121215   4.322   2.285   2.477
 6772SOL    HW221216   4.401   2.420   2.430
 6773SOL     OW21217   0.816   6.366   1.958
 6773SOL    HW121218   0.731   6.359   1.906
 6773SOL    HW221219   0.894   6.364   1.894
 6774SOL     OW21220   1.599   3.485   4.863
 6774SOL    HW121221   1.625   3.533   4.946
 6774SOL    HW221222   1.617   3.543   4.784
 6775SOL     OW21223   1.524   2.815   3.484
 6775SOL    HW121224   1.448   2.768   3.530
 6775SOL    HW221225   1.519   2.913   3.503
 6776SOL     OW21226   4.392   3.812   0.613
 6776SOL    HW121227   4.443   3.858   0.540
 6776SOL    HW221228   4.302   3.783   0.579
 6777SOL     OW21229   5.102   5.052   1.075
 6777SOL    HW121230   5.158   5.085   0.999
 6777SOL    HW221231   5.093   5.124   1.143
 6778SOL     OW21232   6.723   4.550   1.744
 6778SOL    HW121233   6.655   4.602   1.795
 6778SOL    HW221234   6.761   4.607   1.671
 6779SOL     OW21235   5.584   4.819   6.362
 6779SOL    HW121236   5.606   4.848   6.269
 6779SOL    HW221237   5.486   4.831   6.378
 6780SOL     OW21238   0.976   2.782   2.725
 6780SOL    HW121239   0.923   2.832   2.794
 6780SOL    HW221240   1.053   2.837   2.694
 6781SOL     OW21241   6.718   1.507   4.773
 6781SOL    HW121242   6.628   1.466   4.761
 6781SOL    HW221243   6.709   1.593   4.823
 6782SOL     OW21244   0.794   1.065   3.366
 6782SOL    HW121245   0.732   1.142   3.377
 6782SOL    HW221246   0.888   1.098   3.364
 6783SOL     OW21247   1.003   2.325   5.684
 6783SOL    HW121248   0.988   2.227   5.698
 6783SOL    HW221249   1.080   2.339   5.623
 6784SOL     OW21250   2.871   3.748   0.435
 6784SOL    HW121251   2.936   3.677   0.411
 6784SOL    HW221252   2.778   3.711   0.435
 6785SOL     OW21253   6.006   5.052   4.770
 6785SOL    HW121254   5.996   4.956   4.746
 6785SOL    HW221255   6.101   5.070   4.796
 6786SOL     OW21256   1.077   2.746   0.357
 6786SOL    HW121257   1.107   2.827   0.407
 6786SOL    HW221258   0.990   2.714   0.395
 6787SOL     OW21259   3.586   3.249   0.465
 6787SOL    HW121260   3.555   3.341   0.487
 6787SOL    HW221261   3.515   3.183   0.491
 6788SOL     OW21262   0.881   4.599   2.095
 6788SOL    HW121263   0.795   4.550   2.079
 6788SOL    HW221264   0.862   4.687   2.138
 6789SOL     OW21265   0.165   4.664   3.727
 6789SOL    HW121266   0.099   4.738   3.716
 6789SOL    HW221267   0.220   4.680   3.809
 6790SOL     OW21268   1.020   3.650   6.631
 6790SOL    HW121269   0.954   3.575   6.634
 6790SOL    HW221270   1.097   3.628   6.691
 6791SOL     OW21271   3.697   1.848   2.284
 6791SOL    HW121272   3.710   1.755   2.317
 6791SOL    HW221273   3.704   1.850   2.184
 6792SOL     OW21274   4.950   0.119   5.595
 6792SOL    HW121275   4.923   0.133   5.499
 6792SOL    HW221276   5.022   0.184   5.619
 6793SOL     OW21277   2.982   1.036   6.642
 6793SOL    HW121278   2.897   1.035   6.590
 6793SOL    HW221279   2.963   1.058   6.738
 6794SOL     OW21280   5.422   1.534   5.144
 6794SOL    HW121281   5.371   1.616   5.120
 6794SOL    HW221282   5.443   1.534   5.242
 6795SOL     OW21283   1.182   6.043   1.193
 6795SOL    HW121284   1.164   6.105   1.117
 6795SOL    HW221285   1.188   5.949   1.160
 6796SOL     OW21286   6.414   0.673   2.775
 6796SOL    HW121287   6.362   0.686   2.690
 6796SOL    HW221288   6.451   0.761   2.805
 6797SOL     OW21289   6.904   2.138   2.252
 6797SOL    HW121290   6.992   2.108   2.215
 6797SOL    HW221291   6.875   2.075   2.323
 6798SOL     OW21292   6.716   6.480   1.235
 6798SOL    HW121293   6.708   6.558   1.173
 6798SOL    HW221294   6.625   6.440   1.250
 6799SOL     OW21295   5.955   0.804   1.936
 6799SOL    HW121296   6.029   0.865   1.907
 6799SOL    HW221297   5.918   0.836   2.024
 6800SOL     OW21298   2.544   2.519   2.077
 6800SOL    HW121299   2.577   2.552   2.165
 6800SOL    HW221300   2.490   2.590   2.033
 6801SOL     OW21301   1.363   0.232   3.622
 6801SOL    HW121302   1.266   0.216   3.603
 6801SOL    HW221303   1.373   0.307   3.686
 6802SOL     OW21304   3.253   6.056   1.704
 6802SOL    HW121305   3.346   6.020   1.714
 6802SOL    HW221306   3.219   6.036   1.612
 6803SOL     OW21307   4.342   4.258   6.483
 6803SOL    HW121308   4.426   4.206   6.467
 6803SOL    HW221309   4.263   4.196   6.477
 6804SOL     OW21310   3.866   5.374   3.217
 6804SOL    HW121311   3.900   5.303   3.279
 6804SOL    HW221312   3.906   5.361   3.126
 6805SOL     OW21313   0.527   4.433   6.227
 6805SOL    HW121314   0.493   4.419   6.320
 6805SOL    HW221315   0.620   4.397   6.220
 6806SOL     OW21316   6.505   1.606   3.370
 6806SOL    HW121317   6.472   1.530   3.427
 6806SOL    HW221318   6.435   1.677   3.366
 6807SOL     OW21319   3.599   3.070   2.062
 6807SOL    HW121320   3.517   3.091   2.114
 6807SOL    HW221321   3.618   2.972   2.066
 6808SOL     OW21322   7.002   1.872   5.653
 6808SOL    HW121323   7.012   1.850   5.750
 6808SOL    HW221324   7.001   1.971   5.641
 6809SOL     OW21325   6.496   3.127   1.219
 6809SOL    HW121326   6.451   3.040   1.202
 6809SOL    HW221327   6.474   3.192   1.146
 6810SOL     OW21328   3.244   1.140   1.984
 6810SOL    HW121329   3.228   1.210   2.054
 6810SOL    HW221330   3.156   1.104   1.952
 6811SOL     OW21331   6.484   3.650   1.821
 6811SOL    HW121332   6.543   3.692   1.753
 6811SOL    HW221333   6.536   3.632   1.905
 6812SOL     OW21334   3.477   4.061   5.261
 6812SOL    HW121335   3.497   4.143   5.206
 6812SOL    HW221336   3.408   4.084   5.330
 6813SOL     OW21337   5.659   3.023   2.577
 6813SOL    HW121338   5.611   3.000   2.662
 6813SOL    HW221339   5.604   3.088   2.525
 6814SOL     OW21340   4.520   1.713   6.337
 6814SOL    HW121341   4.468   1.690   6.255
 6814SOL    HW221342   4.492   1.653   6.412
 6815SOL     OW21343   2.353   6.543   6.938
 6815SOL    HW121344   2.334   6.640   6.922
 6815SOL    HW221345   2.450   6.525   6.921
 6816SOL     OW21346   6.927   0.759   5.709
 6816SOL    HW121347   6.887   0.699   5.640
 6816SOL    HW221348   7.003   0.711   5.754
 6817SOL     OW21349   2.286   2.721   3.498
 6817SOL    HW121350   2.304   2.771   3.583
 6817SOL    HW221351   2.255   2.785   3.428
 6818SOL     OW21352   1.814   6.330   0.608
 6818SOL    HW121353   1.904   6.348   0.647
 6818SOL    HW221354   1.751   6.304   0.681
 6819SOL     OW21355   4.219   1.359   3.034
 6819SOL    HW121356   4.208   1.456   3.056
 6819SOL    HW221357   4.313   1.342   3.005
 6820SOL     OW21358   2.048   5.999   1.515
 6820SOL    HW121359   1.962   6.002   1.566
 6820SOL    HW221360   2.105   6.076   1.543
 6821SOL     OW21361   3.900   2.489   5.325
 6821SOL    HW121362   3.966   2.552   5.283
 6821SOL    HW221363   3.808   2.528   5.318
 6822SOL     OW21364   6.024   2.340   5.822
 6822SOL    HW121365   5.980   2.361   5.735
 6822SOL    HW221366   5.957   2.300   5.884
 6823SOL     OW21367   5.872   4.159   6.235
 6823SOL    HW121368   5.804   4.181   6.165
 6823SOL    HW221369   5.931   4.085   6.202
 6824SOL     OW21370   0.869   1.686   0.547
 6824SOL    HW121371   0.865   1.765   0.608
 6824SOL    HW221372   0.811   1.612   0.584
 6825SOL     OW21373   5.821   0.703   0.005
 6825SOL    HW121374   5.777   0.792   7.021
 6825SOL    HW221375   5.761   0.633   6.990
 6826SOL     OW21376   1.884   3.737   3.287
 6826SOL    HW121377   1.945   3.740   3.366
 6826SOL    HW221378   1.935   3.756   3.203
 6827SOL     OW21379   5.643   5.187   6.208
 6827SOL    HW121380   5.694   5.123   6.150
 6827SOL    HW221381   5.549   5.154   6.220
 6828SOL     OW21382   3.583   1.456   1.654
 6828SOL    HW121383   3.604   1.376   1.712
 6828SOL    HW221384   3.514   1.430   1.586
 6829SOL     OW21385   5.272   6.011   5.782
 6829SOL    HW121386   5.228   6.095   5.750
 6829SOL    HW221387   5.213   5.966   5.850
 6830SOL     OW21388   5.280   0.547   3.311
 6830SOL    HW121389   5.193   0.549   3.261
 6830SOL    HW221390   5.356   0.546   3.245
 6831SOL     OW21391   1.869   1.343   6.238
 6831SOL    HW121392   1.927   1.327   6.157
 6831SOL    HW221393   1.856   1.256   6.287
 6832SOL     OW21394   2.280   4.152   0.571
 6832SOL    HW121395   2.291   4.208   0.654
 6832SOL    HW221396   2.357   4.170   0.510
 6833SOL     OW21397   2.334   4.885   6.820
 6833SOL    HW121398   2.429   4.911   6.804
 6833SOL    HW221399   2.303   4.824   6.747
 6834SOL     OW21400   6.530   0.194   0.709
 6834SOL    HW121401   6.492   0.124   0.770
 6834SOL    HW221402   6.473   0.202   0.628
 6835SOL     OW21403   3.771   1.089   5.066
 6835SOL    HW121404   3.678   1.116   5.088
 6835SOL    HW221405   3.817   1.055   5.147
 6836SOL     OW21406   2.743   4.613   6.459
 6836SOL    HW121407   2.685   4.582   6.534
 6836SOL    HW221408   2.839   4.607   6.487
 6837SOL     OW21409   0.415   2.553   3.233
 6837SOL    HW121410   0.481   2.542   3.159
 6837SOL    HW221411   0.331   2.504   3.209
 6838SOL     OW21412   3.082   5.689   6.159
 6838SOL    HW121413   3.124   5.624   6.097
 6838SOL    HW221414   2.991   5.713   6.126
 6839SOL     OW21415   5.363   0.825   5.236
 6839SOL    HW121416   5.451   0.865   5.265
 6839SOL    HW221417   5.340   0.859   5.145
 6840SOL     OW21418   3.233   6.761   5.153
 6840SOL    HW121419   3.134   6.754   5.166
 6840SOL    HW221420   3.272   6.669   5.151
 6841SOL     OW21421   3.833   4.842   0.575
 6841SOL    HW121422   3.889   4.924   0.588
 6841SOL    HW221423   3.870   4.788   0.500
 6842SOL     OW21424   2.213   2.621   0.497
 6842SOL    HW121425   2.305   2.661   0.502
 6842SOL    HW221426   2.211   2.536   0.550
 6843SOL     OW21427   5.641   6.972   1.842
 6843SOL    HW121428   5.711   0.018   1.833
 6843SOL    HW221429   5.611   6.967   1.938
 6844SOL     OW21430   5.478   7.023   3.924
 6844SOL    HW121431   5.396   6.969   3.910
 6844SOL    HW221432   5.531   0.002   3.840
 6845SOL     OW21433   5.532   4.652   2.642
 6845SOL    HW121434   5.501   4.671   2.735
 6845SOL    HW221435   5.619   4.601   2.645
 6846SOL     OW21436   4.506   3.048   1.159
 6846SOL    HW121437   4.535   3.137   1.123
 6846SOL    HW221438   4.486   2.986   1.083
 6847SOL     OW21439   6.697   5.075   2.916
 6847SOL    HW121440   6.599   5.058   2.912
 6847SOL    HW221441   6.715   5.154   2.976
 6848SOL     OW21442   3.363   6.594   3.787
 6848SOL    HW121443   3.359   6.650   3.870
 6848SOL    HW221444   3.356   6.654   3.707
 6849SOL     OW21445   3.546   5.275   4.691
 6849SOL    HW121446   3.525   5.271   4.789
 6849SOL    HW221447   3.572   5.368   4.666
 6850SOL     OW21448   5.548   3.578   2.028
 6850SOL    HW121449   5.627   3.638   2.041
 6850SOL    HW221450   5.517   3.585   1.933
 6851SOL     OW21451   0.966   2.891   3.740
 6851SOL    HW121452   0.911   2.836   3.803
 6851SOL    HW221453   0.981   2.840   3.656
 6852SOL     OW21454   1.768   4.848   0.703
 6852SOL    HW121455   1.824   4.931   0.694
 6852SOL    HW221456   1.737   4.819   0.612
 6853SOL     OW21457   6.543   3.817   0.075
 6853SOL    HW121458   6.584   3.800   0.165
 6853SOL    HW221459   6.489   3.738   0.047
 6854SOL     OW21460   5.033   1.912   5.784
 6854SOL    HW121461   5.017   1.817   5.810
 6854SOL    HW221462   5.094   1.916   5.705
 6855SOL     OW21463   3.358   5.672   3.222
 6855SOL    HW121464   3.354   5.744   3.153
 6855SOL    HW221465   3.401   5.591   3.182
 6856SOL     OW21466   4.880   4.464   5.243
 6856SOL    HW121467   4.972   4.504   5.242
 6856SOL    HW221468   4.887   4.365   5.239
 6857SOL     OW21469   2.682   2.133   0.264
 6857SOL    HW121470   2.679   2.034   0.261
 6857SOL    HW221471   2.592   2.170   0.239
 6858SOL     OW21472   3.781   3.631   4.023
 6858SOL    HW121473   3.752   3.727   4.025
 6858SOL    HW221474   3.744   3.583   4.103
 6859SOL     OW21475   1.003   0.642   0.841
 6859SOL    HW121476   1.076   0.616   0.905
 6859SOL    HW221477   1.001   0.741   0.831
 6860SOL     OW21478   6.089   5.404   0.968
 6860SOL    HW121479   6.186   5.426   0.968
 6860SOL    HW221480   6.052   5.415   1.060
 6861SOL     OW21481   5.623   3.967   0.905
 6861SOL    HW121482   5.617   4.066   0.918
 6861SOL    HW221483   5.719   3.939   0.901
 6862SOL     OW21484   1.876   4.828   5.399
 6862SOL    HW121485   1.961   4.855   5.443
 6862SOL    HW221486   1.895   4.760   5.328
 6863SOL     OW21487   5.943   1.197   5.945
 6863SOL    HW121488   5.933   1.133   6.021
 6863SOL    HW221489   6.022   1.172   5.889
 6864SOL     OW21490   2.868   5.930   4.244
 6864SOL    HW121491   2.922   5.990   4.303
 6864SOL    HW221492   2.910   5.926   4.153
 6865SOL     OW21493   0.244   5.928   3.136
 6865SOL    HW121494   0.310   5.853   3.124
 6865SOL    HW221495   0.155   5.900   3.102
 6866SOL     OW21496   6.501   4.820   2.908
 6866SOL    HW121497   6.528   4.789   2.817
 6866SOL    HW221498   6.411   4.783   2.931
 6867SOL     OW21499   1.935   4.795   1.713
 6867SOL    HW121500   1.923   4.784   1.812
 6867SOL    HW221501   1.999   4.726   1.679
 6868SOL     OW21502   1.067   4.952   6.261
 6868SOL    HW121503   1.059   4.989   6.169
 6868SOL    HW221504   1.136   4.879   6.262
 6869SOL     OW21505   5.308   0.493   4.668
 6869SOL    HW121506   5.250   0.451   4.737
 6869SOL    HW221507   5.380   0.430   4.641
 6870SOL     OW21508   6.948   4.834   2.216
 6870SOL    HW121509   7.009   4.901   2.175
 6870SOL    HW221510   6.997   4.747   2.227
 6871SOL     OW21511   6.227   4.659   2.930
 6871SOL    HW121512   6.157   4.629   2.995
 6871SOL    HW221513   6.265   4.580   2.883
 6872SOL     OW21514   0.607   2.905   1.362
 6872SOL    HW121515   0.561   2.935   1.446
 6872SOL    HW221516   0.569   2.818   1.333
 6873SOL     OW21517   6.833   3.789   5.193
 6873SOL    HW121518   6.858   3.881   5.163
 6873SOL    HW221519   6.804   3.735   5.114
 6874SOL     OW21520   0.875   5.968   2.349
 6874SOL    HW121521   0.820   6.019   2.282
 6874SOL    HW221522   0.916   5.889   2.304
 6875SOL     OW21523   1.549   2.425   3.171
 6875SOL    HW121524   1.478   2.408   3.103
 6875SOL    HW221525   1.625   2.362   3.158
 6876SOL     OW21526   4.028   6.276   3.834
 6876SOL    HW121527   3.989   6.188   3.859
 6876SOL    HW221528   3.959   6.348   3.847
 6877SOL     OW21529   2.711   3.783   0.676
 6877SOL    HW121530   2.705   3.875   0.712
 6877SOL    HW221531   2.806   3.763   0.651
 6878SOL     OW21532   2.893   1.770   5.512
 6878SOL    HW121533   2.822   1.758   5.442
 6878SOL    HW221534   2.938   1.682   5.529
 6879SOL     OW21535   0.978   2.458   0.155
 6879SOL    HW121536   0.990   2.546   0.110
 6879SOL    HW221537   1.044   2.448   0.230
 6880SOL     OW21538   2.121   4.050   5.241
 6880SOL    HW121539   2.207   4.044   5.191
 6880SOL    HW221540   2.103   4.145   5.264
 6881SOL     OW21541   1.019   3.856   1.818
 6881SOL    HW121542   0.925   3.889   1.822
 6881SOL    HW221543   1.020   3.757   1.808
 6882SOL     OW21544   3.195   0.791   6.853
 6882SOL    HW121545   3.186   0.864   6.922
 6882SOL    HW221546   3.258   0.721   6.887
 6883SOL     OW21547   3.892   1.819   0.383
 6883SOL    HW121548   3.796   1.840   0.397
 6883SOL    HW221549   3.948   1.880   0.439
 6884SOL     OW21550   1.763   3.878   4.237
 6884SOL    HW121551   1.749   3.934   4.155
 6884SOL    HW221552   1.800   3.935   4.310
 6885SOL     OW21553   3.806   5.976   4.494
 6885SOL    HW121554   3.888   5.942   4.448
 6885SOL    HW221555   3.798   6.075   4.480
 6886SOL     OW21556   6.503   0.668   4.080
 6886SOL    HW121557   6.474   0.580   4.117
 6886SOL    HW221558   6.560   0.653   3.999
 6887SOL     OW21559   5.114   6.189   5.221
 6887SOL    HW121560   5.109   6.287   5.202
 6887SOL    HW221561   5.027   6.158   5.259
 6888SOL     OW21562   5.411   6.072   6.101
 6888SOL    HW121563   5.490   6.098   6.046
 6888SOL    HW221564   5.393   5.974   6.088
 6889SOL     OW21565   2.004   1.860   4.443
 6889SOL    HW121566   1.977   1.812   4.526
 6889SOL    HW221567   2.104   1.864   4.437
 6890SOL     OW21568   4.246   6.564   0.965
 6890SOL    HW121569   4.153   6.533   0.986
 6890SOL    HW221570   4.270   6.638   1.027
 6891SOL     OW21571   1.701   4.808   3.887
 6891SOL    HW121572   1.791   4.851   3.895
 6891SOL    HW221573   1.637   4.854   3.947
 6892SOL     OW21574   3.465   2.105   3.369
 6892SOL    HW121575   3.451   2.171   3.296
 6892SOL    HW221576   3.557   2.066   3.362
 6893SOL     OW21577   4.642   4.560   6.766
 6893SOL    HW121578   4.703   4.554   6.687
 6893SOL    HW221579   4.684   4.513   6.844
 6894SOL     OW21580   5.968   4.580   0.111
 6894SOL    HW121581   5.982   4.661   0.055
 6894SOL    HW221582   5.986   4.602   0.207
 6895SOL     OW21583   2.676   5.972   6.974
 6895SOL    HW121584   2.612   5.946   0.022
 6895SOL    HW221585   2.641   5.939   6.886
 6896SOL     OW21586   1.455   6.967   3.343
 6896SOL    HW121587   1.447   0.031   3.298
 6896SOL    HW221588   1.523   6.972   3.416
 6897SOL     OW21589   2.910   3.269   6.490
 6897SOL    HW121590   2.958   3.182   6.487
 6897SOL    HW221591   2.835   3.264   6.556
 6898SOL     OW21592   4.375   1.277   2.238
 6898SOL    HW121593   4.394   1.259   2.334
 6898SOL    HW221594   4.362   1.375   2.224
 6899SOL     OW21595   5.484   6.751   0.947
 6899SOL    HW121596   5.503   6.678   0.880
 6899SOL    HW221597   5.570   6.795   0.973
 6900SOL     OW21598   6.828   6.852   5.630
 6900SOL    HW121599   6.890   6.812   5.698
 6900SOL    HW221600   6.835   6.952   5.634
 6901SOL     OW21601   0.347   6.560   6.228
 6901SOL    HW121602   0.324   6.534   6.134
 6901SOL    HW221603   0.264   6.586   6.277
 6902SOL     OW21604   6.097   6.200   6.938
 6902SOL    HW121605   6.052   6.169   7.022
 6902SOL    HW221606   6.115   6.298   6.945
 6903SOL     OW21607   3.720   5.528   4.657
 6903SOL    HW121608   3.686   5.606   4.710
 6903SOL    HW221609   3.797   5.558   4.600
 6904SOL     OW21610   6.122   1.593   4.582
 6904SOL    HW121611   6.221   1.583   4.592
 6904SOL    HW221612   6.076   1.550   4.659
 6905SOL     OW21613   6.294   6.399   0.120
 6905SOL    HW121614   6.307   6.446   0.033
 6905SOL    HW221615   6.202   6.418   0.155
 6906SOL     OW21616   4.619   1.337   3.871
 6906SOL    HW121617   4.658   1.423   3.838
 6906SOL    HW221618   4.521   1.348   3.885
 6907SOL     OW21619   4.975   2.581   1.251
 6907SOL    HW121620   5.028   2.506   1.290
 6907SOL    HW221621   4.883   2.580   1.290
 6908SOL     OW21622   0.999   6.046   6.608
 6908SOL    HW121623   0.989   6.067   6.705
 6908SOL    HW221624   0.995   5.947   6.595
 6909SOL     OW21625   6.165   4.428   1.394
 6909SOL    HW121626   6.079   4.444   1.345
 6909SOL    HW221627   6.198   4.336   1.374
 6910SOL     OW21628   6.979   2.937   3.818
 6910SOL    HW121629   6.893   2.912   3.773
 6910SOL    HW221630   0.018   2.860   3.813
 6911SOL     OW21631   4.205   5.964   3.483
 6911SOL    HW121632   4.178   6.044   3.430
 6911SOL    HW221633   4.297   5.978   3.520
 6912SOL     OW21634   3.327   5.182   0.670
 6912SOL    HW121635   3.234   5.217   0.674
 6912SOL    HW221636   3.376   5.206   0.754
 6913SOL     OW21637   4.748   4.681   5.108
 6913SOL    HW121638   4.793   4.599   5.142
 6913SOL    HW221639   4.815   4.754   5.097
 6914SOL     OW21640   5.763   4.029   5.851
 6914SOL    HW121641   5.778   3.982   5.764
 6914SOL    HW221642   5.785   3.967   5.926
 6915SOL     OW21643   6.159   3.858   1.543
 6915SOL    HW121644   6.253   3.883   1.519
 6915SOL    HW221645   6.152   3.845   1.642
 6916SOL     OW21646   6.426   3.135   0.068
 6916SOL    HW121647   6.502   3.072   0.054
 6916SOL    HW221648   6.443   3.220   0.018
 6917SOL     OW21649   2.984   6.073   1.332
 6917SOL    HW121650   2.898   6.090   1.379
 6917SOL    HW221651   3.034   6.159   1.322
 6918SOL     OW21652   6.773   3.343   4.485
 6918SOL    HW121653   6.800   3.280   4.557
 6918SOL    HW221654   6.776   3.297   4.397
 6919SOL     OW21655   0.257   6.384   2.098
 6919SOL    HW121656   0.289   6.314   2.161
 6919SOL    HW221657   0.326   6.400   2.027
 6920SOL     OW21658   4.881   5.276   5.585
 6920SOL    HW121659   4.822   5.261   5.506
 6920SOL    HW221660   4.976   5.289   5.555
 6921SOL     OW21661   5.555   5.958   3.410
 6921SOL    HW121662   5.515   5.878   3.455
 6921SOL    HW221663   5.482   6.012   3.367
 6922SOL     OW21664   2.092   5.773   6.648
 6922SOL    HW121665   2.185   5.769   6.613
 6922SOL    HW221666   2.085   5.721   6.733
 6923SOL     OW21667   4.826   5.474   3.425
 6923SOL    HW121668   4.881   5.546   3.468
 6923SOL    HW221669   4.733   5.507   3.412
 6924SOL     OW21670   1.704   3.860   6.700
 6924SOL    HW121671   1.709   3.845   6.602
 6924SOL    HW221672   1.765   3.796   6.748
 6925SOL     OW21673   4.092   5.970   4.938
 6925SOL    HW121674   4.009   5.951   4.886
 6925SOL    HW221675   4.083   5.930   5.030
 6926SOL     OW21676   3.111   2.922   1.531
 6926SOL    HW121677   3.210   2.926   1.543
 6926SOL    HW221678   3.081   2.827   1.541
 6927SOL     OW21679   5.606   2.898   6.278
 6927SOL    HW121680   5.563   2.984   6.251
 6927SOL    HW221681   5.674   2.916   6.349
 6928SOL     OW21682   6.160   5.790   0.745
 6928SOL    HW121683   6.236   5.728   0.765
 6928SOL    HW221684   6.188   5.884   0.766
 6929SOL     OW21685   5.282   5.183   0.911
 6929SOL    HW121686   5.344   5.260   0.893
 6929SOL    HW221687   5.246   5.149   0.825
 6930SOL     OW21688   0.548   6.398   2.130
 6930SOL    HW121689   0.570   6.396   2.227
 6930SOL    HW221690   0.548   6.305   2.094
 6931SOL     OW21691   2.064   0.531   2.005
 6931SOL    HW121692   2.127   0.581   1.946
 6931SOL    HW221693   1.998   0.595   2.045
 6932SOL     OW21694   3.670   0.237   0.516
 6932SOL    HW121695   3.732   0.309   0.486
 6932SOL    HW221696   3.691   0.213   0.611
 6933SOL     OW21697   2.923   6.508   5.057
 6933SOL    HW121698   2.829   6.472   5.059
 6933SOL    HW221699   2.947   6.532   4.963
 6934SOL     OW21700   4.946   3.572   6.110
 6934SOL    HW121701   4.854   3.547   6.140
 6934SOL    HW221702   4.969   3.663   6.144
 6935SOL     OW21703   4.082   5.043   2.910
 6935SOL    HW121704   4.152   4.971   2.913
 6935SOL    HW221705   3.997   5.008   2.950
 6936SOL     OW21706   6.284   2.472   3.803
 6936SOL    HW121707   6.266   2.569   3.787
 6936SOL    HW221708   6.367   2.462   3.858
 6937SOL     OW21709   0.035   6.603   0.182
 6937SOL    HW121710   0.133   6.610   0.202
 6937SOL    HW221711   0.013   6.508   0.160
 6938SOL     OW21712   4.914   3.532   5.496
 6938SOL    HW121713   4.835   3.475   5.520
 6938SOL    HW221714   4.997   3.477   5.499
 6939SOL     OW21715   0.702   4.388   2.077
 6939SOL    HW121716   0.611   4.357   2.048
 6939SOL    HW221717   0.755   4.311   2.109
 6940SOL     OW21718   4.494   0.645   0.518
 6940SOL    HW121719   4.525   0.589   0.442
 6940SOL    HW221720   4.466   0.587   0.594
 6941SOL     OW21721   3.219   3.228   2.620
 6941SOL    HW121722   3.213   3.162   2.545
 6941SOL    HW221723   3.302   3.283   2.610
 6942SOL     OW21724   5.619   1.924   1.459
 6942SOL    HW121725   5.588   1.868   1.382
 6942SOL    HW221726   5.716   1.945   1.449
 6943SOL     OW21727   4.178   6.300   6.764
 6943SOL    HW121728   4.080   6.287   6.777
 6943SOL    HW221729   4.195   6.341   6.675
 6944SOL     OW21730   0.809   3.301   6.238
 6944SOL    HW121731   0.754   3.345   6.309
 6944SOL    HW221732   0.839   3.211   6.270
 6945SOL     OW21733   6.827   2.752   6.197
 6945SOL    HW121734   6.831   2.779   6.293
 6945SOL    HW221735   6.740   2.705   6.180
 6946SOL     OW21736   6.118   6.512   1.289
 6946SOL    HW121737   6.189   6.508   1.219
 6946SOL    HW221738   6.111   6.605   1.325
 6947SOL     OW21739   3.712   6.492   6.111
 6947SOL    HW121740   3.720   6.565   6.043
 6947SOL    HW221741   3.776   6.419   6.089
 6948SOL     OW21742   0.209   0.408   6.809
 6948SOL    HW121743   0.265   0.445   6.883
 6948SOL    HW221744   0.228   0.311   6.798
 6949SOL     OW21745   5.308   6.512   3.669
 6949SOL    HW121746   5.347   6.575   3.603
 6949SOL    HW221747   5.358   6.425   3.666
 6950SOL     OW21748   2.663   1.437   4.690
 6950SOL    HW121749   2.629   1.441   4.784
 6950SOL    HW221750   2.588   1.413   4.629
 6951SOL     OW21751   6.600   6.035   5.565
 6951SOL    HW121752   6.634   6.033   5.659
 6951SOL    HW221753   6.668   5.994   5.504
 6952SOL     OW21754   0.366   5.738   3.698
 6952SOL    HW121755   0.449   5.753   3.644
 6952SOL    HW221756   0.389   5.742   3.796
 6953SOL     OW21757   4.836   6.519   0.335
 6953SOL    HW121758   4.904   6.493   0.267
 6953SOL    HW221759   4.878   6.515   0.426
 6954SOL     OW21760   0.317   3.529   3.876
 6954SOL    HW121761   0.404   3.573   3.854
 6954SOL    HW221762   0.265   3.587   3.939
 6955SOL     OW21763   6.398   0.861   1.847
 6955SOL    HW121764   6.367   0.799   1.919
 6955SOL    HW221765   6.490   0.894   1.870
 6956SOL     OW21766   4.626   6.683   3.577
 6956SOL    HW121767   4.656   6.655   3.668
 6956SOL    HW221768   4.526   6.683   3.574
 6957SOL     OW21769   6.054   5.167   0.822
 6957SOL    HW121770   6.073   5.166   0.724
 6957SOL    HW221771   6.069   5.259   0.858
 6958SOL     OW21772   2.926   3.638   4.578
 6958SOL    HW121773   2.908   3.603   4.670
 6958SOL    HW221774   2.931   3.738   4.582
 6959SOL     OW21775   2.026   1.445   4.535
 6959SOL    HW121776   2.048   1.348   4.528
 6959SOL    HW221777   2.104   1.494   4.572
 6960SOL     OW21778   2.066   5.595   1.661
 6960SOL    HW121779   2.119   5.667   1.706
 6960SOL    HW221780   2.086   5.507   1.704
 6961SOL     OW21781   5.796   1.995   4.297
 6961SOL    HW121782   5.735   1.916   4.297
 6961SOL    HW221783   5.851   1.995   4.380
 6962SOL     OW21784   5.471   6.015   2.025
 6962SOL    HW121785   5.468   6.051   2.118
 6962SOL    HW221786   5.500   6.087   1.962
 6963SOL     OW21787   6.125   5.723   1.632
 6963SOL    HW121788   6.139   5.804   1.690
 6963SOL    HW221789   6.174   5.645   1.672
 6964SOL     OW21790   3.740   0.199   4.964
 6964SOL    HW121791   3.736   0.284   5.016
 6964SOL    HW221792   3.680   0.131   5.006
 6965SOL     OW21793   0.641   3.601   0.620
 6965SOL    HW121794   0.661   3.504   0.610
 6965SOL    HW221795   0.609   3.638   0.533
 6966SOL     OW21796   0.077   2.565   3.478
 6966SOL    HW121797   0.027   2.647   3.448
 6966SOL    HW221798   0.172   2.589   3.495
 6967SOL     OW21799   1.640   6.827   4.985
 6967SOL    HW121800   1.671   6.733   5.003
 6967SOL    HW221801   1.590   6.829   4.899
 6968SOL     OW21802   4.430   6.197   2.645
 6968SOL    HW121803   4.466   6.243   2.564
 6968SOL    HW221804   4.334   6.173   2.630
 6969SOL     OW21805   2.566   2.605   1.366
 6969SOL    HW121806   2.586   2.545   1.443
 6969SOL    HW221807   2.631   2.587   1.292
 6970SOL     OW21808   3.316   4.416   6.252
 6970SOL    HW121809   3.412   4.417   6.281
 6970SOL    HW221810   3.263   4.357   6.314
 6971SOL     OW21811   6.135   4.353   1.716
 6971SOL    HW121812   6.085   4.331   1.633
 6971SOL    HW221813   6.226   4.388   1.691
 6972SOL     OW21814   5.353   4.489   3.208
 6972SOL    HW121815   5.324   4.401   3.171
 6972SOL    HW221816   5.299   4.510   3.290
 6973SOL     OW21817   0.208   3.583   4.947
 6973SOL    HW121818   0.198   3.584   4.847
 6973SOL    HW221819   0.137   3.525   4.987
 6974SOL     OW21820   3.235   3.652   2.599
 6974SOL    HW121821   3.319   3.645   2.653
 6974SOL    HW221822   3.214   3.563   2.558
 6975SOL     OW21823   1.891   6.525   6.482
 6975SOL    HW121824   1.944   6.597   6.527
 6975SOL    HW221825   1.835   6.564   6.410
 6976SOL     OW21826   4.292   6.138   4.995
 6976SOL    HW121827   4.336   6.125   5.084
 6976SOL    HW221828   4.216   6.074   4.985
 6977SOL     OW21829   4.395   2.600   1.406
 6977SOL    HW121830   4.415   2.639   1.496
 6977SOL    HW221831   4.397   2.500   1.412
 6978SOL     OW21832   3.967   1.388   2.740
 6978SOL    HW121833   3.971   1.487   2.734
 6978SOL    HW221834   3.890   1.360   2.797
 6979SOL     OW21835   1.450   4.602   1.249
 6979SOL    HW121836   1.519   4.538   1.285
 6979SOL    HW221837   1.431   4.580   1.154
 6980SOL     OW21838   1.344   1.240   3.880
 6980SOL    HW121839   1.439   1.235   3.910
 6980SOL    HW221840   1.340   1.224   3.781
 6981SOL     OW21841   3.847   2.493   5.913
 6981SOL    HW121842   3.912   2.531   5.848
 6981SOL    HW221843   3.767   2.553   5.920
 6982SOL     OW21844   1.574   0.675   4.682
 6982SOL    HW121845   1.562   0.715   4.591
 6982SOL    HW221846   1.510   0.598   4.692
 6983SOL     OW21847   4.132   2.236   3.876
 6983SOL    HW121848   4.082   2.303   3.931
 6983SOL    HW221849   4.189   2.284   3.808
 6984SOL     OW21850   2.330   1.776   3.664
 6984SOL    HW121851   2.411   1.731   3.625
 6984SOL    HW221852   2.357   1.827   3.746
 6985SOL     OW21853   4.397   5.023   1.384
 6985SOL    HW121854   4.485   5.067   1.400
 6985SOL    HW221855   4.339   5.082   1.327
 6986SOL     OW21856   1.696   6.850   6.736
 6986SOL    HW121857   1.694   6.872   6.639
 6986SOL    HW221858   1.619   6.790   6.758
 6987SOL     OW21859   0.130   1.379   6.032
 6987SOL    HW121860   0.187   1.311   6.078
 6987SOL    HW221861   0.085   1.436   6.101
 6988SOL     OW21862   0.494   0.423   5.537
 6988SOL    HW121863   0.432   0.498   5.558
 6988SOL    HW221864   0.513   0.370   5.620
 6989SOL     OW21865   0.632   4.282   2.630
 6989SOL    HW121866   0.595   4.374   2.619
 6989SOL    HW221867   0.677   4.254   2.545
 6990SOL     OW21868   4.899   2.725   1.014
 6990SOL    HW121869   4.922   2.644   1.069
 6990SOL    HW221870   4.897   2.805   1.074
 6991SOL     OW21871   3.295   5.021   3.851
 6991SOL    HW121872   3.223   5.088   3.831
 6991SOL    HW221873   3.368   5.030   3.784
 6992SOL     OW21874   5.333   5.799   6.044
 6992SOL    HW121875   5.364   5.716   5.997
 6992SOL    HW221876   5.249   5.833   6.001
 6993SOL     OW21877   6.142   0.797   3.251
 6993SOL    HW121878   6.205   0.822   3.177
 6993SOL    HW221879   6.056   0.765   3.212
 6994SOL     OW21880   0.124   2.339   4.389
 6994SOL    HW121881   0.065   2.375   4.462
 6994SOL    HW221882   0.133   2.407   4.317
 6995SOL     OW21883   6.689   4.684   5.752
 6995SOL    HW121884   6.593   4.711   5.751
 6995SOL    HW221885   6.733   4.722   5.833
 6996SOL     OW21886   1.390   0.152   6.710
 6996SOL    HW121887   1.425   0.238   6.745
 6996SOL    HW221888   1.454   0.114   6.643
 6997SOL     OW21889   6.377   6.073   4.917
 6997SOL    HW121890   6.328   5.988   4.896
 6997SOL    HW221891   6.315   6.151   4.905
 6998SOL     OW21892   1.362   1.336   1.441
 6998SOL    HW121893   1.431   1.405   1.420
 6998SOL    HW221894   1.383   1.294   1.530
 6999SOL     OW21895   2.407   2.730   5.874
 6999SOL    HW121896   2.412   2.647   5.818
 6999SOL    HW221897   2.357   2.710   5.958
 7000SOL     OW21898   5.918   6.086   1.474
 7000SOL    HW121899   5.895   6.135   1.390
 7000SOL    HW221900   5.856   6.115   1.547
 7001SOL     OW21901   1.865   2.753   5.333
 7001SOL    HW121902   1.882   2.852   5.338
 7001SOL    HW221903   1.933   2.711   5.274
 7002SOL     OW21904   2.099   5.423   3.625
 7002SOL    HW121905   2.083   5.517   3.597
 7002SOL    HW221906   2.097   5.362   3.546
 7003SOL     OW21907   3.810   5.174   0.190
 7003SOL    HW121908   3.824   5.109   0.115
 7003SOL    HW221909   3.778   5.125   0.271
 7004SOL     OW21910   1.257   4.772   2.115
 7004SOL    HW121911   1.330   4.840   2.127
 7004SOL    HW221912   1.215   4.784   2.025
 7005SOL     OW21913   1.529   0.222   0.579
 7005SOL    HW121914   1.436   0.187   0.589
 7005SOL    HW221915   1.588   0.149   0.544
 7006SOL     OW21916   4.558   4.883   4.036
 7006SOL    HW121917   4.476   4.846   4.080
 7006SOL    HW221918   4.538   4.974   3.998
 7007SOL     OW21919   5.103   0.123   3.534
 7007SOL    HW121920   5.009   0.091   3.530
 7007SOL    HW221921   5.166   0.045   3.529
 7008SOL     OW21922   0.675   4.129   4.698
 7008SOL    HW121923   0.660   4.032   4.714
 7008SOL    HW221924   0.739   4.166   4.765
 7009SOL     OW21925   5.790   6.247   1.650
 7009SOL    HW121926   5.866   6.311   1.641
 7009SOL    HW221927   5.815   6.176   1.716
 7010SOL     OW21928   5.260   4.780   4.368
 7010SOL    HW121929   5.187   4.720   4.402
 7010SOL    HW221930   5.288   4.843   4.441
 7011SOL     OW21931   3.651   0.026   6.518
 7011SOL    HW121932   3.623   0.111   6.473
 7011SOL    HW221933   3.585   0.001   6.588
 7012SOL     OW21934   1.786   2.251   1.799
 7012SOL    HW121935   1.748   2.193   1.872
 7012SOL    HW221936   1.879   2.220   1.778
 7013SOL     OW21937   0.679   0.217   0.849
 7013SOL    HW121938   0.731   0.148   0.900
 7013SOL    HW221939   0.584   0.187   0.839
 7014SOL     OW21940   4.503   3.277   1.352
 7014SOL    HW121941   4.408   3.248   1.344
 7014SOL    HW221942   4.549   3.269   1.264
 7015SOL     OW21943   5.962   4.501   2.416
 7015SOL    HW121944   5.985   4.596   2.436
 7015SOL    HW221945   5.876   4.477   2.462
 7016SOL     OW21946   3.527   4.774   1.428
 7016SOL    HW121947   3.600   4.810   1.370
 7016SOL    HW221948   3.492   4.846   1.487
 7017SOL     OW21949   2.607   5.604   2.789
 7017SOL    HW121950   2.591   5.511   2.822
 7017SOL    HW221951   2.705   5.616   2.773
 7018SOL     OW21952   5.832   3.690   4.185
 7018SOL    HW121953   5.906   3.721   4.126
 7018SOL    HW221954   5.804   3.765   4.245
 7019SOL     OW21955   2.967   4.071   0.063
 7019SOL    HW121956   2.980   4.120   0.149
 7019SOL    HW221957   2.927   3.981   0.081
 7020SOL     OW21958   6.158   5.998   6.514
 7020SOL    HW121959   6.091   5.943   6.464
 7020SOL    HW221960   6.123   6.091   6.524
 7021SOL     OW21961   1.622   1.311   6.096
 7021SOL    HW121962   1.696   1.315   6.162
 7021SOL    HW221963   1.562   1.234   6.117
 7022SOL     OW21964   4.824   6.452   6.592
 7022SOL    HW121965   4.813   6.400   6.507
 7022SOL    HW221966   4.791   6.545   6.578
 7023SOL     OW21967   0.691   1.376   4.155
 7023SOL    HW121968   0.639   1.462   4.158
 7023SOL    HW221969   0.744   1.372   4.071
 7024SOL     OW21970   2.407   3.808   5.334
 7024SOL    HW121971   2.404   3.868   5.255
 7024SOL    HW221972   2.500   3.772   5.345
 7025SOL     OW21973   2.369   1.339   0.087
 7025SOL    HW121974   2.468   1.344   0.106
 7025SOL    HW221975   2.346   1.248   0.053
 7026SOL     OW21976   3.435   2.074   1.868
 7026SOL    HW121977   3.511   2.132   1.899
 7026SOL    HW221978   3.472   1.987   1.834
 7027SOL     OW21979   2.531   4.962   4.375
 7027SOL    HW121980   2.535   4.940   4.278
 7027SOL    HW221981   2.583   4.895   4.427
 7028SOL     OW21982   4.107   0.672   4.364
 7028SOL    HW121983   4.111   0.729   4.282
 7028SOL    HW221984   4.100   0.730   4.445
 7029SOL     OW21985   5.236   4.660   4.980
 7029SOL    HW121986   5.195   4.654   5.071
 7029SOL    HW221987   5.295   4.580   4.965
 7030SOL     OW21988   1.433   1.310   5.452
 7030SOL    HW121989   1.433   1.303   5.353
 7030SOL    HW221990   1.495   1.241   5.490
 7031SOL     OW21991   2.662   6.194   5.194
 7031SOL    HW121992   2.676   6.102   5.158
 7031SOL    HW221993   2.721   6.209   5.273
 7032SOL     OW21994   3.651   0.858   3.286
 7032SOL    HW121995   3.701   0.941   3.262
 7032SOL    HW221996   3.699   0.809   3.359
 7033SOL     OW21997   1.730   2.617   3.630
 7033SOL    HW121998   1.684   2.696   3.587
 7033SOL    HW221999   1.695   2.533   3.589
 7034SOL     OW22000   5.943   0.428   3.616
 7034SOL    HW122001   5.849   0.399   3.630
 7034SOL    HW222002   5.957   0.451   3.520
 7035SOL     OW22003   1.743   6.841   1.543
 7035SOL    HW122004   1.726   6.762   1.484
 7035SOL    HW222005   1.838   6.840   1.575
 7036SOL     OW22006   0.592   1.058   2.515
 7036SOL    HW122007   0.675   1.037   2.566
 7036SOL    HW222008   0.589   1.001   2.432
 7037SOL     OW22009   1.958   1.261   6.530
 7037SOL    HW122010   2.000   1.261   6.621
 7037SOL    HW222011   2.014   1.317   6.468
 7038SOL     OW22012   2.229   3.288   5.120
 7038SOL    HW122013   2.230   3.188   5.128
 7038SOL    HW222014   2.184   3.314   5.035
 7039SOL     OW22015   3.028   4.853   1.427
 7039SOL    HW122016   3.034   4.866   1.328
 7039SOL    HW222017   2.994   4.761   1.446
 7040SOL     OW22018   6.430   1.881   4.795
 7040SOL    HW122019   6.420   1.946   4.721
 7040SOL    HW222020   6.359   1.897   4.864
 7041SOL     OW22021   6.861   1.665   2.256
 7041SOL    HW122022   6.796   1.637   2.185
 7041SOL    HW222023   6.953   1.638   2.229
 7042SOL     OW22024   4.972   4.874   5.065
 7042SOL    HW122025   5.000   4.922   4.982
 7042SOL    HW222026   5.044   4.810   5.092
 7043SOL     OW22027   1.899   3.778   2.539
 7043SOL    HW122028   1.967   3.797   2.468
 7043SOL    HW222029   1.857   3.689   2.522
 7044SOL     OW22030   4.138   4.801   3.892
 7044SOL    HW122031   4.138   4.817   3.793
 7044SOL    HW222032   4.047   4.819   3.928
 7045SOL     OW22033   5.357   5.459   3.193
 7045SOL    HW122034   5.455   5.444   3.210
 7045SOL    HW222035   5.331   5.415   3.107
 7046SOL     OW22036   3.376   0.982   2.880
 7046SOL    HW122037   3.329   1.063   2.914
 7046SOL    HW222038   3.430   1.007   2.799
 7047SOL     OW22039   0.155   2.110   2.473
 7047SOL    HW122040   0.148   2.028   2.416
 7047SOL    HW222041   0.180   2.189   2.416
 7048SOL     OW22042   5.558   6.042   2.749
 7048SOL    HW122043   5.579   6.088   2.835
 7048SOL    HW222044   5.643   6.015   2.704
 7049SOL     OW22045   3.793   1.551   1.095
 7049SOL    HW122046   3.802   1.578   1.191
 7049SOL    HW222047   3.731   1.613   1.048
 7050SOL     OW22048   4.068   3.367   1.689
 7050SOL    HW122049   4.056   3.438   1.620
 7050SOL    HW222050   4.033   3.399   1.777
 7051SOL     OW22051   6.913   0.125   1.877
 7051SOL    HW122052   6.891   0.039   1.832
 7051SOL    HW222053   6.976   0.107   1.953
 7052SOL     OW22054   5.703   2.578   3.320
 7052SOL    HW122055   5.613   2.591   3.279
 7052SOL    HW222056   5.698   2.507   3.390
 7053SOL     OW22057   0.753   3.375   5.111
 7053SOL    HW122058   0.768   3.331   5.200
 7053SOL    HW222059   0.789   3.468   5.115
 7054SOL     OW22060   0.829   6.726   0.413
 7054SOL    HW122061   0.743   6.774   0.397
 7054SOL    HW222062   0.900   6.765   0.355
 7055SOL     OW22063   2.847   6.935   5.479
 7055SOL    HW122064   2.796   6.949   5.564
 7055SOL    HW222065   2.792   6.967   5.401
 7056SOL     OW22066   6.678   5.074   1.829
 7056SOL    HW122067   6.602   5.113   1.882
 7056SOL    HW222068   6.644   5.044   1.740
 7057SOL     OW22069   1.879   5.696   3.981
 7057SOL    HW122070   1.934   5.614   3.966
 7057SOL    HW222071   1.830   5.719   3.897
 7058SOL     OW22072   6.206   4.833   5.938
 7058SOL    HW122073   6.220   4.793   6.028
 7058SOL    HW222074   6.142   4.776   5.886
 7059SOL     OW22075   0.076   0.995   4.068
 7059SOL    HW122076   0.149   0.999   4.137
 7059SOL    HW222077   7.012   1.004   4.113
 7060SOL     OW22078   4.321   0.256   1.680
 7060SOL    HW122079   4.255   0.185   1.658
 7060SOL    HW222080   4.296   0.298   1.768
 7061SOL     OW22081   0.613   2.943   3.346
 7061SOL    HW122082   0.521   2.953   3.382
 7061SOL    HW222083   0.674   3.009   3.391
 7062SOL     OW22084   4.465   1.291   5.222
 7062SOL    HW122085   4.476   1.197   5.252
 7062SOL    HW222086   4.548   1.343   5.244
 7063SOL     OW22087   1.387   0.314   1.599
 7063SOL    HW122088   1.462   0.257   1.631
 7063SOL    HW222089   1.331   0.262   1.534
 7064SOL     OW22090   3.910   2.265   1.184
 7064SOL    HW122091   3.880   2.183   1.233
 7064SOL    HW222092   3.887   2.255   1.087
 7065SOL     OW22093   4.034   3.968   5.703
 7065SOL    HW122094   4.086   3.902   5.756
 7065SOL    HW222095   3.963   4.009   5.760
 7066SOL     OW22096   4.821   0.616   0.499
 7066SOL    HW122097   4.745   0.573   0.451
 7066SOL    HW222098   4.875   0.546   0.546
 7067SOL     OW22099   2.149   2.666   4.720
 7067SOL    HW122100   2.188   2.593   4.776
 7067SOL    HW222101   2.063   2.634   4.679
 7068SOL     OW22102   6.927   4.584   4.232
 7068SOL    HW122103   6.992   4.660   4.238
 7068SOL    HW222104   6.885   4.569   4.321
 7069SOL     OW22105   5.274   1.216   4.889
 7069SOL    HW122106   5.351   1.279   4.898
 7069SOL    HW222107   5.268   1.184   4.795
 7070SOL     OW22108   6.797   6.235   4.677
 7070SOL    HW122109   6.872   6.253   4.614
 7070SOL    HW222110   6.750   6.321   4.699
 7071SOL     OW22111   2.670   5.670   6.314
 7071SOL    HW122112   2.666   5.588   6.256
 7071SOL    HW222113   2.584   5.679   6.363
 7072SOL     OW22114   1.602   5.897   0.264
 7072SOL    HW122115   1.587   5.993   0.289
 7072SOL    HW222116   1.522   5.844   0.290
 7073SOL     OW22117   4.403   6.541   4.817
 7073SOL    HW122118   4.339   6.482   4.867
 7073SOL    HW222119   4.395   6.635   4.852
 7074SOL     OW22120   4.551   2.549   2.294
 7074SOL    HW122121   4.461   2.588   2.275
 7074SOL    HW222122   4.621   2.618   2.275
 7075SOL     OW22123   1.674   4.005   5.224
 7075SOL    HW122124   1.708   3.943   5.295
 7075SOL    HW222125   1.621   4.079   5.267
 7076SOL     OW22126   6.049   1.995   6.135
 7076SOL    HW122127   5.959   2.008   6.093
 7076SOL    HW222128   6.049   1.910   6.188
 7077SOL     OW22129   2.334   4.796   4.020
 7077SOL    HW122130   2.380   4.712   4.048
 7077SOL    HW222131   2.400   4.871   4.017
 7078SOL     OW22132   0.241   6.757   1.756
 7078SOL    HW122133   0.294   6.672   1.763
 7078SOL    HW222134   0.152   6.737   1.716
 7079SOL     OW22135   6.809   6.087   3.824
 7079SOL    HW122136   6.722   6.118   3.864
 7079SOL    HW222137   6.885   6.117   3.881
 7080SOL     OW22138   3.472   1.176   4.805
 7080SOL    HW122139   3.550   1.231   4.835
 7080SOL    HW222140   3.500   1.120   4.727
 7081SOL     OW22141   3.035   6.861   6.724
 7081SOL    HW122142   3.082   6.773   6.723
 7081SOL    HW222143   3.082   6.922   6.789
 7082SOL     OW22144   6.839   3.657   6.769
 7082SOL    HW122145   6.813   3.739   6.820
 7082SOL    HW222146   6.932   3.667   6.734
 7083SOL     OW22147   2.707   0.097   0.559
 7083SOL    HW122148   2.685   7.024   0.558
 7083SOL    HW222149   2.753   0.119   0.645
 7084SOL     OW22150   0.333   5.789   5.506
 7084SOL    HW122151   0.261   5.727   5.538
 7084SOL    HW222152   0.371   5.839   5.584
 7085SOL     OW22153   0.782   1.896   2.049
 7085SOL    HW122154   0.797   1.807   2.093
 7085SOL    HW222155   0.834   1.966   2.097
 7086SOL     OW22156   5.150   0.280   5.641
 7086SOL    HW122157   5.111   0.370   5.624
 7086SOL    HW222158   5.249   0.289   5.656
 7087SOL     OW22159   6.320   3.523   3.979
 7087SOL    HW122160   6.411   3.509   4.017
 7087SOL    HW222161   6.327   3.541   3.881
 7088SOL     OW22162   5.496   2.771   3.576
 7088SOL    HW122163   5.477   2.688   3.629
 7088SOL    HW222164   5.595   2.785   3.571
 7089SOL     OW22165   2.679   2.082   4.740
 7089SOL    HW122166   2.688   1.997   4.688
 7089SOL    HW222167   2.765   2.103   4.785
 7090SOL     OW22168   2.340   0.580   6.824
 7090SOL    HW122169   2.399   0.544   6.752
 7090SOL    HW222170   2.251   0.602   6.786
 7091SOL     OW22171   0.758   1.834   0.084
 7091SOL    HW122172   0.763   1.754   0.025
 7091SOL    HW222173   0.697   1.816   0.161
 7092SOL     OW22174   4.068   3.062   5.678
 7092SOL    HW122175   4.023   3.004   5.746
 7092SOL    HW222176   4.052   3.024   5.587
 7093SOL     OW22177   2.943   3.776   2.916
 7093SOL    HW122178   2.944   3.821   2.827
 7093SOL    HW222179   2.944   3.677   2.903
 7094SOL     OW22180   6.739   5.992   5.778
 7094SOL    HW122181   6.812   5.952   5.834
 7094SOL    HW222182   6.661   6.015   5.837
 7095SOL     OW22183   4.068   4.303   5.756
 7095SOL    HW122184   4.109   4.297   5.665
 7095SOL    HW222185   3.992   4.237   5.763
 7096SOL     OW22186   6.451   0.362   3.628
 7096SOL    HW122187   6.414   0.391   3.717
 7096SOL    HW222188   6.460   0.443   3.569
 7097SOL     OW22189   5.855   2.144   0.998
 7097SOL    HW122190   5.921   2.075   1.030
 7097SOL    HW222191   5.771   2.138   1.052
 7098SOL     OW22192   1.515   5.897   5.431
 7098SOL    HW122193   1.531   5.815   5.486
 7098SOL    HW222194   1.513   5.872   5.334
 7099SOL     OW22195   3.580   1.160   5.453
 7099SOL    HW122196   3.569   1.070   5.410
 7099SOL    HW222197   3.570   1.232   5.384
 7100SOL     OW22198   5.652   3.123   0.756
 7100SOL    HW122199   5.626   3.116   0.660
 7100SOL    HW222200   5.574   3.101   0.814
 7101SOL     OW22201   1.789   0.624   4.825
 7101SOL    HW122202   1.869   0.629   4.764
 7101SOL    HW222203   1.706   0.627   4.770
 7102SOL     OW22204   5.535   6.476   0.641
 7102SOL    HW122205   5.617   6.425   0.666
 7102SOL    HW222206   5.561   6.563   0.601
 7103SOL     OW22207   4.453   4.844   1.935
 7103SOL    HW122208   4.464   4.755   1.979
 7103SOL    HW222209   4.479   4.917   1.998
 7104SOL     OW22210   0.264   2.847   4.021
 7104SOL    HW122211   0.273   2.771   4.086
 7104SOL    HW222212   0.180   2.897   4.039
 7105SOL     OW22213   3.182   3.246   5.618
 7105SOL    HW122214   3.093   3.235   5.573
 7105SOL    HW222215   3.252   3.260   5.548
 7106SOL     OW22216   3.759   3.683   2.714
 7106SOL    HW122217   3.702   3.678   2.796
 7106SOL    HW222218   3.847   3.639   2.732
 7107SOL     OW22219   4.706   1.068   0.688
 7107SOL    HW122220   4.791   1.120   0.696
 7107SOL    HW222221   4.676   1.068   0.592
 7108SOL     OW22222   3.808   6.081   2.506
 7108SOL    HW122223   3.903   6.110   2.497
 7108SOL    HW222224   3.777   6.043   2.419
 7109SOL     OW22225   2.847   0.627   6.088
 7109SOL    HW122226   2.791   0.549   6.114
 7109SOL    HW222227   2.860   0.627   5.989
 7110SOL     OW22228   3.107   5.801   4.460
 7110SOL    HW122229   3.187   5.831   4.513
 7110SOL    HW222230   3.138   5.765   4.372
 7111SOL     OW22231   1.372   2.992   4.950
 7111SOL    HW122232   1.291   2.956   4.996
 7111SOL    HW222233   1.450   2.932   4.969
 7112SOL     OW22234   1.650   4.530   4.645
 7112SOL    HW122235   1.600   4.455   4.688
 7112SOL    HW222236   1.649   4.610   4.705
 7113SOL     OW22237   4.042   3.782   4.705
 7113SOL    HW122238   4.088   3.839   4.637
 7113SOL    HW222239   4.095   3.781   4.790
 7114SOL     OW22240   4.908   6.268   1.432
 7114SOL    HW122241   4.827   6.215   1.405
 7114SOL    HW222242   4.880   6.342   1.493
 7115SOL     OW22243   5.540   3.025   1.168
 7115SOL    HW122244   5.539   3.106   1.110
 7115SOL    HW222245   5.453   3.018   1.217
 7116SOL     OW22246   6.190   4.139   3.302
 7116SOL    HW122247   6.177   4.232   3.267
 7116SOL    HW222248   6.267   4.138   3.366
 7117SOL     OW22249   0.138   6.067   5.193
 7117SOL    HW122250   0.080   6.054   5.112
 7117SOL    HW222251   0.218   6.008   5.186
 7118SOL     OW22252   3.088   4.525   0.710
 7118SOL    HW122253   3.146   4.446   0.690
 7118SOL    HW222254   3.000   4.514   0.663
 7119SOL     OW22255   4.646   2.159   3.853
 7119SOL    HW122256   4.736   2.190   3.822
 7119SOL    HW222257   4.591   2.239   3.878
 7120SOL     OW22258   3.434   1.691   2.250
 7120SOL    HW122259   3.338   1.704   2.275
 7120SOL    HW222260   3.487   1.770   2.280
 7121SOL     OW22261   0.719   0.042   3.287
 7121SOL    HW122262   0.740   6.989   3.347
 7121SOL    HW222263   0.779   0.039   3.207
 7122SOL     OW22264   1.269   6.925   5.799
 7122SOL    HW122265   1.310   7.009   5.763
 7122SOL    HW222266   1.251   6.862   5.724
 7123SOL     OW22267   1.738   4.325   2.943
 7123SOL    HW122268   1.749   4.382   3.024
 7123SOL    HW222269   1.641   4.313   2.923
 7124SOL     OW22270   6.836   2.120   1.071
 7124SOL    HW122271   6.835   2.058   0.992
 7124SOL    HW222272   6.820   2.068   1.155
 7125SOL     OW22273   0.409   6.937   1.395
 7125SOL    HW122274   0.369   6.966   1.482
 7125SOL    HW222275   0.453   7.014   1.351
 7126SOL     OW22276   3.390   4.879   0.685
 7126SOL    HW122277   3.391   4.885   0.785
 7126SOL    HW222278   3.402   4.970   0.646
 7127SOL     OW22279   1.699   4.623   5.526
 7127SOL    HW122280   1.735   4.547   5.580
 7127SOL    HW222281   1.765   4.698   5.525
 7128SOL     OW22282   2.766   5.183   0.024
 7128SOL    HW122283   2.812   5.095   0.039
 7128SOL    HW222284   2.755   5.199   6.951
 7129SOL     OW22285   2.719   2.055   6.992
 7129SOL    HW122286   2.774   2.001   6.928
 7129SOL    HW222287   2.690   1.996   0.043
 7130SOL     OW22288   3.911   5.304   5.159
 7130SOL    HW122289   3.954   5.220   5.194
 7130SOL    HW222290   3.968   5.341   5.085
 7131SOL     OW22291   2.768   0.303   1.250
 7131SOL    HW122292   2.790   0.278   1.155
 7131SOL    HW222293   2.851   0.303   1.305
 7132SOL     OW22294   4.327   4.352   0.074
 7132SOL    HW122295   4.280   4.279   0.024
 7132SOL    HW222296   4.261   4.404   0.127
 7133SOL     OW22297   5.565   5.593   6.047
 7133SOL    HW122298   5.546   5.615   6.143
 7133SOL    HW222299   5.541   5.497   6.029
 7134SOL     OW22300   5.164   6.922   2.003
 7134SOL    HW122301   5.249   6.886   2.042
 7134SOL    HW222302   5.184   7.001   1.946
 7135SOL     OW22303   1.634   2.677   3.259
 7135SOL    HW122304   1.597   2.721   3.341
 7135SOL    HW222305   1.591   2.588   3.246
 7136SOL     OW22306   2.389   2.329   1.094
 7136SOL    HW122307   2.382   2.424   1.127
 7136SOL    HW222308   2.373   2.327   0.996
 7137SOL     OW22309   4.072   0.123   6.633
 7137SOL    HW122310   4.055   0.027   6.613
 7137SOL    HW222311   4.010   0.180   6.578
 7138SOL     OW22312   2.605   2.027   0.602
 7138SOL    HW122313   2.650   1.968   0.535
 7138SOL    HW222314   2.559   1.971   0.670
 7139SOL     OW22315   5.949   4.218   1.540
 7139SOL    HW122316   5.870   4.223   1.479
 7139SOL    HW222317   5.930   4.156   1.616
 7140SOL     OW22318   6.988   3.630   3.012
 7140SOL    HW122319   6.993   3.575   3.096
 7140SOL    HW222320   6.958   3.723   3.036
 7141SOL     OW22321   3.785   6.327   1.176
 7141SOL    HW122322   3.770   6.297   1.270
 7141SOL    HW222323   3.787   6.247   1.116
 7142SOL     OW22324   4.228   0.189   3.114
 7142SOL    HW122325   4.288   0.262   3.081
 7142SOL    HW222326   4.137   0.226   3.132
 7143SOL     OW22327   1.469   2.938   5.662
 7143SOL    HW122328   1.504   2.951   5.569
 7143SOL    HW222329   1.407   2.859   5.663
 7144SOL     OW22330   1.797   2.423   2.158
 7144SOL    HW122331   1.820   2.514   2.192
 7144SOL    HW222332   1.698   2.413   2.155
 7145SOL     OW22333   4.534   0.205   0.489
 7145SOL    HW122334   4.530   0.242   0.396
 7145SOL    HW222335   4.628   0.206   0.522
 7146SOL     OW22336   1.886   6.849   0.635
 7146SOL    HW122337   1.937   6.839   0.549
 7146SOL    HW222338   1.900   6.768   0.692
 7147SOL     OW22339   6.757   0.063   2.612
 7147SOL    HW122340   6.713   0.112   2.687
 7147SOL    HW222341   6.813   0.126   2.558
 7148SOL     OW22342   0.307   5.748   1.011
 7148SOL    HW122343   0.233   5.815   1.003
 7148SOL    HW222344   0.391   5.795   1.038
 7149SOL     OW22345   6.032   6.407   3.163
 7149SOL    HW122346   6.046   6.430   3.067
 7149SOL    HW222347   5.934   6.401   3.181
 7150SOL     OW22348   3.339   2.807   1.244
 7150SOL    HW122349   3.407   2.796   1.317
 7150SOL    HW222350   3.384   2.836   1.160
 7151SOL     OW22351   2.724   6.266   0.431
 7151SOL    HW122352   2.735   6.167   0.422
 7151SOL    HW222353   2.730   6.309   0.340
 7152SOL     OW22354   0.825   0.450   5.509
 7152SOL    HW122355   0.890   0.520   5.539
 7152SOL    HW222356   0.742   0.455   5.564
 7153SOL     OW22357   4.169   5.321   1.583
 7153SOL    HW122358   4.268   5.317   1.591
 7153SOL    HW222359   4.144   5.377   1.504
 7154SOL     OW22360   4.389   6.945   3.857
 7154SOL    HW122361   4.466   6.914   3.914
 7154SOL    HW222362   4.304   6.934   3.908
 7155SOL     OW22363   1.613   3.299   1.092
 7155SOL    HW122364   1.645   3.264   1.181
 7155SOL    HW222365   1.604   3.399   1.097
 7156SOL     OW22366   6.772   3.037   4.169
 7156SOL    HW122367   6.678   3.059   4.196
 7156SOL    HW222368   6.774   2.949   4.122
 7157SOL     OW22369   0.414   3.469   1.342
 7157SOL    HW122370   0.373   3.551   1.302
 7157SOL    HW222371   0.502   3.451   1.297
 7158SOL     OW22372   1.324   0.094   3.897
 7158SOL    HW122373   1.278   0.178   3.870
 7158SOL    HW222374   1.421   0.099   3.873
 7159SOL     OW22375   0.485   5.030   2.574
 7159SOL    HW122376   0.527   5.065   2.491
 7159SOL    HW222377   0.506   5.091   2.651
 7160SOL     OW22378   5.627   0.293   2.833
 7160SOL    HW122379   5.621   0.241   2.918
 7160SOL    HW222380   5.584   0.382   2.844
 7161SOL     OW22381   3.391   3.985   3.899
 7161SOL    HW122382   3.360   3.919   3.831
 7161SOL    HW222383   3.325   3.989   3.974
 7162SOL     OW22384   1.135   5.254   6.319
 7162SOL    HW122385   1.213   5.192   6.330
 7162SOL    HW222386   1.155   5.340   6.367
 7163SOL     OW22387   2.906   6.638   2.530
 7163SOL    HW122388   2.951   6.722   2.559
 7163SOL    HW222389   2.910   6.570   2.604
 7164SOL     OW22390   2.645   0.198   4.141
 7164SOL    HW122391   2.561   0.212   4.087
 7164SOL    HW222392   2.710   0.272   4.121
 7165SOL     OW22393   6.179   0.878   2.676
 7165SOL    HW122394   6.210   0.812   2.607
 7165SOL    HW222395   6.089   0.913   2.651
 7166SOL     OW22396   5.484   2.077   0.911
 7166SOL    HW122397   5.385   2.065   0.915
 7166SOL    HW222398   5.525   2.005   0.856
 7167SOL     OW22399   5.545   3.403   4.402
 7167SOL    HW122400   5.464   3.349   4.378
 7167SOL    HW222401   5.625   3.344   4.404
 7168SOL     OW22402   1.462   2.761   3.051
 7168SOL    HW122403   1.530   2.716   3.109
 7168SOL    HW222404   1.488   2.856   3.037
 7169SOL     OW22405   0.610   2.707   5.496
 7169SOL    HW122406   0.661   2.781   5.451
 7169SOL    HW222407   0.645   2.694   5.589
 7170SOL     OW22408   4.590   0.342   3.948
 7170SOL    HW122409   4.611   0.403   3.871
 7170SOL    HW222410   4.582   0.396   4.032
 7171SOL     OW22411   5.978   3.713   0.277
 7171SOL    HW122412   5.936   3.743   0.191
 7171SOL    HW222413   6.073   3.690   0.261
 7172SOL     OW22414   1.197   6.877   4.484
 7172SOL    HW122415   1.264   6.850   4.416
 7172SOL    HW222416   1.177   6.974   4.476
 7173SOL     OW22417   6.678   4.061   6.379
 7173SOL    HW122418   6.592   4.088   6.421
 7173SOL    HW222419   6.753   4.075   6.444
 7174SOL     OW22420   1.469   3.921   0.272
 7174SOL    HW122421   1.381   3.936   0.317
 7174SOL    HW222422   1.458   3.929   0.173
 7175SOL     OW22423   5.797   3.097   6.688
 7175SOL    HW122424   5.863   3.051   6.628
 7175SOL    HW222425   5.705   3.059   6.671
 7176SOL     OW22426   6.942   0.327   2.801
 7176SOL    HW122427   6.884   0.251   2.830
 7176SOL    HW222428   6.889   0.390   2.744
 7177SOL     OW22429   1.848   5.045   4.586
 7177SOL    HW122430   1.896   4.974   4.534
 7177SOL    HW222431   1.751   5.021   4.593
 7178SOL     OW22432   1.339   1.723   5.717
 7178SOL    HW122433   1.370   1.733   5.812
 7178SOL    HW222434   1.295   1.807   5.687
 7179SOL     OW22435   2.214   4.045   4.499
 7179SOL    HW122436   2.195   3.952   4.529
 7179SOL    HW222437   2.246   4.099   4.577
 7180SOL     OW22438   2.149   5.442   0.373
 7180SOL    HW122439   2.175   5.385   0.451
 7180SOL    HW222440   2.229   5.460   0.316
 7181SOL     OW22441   2.063   6.924   0.370
 7181SOL    HW122442   2.007   6.998   0.332
 7181SOL    HW222443   2.159   6.953   0.373
 7182SOL     OW22444   0.204   2.859   4.760
 7182SOL    HW122445   0.244   2.827   4.846
 7182SOL    HW222446   0.149   2.786   4.719
 7183SOL     OW22447   2.203   5.912   0.954
 7183SOL    HW122448   2.293   5.891   0.917
 7183SOL    HW222449   2.194   6.010   0.967
 7184SOL     OW22450   6.686   1.191   3.731
 7184SOL    HW122451   6.725   1.166   3.821
 7184SOL    HW222452   6.702   1.288   3.714
 7185SOL     OW22453   5.686   0.281   4.928
 7185SOL    HW122454   5.704   0.263   5.024
 7185SOL    HW222455   5.631   0.365   4.919
 7186SOL     OW22456   6.842   1.958   0.854
 7186SOL    HW122457   6.747   1.926   0.859
 7186SOL    HW222458   6.876   1.944   0.761
 7187SOL     OW22459   3.967   4.545   6.543
 7187SOL    HW122460   3.967   4.498   6.455
 7187SOL    HW222461   4.037   4.617   6.543
 7188SOL     OW22462   5.817   0.717   0.310
 7188SOL    HW122463   5.815   0.696   0.212
 7188SOL    HW222464   5.736   0.770   0.334
 7189SOL     OW22465   6.956   1.055   5.694
 7189SOL    HW122466   6.951   1.085   5.790
 7189SOL    HW222467   6.933   0.958   5.688
 7190SOL     OW22468   0.308   3.526   2.287
 7190SOL    HW122469   0.239   3.581   2.240
 7190SOL    HW222470   0.328   3.445   2.232
 7191SOL     OW22471   1.248   4.910   2.654
 7191SOL    HW122472   1.170   4.959   2.617
 7191SOL    HW222473   1.290   4.855   2.581
 7192SOL     OW22474   2.770   4.329   5.808
 7192SOL    HW122475   2.687   4.299   5.760
 7192SOL    HW222476   2.831   4.251   5.819
 7193SOL     OW22477   0.713   2.922   2.322
 7193SOL    HW122478   0.739   2.826   2.312
 7193SOL    HW222479   0.620   2.929   2.356
 7194SOL     OW22480   2.678   2.453   0.410
 7194SOL    HW122481   2.755   2.455   0.473
 7194SOL    HW222482   2.708   2.421   0.321
 7195SOL     OW22483   0.616   3.829   6.628
 7195SOL    HW122484   0.664   3.781   6.701
 7195SOL    HW222485   0.634   3.784   6.541
 7196SOL     OW22486   2.877   3.856   1.527
 7196SOL    HW122487   2.974   3.837   1.509
 7196SOL    HW222488   2.836   3.899   1.446
 7197SOL     OW22489   0.441   2.293   6.318
 7197SOL    HW122490   0.345   2.317   6.309
 7197SOL    HW222491   0.494   2.375   6.341
 7198SOL     OW22492   6.743   0.599   0.768
 7198SOL    HW122493   6.840   0.576   0.773
 7198SOL    HW222494   6.722   0.672   0.834
 7199SOL     OW22495   1.840   1.007   2.026
 7199SOL    HW122496   1.744   1.034   2.026
 7199SOL    HW222497   1.891   1.062   2.091
 7200SOL     OW22498   2.417   2.479   6.583
 7200SOL    HW122499   2.340   2.492   6.646
 7200SOL    HW222500   2.495   2.532   6.615
 7201SOL     OW22501   1.026   5.205   4.330
 7201SOL    HW122502   0.948   5.250   4.375
 7201SOL    HW222503   1.107   5.212   4.389
 7202SOL     OW22504   5.194   6.928   0.001
 7202SOL    HW122505   5.294   6.937   0.006
 7202SOL    HW222506   5.163   6.865   0.072
 7203SOL     OW22507   0.422   2.038   0.902
 7203SOL    HW122508   0.324   2.055   0.888
 7203SOL    HW222509   0.462   2.115   0.953
 7204SOL     OW22510   0.346   6.784   5.702
 7204SOL    HW122511   0.383   6.789   5.609
 7204SOL    HW222512   0.419   6.799   5.768
 7205SOL     OW22513   0.874   4.382   3.779
 7205SOL    HW122514   0.902   4.378   3.683
 7205SOL    HW222515   0.873   4.290   3.818
 7206SOL     OW22516   1.366   0.598   1.587
 7206SOL    HW122517   1.296   0.605   1.658
 7206SOL    HW222518   1.399   0.503   1.582
 7207SOL     OW22519   3.541   0.700   2.520
 7207SOL    HW122520   3.579   0.781   2.475
 7207SOL    HW222521   3.452   0.723   2.560
 7208SOL     OW22522   3.696   0.033   3.076
 7208SOL    HW122523   3.613   0.078   3.043
 7208SOL    HW222524   3.673   6.996   3.152
 7209SOL     OW22525   2.723   3.551   1.302
 7209SOL    HW122526   2.685   3.467   1.262
 7209SOL    HW222527   2.689   3.561   1.396
 7210SOL     OW22528   4.345   1.396   3.995
 7210SOL    HW122529   4.273   1.367   3.931
 7210SOL    HW222530   4.384   1.483   3.964
 7211SOL     OW22531   3.023   6.497   4.760
 7211SOL    HW122532   2.956   6.428   4.734
 7211SOL    HW222533   2.988   6.588   4.738
 7212SOL     OW22534   0.329   5.884   4.721
 7212SOL    HW122535   0.412   5.830   4.730
 7212SOL    HW222536   0.303   5.891   4.625
 7213SOL     OW22537   5.354   6.269   0.265
 7213SOL    HW122538   5.411   6.189   0.246
 7213SOL    HW222539   5.299   6.290   0.184
 7214SOL     OW22540   6.372   5.888   5.546
 7214SOL    HW122541   6.461   5.930   5.529
 7214SOL    HW222542   6.366   5.802   5.495
 7215SOL     OW22543   6.952   3.962   4.693
 7215SOL    HW122544   0.008   3.912   4.726
 7215SOL    HW222545   6.892   3.984   4.771
 7216SOL     OW22546   3.215   6.908   6.932
 7216SOL    HW122547   3.240   6.818   6.898
 7216SOL    HW222548   3.239   6.915   0.004
 7217SOL     OW22549   1.916   4.128   3.283
 7217SOL    HW122550   2.009   4.093   3.270
 7217SOL    HW222551   1.857   4.096   3.209
 7218SOL     OW22552   5.718   3.233   5.496
 7218SOL    HW122553   5.652   3.160   5.477
 7218SOL    HW222554   5.726   3.246   5.594
 7219SOL     OW22555   4.553   0.173   3.470
 7219SOL    HW122556   4.533   0.146   3.564
 7219SOL    HW222557   4.492   0.125   3.407
 7220SOL     OW22558   1.277   4.783   5.177
 7220SOL    HW122559   1.221   4.707   5.209
 7220SOL    HW222560   1.372   4.752   5.165
 7221SOL     OW22561   3.441   6.094   4.938
 7221SOL    HW122562   3.449   5.995   4.947
 7221SOL    HW222563   3.452   6.119   4.841
 7222SOL     OW22564   5.700   6.840   2.896
 7222SOL    HW122565   5.788   6.803   2.926
 7222SOL    HW222566   5.639   6.849   2.975
 7223SOL     OW22567   3.040   1.176   0.900
 7223SOL    HW122568   3.034   1.272   0.924
 7223SOL    HW222569   2.984   1.122   0.963
 7224SOL     OW22570   5.512   1.561   3.752
 7224SOL    HW122571   5.504   1.656   3.781
 7224SOL    HW222572   5.426   1.514   3.768
 7225SOL     OW22573   1.170   5.101   0.533
 7225SOL    HW122574   1.119   5.166   0.477
 7225SOL    HW222575   1.211   5.149   0.610
 7226SOL     OW22576   6.804   1.642   1.296
 7226SOL    HW122577   6.707   1.667   1.292
 7226SOL    HW222578   6.829   1.619   1.390
 7227SOL     OW22579   1.793   1.716   0.842
 7227SOL    HW122580   1.812   1.791   0.778
 7227SOL    HW222581   1.742   1.751   0.921
 7228SOL     OW22582   1.184   1.845   2.835
 7228SOL    HW122583   1.240   1.924   2.860
 7228SOL    HW222584   1.118   1.826   2.908
 7229SOL     OW22585   1.513   6.215   5.944
 7229SOL    HW122586   1.503   6.116   5.933
 7229SOL    HW222587   1.460   6.245   6.024
 7230SOL     OW22588   3.789   5.072   4.591
 7230SOL    HW122589   3.716   5.024   4.640
 7230SOL    HW222590   3.792   5.167   4.622
 7231SOL     OW22591   4.052   0.781   6.980
 7231SOL    HW122592   3.975   0.762   0.016
 7231SOL    HW222593   4.017   0.810   6.891
 7232SOL     OW22594   5.249   5.881   3.411
 7232SOL    HW122595   5.162   5.840   3.385
 7232SOL    HW222596   5.300   5.818   3.469
 7233SOL     OW22597   0.860   1.823   4.184
 7233SOL    HW122598   0.813   1.763   4.249
 7233SOL    HW222599   0.900   1.900   4.233
 7234SOL     OW22600   5.407   3.171   3.849
 7234SOL    HW122601   5.443   3.111   3.778
 7234SOL    HW222602   5.391   3.262   3.811
 7235SOL     OW22603   6.994   4.584   2.338
 7235SOL    HW122604   0.013   4.521   2.274
 7235SOL    HW222605   6.895   4.573   2.333
 7236SOL     OW22606   2.157   1.818   1.200
 7236SOL    HW122607   2.130   1.893   1.261
 7236SOL    HW222608   2.195   1.743   1.254
 7237SOL     OW22609   4.411   1.001   5.233
 7237SOL    HW122610   4.484   0.948   5.277
 7237SOL    HW222611   4.409   0.980   5.135
 7238SOL     OW22612   3.724   1.993   0.948
 7238SOL    HW122613   3.718   2.093   0.948
 7238SOL    HW222614   3.775   1.963   0.867
 7239SOL     OW22615   1.320   2.587   2.857
 7239SOL    HW122616   1.221   2.582   2.866
 7239SOL    HW222617   1.356   2.658   2.917
 7240SOL     OW22618   1.804   6.228   6.015
 7240SOL    HW122619   1.807   6.199   5.919
 7240SOL    HW222620   1.710   6.251   6.039
 7241SOL     OW22621   1.770   0.858   0.686
 7241SOL    HW122622   1.852   0.841   0.632
 7241SOL    HW222623   1.734   0.772   0.721
 7242SOL     OW22624   6.753   6.165   0.375
 7242SOL    HW122625   6.784   6.250   0.334
 7242SOL    HW222626   6.726   6.100   0.304
 7243SOL     OW22627   6.515   4.644   6.169
 7243SOL    HW122628   6.540   4.547   6.168
 7243SOL    HW222629   6.424   4.655   6.210
 7244SOL     OW22630   5.898   1.647   1.695
 7244SOL    HW122631   5.897   1.567   1.635
 7244SOL    HW222632   5.975   1.706   1.670
 7245SOL     OW22633   1.269   1.759   4.776
 7245SOL    HW122634   1.283   1.662   4.754
 7245SOL    HW222635   1.250   1.809   4.692
 7246SOL     OW22636   6.736   0.064   4.674
 7246SOL    HW122637   6.716   0.031   4.766
 7246SOL    HW222638   6.677   0.016   4.609
 7247SOL     OW22639   2.615   0.595   4.199
 7247SOL    HW122640   2.609   0.683   4.153
 7247SOL    HW222641   2.540   0.586   4.265
 7248SOL     OW22642   2.298   1.570   3.390
 7248SOL    HW122643   2.387   1.594   3.430
 7248SOL    HW222644   2.304   1.480   3.347
 7249SOL     OW22645   6.613   4.663   2.681
 7249SOL    HW122646   6.710   4.647   2.663
 7249SOL    HW222647   6.558   4.602   2.624
 7250SOL     OW22648   4.763   6.695   6.473
 7250SOL    HW122649   4.794   6.783   6.435
 7250SOL    HW222650   4.693   6.712   6.543
 7251SOL     OW22651   0.582   6.473   5.869
 7251SOL    HW122652   0.611   6.457   5.774
 7251SOL    HW222653   0.546   6.388   5.907
 7252SOL     OW22654   3.602   3.598   2.957
 7252SOL    HW122655   3.614   3.658   3.036
 7252SOL    HW222656   3.578   3.506   2.989
 7253SOL     OW22657   2.260   6.424   6.445
 7253SOL    HW122658   2.211   6.413   6.358
 7253SOL    HW222659   2.305   6.514   6.447
 7254SOL     OW22660   4.522   5.145   3.903
 7254SOL    HW122661   4.467   5.215   3.858
 7254SOL    HW222662   4.534   5.067   3.841
 7255SOL     OW22663   3.327   3.430   0.456
 7255SOL    HW122664   3.348   3.470   0.545
 7255SOL    HW222665   3.297   3.502   0.393
 7256SOL     OW22666   4.012   4.811   4.294
 7256SOL    HW122667   3.931   4.831   4.349
 7256SOL    HW222668   4.089   4.788   4.353
 7257SOL     OW22669   5.602   3.160   3.652
 7257SOL    HW122670   5.700   3.177   3.646
 7257SOL    HW222671   5.566   3.136   3.562
 7258SOL     OW22672   4.129   1.447   3.408
 7258SOL    HW122673   4.040   1.417   3.443
 7258SOL    HW222674   4.174   1.503   3.477
 7259SOL     OW22675   2.579   3.345   1.137
 7259SOL    HW122676   2.493   3.303   1.108
 7259SOL    HW222677   2.599   3.425   1.080
 7260SOL     OW22678   3.452   1.770   1.934
 7260SOL    HW122679   3.356   1.771   1.963
 7260SOL    HW222680   3.457   1.747   1.836
 7261SOL     OW22681   1.481   2.349   1.269
 7261SOL    HW122682   1.536   2.416   1.319
 7261SOL    HW222683   1.427   2.296   1.334
 7262SOL     OW22684   5.149   1.668   5.601
 7262SOL    HW122685   5.051   1.673   5.581
 7262SOL    HW222686   5.166   1.596   5.668
 7263SOL     OW22687   0.997   0.007   0.657
 7263SOL    HW122688   0.966   0.035   0.566
 7263SOL    HW222689   0.934   6.964   0.694
 7264SOL     OW22690   5.760   1.300   6.403
 7264SOL    HW122691   5.694   1.261   6.468
 7264SOL    HW222692   5.715   1.314   6.315
 7265SOL     OW22693   5.843   4.971   5.835
 7265SOL    HW122694   5.783   4.968   5.755
 7265SOL    HW222695   5.916   4.904   5.825
 7266SOL     OW22696   5.840   0.116   1.332
 7266SOL    HW122697   5.797   0.027   1.324
 7266SOL    HW222698   5.923   0.118   1.277
 7267SOL     OW22699   6.293   5.682   5.180
 7267SOL    HW122700   6.312   5.604   5.240
 7267SOL    HW222701   6.273   5.763   5.236
 7268SOL     OW22702   5.104   5.267   3.508
 7268SOL    HW122703   5.050   5.208   3.448
 7268SOL    HW222704   5.051   5.289   3.590
 7269SOL     OW22705   0.052   6.462   0.592
 7269SOL    HW122706   6.984   6.426   0.607
 7269SOL    HW222707   0.094   6.414   0.515
 7270SOL     OW22708   1.172   3.494   5.390
 7270SOL    HW122709   1.196   3.426   5.320
 7270SOL    HW222710   1.242   3.565   5.393
 7271SOL     OW22711   0.242   6.263   3.526
 7271SOL    HW122712   0.281   6.207   3.599
 7271SOL    HW222713   0.250   6.214   3.439
 7272SOL     OW22714   5.658   5.205   2.423
 7272SOL    HW122715   5.576   5.154   2.448
 7272SOL    HW222716   5.701   5.160   2.344
 7273SOL     OW22717   5.554   4.197   2.122
 7273SOL    HW122718   5.517   4.156   2.039
 7273SOL    HW222719   5.636   4.148   2.150
 7274SOL     OW22720   0.771   5.913   0.052
 7274SOL    HW122721   0.821   5.868   7.002
 7274SOL    HW222722   0.836   5.944   0.121
 7275SOL     OW22723   6.452   0.054   2.616
 7275SOL    HW122724   6.546   0.020   2.612
 7275SOL    HW222725   6.427   0.073   2.711
 7276SOL     OW22726   3.788   1.607   3.116
 7276SOL    HW122727   3.763   1.547   3.192
 7276SOL    HW222728   3.706   1.655   3.083
 7277SOL     OW22729   4.720   0.634   3.935
 7277SOL    HW122730   4.655   0.709   3.932
 7277SOL    HW222731   4.704   0.572   3.858
 7278SOL     OW22732   3.124   2.569   1.514
 7278SOL    HW122733   3.207   2.568   1.569
 7278SOL    HW222734   3.064   2.494   1.542
 7279SOL     OW22735   4.062   3.704   5.977
 7279SOL    HW122736   4.134   3.661   6.031
 7279SOL    HW222737   4.012   3.769   6.034
 7280SOL     OW22738   0.525   1.576   4.149
 7280SOL    HW122739   0.429   1.553   4.168
 7280SOL    HW222740   0.529   1.661   4.097
 7281SOL     OW22741   1.698   0.690   0.313
 7281SOL    HW122742   1.610   0.674   0.269
 7281SOL    HW222743   1.727   0.607   0.361
 7282SOL     OW22744   5.777   6.531   1.292
 7282SOL    HW122745   5.717   6.495   1.221
 7282SOL    HW222746   5.872   6.523   1.262
 7283SOL     OW22747   3.670   0.720   1.868
 7283SOL    HW122748   3.725   0.641   1.842
 7283SOL    HW222749   3.720   0.804   1.845
 7284SOL     OW22750   6.753   1.985   5.126
 7284SOL    HW122751   6.830   1.955   5.183
 7284SOL    HW222752   6.687   2.033   5.183
 7285SOL     OW22753   5.714   3.328   1.563
 7285SOL    HW122754   5.768   3.246   1.545
 7285SOL    HW222755   5.630   3.324   1.508
 7286SOL     OW22756   1.104   0.766   1.078
 7286SOL    HW122757   1.100   0.866   1.078
 7286SOL    HW222758   1.166   0.736   1.151
 7287SOL     OW22759   6.363   2.883   4.692
 7287SOL    HW122760   6.321   2.856   4.779
 7287SOL    HW222761   6.460   2.902   4.707
 7288SOL     OW22762   1.482   1.772   1.423
 7288SOL    HW122763   1.493   1.857   1.371
 7288SOL    HW222764   1.482   1.694   1.361
 7289SOL     OW22765   5.805   2.341   3.681
 7289SOL    HW122766   5.773   2.425   3.725
 7289SOL    HW222767   5.898   2.321   3.711
 7290SOL     OW22768   2.286   1.361   5.363
 7290SOL    HW122769   2.316   1.351   5.268
 7290SOL    HW222770   2.187   1.376   5.365
 7291SOL     OW22771   1.757   0.078   0.540
 7291SOL    HW122772   1.765   7.015   0.588
 7291SOL    HW222773   1.830   0.140   0.571
 7292SOL     OW22774   3.201   0.550   3.032
 7292SOL    HW122775   3.289   0.523   3.070
 7292SOL    HW222776   3.207   0.643   2.995
 7293SOL     OW22777   1.052   1.563   5.604
 7293SOL    HW122778   1.131   1.557   5.543
 7293SOL    HW222779   1.019   1.471   5.625
 7294SOL     OW22780   3.143   4.779   0.616
 7294SOL    HW122781   3.234   4.801   0.650
 7294SOL    HW222782   3.117   4.687   0.645
 7295SOL     OW22783   6.647   4.225   0.515
 7295SOL    HW122784   6.591   4.155   0.471
 7295SOL    HW222785   6.592   4.276   0.581
 7296SOL     OW22786   4.319   5.519   1.191
 7296SOL    HW122787   4.296   5.578   1.114
 7296SOL    HW222788   4.241   5.514   1.254
 7297SOL     OW22789   3.006   6.552   1.137
 7297SOL    HW122790   3.009   6.626   1.204
 7297SOL    HW222791   3.073   6.570   1.065
 7298SOL     OW22792   4.652   5.129   5.998
 7298SOL    HW122793   4.554   5.131   6.017
 7298SOL    HW222794   4.694   5.055   6.050
 7299SOL     OW22795   1.098   2.329   0.916
 7299SOL    HW122796   1.148   2.352   0.832
 7299SOL    HW222797   1.005   2.364   0.909
 7300SOL     OW22798   0.677   0.204   2.371
 7300SOL    HW122799   0.578   0.201   2.386
 7300SOL    HW222800   0.710   0.113   2.345
 7301SOL     OW22801   5.434   2.474   5.338
 7301SOL    HW122802   5.471   2.566   5.332
 7301SOL    HW222803   5.344   2.471   5.295
 7302SOL     OW22804   0.176   2.189   6.285
 7302SOL    HW122805   0.157   2.203   6.383
 7302SOL    HW222806   0.148   2.270   6.234
 7303SOL     OW22807   3.673   1.356   6.620
 7303SOL    HW122808   3.652   1.355   6.522
 7303SOL    HW222809   3.596   1.318   6.671
 7304SOL     OW22810   3.033   5.141   1.394
 7304SOL    HW122811   2.947   5.150   1.344
 7304SOL    HW222812   3.069   5.048   1.380
 7305SOL     OW22813   5.221   1.980   1.276
 7305SOL    HW122814   5.250   1.948   1.367
 7305SOL    HW222815   5.247   2.075   1.264
 7306SOL     OW22816   3.934   1.865   1.814
 7306SOL    HW122817   3.984   1.926   1.753
 7306SOL    HW222818   3.853   1.912   1.849
 7307SOL     OW22819   3.401   6.337   2.511
 7307SOL    HW122820   3.366   6.296   2.595
 7307SOL    HW222821   3.407   6.267   2.440
 7308SOL     OW22822   6.358   1.714   4.297
 7308SOL    HW122823   6.281   1.755   4.347
 7308SOL    HW222824   6.435   1.778   4.298
 7309SOL     OW22825   4.004   5.826   1.323
 7309SOL    HW122826   4.089   5.849   1.275
 7309SOL    HW222827   4.023   5.811   1.420
 7310SOL     OW22828   2.188   3.253   0.411
 7310SOL    HW122829   2.103   3.290   0.447
 7310SOL    HW222830   2.182   3.153   0.409
 7311SOL     OW22831   1.582   1.062   0.801
 7311SOL    HW122832   1.642   1.142   0.796
 7311SOL    HW222833   1.626   0.985   0.756
 7312SOL     OW22834   1.307   2.929   4.703
 7312SOL    HW122835   1.325   2.831   4.698
 7312SOL    HW222836   1.324   2.961   4.796
 7313SOL     OW22837   1.901   1.422   0.117
 7313SOL    HW122838   1.908   1.323   0.108
 7313SOL    HW222839   1.881   1.445   0.212
 7314SOL     OW22840   6.899   4.123   6.054
 7314SOL    HW122841   6.990   4.086   6.037
 7314SOL    HW222842   6.896   4.166   6.144
 7315SOL     OW22843   5.117   5.741   1.528
 7315SOL    HW122844   5.188   5.805   1.500
 7315SOL    HW222845   5.055   5.726   1.451
 7316SOL     OW22846   3.098   3.002   6.485
 7316SOL    HW122847   3.029   2.972   6.551
 7316SOL    HW222848   3.054   3.019   6.397
 7317SOL     OW22849   3.850   1.513   1.610
 7317SOL    HW122850   3.886   1.551   1.695
 7317SOL    HW222851   3.750   1.504   1.618
 7318SOL     OW22852   3.032   0.078   2.113
 7318SOL    HW122853   3.096   0.092   2.188
 7318SOL    HW222854   3.081   0.056   2.029
 7319SOL     OW22855   5.867   3.243   6.913
 7319SOL    HW122856   5.838   3.190   6.992
 7319SOL    HW222857   5.839   3.197   6.829
 7320SOL     OW22858   0.361   3.942   1.174
 7320SOL    HW122859   0.438   3.907   1.228
 7320SOL    HW222860   0.304   4.000   1.232
 7321SOL     OW22861   2.168   6.453   5.431
 7321SOL    HW122862   2.191   6.550   5.424
 7321SOL    HW222863   2.157   6.428   5.527
 7322SOL     OW22864   0.145   2.717   2.869
 7322SOL    HW122865   0.083   2.676   2.802
 7322SOL    HW222866   0.228   2.661   2.876
 7323SOL     OW22867   2.106   2.912   1.700
 7323SOL    HW122868   2.018   2.899   1.654
 7323SOL    HW222869   2.091   2.946   1.792
 7324SOL     OW22870   5.619   4.489   2.071
 7324SOL    HW122871   5.574   4.481   1.982
 7324SOL    HW222872   5.629   4.399   2.112
 7325SOL     OW22873   3.148   0.622   5.819
 7325SOL    HW122874   3.199   0.537   5.808
 7325SOL    HW222875   3.052   0.607   5.793
 7326SOL     OW22876   3.693   6.092   5.598
 7326SOL    HW122877   3.691   6.192   5.597
 7326SOL    HW222878   3.736   6.060   5.682
 7327SOL     OW22879   6.053   3.020   4.867
 7327SOL    HW122880   6.033   3.105   4.916
 7327SOL    HW222881   6.037   2.942   4.928
 7328SOL     OW22882   4.810   6.501   5.968
 7328SOL    HW122883   4.715   6.526   5.949
 7328SOL    HW222884   4.838   6.538   6.056
 7329SOL     OW22885   1.013   4.104   0.595
 7329SOL    HW122886   0.984   4.117   0.501
 7329SOL    HW222887   0.942   4.053   0.645
 7330SOL     OW22888   2.407   3.434   0.337
 7330SOL    HW122889   2.479   3.366   0.352
 7330SOL    HW222890   2.318   3.389   0.339
 7331SOL     OW22891   5.402   6.293   1.292
 7331SOL    HW122892   5.312   6.273   1.330
 7331SOL    HW222893   5.407   6.390   1.267
 7332SOL     OW22894   3.099   4.695   6.882
 7332SOL    HW122895   3.146   4.628   6.940
 7332SOL    HW222896   3.018   4.728   6.929
 7333SOL     OW22897   6.095   2.740   3.527
 7333SOL    HW122898   6.100   2.640   3.529
 7333SOL    HW222899   6.006   2.769   3.493
 7334SOL     OW22900   1.892   6.275   6.416
 7334SOL    HW122901   1.880   6.370   6.443
 7334SOL    HW222902   1.985   6.245   6.435
 7335SOL     OW22903   0.549   3.004   2.664
 7335SOL    HW122904   0.576   3.101   2.664
 7335SOL    HW222905   0.472   2.991   2.727
 7336SOL     OW22906   2.331   6.512   2.360
 7336SOL    HW122907   2.405   6.542   2.421
 7336SOL    HW222908   2.323   6.576   2.284
 7337SOL     OW22909   1.807   2.836   1.991
 7337SOL    HW122910   1.884   2.796   1.941
 7337SOL    HW222911   1.802   2.797   2.083
 7338SOL     OW22912   5.885   2.051   1.917
 7338SOL    HW122913   5.910   1.957   1.897
 7338SOL    HW222914   5.830   2.088   1.842
 7339SOL     OW22915   6.043   0.215   4.880
 7339SOL    HW122916   6.045   0.315   4.881
 7339SOL    HW222917   6.037   0.180   4.974
 7340SOL     OW22918   3.698   1.490   0.288
 7340SOL    HW122919   3.788   1.532   0.277
 7340SOL    HW222920   3.710   1.394   0.313
 7341SOL     OW22921   1.116   4.672   4.672
 7341SOL    HW122922   1.081   4.634   4.586
 7341SOL    HW222923   1.125   4.598   4.739
 7342SOL     OW22924   0.035   6.691   6.922
 7342SOL    HW122925   0.043   6.634   7.005
 7342SOL    HW222926   6.964   6.692   6.892
 7343SOL     OW22927   5.444   4.636   1.573
 7343SOL    HW122928   5.543   4.645   1.560
 7343SOL    HW222929   5.407   4.723   1.607
 7344SOL     OW22930   1.444   0.539   5.742
 7344SOL    HW122931   1.505   0.467   5.774
 7344SOL    HW222932   1.488   0.588   5.667
 7345SOL     OW22933   4.603   5.926   5.339
 7345SOL    HW122934   4.663   5.863   5.389
 7345SOL    HW222935   4.632   5.931   5.243
 7346SOL     OW22936   4.205   3.895   1.392
 7346SOL    HW122937   4.118   3.945   1.386
 7346SOL    HW222938   4.274   3.941   1.336
 7347SOL     OW22939   0.770   3.203   1.032
 7347SOL    HW122940   0.816   3.118   1.007
 7347SOL    HW222941   0.695   3.220   0.969
 7348SOL     OW22942   1.268   3.279   3.621
 7348SOL    HW122943   1.202   3.204   3.629
 7348SOL    HW222944   1.226   3.364   3.652
 7349SOL     OW22945   4.543   2.198   0.612
 7349SOL    HW122946   4.593   2.162   0.534
 7349SOL    HW222947   4.605   2.213   0.689
 7350SOL     OW22948   1.570   3.266   5.376
 7350SOL    HW122949   1.626   3.217   5.443
 7350SOL    HW222950   1.609   3.254   5.285
 7351SOL     OW22951   4.739   5.960   5.111
 7351SOL    HW122952   4.733   6.060   5.113
 7351SOL    HW222953   4.784   5.930   5.027
 7352SOL     OW22954   1.740   3.007   2.846
 7352SOL    HW122955   1.724   3.025   2.749
 7352SOL    HW222956   1.659   3.032   2.899
 7353SOL     OW22957   0.191   6.658   5.900
 7353SOL    HW122958   0.180   6.734   5.964
 7353SOL    HW222959   0.272   6.674   5.844
 7354SOL     OW22960   1.155   1.939   6.988
 7354SOL    HW122961   1.113   2.018   0.006
 7354SOL    HW222962   1.229   1.905   0.022
 7355SOL     OW22963   1.323   1.515   0.266
 7355SOL    HW122964   1.343   1.611   0.289
 7355SOL    HW222965   1.403   1.475   0.220
 7356SOL     OW22966   3.987   3.308   5.788
 7356SOL    HW122967   4.050   3.372   5.744
 7356SOL    HW222968   4.012   3.214   5.763
 7357SOL     OW22969   4.628   0.277   1.897
 7357SOL    HW122970   4.612   0.243   1.804
 7357SOL    HW222971   4.692   0.216   1.944
 7358SOL     OW22972   0.267   2.771   2.491
 7358SOL    HW122973   0.352   2.823   2.495
 7358SOL    HW222974   0.194   2.823   2.535
 7359SOL     OW22975   2.815   2.740   6.263
 7359SOL    HW122976   2.774   2.657   6.226
 7359SOL    HW222977   2.749   2.815   6.258
 7360SOL     OW22978   3.596   4.151   5.965
 7360SOL    HW122979   3.532   4.074   5.966
 7360SOL    HW222980   3.550   4.232   5.930
 7361SOL     OW22981   4.339   0.182   2.103
 7361SOL    HW122982   4.428   0.144   2.127
 7361SOL    HW222983   4.279   0.109   2.069
 7362SOL     OW22984   1.009   5.329   4.690
 7362SOL    HW122985   1.081   5.321   4.621
 7362SOL    HW222986   0.925   5.360   4.646
 7363SOL     OW22987   4.048   1.435   1.124
 7363SOL    HW122988   4.104   1.406   1.046
 7363SOL    HW222989   3.970   1.489   1.091
 7364SOL     OW22990   4.617   0.491   1.155
 7364SOL    HW122991   4.621   0.457   1.249
 7364SOL    HW222992   4.696   0.550   1.138
 7365SOL     OW22993   1.653   0.286   1.927
 7365SOL    HW122994   1.649   0.255   1.832
 7365SOL    HW222995   1.747   0.307   1.952
 7366SOL     OW22996   2.142   5.839   7.009
 7366SOL    HW122997   2.211   5.848   0.056
 7366SOL    HW222998   2.122   5.929   6.971
 7367SOL     OW22999   4.713   3.581   1.695
 7367SOL    HW123000   4.686   3.667   1.651
 7367SOL    HW223001   4.678   3.504   1.642
 7368SOL     OW23002   3.802   2.948   3.525
 7368SOL    HW123003   3.767   2.983   3.612
 7368SOL    HW223004   3.883   2.891   3.542
 7369SOL     OW23005   4.202   2.882   6.906
 7369SOL    HW123006   4.175   2.967   6.952
 7369SOL    HW223007   4.142   2.866   6.827
 7370SOL     OW23008   2.971   0.830   4.823
 7370SOL    HW123009   3.062   0.826   4.865
 7370SOL    HW223010   2.969   0.771   4.743
 7371SOL     OW23011   1.923   6.020   3.734
 7371SOL    HW123012   1.867   6.100   3.712
 7371SOL    HW223013   2.006   6.020   3.678
 7372SOL     OW23014   3.758   1.434   5.648
 7372SOL    HW123015   3.772   1.395   5.557
 7372SOL    HW223016   3.841   1.421   5.703
 7373SOL     OW23017   5.710   1.428   4.463
 7373SOL    HW123018   5.724   1.343   4.513
 7373SOL    HW223019   5.762   1.427   4.379
 7374SOL     OW23020   3.045   1.357   5.768
 7374SOL    HW123021   3.041   1.443   5.818
 7374SOL    HW223022   3.123   1.303   5.800
 7375SOL     OW23023   2.147   3.047   2.972
 7375SOL    HW123024   2.151   3.138   3.013
 7375SOL    HW223025   2.172   3.053   2.875
 7376SOL     OW23026   3.567   1.726   0.240
 7376SOL    HW123027   3.596   1.784   0.316
 7376SOL    HW223028   3.588   1.631   0.260
 7377SOL     OW23029   5.402   4.591   0.878
 7377SOL    HW123030   5.439   4.591   0.785
 7377SOL    HW223031   5.328   4.658   0.884
 7378SOL     OW23032   0.880   1.000   5.560
 7378SOL    HW123033   0.802   0.952   5.599
 7378SOL    HW223034   0.948   1.016   5.632
 7379SOL     OW23035   3.153   2.138   2.802
 7379SOL    HW123036   3.058   2.169   2.798
 7379SOL    HW223037   3.191   2.135   2.709
 7380SOL     OW23038   0.351   3.088   5.180
 7380SOL    HW123039   0.421   3.152   5.148
 7380SOL    HW223040   0.368   3.064   5.275
 7381SOL     OW23041   5.018   3.520   2.112
 7381SOL    HW123042   4.958   3.467   2.052
 7381SOL    HW223043   4.994   3.617   2.107
 7382SOL     OW23044   0.435   5.372   6.463
 7382SOL    HW123045   0.369   5.332   6.399
 7382SOL    HW223046   0.388   5.407   6.543
 7383SOL     OW23047   0.863   6.775   1.296
 7383SOL    HW123048   0.953   6.767   1.253
 7383SOL    HW223049   0.803   6.828   1.237
 7384SOL     OW23050   5.576   0.702   3.310
 7384SOL    HW123051   5.596   0.679   3.405
 7384SOL    HW223052   5.504   0.771   3.306
 7385SOL     OW23053   4.486   5.719   1.671
 7385SOL    HW123054   4.437   5.795   1.714
 7385SOL    HW223055   4.572   5.704   1.719
 7386SOL     OW23056   0.827   2.218   5.414
 7386SOL    HW123057   0.832   2.172   5.325
 7386SOL    HW223058   0.905   2.190   5.470
 7387SOL     OW23059   4.442   6.274   3.804
 7387SOL    HW123060   4.346   6.290   3.781
 7387SOL    HW223061   4.460   6.308   3.896
 7388SOL     OW23062   0.278   4.751   2.853
 7388SOL    HW123063   0.221   4.671   2.872
 7388SOL    HW223064   0.314   4.787   2.939
 7389SOL     OW23065   0.451   3.044   6.381
 7389SOL    HW123066   0.506   3.064   6.300
 7389SOL    HW223067   0.404   3.127   6.411
 7390SOL     OW23068   2.132   1.429   6.986
 7390SOL    HW123069   2.189   1.402   0.038
 7390SOL    HW223070   2.045   1.465   7.020
 7391SOL     OW23071   4.584   4.011   5.301
 7391SOL    HW123072   4.628   4.032   5.389
 7391SOL    HW223073   4.575   3.911   5.292
 7392SOL     OW23074   2.374   6.103   6.857
 7392SOL    HW123075   2.415   6.165   6.791
 7392SOL    HW223076   2.397   6.133   6.950
 7393SOL     OW23077   4.980   4.805   1.903
 7393SOL    HW123078   4.968   4.776   1.998
 7393SOL    HW223079   5.073   4.838   1.890
 7394SOL     OW23080   2.723   2.388   5.747
 7394SOL    HW123081   2.776   2.473   5.740
 7394SOL    HW223082   2.629   2.406   5.719
 7395SOL     OW23083   2.139   1.852   0.269
 7395SOL    HW123084   2.152   1.773   0.329
 7395SOL    HW223085   2.213   1.856   0.202
 7396SOL     OW23086   0.942   6.529   0.608
 7396SOL    HW123087   1.031   6.552   0.568
 7396SOL    HW223088   0.869   6.575   0.557
 7397SOL     OW23089   4.248   4.822   4.766
 7397SOL    HW123090   4.301   4.827   4.851
 7397SOL    HW223091   4.162   4.871   4.777
 7398SOL     OW23092   2.644   4.822   4.772
 7398SOL    HW123093   2.592   4.828   4.857
 7398SOL    HW223094   2.636   4.730   4.734
 7399SOL     OW23095   1.207   2.354   5.481
 7399SOL    HW123096   1.195   2.445   5.441
 7399SOL    HW223097   1.145   2.289   5.435
 7400SOL     OW23098   4.090   3.330   6.033
 7400SOL    HW123099   4.049   3.309   5.945
 7400SOL    HW223100   4.035   3.289   6.106
 7401SOL     OW23101   1.845   0.509   4.432
 7401SOL    HW123102   1.889   0.419   4.429
 7401SOL    HW223103   1.746   0.498   4.422
 7402SOL     OW23104   3.288   5.925   6.163
 7402SOL    HW123105   3.338   5.842   6.137
 7402SOL    HW223106   3.218   5.902   6.231
 7403SOL     OW23107   2.236   4.085   2.551
 7403SOL    HW123108   2.143   4.096   2.516
 7403SOL    HW223109   2.235   4.032   2.635
 7404SOL     OW23110   2.556   5.444   1.304
 7404SOL    HW123111   2.527   5.537   1.282
 7404SOL    HW223112   2.519   5.380   1.237
 7405SOL     OW23113   3.562   4.993   3.974
 7405SOL    HW123114   3.488   4.996   3.907
 7405SOL    HW223115   3.545   4.918   4.039
 7406SOL     OW23116   0.638   3.164   3.125
 7406SOL    HW123117   0.636   3.069   3.155
 7406SOL    HW223118   0.726   3.205   3.151
 7407SOL     OW23119   7.021   6.274   4.537
 7407SOL    HW123120   0.062   6.319   4.476
 7407SOL    HW223121   0.040   6.195   4.581
 7408SOL     OW23122   2.123   4.215   6.459
 7408SOL    HW123123   2.081   4.197   6.547
 7408SOL    HW223124   2.222   4.201   6.466
 7409SOL     OW23125   0.398   1.542   6.193
 7409SOL    HW123126   0.413   1.462   6.251
 7409SOL    HW223127   0.412   1.517   6.097
 7410SOL     OW23128   0.010   5.934   1.239
 7410SOL    HW123129   0.043   5.971   1.152
 7410SOL    HW223130   0.069   5.858   1.268
 7411SOL     OW23131   3.137   0.352   4.805
 7411SOL    HW123132   3.189   0.323   4.724
 7411SOL    HW223133   3.134   0.276   4.870
 7412SOL     OW23134   4.688   0.439   2.330
 7412SOL    HW123135   4.758   0.367   2.328
 7412SOL    HW223136   4.627   0.424   2.408
 7413SOL     OW23137   4.989   6.056   4.680
 7413SOL    HW123138   5.026   6.071   4.589
 7413SOL    HW223139   5.022   5.968   4.715
 7414SOL     OW23140   0.441   0.301   3.642
 7414SOL    HW123141   0.366   0.248   3.601
 7414SOL    HW223142   0.510   0.321   3.572
 7415SOL     OW23143   1.832   4.156   4.051
 7415SOL    HW123144   1.924   4.194   4.066
 7415SOL    HW223145   1.832   4.103   3.966
 7416SOL     OW23146   2.512   1.765   3.875
 7416SOL    HW123147   2.558   1.681   3.845
 7416SOL    HW223148   2.559   1.801   3.956
 7417SOL     OW23149   2.079   0.790   6.493
 7417SOL    HW123150   2.160   0.841   6.462
 7417SOL    HW223151   2.104   0.734   6.572
 7418SOL     OW23152   3.215   6.054   0.778
 7418SOL    HW123153   3.253   6.058   0.685
 7418SOL    HW223154   3.284   6.086   0.843
 7419SOL     OW23155   5.530   3.200   5.138
 7419SOL    HW123156   5.498   3.278   5.191
 7419SOL    HW223157   5.528   3.223   5.040
 7420SOL     OW23158   0.755   0.155   2.082
 7420SOL    HW123159   0.839   0.102   2.089
 7420SOL    HW223160   0.771   0.248   2.115
 7421SOL     OW23161   3.424   3.541   0.754
 7421SOL    HW123162   3.465   3.629   0.731
 7421SOL    HW223163   3.325   3.549   0.751
 7422SOL     OW23164   0.278   3.283   2.501
 7422SOL    HW123165   0.362   3.292   2.449
 7422SOL    HW223166   0.268   3.362   2.562
 7423SOL     OW23167   6.518   4.616   5.530
 7423SOL    HW123168   6.585   4.616   5.605
 7423SOL    HW223169   6.426   4.614   5.568
 7424SOL     OW23170   0.134   7.005   5.658
 7424SOL    HW123171   0.093   0.028   5.580
 7424SOL    HW223172   0.181   6.923   5.626
 7425SOL     OW23173   4.536   5.617   6.828
 7425SOL    HW123174   4.517   5.599   6.924
 7425SOL    HW223175   4.451   5.639   6.780
 7426SOL     OW23176   2.238   0.958   5.913
 7426SOL    HW123177   2.192   1.002   5.990
 7426SOL    HW223178   2.170   0.915   5.853
 7427SOL     OW23179   3.317   0.093   4.296
 7427SOL    HW123180   3.383   0.169   4.296
 7427SOL    HW223181   3.227   0.127   4.268
 7428SOL     OW23182   4.209   0.956   6.076
 7428SOL    HW123183   4.128   1.008   6.105
 7428SOL    HW223184   4.282   0.967   6.143
 7429SOL     OW23185   6.603   6.816   3.501
 7429SOL    HW123186   6.673   6.885   3.517
 7429SOL    HW223187   6.520   6.859   3.466
 7430SOL     OW23188   0.888   3.407   6.643
 7430SOL    HW123189   0.867   3.336   6.576
 7430SOL    HW223190   0.921   3.364   6.727
 7431SOL     OW23191   0.859   3.003   2.846
 7431SOL    HW123192   0.866   2.989   2.945
 7431SOL    HW223193   0.763   3.016   2.822
 7432SOL     OW23194   0.391   0.744   3.189
 7432SOL    HW123195   0.484   0.708   3.199
 7432SOL    HW223196   0.326   0.669   3.191
 7433SOL     OW23197   4.970   5.112   6.025
 7433SOL    HW123198   4.912   5.035   6.051
 7433SOL    HW223199   4.929   5.197   6.056
 7434SOL     OW23200   5.532   0.032   5.706
 7434SOL    HW123201   5.604   0.076   5.759
 7434SOL    HW223202   5.539   6.957   5.716
 7435SOL     OW23203   3.634   5.915   0.735
 7435SOL    HW123204   3.651   5.948   0.828
 7435SOL    HW223205   3.708   5.854   0.707
 7436SOL     OW23206   5.693   3.570   6.956
 7436SOL    HW123207   5.705   3.489   7.013
 7436SOL    HW223208   5.621   3.553   6.888
 7437SOL     OW23209   0.893   6.240   0.629
 7437SOL    HW123210   0.828   6.199   0.693
 7437SOL    HW223211   0.887   6.340   0.636
 7438SOL     OW23212   0.761   5.235   0.392
 7438SOL    HW123213   0.704   5.156   0.369
 7438SOL    HW223214   0.832   5.246   0.323
 7439SOL     OW23215   1.742   5.749   5.222
 7439SOL    HW123216   1.649   5.718   5.200
 7439SOL    HW223217   1.808   5.680   5.191
 7440SOL     OW23218   6.836   3.746   4.580
 7440SOL    HW123219   6.882   3.729   4.493
 7440SOL    HW223220   6.868   3.831   4.619
 7441SOL     OW23221   5.518   6.532   4.100
 7441SOL    HW123222   5.433   6.519   4.049
 7441SOL    HW223223   5.547   6.445   4.138
 7442SOL     OW23224   0.041   0.912   6.030
 7442SOL    HW123225   6.992   0.847   6.049
 7442SOL    HW223226   0.102   0.917   6.109
 7443SOL     OW23227   0.269   0.499   2.551
 7443SOL    HW123228   0.314   0.438   2.617
 7443SOL    HW223229   0.225   0.574   2.600
 7444SOL     OW23230   6.066   2.843   5.436
 7444SOL    HW123231   6.040   2.768   5.374
 7444SOL    HW223232   6.067   2.929   5.385
 7445SOL     OW23233   3.848   1.110   1.220
 7445SOL    HW123234   3.860   1.014   1.195
 7445SOL    HW223235   3.936   1.148   1.248
 7446SOL     OW23236   5.529   3.767   1.084
 7446SOL    HW123237   5.582   3.750   1.167
 7446SOL    HW223238   5.572   3.840   1.031
 7447SOL     OW23239   0.463   3.637   6.033
 7447SOL    HW123240   0.561   3.633   6.052
 7447SOL    HW223241   0.421   3.548   6.052
 7448SOL     OW23242   6.313   6.700   5.906
 7448SOL    HW123243   6.247   6.727   5.836
 7448SOL    HW223244   6.386   6.645   5.865
 7449SOL     OW23245   6.319   3.509   1.454
 7449SOL    HW123246   6.269   3.595   1.460
 7449SOL    HW223247   6.317   3.476   1.359
 7450SOL     OW23248   5.321   2.061   4.583
 7450SOL    HW123249   5.356   2.030   4.671
 7450SOL    HW223250   5.366   2.010   4.509
 7451SOL     OW23251   0.381   0.095   3.315
 7451SOL    HW123252   0.462   0.037   3.314
 7451SOL    HW223253   0.370   0.139   3.227
 7452SOL     OW23254   0.765   6.191   4.759
 7452SOL    HW123255   0.843   6.174   4.819
 7452SOL    HW223256   0.685   6.142   4.794
 7453SOL     OW23257   4.721   6.570   5.467
 7453SOL    HW123258   4.714   6.601   5.372
 7453SOL    HW223259   4.639   6.598   5.517
 7454SOL     OW23260   0.452   2.523   2.273
 7454SOL    HW123261   0.416   2.614   2.251
 7454SOL    HW223262   0.536   2.533   2.327
 7455SOL     OW23263   6.691   1.560   2.493
 7455SOL    HW123264   6.742   1.591   2.412
 7455SOL    HW223265   6.752   1.563   2.572
 7456SOL     OW23266   0.576   1.833   4.068
 7456SOL    HW123267   0.507   1.901   4.044
 7456SOL    HW223268   0.627   1.865   4.149
 7457SOL     OW23269   3.873   0.102   6.011
 7457SOL    HW123270   3.905   0.173   6.073
 7457SOL    HW223271   3.856   0.018   6.062
 7458SOL     OW23272   2.098   6.840   6.082
 7458SOL    HW123273   2.090   6.770   6.011
 7458SOL    HW223274   2.193   6.872   6.087
 7459SOL     OW23275   5.147   0.745   1.760
 7459SOL    HW123276   5.055   0.720   1.731
 7459SOL    HW223277   5.141   0.816   1.831
 7460SOL     OW23278   2.196   5.352   1.269
 7460SOL    HW123279   2.201   5.305   1.357
 7460SOL    HW223280   2.116   5.412   1.268
 7461SOL     OW23281   6.488   1.631   5.747
 7461SOL    HW123282   6.491   1.534   5.771
 7461SOL    HW223283   6.492   1.686   5.831
 7462SOL     OW23284   1.722   4.042   2.385
 7462SOL    HW123285   1.683   4.113   2.326
 7462SOL    HW223286   1.652   3.973   2.404
 7463SOL     OW23287   2.735   4.769   0.798
 7463SOL    HW123288   2.815   4.827   0.812
 7463SOL    HW223289   2.764   4.679   0.764
 7464SOL     OW23290   5.123   0.334   6.702
 7464SOL    HW123291   5.116   0.428   6.736
 7464SOL    HW223292   5.032   0.302   6.674
 7465SOL     OW23293   1.100   5.498   0.120
 7465SOL    HW123294   1.107   5.416   0.177
 7465SOL    HW223295   1.077   5.577   0.178
 7466SOL     OW23296   0.592   0.312   5.785
 7466SOL    HW123297   0.659   0.371   5.829
 7466SOL    HW223298   0.605   0.218   5.816
 7467SOL     OW23299   0.140   2.065   0.841
 7467SOL    HW123300   0.053   2.018   0.825
 7467SOL    HW223301   0.154   2.075   0.939
 7468SOL     OW23302   5.982   2.525   3.890
 7468SOL    HW123303   6.015   2.463   3.961
 7468SOL    HW223304   6.024   2.615   3.902
 7469SOL     OW23305   0.265   0.891   0.772
 7469SOL    HW123306   0.206   0.830   0.824
 7469SOL    HW223307   0.214   0.930   0.695
 7470SOL     OW23308   6.901   3.209   3.773
 7470SOL    HW123309   6.942   3.263   3.699
 7470SOL    HW223310   6.951   3.123   3.783
 7471SOL     OW23311   6.869   5.899   6.008
 7471SOL    HW123312   6.791   5.881   6.068
 7471SOL    HW223313   6.939   5.948   6.059
 7472SOL     OW23314   5.970   0.026   4.489
 7472SOL    HW123315   6.033   0.019   4.566
 7472SOL    HW223316   5.960   6.962   4.445
 7473SOL     OW23317   6.730   4.687   2.997
 7473SOL    HW123318   6.656   4.743   2.960
 7473SOL    HW223319   6.809   4.746   3.016
 7474SOL     OW23320   2.034   1.476   5.367
 7474SOL    HW123321   2.027   1.510   5.273
 7474SOL    HW223322   1.966   1.522   5.424
 7475SOL     OW23323   4.444   1.845   2.106
 7475SOL    HW123324   4.375   1.857   2.035
 7475SOL    HW223325   4.499   1.928   2.113
 7476SOL     OW23326   3.086   6.068   3.444
 7476SOL    HW123327   3.025   6.137   3.405
 7476SOL    HW223328   3.040   5.979   3.446
 7477SOL     OW23329   0.158   0.669   5.028
 7477SOL    HW123330   0.067   0.667   5.068
 7477SOL    HW223331   0.156   0.722   4.943
 7478SOL     OW23332   5.103   5.626   6.503
 7478SOL    HW123333   5.048   5.562   6.557
 7478SOL    HW223334   5.057   5.645   6.416
 7479SOL     OW23335   3.984   2.655   1.632
 7479SOL    HW123336   3.983   2.741   1.683
 7479SOL    HW223337   4.045   2.663   1.554
 7480SOL     OW23338   0.155   4.014   1.888
 7480SOL    HW123339   0.120   4.082   1.824
 7480SOL    HW223340   0.113   4.028   1.977
 7481SOL     OW23341   6.002   5.417   1.239
 7481SOL    HW123342   5.996   5.317   1.238
 7481SOL    HW223343   6.048   5.447   1.323
 7482SOL     OW23344   4.196   2.159   3.034
 7482SOL    HW123345   4.242   2.220   2.969
 7482SOL    HW223346   4.103   2.191   3.050
 7483SOL     OW23347   4.883   3.269   4.643
 7483SOL    HW123348   4.893   3.366   4.619
 7483SOL    HW223349   4.900   3.257   4.741
 7484SOL     OW23350   1.089   1.140   3.379
 7484SOL    HW123351   1.056   1.209   3.314
 7484SOL    HW223352   1.136   1.067   3.329
 7485SOL     OW23353   3.493   0.548   5.108
 7485SOL    HW123354   3.509   0.644   5.131
 7485SOL    HW223355   3.461   0.542   5.013
 7486SOL     OW23356   2.115   0.368   0.033
 7486SOL    HW123357   2.133   0.461   0.063
 7486SOL    HW223358   2.197   0.312   0.042
 7487SOL     OW23359   2.501   6.333   2.664
 7487SOL    HW123360   2.484   6.423   2.623
 7487SOL    HW223361   2.466   6.332   2.758
 7488SOL     OW23362   2.140   6.809   4.066
 7488SOL    HW123363   2.143   6.757   4.151
 7488SOL    HW223364   2.125   6.746   3.989
 7489SOL     OW23365   5.219   2.672   4.463
 7489SOL    HW123366   5.167   2.587   4.456
 7489SOL    HW223367   5.312   2.657   4.427
 7490SOL     OW23368   1.236   0.701   1.992
 7490SOL    HW123369   1.234   0.625   1.927
 7490SOL    HW223370   1.306   0.767   1.964
 7491SOL     OW23371   5.885   2.704   5.978
 7491SOL    HW123372   5.900   2.798   5.945
 7491SOL    HW223373   5.933   2.640   5.918
 7492SOL     OW23374   1.736   0.756   3.452
 7492SOL    HW123375   1.644   0.795   3.450
 7492SOL    HW223376   1.735   0.673   3.509
 7493SOL     OW23377   0.146   3.681   6.850
 7493SOL    HW123378   0.116   3.587   6.868
 7493SOL    HW223379   0.239   3.681   6.815
 7494SOL     OW23380   4.984   0.891   2.709
 7494SOL    HW123381   4.973   0.811   2.650
 7494SOL    HW223382   4.895   0.932   2.727
 7495SOL     OW23383   1.551   1.204   0.098
 7495SOL    HW123384   1.541   1.293   0.142
 7495SOL    HW223385   1.555   1.217   7.023
 7496SOL     OW23386   6.554   3.524   6.060
 7496SOL    HW123387   6.578   3.510   6.156
 7496SOL    HW223388   6.623   3.581   6.016
 7497SOL     OW23389   2.239   4.303   0.145
 7497SOL    HW123390   2.225   4.279   0.241
 7497SOL    HW223391   2.150   4.323   0.103
 7498SOL     OW23392   2.731   0.988   5.833
 7498SOL    HW123393   2.818   0.977   5.881
 7498SOL    HW223394   2.729   1.078   5.789
 7499SOL     OW23395   3.612   2.024   3.022
 7499SOL    HW123396   3.622   2.021   3.122
 7499SOL    HW223397   3.523   2.064   2.999
 7500SOL     OW23398   3.063   5.437   3.569
 7500SOL    HW123399   3.104   5.516   3.524
 7500SOL    HW223400   3.058   5.452   3.667
 7501SOL     OW23401   5.595   4.260   4.436
 7501SOL    HW123402   5.539   4.204   4.497
 7501SOL    HW223403   5.587   4.226   4.343
 7502SOL     OW23404   1.616   0.157   3.553
 7502SOL    HW123405   1.528   0.179   3.594
 7502SOL    HW223406   1.689   0.182   3.616
 7503SOL     OW23407   3.190   1.493   0.813
 7503SOL    HW123408   3.238   1.422   0.760
 7503SOL    HW223409   3.256   1.541   0.871
 7504SOL     OW23410   1.257   0.103   3.013
 7504SOL    HW123411   1.214   0.133   3.098
 7504SOL    HW223412   1.202   0.131   2.935
 7505SOL     OW23413   1.721   1.436   5.703
 7505SOL    HW123414   1.744   1.530   5.680
 7505SOL    HW223415   1.622   1.423   5.698
 7506SOL     OW23416   5.569   0.512   3.115
 7506SOL    HW123417   5.593   0.579   3.187
 7506SOL    HW223418   5.578   0.555   3.026
 7507SOL     OW23419   0.883   0.659   2.125
 7507SOL    HW123420   0.798   0.665   2.176
 7507SOL    HW223421   0.960   0.650   2.189
 7508SOL     OW23422   0.986   6.683   1.723
 7508SOL    HW123423   0.957   6.762   1.669
 7508SOL    HW223424   1.043   6.623   1.667
 7509SOL     OW23425   5.182   4.445   0.401
 7509SOL    HW123426   5.158   4.502   0.480
 7509SOL    HW223427   5.101   4.394   0.371
 7510SOL     OW23428   3.736   4.049   5.378
 7510SOL    HW123429   3.740   4.088   5.470
 7510SOL    HW223430   3.650   4.074   5.335
 7511SOL     OW23431   2.793   6.914   3.948
 7511SOL    HW123432   2.785   6.918   4.048
 7511SOL    HW223433   2.740   6.988   3.907
 7512SOL     OW23434   2.804   6.553   6.461
 7512SOL    HW123435   2.889   6.521   6.504
 7512SOL    HW223436   2.824   6.586   6.369
 7513SOL     OW23437   2.372   0.435   1.634
 7513SOL    HW123438   2.411   0.489   1.708
 7513SOL    HW223439   2.393   0.338   1.648
 7514SOL     OW23440   2.324   5.840   1.641
 7514SOL    HW123441   2.409   5.790   1.630
 7514SOL    HW223442   2.292   5.873   1.552
 7515SOL     OW23443   6.843   4.962   2.685
 7515SOL    HW123444   6.942   4.961   2.705
 7515SOL    HW223445   6.796   5.010   2.759
 7516SOL     OW23446   6.332   6.439   5.646
 7516SOL    HW123447   6.352   6.342   5.663
 7516SOL    HW223448   6.415   6.493   5.660
 7517SOL     OW23449   0.267   3.109   0.623
 7517SOL    HW123450   0.348   3.067   0.664
 7517SOL    HW223451   0.218   3.160   0.694
 7518SOL     OW23452   4.332   5.088   3.652
 7518SOL    HW123453   4.266   5.013   3.652
 7518SOL    HW223454   4.424   5.052   3.634
 7519SOL     OW23455   0.018   6.800   3.680
 7519SOL    HW123456   0.057   6.867   3.743
 7519SOL    HW223457   0.064   6.712   3.693
 7520SOL     OW23458   2.677   0.303   2.626
 7520SOL    HW123459   2.690   0.342   2.717
 7520SOL    HW223460   2.596   0.344   2.584
 7521SOL     OW23461   5.157   4.171   6.236
 7521SOL    HW123462   5.220   4.094   6.230
 7521SOL    HW223463   5.069   4.146   6.195
 7522SOL     OW23464   2.290   0.923   6.370
 7522SOL    HW123465   2.312   0.990   6.441
 7522SOL    HW223466   2.368   0.861   6.358
 7523SOL     OW23467   5.996   0.206   5.479
 7523SOL    HW123468   5.935   0.240   5.550
 7523SOL    HW223469   5.989   0.264   5.398
 7524SOL     OW23470   1.740   1.696   5.628
 7524SOL    HW123471   1.837   1.711   5.614
 7524SOL    HW223472   1.688   1.770   5.584
 7525SOL     OW23473   3.654   0.615   6.422
 7525SOL    HW123474   3.586   0.560   6.471
 7525SOL    HW223475   3.613   0.649   6.337
 7526SOL     OW23476   2.860   3.159   1.832
 7526SOL    HW123477   2.869   3.201   1.923
 7526SOL    HW223478   2.771   3.185   1.793
 7527SOL     OW23479   3.299   6.120   3.263
 7527SOL    HW123480   3.213   6.098   3.310
 7527SOL    HW223481   3.371   6.132   3.331
 7528SOL     OW23482   5.236   1.795   0.087
 7528SOL    HW123483   5.212   1.801   7.015
 7528SOL    HW223484   5.325   1.750   0.096
 7529SOL     OW23485   4.760   0.919   4.463
 7529SOL    HW123486   4.840   0.978   4.475
 7529SOL    HW223487   4.737   0.912   4.366
 7530SOL     OW23488   0.724   3.502   3.053
 7530SOL    HW123489   0.729   3.593   3.011
 7530SOL    HW223490   0.753   3.434   2.986
 7531SOL     OW23491   5.298   3.257   4.404
 7531SOL    HW123492   5.255   3.303   4.481
 7531SOL    HW223493   5.292   3.158   4.417
 7532SOL     OW23494   5.504   4.942   6.930
 7532SOL    HW123495   5.558   4.916   6.850
 7532SOL    HW223496   5.407   4.923   6.913
 7533SOL     OW23497   2.521   1.873   2.068
 7533SOL    HW123498   2.510   1.968   2.038
 7533SOL    HW223499   2.615   1.843   2.051
 7534SOL     OW23500   4.197   6.012   5.390
 7534SOL    HW123501   4.133   6.052   5.456
 7534SOL    HW223502   4.147   5.953   5.327
 7535SOL     OW23503   1.929   6.928   5.005
 7535SOL    HW123504   1.935   7.024   5.031
 7535SOL    HW223505   1.833   6.899   5.004
 7536SOL     OW23506   4.669   4.450   4.711
 7536SOL    HW123507   4.593   4.479   4.769
 7536SOL    HW223508   4.661   4.494   4.622
 7537SOL     OW23509   3.068   5.995   2.646
 7537SOL    HW123510   3.006   6.074   2.653
 7537SOL    HW223511   3.032   5.931   2.577
 7538SOL     OW23512   2.247   3.091   1.530
 7538SOL    HW123513   2.206   3.029   1.597
 7538SOL    HW223514   2.228   3.185   1.557
 7539SOL     OW23515   0.793   3.317   4.675
 7539SOL    HW123516   0.785   3.406   4.720
 7539SOL    HW223517   0.890   3.297   4.660
 7540SOL     OW23518   4.378   0.146   4.711
 7540SOL    HW123519   4.448   0.182   4.773
 7540SOL    HW223520   4.310   0.095   4.764
 7541SOL     OW23521   0.420   4.178   5.091
 7541SOL    HW123522   0.323   4.201   5.095
 7541SOL    HW223523   0.470   4.229   5.161
 7542SOL     OW23524   1.036   5.001   6.528
 7542SOL    HW123525   1.030   4.984   6.429
 7542SOL    HW223526   1.110   5.066   6.546
 7543SOL     OW23527   3.602   2.142   6.730
 7543SOL    HW123528   3.648   2.196   6.659
 7543SOL    HW223529   3.671   2.104   6.792
 7544SOL     OW23530   0.367   2.524   2.843
 7544SOL    HW123531   0.336   2.485   2.756
 7544SOL    HW223532   0.460   2.559   2.833
 7545SOL     OW23533   6.539   5.783   0.639
 7545SOL    HW123534   6.573   5.811   0.549
 7545SOL    HW223535   6.481   5.702   0.629
 7546SOL     OW23536   3.189   2.011   1.970
 7546SOL    HW123537   3.193   1.915   1.995
 7546SOL    HW223538   3.279   2.042   1.939
 7547SOL     OW23539   5.478   1.121   0.937
 7547SOL    HW123540   5.461   1.087   1.029
 7547SOL    HW223541   5.427   1.067   0.871
 7548SOL     OW23542   3.952   1.552   0.110
 7548SOL    HW123543   3.887   1.597   0.050
 7548SOL    HW223544   4.031   1.611   0.125
 7549SOL     OW23545   4.911   2.477   0.628
 7549SOL    HW123546   4.815   2.505   0.620
 7549SOL    HW223547   4.916   2.392   0.681
 7550SOL     OW23548   2.589   5.144   2.717
 7550SOL    HW123549   2.593   5.220   2.782
 7550SOL    HW223550   2.580   5.058   2.767
 7551SOL     OW23551   5.347   3.733   6.739
 7551SOL    HW123552   5.340   3.689   6.829
 7551SOL    HW223553   5.335   3.832   6.750
 7552SOL     OW23554   1.359   5.803   2.912
 7552SOL    HW123555   1.292   5.831   2.844
 7552SOL    HW223556   1.328   5.830   3.003
 7553SOL     OW23557   4.464   6.355   5.932
 7553SOL    HW123558   4.532   6.371   6.004
 7553SOL    HW223559   4.501   6.289   5.866
 7554SOL     OW23560   4.650   1.098   0.421
 7554SOL    HW123561   4.612   1.020   0.371
 7554SOL    HW223562   4.672   1.171   0.357
 7555SOL     OW23563   2.500   4.583   6.032
 7555SOL    HW123564   2.585   4.541   6.064
 7555SOL    HW223565   2.521   4.649   5.959
 7556SOL     OW23566   1.672   2.854   0.172
 7556SOL    HW123567   1.622   2.772   0.199
 7556SOL    HW223568   1.766   2.830   0.150
 7557SOL     OW23569   4.890   1.574   5.562
 7557SOL    HW123570   4.895   1.541   5.468
 7557SOL    HW223571   4.873   1.496   5.623
 7558SOL     OW23572   1.152   2.909   3.956
 7558SOL    HW123573   1.129   2.913   3.859
 7558SOL    HW223574   1.242   2.866   3.967
 7559SOL     OW23575   5.083   4.513   6.555
 7559SOL    HW123576   5.055   4.419   6.576
 7559SOL    HW223577   5.132   4.514   6.468
 7560SOL     OW23578   4.771   6.999   1.112
 7560SOL    HW123579   4.701   6.963   1.050
 7560SOL    HW223580   4.730   0.043   1.172
 7561SOL     OW23581   1.162   3.285   6.606
 7561SOL    HW123582   1.197   3.379   6.615
 7561SOL    HW223583   1.116   3.259   6.691
 7562SOL     OW23584   0.011   6.447   3.934
 7562SOL    HW123585   6.950   6.479   3.972
 7562SOL    HW223586   0.030   6.354   3.967
 7563SOL     OW23587   2.954   0.163   1.084
 7563SOL    HW123588   2.943   0.064   1.074
 7563SOL    HW223589   3.035   0.182   1.140
 7564SOL     OW23590   4.880   0.650   3.313
 7564SOL    HW123591   4.955   0.605   3.264
 7564SOL    HW223592   4.793   0.607   3.287
 7565SOL     OW23593   5.279   3.370   1.007
 7565SOL    HW123594   5.190   3.403   0.976
 7565SOL    HW223595   5.268   3.321   1.093
 7566SOL     OW23596   5.772   4.426   2.776
 7566SOL    HW123597   5.739   4.398   2.686
 7566SOL    HW223598   5.707   4.400   2.846
 7567SOL     OW23599   1.829   2.342   4.397
 7567SOL    HW123600   1.761   2.281   4.438
 7567SOL    HW223601   1.880   2.292   4.326
 7568SOL     OW23602   5.363   6.322   2.878
 7568SOL    HW123603   5.461   6.319   2.858
 7568SOL    HW223604   5.319   6.386   2.816
 7569SOL     OW23605   3.860   5.672   6.083
 7569SOL    HW123606   3.807   5.589   6.063
 7569SOL    HW223607   3.864   5.686   6.182
 7570SOL     OW23608   5.907   3.346   5.330
 7570SOL    HW123609   5.835   3.290   5.371
 7570SOL    HW223610   5.956   3.395   5.402
 7571SOL     OW23611   4.091   5.476   3.495
 7571SOL    HW123612   4.017   5.433   3.547
 7571SOL    HW223613   4.158   5.407   3.469
 7572SOL     OW23614   4.922   0.993   1.713
 7572SOL    HW123615   4.892   0.973   1.806
 7572SOL    HW223616   4.959   1.086   1.710
 7573SOL     OW23617   0.542   6.842   5.085
 7573SOL    HW123618   0.491   6.898   5.151
 7573SOL    HW223619   0.625   6.807   5.128
 7574SOL     OW23620   5.927   0.767   5.672
 7574SOL    HW123621   5.984   0.747   5.752
 7574SOL    HW223622   5.986   0.786   5.594
 7575SOL     OW23623   5.113   6.813   6.721
 7575SOL    HW123624   5.136   6.854   6.633
 7575SOL    HW223625   5.124   6.881   6.793
 7576SOL     OW23626   4.966   4.615   6.817
 7576SOL    HW123627   4.984   4.522   6.785
 7576SOL    HW223628   4.960   4.677   6.739
 7577SOL     OW23629   0.803   6.847   0.105
 7577SOL    HW123630   0.878   6.903   0.140
 7577SOL    HW223631   0.752   6.898   0.035
 7578SOL     OW23632   2.191   5.176   2.231
 7578SOL    HW123633   2.160   5.184   2.137
 7578SOL    HW223634   2.276   5.124   2.234
 7579SOL     OW23635   6.594   0.631   1.850
 7579SOL    HW123636   6.534   0.552   1.859
 7579SOL    HW223637   6.655   0.636   1.929
 7580SOL     OW23638   0.800   3.884   4.176
 7580SOL    HW123639   0.762   3.792   4.177
 7580SOL    HW223640   0.737   3.947   4.131
 7581SOL     OW23641   6.846   0.923   0.899
 7581SOL    HW123642   6.846   1.019   0.870
 7581SOL    HW223643   6.865   0.918   0.997
 7582SOL     OW23644   3.965   1.267   1.554
 7582SOL    HW123645   3.917   1.352   1.574
 7582SOL    HW223646   3.995   1.268   1.458
 7583SOL     OW23647   6.427   3.049   1.493
 7583SOL    HW123648   6.336   3.065   1.456
 7583SOL    HW223649   6.495   3.094   1.434
 7584SOL     OW23650   3.158   6.833   1.285
 7584SOL    HW123651   3.205   6.813   1.371
 7584SOL    HW223652   3.218   6.811   1.208
 7585SOL     OW23653   1.112   2.604   6.431
 7585SOL    HW123654   1.159   2.693   6.426
 7585SOL    HW223655   1.066   2.586   6.344
 7586SOL     OW23656   2.515   1.193   3.413
 7586SOL    HW123657   2.460   1.136   3.353
 7586SOL    HW223658   2.461   1.221   3.493
 7587SOL     OW23659   2.428   2.259   0.107
 7587SOL    HW123660   2.396   2.198   0.035
 7587SOL    HW223661   2.355   2.274   0.173
 7588SOL     OW23662   1.886   3.235   3.470
 7588SOL    HW123663   1.804   3.273   3.513
 7588SOL    HW223664   1.903   3.282   3.383
 7589SOL     OW23665   1.148   0.410   2.478
 7589SOL    HW123666   1.063   0.461   2.463
 7589SOL    HW223667   1.179   0.372   2.391
 7590SOL     OW23668   4.082   1.694   5.960
 7590SOL    HW123669   4.141   1.757   5.910
 7590SOL    HW223670   4.016   1.745   6.015
 7591SOL     OW23671   0.331   4.040   0.344
 7591SOL    HW123672   0.299   4.101   0.417
 7591SOL    HW223673   0.291   3.950   0.355
 7592SOL     OW23674   6.747   4.702   5.182
 7592SOL    HW123675   6.734   4.675   5.087
 7592SOL    HW223676   6.759   4.801   5.188
 7593SOL     OW23677   6.056   3.165   0.922
 7593SOL    HW123678   5.984   3.096   0.926
 7593SOL    HW223679   6.020   3.253   0.954
 7594SOL     OW23680   0.812   5.507   2.445
 7594SOL    HW123681   0.770   5.435   2.502
 7594SOL    HW223682   0.843   5.582   2.503
 7595SOL     OW23683   6.640   2.615   6.046
 7595SOL    HW123684   6.558   2.558   6.054
 7595SOL    HW223685   6.715   2.559   6.011
 7596SOL     OW23686   4.401   5.495   4.225
 7596SOL    HW123687   4.453   5.528   4.147
 7596SOL    HW223688   4.333   5.428   4.194
 7597SOL     OW23689   2.857   6.706   2.837
 7597SOL    HW123690   2.888   6.616   2.804
 7597SOL    HW223691   2.935   6.767   2.846
 7598SOL     OW23692   6.945   1.505   3.408
 7598SOL    HW123693   6.995   1.591   3.416
 7598SOL    HW223694   6.875   1.513   3.337
 7599SOL     OW23695   5.280   2.025   2.302
 7599SOL    HW123696   5.193   2.065   2.328
 7599SOL    HW223697   5.265   1.938   2.254
 7600SOL     OW23698   1.548   1.674   2.442
 7600SOL    HW123699   1.477   1.719   2.389
 7600SOL    HW223700   1.638   1.703   2.408
 7601SOL     OW23701   1.462   5.349   3.010
 7601SOL    HW123702   1.486   5.309   2.921
 7601SOL    HW223703   1.534   5.413   3.038
 7602SOL     OW23704   1.887   4.308   6.377
 7602SOL    HW123705   1.816   4.248   6.414
 7602SOL    HW223706   1.977   4.267   6.392
 7603SOL     OW23707   1.683   5.740   6.369
 7603SOL    HW123708   1.673   5.771   6.275
 7603SOL    HW223709   1.762   5.784   6.411
 7604SOL     OW23710   1.942   4.021   4.387
 7604SOL    HW123711   1.989   4.045   4.472
 7604SOL    HW223712   1.924   4.104   4.334
 7605SOL     OW23713   1.073   0.068   1.209
 7605SOL    HW123714   1.061   7.016   1.145
 7605SOL    HW223715   0.991   0.124   1.208
 7606SOL     OW23716   5.852   3.850   5.239
 7606SOL    HW123717   5.887   3.820   5.328
 7606SOL    HW223718   5.755   3.871   5.247
 7607SOL     OW23719   3.176   4.838   0.100
 7607SOL    HW123720   3.216   4.841   0.192
 7607SOL    HW223721   3.249   4.829   0.032
 7608SOL     OW23722   4.128   3.408   2.121
 7608SOL    HW123723   4.221   3.383   2.094
 7608SOL    HW223724   4.094   3.342   2.189
 7609SOL     OW23725   1.274   3.442   4.353
 7609SOL    HW123726   1.175   3.456   4.348
 7609SOL    HW223727   1.318   3.524   4.390
 7610SOL     OW23728   4.367   5.143   6.140
 7610SOL    HW123729   4.338   5.076   6.209
 7610SOL    HW223730   4.331   5.117   6.051
 7611SOL     OW23731   6.312   2.952   1.130
 7611SOL    HW123732   6.274   2.872   1.084
 7611SOL    HW223733   6.246   2.987   1.197
 7612SOL     OW23734   4.485   2.538   3.721
 7612SOL    HW123735   4.583   2.523   3.718
 7612SOL    HW223736   4.464   2.629   3.685
 7613SOL     OW23737   6.677   3.162   0.948
 7613SOL    HW123738   6.667   3.160   0.848
 7613SOL    HW223739   6.672   3.069   0.984
 7614SOL     OW23740   5.177   2.866   0.889
 7614SOL    HW123741   5.114   2.843   0.815
 7614SOL    HW223742   5.196   2.784   0.943
 7615SOL     OW23743   3.703   5.026   0.397
 7615SOL    HW123744   3.733   4.976   0.479
 7615SOL    HW223745   3.620   5.076   0.417
 7616SOL     OW23746   5.801   5.915   4.173
 7616SOL    HW123747   5.802   5.993   4.111
 7616SOL    HW223748   5.895   5.886   4.192
 7617SOL     OW23749   4.030   5.123   2.334
 7617SOL    HW123750   4.100   5.070   2.286
 7617SOL    HW223751   4.058   5.219   2.337
 7618SOL     OW23752   0.351   1.170   5.496
 7618SOL    HW123753   0.264   1.125   5.478
 7618SOL    HW223754   0.337   1.269   5.504
 7619SOL     OW23755   5.597   2.721   5.376
 7619SOL    HW123756   5.541   2.797   5.342
 7619SOL    HW223757   5.598   2.722   5.476
 7620SOL     OW23758   3.970   5.852   0.768
 7620SOL    HW123759   3.998   5.948   0.769
 7620SOL    HW223760   4.007   5.807   0.687
 7621SOL     OW23761   6.813   1.625   0.839
 7621SOL    HW123762   6.857   1.661   0.922
 7621SOL    HW223763   6.832   1.527   0.830
 7622SOL     OW23764   4.528   5.451   0.337
 7622SOL    HW123765   4.497   5.401   0.418
 7622SOL    HW223766   4.615   5.413   0.306
 7623SOL     OW23767   4.445   4.265   0.335
 7623SOL    HW123768   4.425   4.307   0.246
 7623SOL    HW223769   4.397   4.315   0.407
 7624SOL     OW23770   6.752   3.653   4.959
 7624SOL    HW123771   6.672   3.705   4.929
 7624SOL    HW223772   6.800   3.616   4.880
 7625SOL     OW23773   4.890   0.433   1.623
 7625SOL    HW123774   4.887   0.368   1.699
 7625SOL    HW223775   4.886   0.527   1.659
 7626SOL     OW23776   5.924   6.802   4.406
 7626SOL    HW123777   5.873   6.726   4.447
 7626SOL    HW223778   6.008   6.767   4.365
 7627SOL     OW23779   4.656   3.237   0.025
 7627SOL    HW123780   4.703   3.316   7.010
 7627SOL    HW223781   4.596   3.196   6.981
 7628SOL     OW23782   3.677   1.939   2.011
 7628SOL    HW123783   3.664   2.035   1.989
 7628SOL    HW223784   3.601   1.886   1.973
 7629SOL     OW23785   7.023   6.311   3.368
 7629SOL    HW123786   0.061   6.274   3.436
 7629SOL    HW223787   0.047   6.377   3.311
 7630SOL     OW23788   6.943   6.719   1.093
 7630SOL    HW123789   6.987   6.640   1.050
 7630SOL    HW223790   6.964   6.719   1.191
 7631SOL     OW23791   0.741   1.239   6.567
 7631SOL    HW123792   0.811   1.308   6.585
 7631SOL    HW223793   0.680   1.230   6.646
 7632SOL     OW23794   3.642   3.295   1.423
 7632SOL    HW123795   3.690   3.266   1.506
 7632SOL    HW223796   3.583   3.372   1.445
 7633SOL     OW23797   5.590   0.760   1.141
 7633SOL    HW123798   5.615   0.714   1.226
 7633SOL    HW223799   5.584   0.858   1.156
 7634SOL     OW23800   1.192   2.136   2.785
 7634SOL    HW123801   1.289   2.113   2.789
 7634SOL    HW223802   1.144   2.065   2.733
 7635SOL     OW23803   3.778   5.040   4.985
 7635SOL    HW123804   3.781   5.126   4.934
 7635SOL    HW223805   3.682   5.018   5.006
 7636SOL     OW23806   1.739   2.831   3.941
 7636SOL    HW123807   1.669   2.762   3.923
 7636SOL    HW223808   1.756   2.836   4.040
 7637SOL     OW23809   2.170   5.189   2.658
 7637SOL    HW123810   2.115   5.174   2.740
 7637SOL    HW223811   2.176   5.287   2.639
 7638SOL     OW23812   2.622   6.198   1.190
 7638SOL    HW123813   2.693   6.186   1.120
 7638SOL    HW223814   2.583   6.290   1.182
 7639SOL     OW23815   1.035   2.445   0.632
 7639SOL    HW123816   1.051   2.390   0.550
 7639SOL    HW223817   1.122   2.482   0.665
 7640SOL     OW23818   3.336   1.211   5.586
 7640SOL    HW123819   3.388   1.287   5.625
 7640SOL    HW223820   3.395   1.156   5.528
 7641SOL     OW23821   1.142   4.072   2.322
 7641SOL    HW123822   1.169   4.031   2.235
 7641SOL    HW223823   1.064   4.023   2.360
 7642SOL     OW23824   3.788   1.087   3.257
 7642SOL    HW123825   3.838   1.157   3.206
 7642SOL    HW223826   3.812   1.092   3.354
 7643SOL     OW23827   4.732   2.896   3.888
 7643SOL    HW123828   4.769   2.810   3.852
 7643SOL    HW223829   4.668   2.876   3.962
 7644SOL     OW23830   5.799   2.316   2.495
 7644SOL    HW123831   5.850   2.402   2.503
 7644SOL    HW223832   5.744   2.318   2.412
 7645SOL     OW23833   4.220   3.412   5.696
 7645SOL    HW123834   4.277   3.367   5.764
 7645SOL    HW223835   4.278   3.469   5.637
 7646SOL     OW23836   1.209   3.613   2.947
 7646SOL    HW123837   1.301   3.647   2.925
 7646SOL    HW223838   1.158   3.682   2.997
 7647SOL     OW23839   6.961   2.799   3.426
 7647SOL    HW123840   6.888   2.826   3.489
 7647SOL    HW223841   6.948   2.844   3.338
 7648SOL     OW23842   3.002   1.641   2.854
 7648SOL    HW123843   3.031   1.732   2.886
 7648SOL    HW223844   2.943   1.651   2.774
 7649SOL     OW23845   0.771   1.393   2.730
 7649SOL    HW123846   0.824   1.461   2.679
 7649SOL    HW223847   0.825   1.360   2.808
 7650SOL     OW23848   4.501   1.672   0.347
 7650SOL    HW123849   4.556   1.589   0.337
 7650SOL    HW223850   4.413   1.649   0.387
 7651SOL     OW23851   2.040   0.670   3.735
 7651SOL    HW123852   2.001   0.599   3.677
 7651SOL    HW223853   2.079   0.629   3.817
 7652SOL     OW23854   6.038   3.770   5.733
 7652SOL    HW123855   6.069   3.694   5.675
 7652SOL    HW223856   5.962   3.817   5.688
 7653SOL     OW23857   0.839   1.641   6.932
 7653SOL    HW123858   0.830   1.545   6.958
 7653SOL    HW223859   0.930   1.656   6.894
 7654SOL     OW23860   4.911   3.212   4.356
 7654SOL    HW123861   4.861   3.137   4.312
 7654SOL    HW223862   4.903   3.203   4.455
 7655SOL     OW23863   4.324   6.988   2.721
 7655SOL    HW123864   4.332   6.892   2.696
 7655SOL    HW223865   4.277   6.996   2.809
 7656SOL     OW23866   2.670   3.803   6.070
 7656SOL    HW123867   2.689   3.899   6.090
 7656SOL    HW223868   2.710   3.746   6.143
 7657SOL     OW23869   1.055   2.558   3.930
 7657SOL    HW123870   1.115   2.516   3.862
 7657SOL    HW223871   1.101   2.635   3.973
 7658SOL     OW23872   4.358   0.021   6.427
 7658SOL    HW123873   4.299   0.047   6.350
 7658SOL    HW223874   4.373   0.101   6.486
 7659SOL     OW23875   6.323   5.061   6.056
 7659SOL    HW123876   6.411   5.037   6.017
 7659SOL    HW223877   6.251   5.005   6.014
 7660SOL     OW23878   0.736   5.911   3.876
 7660SOL    HW123879   0.687   5.824   3.867
 7660SOL    HW223880   0.672   5.986   3.862
 7661SOL     OW23881   5.959   2.646   4.601
 7661SOL    HW123882   5.975   2.623   4.697
 7661SOL    HW223883   5.997   2.736   4.581
 7662SOL     OW23884   1.293   3.020   3.423
 7662SOL    HW123885   1.200   3.051   3.446
 7662SOL    HW223886   1.346   3.011   3.507
 7663SOL     OW23887   0.148   5.062   5.293
 7663SOL    HW123888   0.064   5.095   5.337
 7663SOL    HW223889   0.218   5.045   5.362
 7664SOL     OW23890   3.904   6.998   1.824
 7664SOL    HW123891   3.913   0.003   1.729
 7664SOL    HW223892   3.896   6.898   1.827
 7665SOL     OW23893   6.145   0.017   4.674
 7665SOL    HW123894   6.106   0.085   4.736
 7665SOL    HW223895   6.228   7.003   4.716
 7666SOL     OW23896   0.471   5.506   1.994
 7666SOL    HW123897   0.469   5.406   1.994
 7666SOL    HW223898   0.560   5.537   1.958
 7667SOL     OW23899   4.871   6.715   2.247
 7667SOL    HW123900   4.805   6.644   2.270
 7667SOL    HW223901   4.939   6.722   2.320
 7668SOL     OW23902   3.236   4.557   0.066
 7668SOL    HW123903   3.228   4.535   0.163
 7668SOL    HW223904   3.295   4.637   0.055
 7669SOL     OW23905   4.753   1.412   5.188
 7669SOL    HW123906   4.808   1.380   5.111
 7669SOL    HW223907   4.779   1.505   5.211
 7670SOL     OW23908   0.846   4.728   6.965
 7670SOL    HW123909   0.815   4.760   6.875
 7670SOL    HW223910   0.946   4.725   6.967
 7671SOL     OW23911   4.693   1.292   2.339
 7671SOL    HW123912   4.686   1.387   2.369
 7671SOL    HW223913   4.604   1.248   2.345
 7672SOL     OW23914   0.598   6.591   2.359
 7672SOL    HW123915   0.680   6.614   2.305
 7672SOL    HW223916   0.527   6.659   2.342
 7673SOL     OW23917   1.358   6.402   0.632
 7673SOL    HW123918   1.363   6.449   0.544
 7673SOL    HW223919   1.275   6.346   0.636
 7674SOL     OW23920   5.426   1.009   2.912
 7674SOL    HW123921   5.402   1.067   2.990
 7674SOL    HW223922   5.353   0.943   2.897
 7675SOL     OW23923   6.261   6.592   2.200
 7675SOL    HW123924   6.333   6.601   2.131
 7675SOL    HW223925   6.249   6.679   2.249
 7676SOL     OW23926   2.914   2.043   0.724
 7676SOL    HW123927   2.836   2.055   0.785
 7676SOL    HW223928   2.998   2.067   0.772
 7677SOL     OW23929   0.468   4.981   1.647
 7677SOL    HW123930   0.515   4.938   1.723
 7677SOL    HW223931   0.532   4.991   1.570
 7678SOL     OW23932   1.753   3.250   4.838
 7678SOL    HW123933   1.700   3.314   4.893
 7678SOL    HW223934   1.693   3.177   4.805
 7679SOL     OW23935   2.906   5.670   5.652
 7679SOL    HW123936   2.821   5.653   5.602
 7679SOL    HW223937   2.972   5.598   5.632
 7680SOL     OW23938   1.136   0.853   0.564
 7680SOL    HW123939   1.053   0.903   0.541
 7680SOL    HW223940   1.214   0.896   0.518
 7681SOL     OW23941   2.455   0.823   0.873
 7681SOL    HW123942   2.378   0.758   0.871
 7681SOL    HW223943   2.442   0.891   0.801
 7682SOL     OW23944   3.122   6.872   2.338
 7682SOL    HW123945   3.169   6.960   2.334
 7682SOL    HW223946   3.078   6.861   2.427
 7683SOL     OW23947   4.881   1.556   4.575
 7683SOL    HW123948   4.800   1.545   4.633
 7683SOL    HW223949   4.875   1.495   4.496
 7684SOL     OW23950   3.141   2.096   1.502
 7684SOL    HW123951   3.198   2.157   1.557
 7684SOL    HW223952   3.081   2.152   1.444
 7685SOL     OW23953   3.024   1.791   6.148
 7685SOL    HW123954   2.955   1.858   6.121
 7685SOL    HW223955   3.114   1.834   6.149
 7686SOL     OW23956   6.581   6.317   2.659
 7686SOL    HW123957   6.561   6.221   2.637
 7686SOL    HW223958   6.540   6.376   2.589
 7687SOL     OW23959   5.850   5.283   3.461
 7687SOL    HW123960   5.867   5.304   3.365
 7687SOL    HW223961   5.934   5.295   3.514
 7688SOL     OW23962   1.033   5.863   6.250
 7688SOL    HW123963   1.029   5.847   6.151
 7688SOL    HW223964   0.947   5.904   6.280
 7689SOL     OW23965   5.668   6.274   2.537
 7689SOL    HW123966   5.621   6.192   2.568
 7689SOL    HW223967   5.749   6.289   2.595
 7690SOL     OW23968   5.333   5.274   0.215
 7690SOL    HW123969   5.380   5.363   0.212
 7690SOL    HW223970   5.396   5.202   0.185
 7691SOL     OW23971   5.220   4.175   4.311
 7691SOL    HW123972   5.194   4.185   4.215
 7691SOL    HW223973   5.271   4.090   4.323
 7692SOL     OW23974   0.686   6.311   1.703
 7692SOL    HW123975   0.756   6.252   1.661
 7692SOL    HW223976   0.604   6.256   1.722
 7693SOL     OW23977   3.740   6.607   1.513
 7693SOL    HW123978   3.713   6.538   1.580
 7693SOL    HW223979   3.811   6.571   1.454
 7694SOL     OW23980   6.658   4.406   4.311
 7694SOL    HW123981   6.558   4.402   4.306
 7694SOL    HW223982   6.695   4.427   4.220
 7695SOL     OW23983   4.788   0.645   0.985
 7695SOL    HW123984   4.810   0.676   0.893
 7695SOL    HW223985   4.844   0.695   1.052
 7696SOL     OW23986   0.405   6.913   5.461
 7696SOL    HW123987   0.322   6.879   5.418
 7696SOL    HW223988   0.411   7.012   5.448
 7697SOL     OW23989   2.464   6.595   2.591
 7697SOL    HW123990   2.380   6.646   2.611
 7697SOL    HW223991   2.529   6.656   2.545
 7698SOL     OW23992   5.745   0.897   4.130
 7698SOL    HW123993   5.836   0.937   4.118
 7698SOL    HW223994   5.755   0.797   4.139
 7699SOL     OW23995   3.244   5.648   6.398
 7699SOL    HW123996   3.196   5.676   6.481
 7699SOL    HW223997   3.180   5.646   6.321
 7700SOL     OW23998   4.254   6.019   3.067
 7700SOL    HW123999   4.347   6.052   3.054
 7700SOL    HW224000   4.189   6.090   3.041
 7701SOL     OW24001   6.694   1.793   0.451
 7701SOL    HW124002   6.784   1.838   0.450
 7701SOL    HW224003   6.622   1.861   0.440
 7702SOL     OW24004   3.413   6.628   5.413
 7702SOL    HW124005   3.376   6.590   5.498
 7702SOL    HW224006   3.374   6.579   5.335
 7703SOL     OW24007   6.496   6.232   6.646
 7703SOL    HW124008   6.591   6.200   6.642
 7703SOL    HW224009   6.480   6.277   6.734
 7704SOL     OW24010   5.719   6.223   4.679
 7704SOL    HW124011   5.750   6.209   4.585
 7704SOL    HW224012   5.620   6.236   4.680
 7705SOL     OW24013   2.827   5.747   6.812
 7705SOL    HW124014   2.791   5.685   6.882
 7705SOL    HW224015   2.794   5.719   6.722
 7706SOL     OW24016   4.486   3.220   5.462
 7706SOL    HW124017   4.415   3.172   5.514
 7706SOL    HW224018   4.526   3.292   5.518
 7707SOL     OW24019   6.807   5.420   5.357
 7707SOL    HW124020   6.761   5.470   5.431
 7707SOL    HW224021   6.763   5.442   5.270
 7708SOL     OW24022   0.613   6.770   6.384
 7708SOL    HW124023   0.592   6.674   6.403
 7708SOL    HW224024   0.610   6.821   6.470
 7709SOL     OW24025   6.381   4.217   1.878
 7709SOL    HW124026   6.481   4.224   1.872
 7709SOL    HW224027   6.352   4.237   1.971
 7710SOL     OW24028   3.068   1.889   0.294
 7710SOL    HW124029   3.151   1.847   0.330
 7710SOL    HW224030   3.007   1.911   0.370
 7711SOL     OW24031   6.033   6.541   5.997
 7711SOL    HW124032   5.978   6.498   5.925
 7711SOL    HW224033   6.044   6.639   5.975
 7712SOL     OW24034   5.979   5.166   1.884
 7712SOL    HW124035   5.965   5.246   1.825
 7712SOL    HW224036   6.026   5.195   1.967
 7713SOL     OW24037   2.056   4.310   1.404
 7713SOL    HW124038   2.089   4.275   1.492
 7713SOL    HW224039   2.097   4.258   1.329
 7714SOL     OW24040   0.109   3.573   5.669
 7714SOL    HW124041   0.010   3.583   5.659
 7714SOL    HW224042   0.155   3.633   5.603
 7715SOL     OW24043   3.329   1.823   0.485
 7715SOL    HW124044   3.332   1.725   0.465
 7715SOL    HW224045   3.419   1.863   0.469
 7716SOL     OW24046   6.471   4.297   2.482
 7716SOL    HW124047   6.510   4.247   2.559
 7716SOL    HW224048   6.381   4.332   2.506
 7717SOL     OW24049   1.958   1.231   5.503
 7717SOL    HW124050   1.972   1.277   5.415
 7717SOL    HW224051   1.878   1.270   5.548
 7718SOL     OW24052   0.518   3.446   4.114
 7718SOL    HW124053   0.421   3.455   4.090
 7718SOL    HW224054   0.544   3.349   4.111
 7719SOL     OW24055   6.599   4.400   5.076
 7719SOL    HW124056   6.542   4.389   5.158
 7719SOL    HW224057   6.694   4.414   5.103
 7720SOL     OW24058   0.325   1.185   6.946
 7720SOL    HW124059   0.284   1.106   6.992
 7720SOL    HW224060   0.333   1.261   7.010
 7721SOL     OW24061   0.321   5.333   2.507
 7721SOL    HW124062   0.353   5.428   2.504
 7721SOL    HW224063   0.336   5.295   2.598
 7722SOL     OW24064   0.925   4.403   3.512
 7722SOL    HW124065   1.005   4.420   3.455
 7722SOL    HW224066   0.847   4.456   3.479
 7723SOL     OW24067   4.903   3.509   6.429
 7723SOL    HW124068   4.834   3.503   6.356
 7723SOL    HW224069   4.994   3.503   6.389
 7724SOL     OW24070   3.043   3.885   1.022
 7724SOL    HW124071   3.035   3.818   1.095
 7724SOL    HW224072   3.123   3.864   0.966
 7725SOL     OW24073   6.465   0.962   2.850
 7725SOL    HW124074   6.522   1.031   2.894
 7725SOL    HW224075   6.369   0.976   2.875
 7726SOL     OW24076   1.254   5.323   5.087
 7726SOL    HW124077   1.165   5.292   5.122
 7726SOL    HW224078   1.239   5.395   5.019
 7727SOL     OW24079   0.225   1.894   2.738
 7727SOL    HW124080   0.251   1.853   2.825
 7727SOL    HW224081   0.281   1.975   2.721
 7728SOL     OW24082   1.466   3.878   4.934
 7728SOL    HW124083   1.555   3.923   4.921
 7728SOL    HW224084   1.405   3.901   4.858
 7729SOL     OW24085   5.801   2.429   1.162
 7729SOL    HW124086   5.775   2.357   1.097
 7729SOL    HW224087   5.720   2.463   1.208
 7730SOL     OW24088   6.223   5.801   0.023
 7730SOL    HW124089   6.233   5.810   0.122
 7730SOL    HW224090   6.252   5.886   7.004
 7731SOL     OW24091   7.021   1.318   0.670
 7731SOL    HW124092   6.987   1.303   0.577
 7731SOL    HW224093   6.946   1.306   0.735
 7732SOL     OW24094   5.165   0.082   0.840
 7732SOL    HW124095   5.070   0.073   0.811
 7732SOL    HW224096   5.225   0.037   0.775
 7733SOL     OW24097   4.636   6.728   3.314
 7733SOL    HW124098   4.561   6.674   3.277
 7733SOL    HW224099   4.641   6.715   3.413
 7734SOL     OW24100   1.966   4.851   2.863
 7734SOL    HW124101   1.905   4.813   2.932
 7734SOL    HW224102   2.001   4.778   2.805
 7735SOL     OW24103   4.534   6.736   6.987
 7735SOL    HW124104   4.548   6.785   0.048
 7735SOL    HW224105   4.551   6.639   7.001
 7736SOL     OW24106   3.630   3.627   6.961
 7736SOL    HW124107   3.698   3.696   6.938
 7736SOL    HW224108   3.559   3.626   6.890
 7737SOL     OW24109   3.014   6.880   2.619
 7737SOL    HW124110   2.932   6.935   2.604
 7737SOL    HW224111   3.094   6.939   2.624
 7738SOL     OW24112   2.964   5.960   6.965
 7738SOL    HW124113   2.976   5.861   6.971
 7738SOL    HW224114   2.872   5.980   6.930
 7739SOL     OW24115   0.096   2.545   1.034
 7739SOL    HW124116   0.030   2.482   1.075
 7739SOL    HW224117   0.053   2.635   1.024
 7740SOL     OW24118   2.384   1.581   2.448
 7740SOL    HW124119   2.447   1.659   2.453
 7740SOL    HW224120   2.423   1.504   2.499
 7741SOL     OW24121   1.065   5.168   6.047
 7741SOL    HW124122   1.065   5.255   5.997
 7741SOL    HW224123   1.080   5.187   6.144
 7742SOL     OW24124   4.288   1.653   3.532
 7742SOL    HW124125   4.350   1.703   3.472
 7742SOL    HW224126   4.212   1.714   3.559
 7743SOL     OW24127   5.830   1.501   6.950
 7743SOL    HW124128   5.850   1.543   6.862
 7743SOL    HW224129   5.833   1.570   7.022
 7744SOL     OW24130   0.853   6.951   4.114
 7744SOL    HW124131   0.923   6.884   4.138
 7744SOL    HW224132   0.870   0.012   4.162
 7745SOL     OW24133   3.863   1.276   0.006
 7745SOL    HW124134   3.922   1.348   0.043
 7745SOL    HW224135   3.788   1.318   6.979
 7746SOL     OW24136   1.627   0.354   0.075
 7746SOL    HW124137   1.649   0.362   0.172
 7746SOL    HW224138   1.710   0.340   0.022
 7747SOL     OW24139   5.517   5.875   1.737
 7747SOL    HW124140   5.442   5.890   1.673
 7747SOL    HW224141   5.535   5.959   1.788
 7748SOL     OW24142   2.935   3.426   4.334
 7748SOL    HW124143   2.864   3.468   4.392
 7748SOL    HW224144   2.942   3.329   4.357
 7749SOL     OW24145   3.175   3.673   5.689
 7749SOL    HW124146   3.192   3.697   5.593
 7749SOL    HW224147   3.258   3.633   5.728
 7750SOL     OW24148   0.488   6.490   1.370
 7750SOL    HW124149   0.574   6.540   1.369
 7750SOL    HW224150   0.507   6.392   1.375
 7751SOL     OW24151   2.103   2.802   2.224
 7751SOL    HW124152   2.130   2.831   2.316
 7751SOL    HW224153   2.136   2.869   2.158
 7752SOL     OW24154   5.599   6.439   5.839
 7752SOL    HW124155   5.552   6.511   5.788
 7752SOL    HW224156   5.533   6.386   5.893
 7753SOL     OW24157   2.333   0.912   4.264
 7753SOL    HW124158   2.332   0.812   4.276
 7753SOL    HW224159   2.239   0.945   4.257
 7754SOL     OW24160   3.854   6.561   2.100
 7754SOL    HW124161   3.868   6.582   2.197
 7754SOL    HW224162   3.776   6.498   2.091
 7755SOL     OW24163   1.472   2.073   5.343
 7755SOL    HW124164   1.402   2.144   5.346
 7755SOL    HW224165   1.498   2.057   5.247
 7756SOL     OW24166   2.558   6.067   2.769
 7756SOL    HW124167   2.531   6.154   2.726
 7756SOL    HW224168   2.657   6.065   2.780
 7757SOL     OW24169   5.855   5.087   6.605
 7757SOL    HW124170   5.913   5.007   6.593
 7757SOL    HW224171   5.869   5.150   6.529
 7758SOL     OW24172   1.732   0.770   5.918
 7758SOL    HW124173   1.685   0.707   5.979
 7758SOL    HW224174   1.723   0.737   5.823
 7759SOL     OW24175   1.409   1.667   5.369
 7759SOL    HW124176   1.429   1.718   5.453
 7759SOL    HW224177   1.322   1.619   5.379
 7760SOL     OW24178   5.893   3.119   3.028
 7760SOL    HW124179   5.810   3.112   2.972
 7760SOL    HW224180   5.956   3.046   3.003
 7761SOL     OW24181   0.294   0.447   4.850
 7761SOL    HW124182   0.223   0.505   4.810
 7761SOL    HW224183   0.331   0.386   4.780
 7762SOL     OW24184   2.751   6.524   3.933
 7762SOL    HW124185   2.818   6.526   3.859
 7762SOL    HW224186   2.689   6.447   3.920
 7763SOL     OW24187   1.855   0.660   6.288
 7763SOL    HW124188   1.927   0.724   6.314
 7763SOL    HW224189   1.889   0.597   6.219
 7764SOL     OW24190   3.841   3.339   4.148
 7764SOL    HW124191   3.786   3.401   4.205
 7764SOL    HW224192   3.834   3.246   4.185
 7765SOL     OW24193   6.328   3.393   4.789
 7765SOL    HW124194   6.231   3.389   4.815
 7765SOL    HW224195   6.337   3.419   4.694
 7766SOL     OW24196   6.634   3.748   0.327
 7766SOL    HW124197   6.725   3.706   0.333
 7766SOL    HW224198   6.568   3.678   0.300
 7767SOL     OW24199   4.626   6.427   2.778
 7767SOL    HW124200   4.642   6.413   2.875
 7767SOL    HW224201   4.545   6.375   2.749
 7768SOL     OW24202   4.198   4.718   2.796
 7768SOL    HW124203   4.117   4.704   2.853
 7768SOL    HW224204   4.169   4.744   2.704
 7769SOL     OW24205   3.921   1.889   3.190
 7769SOL    HW124206   3.899   1.823   3.117
 7769SOL    HW224207   3.978   1.845   3.259
 7770SOL     OW24208   2.124   4.286   3.720
 7770SOL    HW124209   2.065   4.268   3.641
 7770SOL    HW224210   2.082   4.250   3.803
 7771SOL     OW24211   3.810   1.718   5.336
 7771SOL    HW124212   3.790   1.630   5.292
 7771SOL    HW224213   3.793   1.710   5.434
 7772SOL     OW24214   4.303   0.243   2.735
 7772SOL    HW124215   4.292   0.144   2.739
 7772SOL    HW224216   4.214   0.287   2.744
 7773SOL     OW24217   2.753   5.949   5.095
 7773SOL    HW124218   2.848   5.939   5.065
 7773SOL    HW224219   2.692   5.930   5.018
 7774SOL     OW24220   5.059   2.237   4.655
 7774SOL    HW124221   5.091   2.252   4.562
 7774SOL    HW224222   5.043   2.139   4.669
 7775SOL     OW24223   4.647   5.668   0.832
 7775SOL    HW124224   4.705   5.724   0.773
 7775SOL    HW224225   4.582   5.616   0.776
 7776SOL     OW24226   0.803   5.808   5.935
 7776SOL    HW124227   0.899   5.790   5.955
 7776SOL    HW224228   0.745   5.748   5.991
 7777SOL     OW24229   6.402   6.270   4.412
 7777SOL    HW124230   6.448   6.346   4.365
 7777SOL    HW224231   6.320   6.304   4.458
 7778SOL     OW24232   5.184   4.051   0.476
 7778SOL    HW124233   5.184   3.963   0.428
 7778SOL    HW224234   5.189   4.126   0.410
 7779SOL     OW24235   2.638   2.185   1.501
 7779SOL    HW124236   2.591   2.273   1.512
 7779SOL    HW224237   2.602   2.137   1.422
 7780SOL     OW24238   1.156   4.966   5.355
 7780SOL    HW124239   1.153   4.950   5.256
 7780SOL    HW224240   1.115   5.055   5.375
 7781SOL     OW24241   2.458   4.781   0.840
 7781SOL    HW124242   2.558   4.784   0.839
 7781SOL    HW224243   2.425   4.796   0.933
 7782SOL     OW24244   5.221   5.183   4.136
 7782SOL    HW124245   5.288   5.240   4.184
 7782SOL    HW224246   5.252   5.088   4.136
 7783SOL     OW24247   0.973   5.975   4.822
 7783SOL    HW124248   1.011   5.891   4.785
 7783SOL    HW224249   1.047   6.036   4.851
 7784SOL     OW24250   3.521   2.392   1.690
 7784SOL    HW124251   3.585   2.368   1.763
 7784SOL    HW224252   3.496   2.489   1.698
 7785SOL     OW24253   1.797   6.088   4.793
 7785SOL    HW124254   1.720   6.031   4.820
 7785SOL    HW224255   1.825   6.145   4.871
 7786SOL     OW24256   3.346   6.388   0.406
 7786SOL    HW124257   3.301   6.321   0.348
 7786SOL    HW224258   3.444   6.370   0.409
 7787SOL     OW24259   1.945   2.814   5.977
 7787SOL    HW124260   1.943   2.736   6.039
 7787SOL    HW224261   1.852   2.841   5.954
 7788SOL     OW24262   2.346   4.990   1.252
 7788SOL    HW124263   2.373   5.010   1.346
 7788SOL    HW224264   2.279   5.057   1.221
 7789SOL     OW24265   2.357   6.664   6.326
 7789SOL    HW124266   2.355   6.660   6.226
 7789SOL    HW224267   2.298   6.738   6.358
 7790SOL     OW24268   5.431   5.721   3.563
 7790SOL    HW124269   5.426   5.623   3.543
 7790SOL    HW224270   5.474   5.735   3.652
 7791SOL     OW24271   3.051   5.072   3.082
 7791SOL    HW124272   3.055   5.124   2.996
 7791SOL    HW224273   2.983   4.999   3.073
 7792SOL     OW24274   1.664   5.512   4.733
 7792SOL    HW124275   1.743   5.464   4.696
 7792SOL    HW224276   1.682   5.538   4.828
 7793SOL     OW24277   4.268   0.866   1.135
 7793SOL    HW124278   4.236   0.815   1.055
 7793SOL    HW224279   4.271   0.964   1.114
 7794SOL     OW24280   6.476   3.872   2.463
 7794SOL    HW124281   6.501   3.817   2.543
 7794SOL    HW224282   6.555   3.928   2.436
 7795SOL     OW24283   1.727   3.828   5.468
 7795SOL    HW124284   1.684   3.771   5.398
 7795SOL    HW224285   1.822   3.800   5.480
 7796SOL     OW24286   3.839   2.970   4.039
 7796SOL    HW124287   3.916   3.007   4.090
 7796SOL    HW224288   3.771   2.935   4.103
 7797SOL     OW24289   1.658   0.257   1.638
 7797SOL    HW124290   1.675   0.188   1.568
 7797SOL    HW224291   1.709   0.340   1.615
 7798SOL     OW24292   1.760   3.365   4.210
 7798SOL    HW124293   1.694   3.367   4.135
 7798SOL    HW224294   1.815   3.282   4.203
 7799SOL     OW24295   2.132   6.154   2.590
 7799SOL    HW124296   2.035   6.134   2.578
 7799SOL    HW224297   2.147   6.252   2.579
 7800SOL     OW24298   1.093   5.772   1.485
 7800SOL    HW124299   1.056   5.720   1.562
 7800SOL    HW224300   1.108   5.711   1.407
 7801SOL     OW24301   2.242   1.938   1.774
 7801SOL    HW124302   2.326   1.955   1.723
 7801SOL    HW224303   2.192   2.023   1.787
 7802SOL     OW24304   5.840   2.970   0.916
 7802SOL    HW124305   5.810   2.877   0.896
 7802SOL    HW224306   5.769   3.035   0.891
 7803SOL     OW24307   4.172   2.390   5.783
 7803SOL    HW124308   4.228   2.399   5.866
 7803SOL    HW224309   4.077   2.415   5.805
 7804SOL     OW24310   4.473   1.721   5.115
 7804SOL    HW124311   4.524   1.804   5.138
 7804SOL    HW224312   4.427   1.734   5.027
 7805SOL     OW24313   5.650   2.981   1.726
 7805SOL    HW124314   5.669   2.901   1.782
 7805SOL    HW224315   5.586   2.957   1.653
 7806SOL     OW24316   6.514   1.947   6.690
 7806SOL    HW124317   6.497   2.042   6.716
 7806SOL    HW224318   6.531   1.943   6.591
 7807SOL     OW24319   1.209   4.983   5.917
 7807SOL    HW124320   1.219   4.990   5.818
 7807SOL    HW224321   1.137   5.045   5.948
 7808SOL     OW24322   6.142   3.311   4.412
 7808SOL    HW124323   6.082   3.240   4.449
 7808SOL    HW224324   6.139   3.391   4.473
 7809SOL     OW24325   3.958   4.851   4.614
 7809SOL    HW124326   4.007   4.767   4.590
 7809SOL    HW224327   3.877   4.859   4.555
 7810SOL     OW24328   3.332   6.739   4.628
 7810SOL    HW124329   3.277   6.800   4.686
 7810SOL    HW224330   3.339   6.650   4.672
 7811SOL     OW24331   1.417   5.566   2.381
 7811SOL    HW124332   1.466   5.653   2.390
 7811SOL    HW224333   1.388   5.554   2.286
 7812SOL     OW24334   0.133   2.428   4.073
 7812SOL    HW124335   0.039   2.429   4.039
 7812SOL    HW224336   0.197   2.415   3.997
 7813SOL     OW24337   4.129   2.254   0.135
 7813SOL    HW124338   4.139   2.182   0.067
 7813SOL    HW224339   4.184   2.232   0.215
 7814SOL     OW24340   0.419   3.886   3.597
 7814SOL    HW124341   0.401   3.798   3.554
 7814SOL    HW224342   0.339   3.915   3.650
 7815SOL     OW24343   6.097   1.165   4.812
 7815SOL    HW124344   6.135   1.099   4.748
 7815SOL    HW224345   6.014   1.205   4.774
 7816SOL     OW24346   1.346   2.118   6.220
 7816SOL    HW124347   1.392   2.128   6.132
 7816SOL    HW224348   1.286   2.197   6.235
 7817SOL     OW24349   4.896   4.133   4.270
 7817SOL    HW124350   4.825   4.088   4.325
 7817SOL    HW224351   4.985   4.118   4.311
 7818SOL     OW24352   4.879   0.172   2.382
 7818SOL    HW124353   4.863   0.143   2.476
 7818SOL    HW224354   4.911   0.094   2.327
 7819SOL     OW24355   0.037   4.016   3.535
 7819SOL    HW124356   0.078   4.091   3.483
 7819SOL    HW224357   6.968   4.040   3.560
 7820SOL     OW24358   1.556   1.085   5.578
 7820SOL    HW124359   1.638   1.068   5.632
 7820SOL    HW224360   1.500   1.003   5.575
 7821SOL     OW24361   5.664   5.556   6.548
 7821SOL    HW124362   5.738   5.490   6.565
 7821SOL    HW224363   5.578   5.519   6.585
 7822SOL     OW24364   0.775   1.377   0.044
 7822SOL    HW124365   0.806   1.282   0.033
 7822SOL    HW224366   0.771   1.399   0.141
 7823SOL     OW24367   2.742   3.326   5.860
 7823SOL    HW124368   2.703   3.367   5.778
 7823SOL    HW224369   2.837   3.357   5.871
 7824SOL     OW24370   6.015   1.192   4.014
 7824SOL    HW124371   6.014   1.190   3.914
 7824SOL    HW224372   6.026   1.100   4.049
 7825SOL     OW24373   1.089   3.400   0.724
 7825SOL    HW124374   1.067   3.347   0.806
 7825SOL    HW224375   1.025   3.478   0.717
 7826SOL     OW24376   6.373   1.386   0.075
 7826SOL    HW124377   6.374   1.405   0.173
 7826SOL    HW224378   6.316   1.306   0.057
 7827SOL     OW24379   3.262   4.886   1.559
 7827SOL    HW124380   3.281   4.982   1.576
 7827SOL    HW224381   3.174   4.877   1.511
 7828SOL     OW24382   0.682   4.900   0.057
 7828SOL    HW124383   0.614   4.830   0.080
 7828SOL    HW224384   0.759   4.858   0.010
 7829SOL     OW24385   1.929   2.766   0.146
 7829SOL    HW124386   1.931   2.800   0.240
 7829SOL    HW224387   1.985   2.825   0.088
 7830SOL     OW24388   3.933   3.867   6.126
 7830SOL    HW124389   3.860   3.806   6.155
 7830SOL    HW224390   3.987   3.896   6.206
 7831SOL     OW24391   1.294   5.647   0.901
 7831SOL    HW124392   1.379   5.600   0.926
 7831SOL    HW224393   1.248   5.595   0.829
 7832SOL     OW24394   4.408   1.429   4.482
 7832SOL    HW124395   4.348   1.470   4.413
 7832SOL    HW224396   4.498   1.414   4.443
 7833SOL     OW24397   0.529   1.281   6.808
 7833SOL    HW124398   0.453   1.243   6.861
 7833SOL    HW224399   0.550   1.373   6.840
 7834SOL     OW24400   6.442   1.145   3.538
 7834SOL    HW124401   6.488   1.168   3.624
 7834SOL    HW224402   6.511   1.122   3.469
 7835SOL     OW24403   2.291   1.868   5.235
 7835SOL    HW124404   2.370   1.855   5.174
 7835SOL    HW224405   2.288   1.964   5.265
 7836SOL     OW24406   3.223   2.936   5.469
 7836SOL    HW124407   3.231   3.001   5.544
 7836SOL    HW224408   3.129   2.903   5.462
 7837SOL     OW24409   6.216   5.769   1.065
 7837SOL    HW124410   6.125   5.745   1.100
 7837SOL    HW224411   6.273   5.687   1.064
 7838SOL     OW24412   4.586   6.661   6.708
 7838SOL    HW124413   4.494   6.698   6.725
 7838SOL    HW224414   4.644   6.679   6.788
 7839SOL     OW24415   6.337   4.214   4.807
 7839SOL    HW124416   6.340   4.115   4.822
 7839SOL    HW224417   6.270   4.255   4.868
 7840SOL     OW24418   5.697   2.836   4.006
 7840SOL    HW124419   5.730   2.777   4.080
 7840SOL    HW224420   5.664   2.922   4.045
 7841SOL     OW24421   4.623   1.769   6.741
 7841SOL    HW124422   4.603   1.860   6.704
 7841SOL    HW224423   4.555   1.704   6.709
 7842SOL     OW24424   1.618   2.180   2.829
 7842SOL    HW124425   1.712   2.148   2.814
 7842SOL    HW224426   1.595   2.248   2.759
 7843SOL     OW24427   5.557   4.547   2.338
 7843SOL    HW124428   5.489   4.600   2.387
 7843SOL    HW224429   5.540   4.553   2.240
 7844SOL     OW24430   4.186   6.990   2.943
 7844SOL    HW124431   4.184   0.034   3.015
 7844SOL    HW224432   4.110   6.926   2.956
 7845SOL     OW24433   5.703   2.084   4.043
 7845SOL    HW124434   5.760   2.112   4.120
 7845SOL    HW224435   5.692   1.985   4.045
 7846SOL     OW24436   0.743   0.839   3.223
 7846SOL    HW124437   0.667   0.853   3.160
 7846SOL    HW224438   0.762   0.925   3.272
 7847SOL     OW24439   6.738   1.570   3.218
 7847SOL    HW124440   6.646   1.571   3.259
 7847SOL    HW224441   6.784   1.657   3.238
 7848SOL     OW24442   2.956   2.969   0.410
 7848SOL    HW124443   2.987   2.880   0.375
 7848SOL    HW224444   3.036   3.027   0.426
 7849SOL     OW24445   5.330   4.055   2.843
 7849SOL    HW124446   5.396   3.998   2.893
 7849SOL    HW224447   5.330   4.029   2.747
 7850SOL     OW24448   0.989   2.079   4.758
 7850SOL    HW124449   1.013   2.147   4.827
 7850SOL    HW224450   1.044   1.996   4.772
 7851SOL     OW24451   6.172   0.964   1.963
 7851SOL    HW124452   6.256   0.941   1.914
 7851SOL    HW224453   6.194   0.984   2.059
 7852SOL     OW24454   2.582   1.151   6.220
 7852SOL    HW124455   2.677   1.139   6.194
 7852SOL    HW224456   2.525   1.157   6.138
 7853SOL     OW24457   4.238   1.896   1.910
 7853SOL    HW124458   4.174   1.853   1.973
 7853SOL    HW224459   4.188   1.956   1.847
 7854SOL     OW24460   3.443   3.320   6.997
 7854SOL    HW124461   3.359   3.272   6.972
 7854SOL    HW224462   3.487   3.274   0.049
 7855SOL     OW24463   3.545   5.734   5.216
 7855SOL    HW124464   3.599   5.667   5.164
 7855SOL    HW224465   3.597   5.763   5.296
 7856SOL     OW24466   6.128   4.285   4.984
 7856SOL    HW124467   6.092   4.247   5.069
 7856SOL    HW224468   6.078   4.248   4.907
 7857SOL     OW24469   6.255   2.299   5.619
 7857SOL    HW124470   6.303   2.376   5.661
 7857SOL    HW224471   6.195   2.256   5.687
 7858SOL     OW24472   5.098   5.115   3.178
 7858SOL    HW124473   5.158   5.109   3.099
 7858SOL    HW224474   5.153   5.105   3.262
 7859SOL     OW24475   5.517   3.053   6.630
 7859SOL    HW124476   5.487   3.101   6.713
 7859SOL    HW224477   5.446   2.988   6.603
 7860SOL     OW24478   4.426   0.550   2.814
 7860SOL    HW124479   4.370   0.600   2.749
 7860SOL    HW224480   4.388   0.560   2.906
 7861SOL     OW24481   3.805   5.329   1.886
 7861SOL    HW124482   3.729   5.388   1.860
 7861SOL    HW224483   3.888   5.359   1.837
 7862SOL     OW24484   3.097   4.203   1.599
 7862SOL    HW124485   3.089   4.173   1.694
 7862SOL    HW224486   3.131   4.127   1.543
 7863SOL     OW24487   0.374   5.399   4.104
 7863SOL    HW124488   0.382   5.301   4.121
 7863SOL    HW224489   0.452   5.430   4.049
 7864SOL     OW24490   0.782   5.532   5.443
 7864SOL    HW124491   0.793   5.575   5.353
 7864SOL    HW224492   0.684   5.518   5.461
 7865SOL     OW24493   5.743   0.068   4.349
 7865SOL    HW124494   5.758   0.133   4.274
 7865SOL    HW224495   5.831   0.043   4.390
 7866SOL     OW24496   1.778   2.131   6.085
 7866SOL    HW124497   1.809   2.050   6.134
 7866SOL    HW224498   1.829   2.140   6.000
 7867SOL     OW24499   5.095   6.742   2.399
 7867SOL    HW124500   5.135   6.652   2.381
 7867SOL    HW224501   5.167   6.811   2.397
 7868SOL     OW24502   5.676   6.990   2.122
 7868SOL    HW124503   5.637   6.930   2.192
 7868SOL    HW224504   5.760   0.007   2.157
 7869SOL     OW24505   5.853   4.138   0.142
 7869SOL    HW124506   5.777   4.096   0.092
 7869SOL    HW224507   5.820   4.175   0.229
 7870SOL     OW24508   3.960   5.186   4.384
 7870SOL    HW124509   3.900   5.265   4.394
 7870SOL    HW224510   3.930   5.113   4.446
 7871SOL     OW24511   5.258   3.030   2.537
 7871SOL    HW124512   5.218   2.961   2.598
 7871SOL    HW224513   5.221   3.019   2.445
 7872SOL     OW24514   2.291   4.223   3.018
 7872SOL    HW124515   2.212   4.281   3.040
 7872SOL    HW224516   2.325   4.246   2.927
 7873SOL     OW24517   5.951   0.624   6.193
 7873SOL    HW124518   5.965   0.640   6.291
 7873SOL    HW224519   6.040   0.608   6.150
 7874SOL     OW24520   5.580   1.847   0.790
 7874SOL    HW124521   5.510   1.777   0.802
 7874SOL    HW224522   5.668   1.804   0.775
 7875SOL     OW24523   5.343   2.281   6.636
 7875SOL    HW124524   5.284   2.206   6.664
 7875SOL    HW224525   5.288   2.354   6.596
 7876SOL     OW24526   0.299   6.304   4.808
 7876SOL    HW124527   0.243   6.232   4.766
 7876SOL    HW224528   0.240   6.369   4.854
 7877SOL     OW24529   0.805   2.417   2.640
 7877SOL    HW124530   0.757   2.468   2.568
 7877SOL    HW224531   0.856   2.342   2.599
 7878SOL     OW24532   5.544   5.105   4.050
 7878SOL    HW124533   5.630   5.133   4.007
 7878SOL    HW224534   5.525   5.165   4.127
 7879SOL     OW24535   4.551   5.812   3.808
 7879SOL    HW124536   4.610   5.734   3.790
 7879SOL    HW224537   4.459   5.780   3.832
 7880SOL     OW24538   2.109   5.132   1.926
 7880SOL    HW124539   2.167   5.078   1.865
 7880SOL    HW224540   2.079   5.214   1.879
 7881SOL     OW24541   5.912   4.030   5.036
 7881SOL    HW124542   5.863   3.971   4.972
 7881SOL    HW224543   5.955   3.974   5.108
 7882SOL     OW24544   0.909   3.263   3.185
 7882SOL    HW124545   0.891   3.336   3.120
 7882SOL    HW224546   0.955   3.300   3.265
 7883SOL     OW24547   1.398   0.527   0.117
 7883SOL    HW124548   1.473   0.461   0.111
 7883SOL    HW224549   1.353   0.519   0.207
 7884SOL     OW24550   2.181   3.995   3.609
 7884SOL    HW124551   2.210   4.067   3.546
 7884SOL    HW224552   2.087   4.011   3.637
 7885SOL     OW24553   6.234   5.900   1.421
 7885SOL    HW124554   6.156   5.961   1.411
 7885SOL    HW224555   6.317   5.946   1.390
 7886SOL     OW24556   3.464   5.573   0.636
 7886SOL    HW124557   3.518   5.646   0.595
 7886SOL    HW224558   3.419   5.520   0.564
 7887SOL     OW24559   3.382   2.553   5.358
 7887SOL    HW124560   3.314   2.487   5.325
 7887SOL    HW224561   3.397   2.538   5.456
 7888SOL     OW24562   6.731   6.777   5.255
 7888SOL    HW124563   6.655   6.716   5.275
 7888SOL    HW224564   6.721   6.814   5.163
 7889SOL     OW24565   0.956   4.450   0.456
 7889SOL    HW124566   1.050   4.439   0.489
 7889SOL    HW224567   0.904   4.504   0.521
 7890SOL     OW24568   0.374   2.965   3.438
 7890SOL    HW124569   0.333   2.915   3.515
 7890SOL    HW224570   0.310   2.965   3.361
 7891SOL     OW24571   1.952   4.304   4.359
 7891SOL    HW124572   1.964   4.364   4.280
 7891SOL    HW224573   2.024   4.324   4.426
 7892SOL     OW24574   1.942   2.000   3.973
 7892SOL    HW124575   1.894   1.954   3.898
 7892SOL    HW224576   1.968   1.932   4.042
 7893SOL     OW24577   6.154   6.317   1.665
 7893SOL    HW124578   6.083   6.378   1.701
 7893SOL    HW224579   6.239   6.368   1.652
 7894SOL     OW24580   3.881   6.802   0.934
 7894SOL    HW124581   3.950   6.816   0.863
 7894SOL    HW224582   3.825   6.722   0.911
 7895SOL     OW24583   5.419   0.267   5.214
 7895SOL    HW124584   5.496   0.203   5.214
 7895SOL    HW224585   5.351   0.237   5.281
 7896SOL     OW24586   4.295   3.360   1.132
 7896SOL    HW124587   4.309   3.292   1.060
 7896SOL    HW224588   4.220   3.421   1.105
 7897SOL     OW24589   3.608   3.062   1.046
 7897SOL    HW124590   3.690   3.006   1.036
 7897SOL    HW224591   3.529   3.013   1.008
 7898SOL     OW24592   3.610   0.987   3.753
 7898SOL    HW124593   3.558   0.914   3.708
 7898SOL    HW224594   3.703   0.956   3.770
 7899SOL     OW24595   5.994   0.494   1.139
 7899SOL    HW124596   5.991   0.581   1.188
 7899SOL    HW224597   5.920   0.435   1.170
 7900SOL     OW24598   1.893   5.432   2.006
 7900SOL    HW124599   1.918   5.335   1.998
 7900SOL    HW224600   1.805   5.447   1.962
 7901SOL     OW24601   3.915   1.164   6.588
 7901SOL    HW124602   3.868   1.080   6.560
 7901SOL    HW224603   3.861   1.210   6.659
 7902SOL     OW24604   6.553   6.893   1.372
 7902SOL    HW124605   6.642   6.872   1.413
 7902SOL    HW224606   6.508   6.965   1.425
 7903SOL     OW24607   4.577   1.536   2.391
 7903SOL    HW124608   4.629   1.612   2.353
 7903SOL    HW224609   4.492   1.524   2.339
 7904SOL     OW24610   5.632   6.121   3.013
 7904SOL    HW124611   5.714   6.071   3.042
 7904SOL    HW224612   5.551   6.074   3.049
 7905SOL     OW24613   5.725   2.122   0.238
 7905SOL    HW124614   5.748   2.031   0.202
 7905SOL    HW224615   5.768   2.134   0.327
 7906SOL     OW24616   0.424   5.286   0.684
 7906SOL    HW124617   0.336   5.332   0.672
 7906SOL    HW224618   0.449   5.239   0.600
 7907SOL     OW24619   5.185   2.137   3.424
 7907SOL    HW124620   5.228   2.136   3.333
 7907SOL    HW224621   5.232   2.205   3.481
 7908SOL     OW24622   1.731   0.996   5.767
 7908SOL    HW124623   1.745   0.920   5.832
 7908SOL    HW224624   1.723   1.081   5.818
 7909SOL     OW24625   4.773   4.735   4.196
 7909SOL    HW124626   4.795   4.806   4.263
 7909SOL    HW224627   4.704   4.673   4.234
 7910SOL     OW24628   2.860   3.376   6.223
 7910SOL    HW124629   2.910   3.327   6.151
 7910SOL    HW224630   2.892   3.345   6.312
 7911SOL     OW24631   1.125   4.059   0.205
 7911SOL    HW124632   1.049   4.092   0.261
 7911SOL    HW224633   1.186   4.136   0.184
 7912SOL     OW24634   6.393   4.655   0.528
 7912SOL    HW124635   6.480   4.644   0.577
 7912SOL    HW224636   6.362   4.750   0.538
 7913SOL     OW24637   1.077   4.380   2.075
 7913SOL    HW124638   1.015   4.458   2.084
 7913SOL    HW224639   1.066   4.340   1.984
 7914SOL     OW24640   0.575   4.697   0.218
 7914SOL    HW124641   0.609   4.716   0.310
 7914SOL    HW224642   0.475   4.692   0.220
 7915SOL     OW24643   4.965   2.206   1.812
 7915SOL    HW124644   4.916   2.293   1.814
 7915SOL    HW224645   5.024   2.202   1.731
 7916SOL     OW24646   0.322   5.232   5.143
 7916SOL    HW124647   0.397   5.177   5.106
 7916SOL    HW224648   0.268   5.176   5.206
 7917SOL     OW24649   3.400   2.983   5.125
 7917SOL    HW124650   3.349   3.055   5.078
 7917SOL    HW224651   3.337   2.908   5.147
 7918SOL     OW24652   0.439   0.648   4.937
 7918SOL    HW124653   0.425   0.659   5.036
 7918SOL    HW224654   0.377   0.578   4.903
 7919SOL     OW24655   1.438   4.467   3.569
 7919SOL    HW124656   1.367   4.402   3.594
 7919SOL    HW224657   1.527   4.432   3.597
 7920SOL     OW24658   0.455   0.054   0.800
 7920SOL    HW124659   0.419   0.053   0.894
 7920SOL    HW224660   0.383   0.027   0.737
 7921SOL     OW24661   5.208   5.845   2.383
 7921SOL    HW124662   5.183   5.796   2.466
 7921SOL    HW224663   5.298   5.812   2.352
 7922SOL     OW24664   0.229   6.301   0.853
 7922SOL    HW124665   0.227   6.259   0.762
 7922SOL    HW224666   0.305   6.367   0.857
 7923SOL     OW24667   3.371   0.419   6.974
 7923SOL    HW124668   3.414   0.510   6.980
 7923SOL    HW224669   3.327   0.398   0.037
 7924SOL     OW24670   4.950   6.988   2.218
 7924SOL    HW124671   4.907   6.899   2.202
 7924SOL    HW224672   5.025   7.000   2.152
 7925SOL     OW24673   0.800   0.881   6.235
 7925SOL    HW124674   0.899   0.881   6.245
 7925SOL    HW224675   0.763   0.795   6.270
 7926SOL     OW24676   4.624   1.660   5.651
 7926SOL    HW124677   4.597   1.756   5.648
 7926SOL    HW224678   4.712   1.649   5.604
 7927SOL     OW24679   4.012   5.660   3.299
 7927SOL    HW124680   4.077   5.733   3.276
 7927SOL    HW224681   4.060   5.588   3.350
 7928SOL     OW24682   1.650   1.507   4.978
 7928SOL    HW124683   1.617   1.600   4.996
 7928SOL    HW224684   1.588   1.463   4.912
 7929SOL     OW24685   4.891   4.410   5.620
 7929SOL    HW124686   4.823   4.340   5.596
 7929SOL    HW224687   4.927   4.391   5.712
 7930SOL     OW24688   4.476   5.300   4.673
 7930SOL    HW124689   4.446   5.242   4.750
 7930SOL    HW224690   4.483   5.395   4.703
 7931SOL     OW24691   3.323   2.808   0.035
 7931SOL    HW124692   3.236   2.799   7.010
 7931SOL    HW224693   3.342   2.904   0.051
 7932SOL     OW24694   1.148   6.563   0.147
 7932SOL    HW124695   1.101   6.533   0.230
 7932SOL    HW224696   1.182   6.656   0.159
 7933SOL     OW24697   0.266   5.972   6.322
 7933SOL    HW124698   0.187   5.972   6.261
 7933SOL    HW224699   0.234   5.968   6.417
 7934SOL     OW24700   1.601   4.795   6.640
 7934SOL    HW124701   1.673   4.733   6.609
 7934SOL    HW224702   1.625   4.889   6.615
 7935SOL     OW24703   5.642   6.443   1.079
 7935SOL    HW124704   5.689   6.511   1.022
 7935SOL    HW224705   5.551   6.426   1.042
 7936SOL     OW24706   4.068   5.759   2.236
 7936SOL    HW124707   4.049   5.690   2.167
 7936SOL    HW224708   4.124   5.832   2.195
 7937SOL     OW24709   6.559   6.290   3.700
 7937SOL    HW124710   6.525   6.221   3.636
 7937SOL    HW224711   6.638   6.337   3.660
 7938SOL     OW24712   6.707   5.899   4.110
 7938SOL    HW124713   6.718   5.997   4.125
 7938SOL    HW224714   6.733   5.877   4.016
 7939SOL     OW24715   1.514   2.499   4.446
 7939SOL    HW124716   1.434   2.485   4.388
 7939SOL    HW224717   1.566   2.414   4.452
 7940SOL     OW24718   1.960   3.184   1.262
 7940SOL    HW124719   1.906   3.212   1.341
 7940SOL    HW224720   2.056   3.207   1.277
 7941SOL     OW24721   5.997   0.534   1.869
 7941SOL    HW124722   5.996   0.632   1.892
 7941SOL    HW224723   5.935   0.485   1.931
 7942SOL     OW24724   6.807   5.638   2.532
 7942SOL    HW124725   6.884   5.615   2.592
 7942SOL    HW224726   6.787   5.560   2.472
 7943SOL     OW24727   6.584   3.486   6.327
 7943SOL    HW124728   6.544   3.402   6.289
 7943SOL    HW224729   6.555   3.496   6.422
 7944SOL     OW24730   0.694   2.727   1.067
 7944SOL    HW124731   0.792   2.746   1.078
 7944SOL    HW224732   0.646   2.812   1.045
 7945SOL     OW24733   6.094   5.412   1.519
 7945SOL    HW124734   6.172   5.438   1.575
 7945SOL    HW224735   6.026   5.365   1.576
 7946SOL     OW24736   3.146   0.533   6.477
 7946SOL    HW124737   3.090   0.580   6.408
 7946SOL    HW224738   3.199   0.601   6.529
 7947SOL     OW24739   4.048   2.188   6.796
 7947SOL    HW124740   4.089   2.234   6.717
 7947SOL    HW224741   3.998   2.255   6.851
 7948SOL     OW24742   1.044   6.858   1.025
 7948SOL    HW124743   1.141   6.836   1.022
 7948SOL    HW224744   0.996   6.806   0.954
 7949SOL     OW24745   4.550   4.620   4.910
 7949SOL    HW124746   4.473   4.588   4.965
 7949SOL    HW224747   4.632   4.624   4.967
 7950SOL     OW24748   4.759   5.334   3.971
 7950SOL    HW124749   4.782   5.328   4.068
 7950SOL    HW224750   4.683   5.272   3.951
 7951SOL     OW24751   2.302   4.186   1.975
 7951SOL    HW124752   2.378   4.193   1.910
 7951SOL    HW224753   2.229   4.132   1.935
 7952SOL     OW24754   0.215   3.595   0.106
 7952SOL    HW124755   0.158   3.514   0.122
 7952SOL    HW224756   0.192   3.634   0.017
 7953SOL     OW24757   3.024   2.251   3.437
 7953SOL    HW124758   3.022   2.338   3.485
 7953SOL    HW224759   3.099   2.195   3.473
 7954SOL     OW24760   3.251   4.679   6.623
 7954SOL    HW124761   3.212   4.716   6.707
 7954SOL    HW224762   3.316   4.606   6.646
 7955SOL     OW24763   1.781   0.728   6.626
 7955SOL    HW124764   1.864   0.737   6.571
 7955SOL    HW224765   1.718   0.802   6.604
 7956SOL     OW24766   3.922   6.406   2.616
 7956SOL    HW124767   3.957   6.319   2.581
 7956SOL    HW224768   3.858   6.445   2.550
 7957SOL     OW24769   0.845   0.689   1.252
 7957SOL    HW124770   0.927   0.697   1.195
 7957SOL    HW224771   0.872   0.663   1.345
 7958SOL     OW24772   3.799   4.844   5.338
 7958SOL    HW124773   3.724   4.909   5.328
 7958SOL    HW224774   3.859   4.873   5.412
 7959SOL     OW24775   4.567   5.972   0.428
 7959SOL    HW124776   4.625   6.050   0.404
 7959SOL    HW224777   4.595   5.892   0.376
 7960SOL     OW24778   2.758   1.629   5.993
 7960SOL    HW124779   2.753   1.541   5.945
 7960SOL    HW224780   2.706   1.623   6.078
 7961SOL     OW24781   6.506   1.475   0.890
 7961SOL    HW124782   6.437   1.457   0.960
 7961SOL    HW224783   6.504   1.572   0.866
 7962SOL     OW24784   0.970   0.537   6.535
 7962SOL    HW124785   0.922   0.455   6.565
 7962SOL    HW224786   0.954   0.612   6.600
 7963SOL     OW24787   6.509   6.444   4.063
 7963SOL    HW124788   6.524   6.457   4.161
 7963SOL    HW224789   6.420   6.483   4.038
 7964SOL     OW24790   0.366   4.535   2.312
 7964SOL    HW124791   0.340   4.443   2.281
 7964SOL    HW224792   0.298   4.568   2.378
 7965SOL     OW24793   4.405   2.772   5.610
 7965SOL    HW124794   4.316   2.782   5.565
 7965SOL    HW224795   4.422   2.675   5.629
 7966SOL     OW24796   1.684   2.538   5.544
 7966SOL    HW124797   1.749   2.583   5.484
 7966SOL    HW224798   1.656   2.601   5.617
 7967SOL     OW24799   2.957   6.466   2.729
 7967SOL    HW124800   3.014   6.447   2.809
 7967SOL    HW224801   2.982   6.404   2.654
 7968SOL     OW24802   1.764   2.994   3.568
 7968SOL    HW124803   1.827   2.936   3.619
 7968SOL    HW224804   1.809   3.079   3.542
 7969SOL     OW24805   3.744   6.092   6.737
 7969SOL    HW124806   3.811   6.018   6.739
 7969SOL    HW224807   3.674   6.073   6.669
 7970SOL     OW24808   6.319   2.844   2.788
 7970SOL    HW124809   6.290   2.854   2.693
 7970SOL    HW224810   6.373   2.924   2.815
 7971SOL     OW24811   3.247   2.086   0.475
 7971SOL    HW124812   3.268   2.162   0.536
 7971SOL    HW224813   3.277   2.000   0.515
 7972SOL     OW24814   2.159   2.978   0.085
 7972SOL    HW124815   2.247   3.025   0.079
 7972SOL    HW224816   2.087   3.038   0.052
 7973SOL     OW24817   4.429   4.687   4.421
 7973SOL    HW124818   4.353   4.752   4.425
 7973SOL    HW224819   4.431   4.633   4.505
 7974SOL     OW24820   6.143   0.778   5.475
 7974SOL    HW124821   6.150   0.857   5.414
 7974SOL    HW224822   6.195   0.796   5.558
 7975SOL     OW24823   6.522   1.335   2.070
 7975SOL    HW124824   6.448   1.375   2.125
 7975SOL    HW224825   6.512   1.363   1.975
 7976SOL     OW24826   0.088   0.222   5.977
 7976SOL    HW124827   0.089   0.129   5.940
 7976SOL    HW224828   0.109   0.219   6.075
 7977SOL     OW24829   4.581   6.001   2.761
 7977SOL    HW124830   4.527   6.074   2.719
 7977SOL    HW224831   4.519   5.931   2.798
 7978SOL     OW24832   5.558   3.907   6.510
 7978SOL    HW124833   5.548   3.807   6.517
 7978SOL    HW224834   5.545   3.948   6.600
 7979SOL     OW24835   4.050   5.834   5.183
 7979SOL    HW124836   3.979   5.818   5.252
 7979SOL    HW224837   4.052   5.757   5.119
 7980SOL     OW24838   3.052   5.744   0.162
 7980SOL    HW124839   3.110   5.670   0.194
 7980SOL    HW224840   2.956   5.723   0.181
 7981SOL     OW24841   0.464   5.332   1.148
 7981SOL    HW124842   0.461   5.407   1.215
 7981SOL    HW224843   0.517   5.361   1.068
 7982SOL     OW24844   1.286   1.454   6.601
 7982SOL    HW124845   1.359   1.415   6.657
 7982SOL    HW224846   1.300   1.428   6.505
 7983SOL     OW24847   5.751   2.095   1.702
 7983SOL    HW124848   5.651   2.091   1.702
 7983SOL    HW224849   5.786   2.070   1.612
 7984SOL     OW24850   1.218   1.562   0.675
 7984SOL    HW124851   1.227   1.551   0.774
 7984SOL    HW224852   1.296   1.613   0.640
 7985SOL     OW24853   2.715   1.105   4.342
 7985SOL    HW124854   2.769   1.028   4.309
 7985SOL    HW224855   2.777   1.178   4.372
 7986SOL     OW24856   3.101   1.276   6.134
 7986SOL    HW124857   3.100   1.364   6.180
 7986SOL    HW224858   3.153   1.283   6.049
 7987SOL     OW24859   1.424   2.748   6.219
 7987SOL    HW124860   1.356   2.786   6.281
 7987SOL    HW224861   1.390   2.754   6.125
 7988SOL     OW24862   0.696   2.344   3.775
 7988SOL    HW124863   0.767   2.383   3.833
 7988SOL    HW224864   0.626   2.301   3.832
 7989SOL     OW24865   3.163   2.674   6.335
 7989SOL    HW124866   3.249   2.721   6.317
 7989SOL    HW224867   3.113   2.722   6.407
 7990SOL     OW24868   0.611   3.729   4.514
 7990SOL    HW124869   0.637   3.748   4.609
 7990SOL    HW224870   0.645   3.639   4.488
 7991SOL     OW24871   5.800   6.851   3.532
 7991SOL    HW124872   5.777   6.801   3.448
 7991SOL    HW224873   5.889   6.896   3.521
 7992SOL     OW24874   1.467   0.289   1.087
 7992SOL    HW124875   1.511   0.280   0.998
 7992SOL    HW224876   1.478   0.382   1.121
 7993SOL     OW24877   0.599   0.108   0.504
 7993SOL    HW124878   0.553   0.073   0.586
 7993SOL    HW224879   0.598   0.208   0.506
 7994SOL     OW24880   3.922   0.106   3.578
 7994SOL    HW124881   3.828   0.125   3.550
 7994SOL    HW224882   3.980   0.184   3.556
 7995SOL     OW24883   4.852   6.082   3.964
 7995SOL    HW124884   4.916   6.137   3.911
 7995SOL    HW224885   4.760   6.092   3.926
 7996SOL     OW24886   2.672   6.637   4.508
 7996SOL    HW124887   2.762   6.661   4.544
 7996SOL    HW224888   2.667   6.664   4.411
 7997SOL     OW24889   0.066   1.298   1.218
 7997SOL    HW124890   0.060   1.392   1.184
 7997SOL    HW224891   0.039   1.296   1.314
 7998SOL     OW24892   2.888   6.816   0.907
 7998SOL    HW124893   2.802   6.767   0.918
 7998SOL    HW224894   2.914   6.859   0.994
 7999SOL     OW24895   0.999   0.158   6.339
 7999SOL    HW124896   0.925   0.097   6.311
 7999SOL    HW224897   1.054   0.182   6.259
 8000SOL     OW24898   4.897   0.322   6.975
 8000SOL    HW124899   4.920   0.407   6.928
 8000SOL    HW224900   4.976   0.260   6.973
 8001SOL     OW24901   4.364   6.318   1.053
 8001SOL    HW124902   4.323   6.398   1.008
 8001SOL    HW224903   4.459   6.339   1.078
 8002SOL     OW24904   1.057   1.515   5.891
 8002SOL    HW124905   1.051   1.538   5.794
 8002SOL    HW224906   1.122   1.441   5.904
 8003SOL     OW24907   3.355   5.235   2.534
 8003SOL    HW124908   3.422   5.241   2.608
 8003SOL    HW224909   3.402   5.212   2.449
 8004SOL     OW24910   2.136   3.460   2.853
 8004SOL    HW124911   2.036   3.454   2.842
 8004SOL    HW224912   2.161   3.427   2.944
 8005SOL     OW24913   3.299   0.870   1.598
 8005SOL    HW124914   3.340   0.958   1.621
 8005SOL    HW224915   3.238   0.881   1.520
 8006SOL     OW24916   1.905   6.901   6.281
 8006SOL    HW124917   1.942   6.963   6.350
 8006SOL    HW224918   1.971   6.892   6.207
 8007SOL     OW24919   6.541   0.401   4.543
 8007SOL    HW124920   6.464   0.342   4.569
 8007SOL    HW224921   6.511   0.496   4.542
 8008SOL     OW24922   4.051   5.387   6.643
 8008SOL    HW124923   4.050   5.435   6.555
 8008SOL    HW224924   3.963   5.399   6.689
 8009SOL     OW24925   5.810   0.823   2.425
 8009SOL    HW124926   5.743   0.793   2.358
 8009SOL    HW224927   5.826   0.750   2.491
 8010SOL     OW24928   1.320   1.442   5.946
 8010SOL    HW124929   1.405   1.492   5.933
 8010SOL    HW224930   1.286   1.457   6.038
 8011SOL     OW24931   3.107   2.643   1.102
 8011SOL    HW124932   3.104   2.710   1.028
 8011SOL    HW224933   3.134   2.688   1.187
 8012SOL     OW24934   1.883   3.937   1.452
 8012SOL    HW124935   1.971   3.984   1.444
 8012SOL    HW224936   1.816   3.980   1.393
 8013SOL     OW24937   1.514   5.259   3.395
 8013SOL    HW124938   1.437   5.252   3.332
 8013SOL    HW224939   1.537   5.169   3.431
 8014SOL     OW24940   1.128   6.464   5.192
 8014SOL    HW124941   1.036   6.478   5.228
 8014SOL    HW224942   1.137   6.369   5.160
 8015SOL     OW24943   3.004   0.666   6.310
 8015SOL    HW124944   2.928   0.682   6.374
 8015SOL    HW224945   2.971   0.674   6.216
 8016SOL     OW24946   4.990   0.316   5.946
 8016SOL    HW124947   4.965   0.220   5.929
 8016SOL    HW224948   5.087   0.321   5.970
 8017SOL     OW24949   5.659   0.188   0.415
 8017SOL    HW124950   5.698   0.276   0.441
 8017SOL    HW224951   5.640   0.134   0.497
 8018SOL     OW24952   3.150   1.853   5.752
 8018SOL    HW124953   3.166   1.952   5.761
 8018SOL    HW224954   3.202   1.818   5.674
 8019SOL     OW24955   2.289   4.050   0.041
 8019SOL    HW124956   2.203   4.002   0.025
 8019SOL    HW224957   2.269   4.140   0.082
 8020SOL     OW24958   5.810   0.948   1.225
 8020SOL    HW124959   5.885   0.906   1.173
 8020SOL    HW224960   5.791   0.892   1.306
 8021SOL     OW24961   0.998   2.692   1.081
 8021SOL    HW124962   0.998   2.708   0.982
 8021SOL    HW224963   1.092   2.694   1.115
 8022SOL     OW24964   5.280   6.702   3.189
 8022SOL    HW124965   5.212   6.633   3.167
 8022SOL    HW224966   5.235   6.791   3.200
 8023SOL     OW24967   5.694   5.047   2.713
 8023SOL    HW124968   5.710   5.044   2.812
 8023SOL    HW224969   5.690   5.142   2.682
 8024SOL     OW24970   2.007   4.882   6.270
 8024SOL    HW124971   1.922   4.904   6.223
 8024SOL    HW224972   2.035   4.788   6.247
 8025SOL     OW24973   1.808   6.510   6.813
 8025SOL    HW124974   1.741   6.531   6.884
 8025SOL    HW224975   1.790   6.567   6.733
 8026SOL     OW24976   0.668   4.399   6.687
 8026SOL    HW124977   0.740   4.451   6.640
 8026SOL    HW224978   0.687   4.302   6.682
 8027SOL     OW24979   4.393   0.976   4.954
 8027SOL    HW124980   4.405   1.035   4.874
 8027SOL    HW224981   4.456   0.898   4.947
 8028SOL     OW24982   3.593   5.001   5.343
 8028SOL    HW124983   3.657   5.063   5.388
 8028SOL    HW224984   3.517   4.980   5.405
 8029SOL     OW24985   4.995   2.955   1.425
 8029SOL    HW124986   4.913   2.925   1.473
 8029SOL    HW224987   5.025   3.043   1.460
 8030SOL     OW24988   4.470   4.480   0.795
 8030SOL    HW124989   4.528   4.404   0.822
 8030SOL    HW224990   4.411   4.507   0.871
 8031SOL     OW24991   6.388   6.743   2.011
 8031SOL    HW124992   6.397   6.693   1.925
 8031SOL    HW224993   6.307   6.801   2.007
 8032SOL     OW24994   6.710   4.819   1.361
 8032SOL    HW124995   6.765   4.770   1.428
 8032SOL    HW224996   6.737   4.915   1.358
 8033SOL     OW24997   5.255   1.195   5.701
 8033SOL    HW124998   5.158   1.189   5.679
 8033SOL    HW224999   5.309   1.173   5.619
 8034SOL     OW25000   4.939   0.056   4.621
 8034SOL    HW125001   4.905   0.041   4.529
 8034SOL    HW225002   5.002   0.134   4.622
 8035SOL     OW25003   5.086   1.753   4.217
 8035SOL    HW125004   5.183   1.752   4.242
 8035SOL    HW225005   5.033   1.790   4.293
 8036SOL     OW25006   6.859   3.716   3.376
 8036SOL    HW125007   6.937   3.777   3.364
 8036SOL    HW225008   6.884   3.624   3.348
 8037SOL     OW25009   1.783   3.099   0.015
 8037SOL    HW125010   1.828   3.102   6.951
 8037SOL    HW225011   1.690   3.136   0.007
 8038SOL     OW25012   3.927   6.879   2.741
 8038SOL    HW125013   3.971   6.893   2.829
 8038SOL    HW225014   3.849   6.818   2.752
 8039SOL     OW25015   0.753   1.655   4.353
 8039SOL    HW125016   0.674   1.703   4.391
 8039SOL    HW225017   0.724   1.569   4.312
 8040SOL     OW25018   1.835   5.344   6.570
 8040SOL    HW125019   1.737   5.348   6.589
 8040SOL    HW225020   1.886   5.365   6.654
 8041SOL     OW25021   2.122   1.905   2.460
 8041SOL    HW125022   2.161   1.893   2.369
 8041SOL    HW225023   2.108   1.815   2.502
 8042SOL     OW25024   2.990   3.141   4.003
 8042SOL    HW125025   2.932   3.198   3.943
 8042SOL    HW225026   3.060   3.198   4.045
 8043SOL     OW25027   3.861   6.860   1.553
 8043SOL    HW125028   3.835   6.802   1.477
 8043SOL    HW225029   3.837   6.816   1.640
 8044SOL     OW25030   4.174   2.152   1.290
 8044SOL    HW125031   4.126   2.104   1.216
 8044SOL    HW225032   4.115   2.156   1.371
 8045SOL     OW25033   5.111   1.768   2.880
 8045SOL    HW125034   5.132   1.812   2.792
 8045SOL    HW225035   5.028   1.809   2.919
 8046SOL     OW25036   0.152   5.485   1.182
 8046SOL    HW125037   0.225   5.456   1.120
 8046SOL    HW225038   0.115   5.406   1.230
 8047SOL     OW25039   4.329   5.856   4.385
 8047SOL    HW125040   4.324   5.757   4.393
 8047SOL    HW225041   4.281   5.886   4.302
 8048SOL     OW25042   5.297   1.069   5.973
 8048SOL    HW125043   5.268   1.104   5.884
 8048SOL    HW225044   5.394   1.043   5.968
 8049SOL     OW25045   0.906   0.377   0.054
 8049SOL    HW125046   0.919   0.453   7.014
 8049SOL    HW225047   0.818   0.388   0.100
 8050SOL     OW25048   1.336   4.286   3.789
 8050SOL    HW125049   1.256   4.260   3.735
 8050SOL    HW225050   1.412   4.224   3.769
 8051SOL     OW25051   4.476   5.940   3.575
 8051SOL    HW125052   4.504   5.892   3.658
 8051SOL    HW225053   4.542   6.013   3.556
 8052SOL     OW25054   4.192   1.208   1.681
 8052SOL    HW125055   4.112   1.237   1.628
 8052SOL    HW225056   4.204   1.269   1.759
 8053SOL     OW25057   2.948   3.628   3.639
 8053SOL    HW125058   2.974   3.658   3.731
 8053SOL    HW225059   2.940   3.707   3.579
 8054SOL     OW25060   5.870   6.828   4.835
 8054SOL    HW125061   5.781   6.811   4.879
 8054SOL    HW225062   5.883   6.926   4.824
 8055SOL     OW25063   0.901   7.022   5.532
 8055SOL    HW125064   0.818   6.975   5.503
 8055SOL    HW225065   0.910   7.014   5.632
 8056SOL     OW25066   2.632   1.436   4.031
 8056SOL    HW125067   2.616   1.460   4.127
 8056SOL    HW225068   2.667   1.343   4.026
 8057SOL     OW25069   2.837   2.335   3.099
 8057SOL    HW125070   2.789   2.303   3.181
 8057SOL    HW225071   2.770   2.357   3.029
 8058SOL     OW25072   3.707   0.135   2.545
 8058SOL    HW125073   3.739   0.134   2.640
 8058SOL    HW225074   3.786   0.137   2.484
 8059SOL     OW25075   3.190   2.025   4.936
 8059SOL    HW125076   3.169   2.119   4.960
 8059SOL    HW225077   3.280   2.000   4.973
 8060SOL     OW25078   6.146   2.262   4.727
 8060SOL    HW125079   6.197   2.288   4.810
 8060SOL    HW225080   6.211   2.238   4.655
 8061SOL     OW25081   0.367   0.981   2.811
 8061SOL    HW125082   0.458   1.022   2.819
 8061SOL    HW225083   0.315   1.029   2.740
 8062SOL     OW25084   3.785   4.976   3.791
 8062SOL    HW125085   3.816   4.940   3.879
 8062SOL    HW225086   3.688   4.999   3.798
 8063SOL     OW25087   1.433   2.409   1.868
 8063SOL    HW125088   1.525   2.403   1.907
 8063SOL    HW225089   1.386   2.322   1.879
 8064SOL     OW25090   0.179   3.537   1.910
 8064SOL    HW125091   0.144   3.497   1.994
 8064SOL    HW225092   0.125   3.505   1.832
 8065SOL     OW25093   2.409   5.549   3.543
 8065SOL    HW125094   2.360   5.497   3.613
 8065SOL    HW225095   2.503   5.517   3.538
 8066SOL     OW25096   0.497   1.985   5.135
 8066SOL    HW125097   0.504   1.919   5.209
 8066SOL    HW225098   0.451   1.942   5.056
 8067SOL     OW25099   4.552   2.749   1.787
 8067SOL    HW125100   4.567   2.845   1.809
 8067SOL    HW225101   4.633   2.713   1.739
 8068SOL     OW25102   0.260   3.700   1.273
 8068SOL    HW125103   0.277   3.779   1.214
 8068SOL    HW225104   0.163   3.695   1.294
 8069SOL     OW25105   2.579   6.077   1.625
 8069SOL    HW125106   2.498   6.131   1.605
 8069SOL    HW225107   2.595   6.075   1.723
 8070SOL     OW25108   4.223   3.347   0.501
 8070SOL    HW125109   4.151   3.332   0.569
 8070SOL    HW225110   4.245   3.260   0.457
 8071SOL     OW25111   2.734   6.205   4.469
 8071SOL    HW125112   2.754   6.196   4.371
 8071SOL    HW225113   2.649   6.157   4.490
 8072SOL     OW25114   3.707   1.445   0.814
 8072SOL    HW125115   3.629   1.383   0.825
 8072SOL    HW225116   3.737   1.477   0.903
 8073SOL     OW25117   3.134   5.357   4.747
 8073SOL    HW125118   3.170   5.279   4.798
 8073SOL    HW225119   3.140   5.338   4.649
 8074SOL     OW25120   3.913   2.794   0.379
 8074SOL    HW125121   3.841   2.772   0.444
 8074SOL    HW225122   3.928   2.893   0.379
 8075SOL     OW25123   0.166   0.471   0.893
 8075SOL    HW125124   0.179   0.396   0.957
 8075SOL    HW225125   0.252   0.519   0.879
 8076SOL     OW25126   6.604   1.230   5.224
 8076SOL    HW125127   6.612   1.154   5.288
 8076SOL    HW225128   6.578   1.312   5.274
 8077SOL     OW25129   2.826   6.124   2.787
 8077SOL    HW125130   2.848   6.181   2.708
 8077SOL    HW225131   2.836   6.178   2.870
 8078SOL     OW25132   0.203   1.783   0.779
 8078SOL    HW125133   0.209   1.881   0.762
 8078SOL    HW225134   0.286   1.739   0.745
 8079SOL     OW25135   4.665   1.902   3.770
 8079SOL    HW125136   4.667   2.001   3.783
 8079SOL    HW225137   4.701   1.857   3.852
 8080SOL     OW25138   0.747   2.444   0.600
 8080SOL    HW125139   0.701   2.491   0.676
 8080SOL    HW225140   0.846   2.449   0.613
 8081SOL     OW25141   6.125   5.819   5.370
 8081SOL    HW125142   6.069   5.780   5.443
 8081SOL    HW225143   6.067   5.838   5.291
 8082SOL     OW25144   4.469   6.908   2.264
 8082SOL    HW125145   4.450   6.887   2.168
 8082SOL    HW225146   4.528   6.989   2.269
 8083SOL     OW25147   5.018   3.455   3.202
 8083SOL    HW125148   4.995   3.454   3.105
 8083SOL    HW225149   5.112   3.488   3.214
 8084SOL     OW25150   4.306   6.956   0.358
 8084SOL    HW125151   4.266   0.013   0.398
 8084SOL    HW225152   4.386   6.929   0.412
 8085SOL     OW25153   6.858   6.429   1.777
 8085SOL    HW125154   6.888   6.362   1.709
 8085SOL    HW225155   6.920   6.428   1.855
 8086SOL     OW25156   5.638   0.606   2.864
 8086SOL    HW125157   5.718   0.658   2.832
 8086SOL    HW225158   5.564   0.615   2.798
 8087SOL     OW25159   2.925   1.337   0.095
 8087SOL    HW125160   2.955   1.365   0.003
 8087SOL    HW225161   2.961   1.401   0.162
 8088SOL     OW25162   5.385   2.202   1.307
 8088SOL    HW125163   5.462   2.151   1.268
 8088SOL    HW225164   5.411   2.242   1.395
 8089SOL     OW25165   5.621   2.445   0.460
 8089SOL    HW125166   5.667   2.532   0.474
 8089SOL    HW225167   5.689   2.373   0.447
 8090SOL     OW25168   4.410   1.774   0.099
 8090SOL    HW125169   4.451   1.863   0.081
 8090SOL    HW225170   4.436   1.743   0.191
 8091SOL     OW25171   2.202   3.601   5.301
 8091SOL    HW125172   2.275   3.669   5.304
 8091SOL    HW225173   2.225   3.531   5.233
 8092SOL     OW25174   5.865   1.787   4.777
 8092SOL    HW125175   5.918   1.723   4.833
 8092SOL    HW225176   5.847   1.871   4.830
 8093SOL     OW25177   3.769   5.351   2.779
 8093SOL    HW125178   3.866   5.326   2.768
 8093SOL    HW225179   3.726   5.288   2.843
 8094SOL     OW25180   1.685   3.653   4.631
 8094SOL    HW125181   1.759   3.717   4.654
 8094SOL    HW225182   1.715   3.594   4.556
 8095SOL     OW25183   0.029   4.547   4.618
 8095SOL    HW125184   6.965   4.569   4.576
 8095SOL    HW225185   0.096   4.527   4.546
 8096SOL     OW25186   2.235   6.548   3.019
 8096SOL    HW125187   2.189   6.572   3.104
 8096SOL    HW225188   2.283   6.628   2.984
 8097SOL     OW25189   3.929   0.041   3.854
 8097SOL    HW125190   3.907   0.050   3.757
 8097SOL    HW225191   3.872   0.104   3.907
 8098SOL     OW25192   1.457   0.178   3.204
 8098SOL    HW125193   1.548   0.211   3.176
 8098SOL    HW225194   1.398   0.172   3.124
 8099SOL     OW25195   3.739   6.928   4.784
 8099SOL    HW125196   3.804   6.965   4.850
 8099SOL    HW225197   3.675   6.866   4.831
 8100SOL     OW25198   6.098   1.191   0.634
 8100SOL    HW125199   6.022   1.249   0.664
 8100SOL    HW225200   6.178   1.207   0.692
 8101SOL     OW25201   2.203   6.696   2.628
 8101SOL    HW125202   2.127   6.692   2.564
 8101SOL    HW225203   2.178   6.752   2.707
 8102SOL     OW25204   0.546   4.375   4.105
 8102SOL    HW125205   0.589   4.418   4.026
 8102SOL    HW225206   0.591   4.407   4.189
 8103SOL     OW25207   3.925   0.154   1.213
 8103SOL    HW125208   3.850   0.092   1.235
 8103SOL    HW225209   3.892   0.248   1.215
 8104SOL     OW25210   3.814   0.454   6.084
 8104SOL    HW125211   3.835   0.499   6.171
 8104SOL    HW225212   3.855   0.506   6.009
 8105SOL     OW25213   0.691   2.851   3.115
 8105SOL    HW125214   0.654   2.853   3.208
 8105SOL    HW225215   0.786   2.880   3.117
 8106SOL     OW25216   2.310   5.835   3.091
 8106SOL    HW125217   2.271   5.805   3.003
 8106SOL    HW225218   2.402   5.798   3.101
 8107SOL     OW25219   0.445   4.766   4.656
 8107SOL    HW125220   0.514   4.714   4.606
 8107SOL    HW225221   0.368   4.787   4.595
 8108SOL     OW25222   6.113   3.130   5.349
 8108SOL    HW125223   6.156   3.146   5.260
 8108SOL    HW225224   6.026   3.180   5.353
 8109SOL     OW25225   1.123   3.862   5.062
 8109SOL    HW125226   1.193   3.804   5.021
 8109SOL    HW225227   1.115   3.840   5.160
 8110SOL     OW25228   2.968   6.229   1.612
 8110SOL    HW125229   3.044   6.290   1.635
 8110SOL    HW225230   2.906   6.276   1.548
 8111SOL     OW25231   4.921   0.406   5.313
 8111SOL    HW125232   5.013   0.377   5.287
 8111SOL    HW225233   4.892   0.481   5.254
 8112SOL     OW25234   2.044   2.159   4.585
 8112SOL    HW125235   2.104   2.228   4.543
 8112SOL    HW225236   2.040   2.078   4.526
 8113SOL     OW25237   3.065   3.562   0.445
 8113SOL    HW125238   3.100   3.598   0.359
 8113SOL    HW225239   3.003   3.485   0.427
 8114SOL     OW25240   1.684   3.797   2.122
 8114SOL    HW125241   1.661   3.738   2.044
 8114SOL    HW225242   1.748   3.868   2.094
 8115SOL     OW25243   3.314   0.710   0.232
 8115SOL    HW125244   3.359   0.733   0.146
 8115SOL    HW225245   3.216   0.728   0.225
 8116SOL     OW25246   5.192   5.123   5.881
 8116SOL    HW125247   5.107   5.124   5.933
 8116SOL    HW225248   5.200   5.208   5.829
 8117SOL     OW25249   1.164   0.795   3.426
 8117SOL    HW125250   1.233   0.728   3.454
 8117SOL    HW225251   1.127   0.840   3.506
 8118SOL     OW25252   5.965   4.235   5.197
 8118SOL    HW125253   5.947   4.158   5.135
 8118SOL    HW225254   5.878   4.274   5.228
 8119SOL     OW25255   5.770   5.232   5.853
 8119SOL    HW125256   5.810   5.143   5.875
 8119SOL    HW225257   5.795   5.258   5.759
 8120SOL     OW25258   2.682   5.662   0.539
 8120SOL    HW125259   2.642   5.577   0.573
 8120SOL    HW225260   2.782   5.657   0.544
 8121SOL     OW25261   0.663   4.896   1.818
 8121SOL    HW125262   0.726   4.953   1.766
 8121SOL    HW225263   0.684   4.903   1.915
 8122SOL     OW25264   0.839   5.968   2.610
 8122SOL    HW125265   0.830   5.981   2.511
 8122SOL    HW225266   0.897   6.040   2.648
 8123SOL     OW25267   6.725   1.089   6.020
 8123SOL    HW125268   6.716   1.006   5.966
 8123SOL    HW225269   6.807   1.139   5.991
 8124SOL     OW25270   6.064   6.921   1.099
 8124SOL    HW125271   6.041   6.963   1.011
 8124SOL    HW225272   6.079   6.993   1.167
 8125SOL     OW25273   1.232   1.460   3.636
 8125SOL    HW125274   1.141   1.461   3.678
 8125SOL    HW225275   1.266   1.366   3.632
 8126SOL     OW25276   4.735   5.055   2.830
 8126SOL    HW125277   4.637   5.040   2.832
 8126SOL    HW225278   4.779   4.981   2.779
 8127SOL     OW25279   2.684   5.263   6.430
 8127SOL    HW125280   2.755   5.207   6.473
 8127SOL    HW225281   2.652   5.333   6.495
 8128SOL     OW25282   2.668   1.357   1.656
 8128SOL    HW125283   2.668   1.342   1.754
 8128SOL    HW225284   2.615   1.439   1.635
 8129SOL     OW25285   4.832   0.627   6.502
 8129SOL    HW125286   4.922   0.638   6.543
 8129SOL    HW225287   4.790   0.544   6.536
 8130SOL     OW25288   0.059   3.073   6.219
 8130SOL    HW125289   0.049   3.058   6.317
 8130SOL    HW225290   6.992   3.081   6.177
 8131SOL     OW25291   3.764   2.276   0.880
 8131SOL    HW125292   3.666   2.270   0.900
 8131SOL    HW225293   3.796   2.368   0.903
 8132SOL     OW25294   6.050   6.832   5.959
 8132SOL    HW125295   6.099   6.904   5.910
 8132SOL    HW225296   6.084   6.826   6.053
 8133SOL     OW25297   2.573   4.813   1.534
 8133SOL    HW125298   2.538   4.752   1.605
 8133SOL    HW225299   2.664   4.844   1.559
 8134SOL     OW25300   0.172   2.815   5.650
 8134SOL    HW125301   0.127   2.735   5.612
 8134SOL    HW225302   0.213   2.869   5.576
 8135SOL     OW25303   2.630   5.956   1.876
 8135SOL    HW125304   2.721   5.994   1.859
 8135SOL    HW225305   2.629   5.860   1.849
 8136SOL     OW25306   4.326   5.206   2.934
 8136SOL    HW125307   4.253   5.224   3.000
 8136SOL    HW225308   4.345   5.108   2.930
 8137SOL     OW25309   3.139   1.296   5.255
 8137SOL    HW125310   3.133   1.395   5.271
 8137SOL    HW225311   3.215   1.276   5.194
 8138SOL     OW25312   5.747   0.954   6.983
 8138SOL    HW125313   5.715   0.993   0.045
 8138SOL    HW225314   5.675   0.963   6.914
 8139SOL     OW25315   0.148   1.112   2.969
 8139SOL    HW125316   0.221   1.048   2.942
 8139SOL    HW225317   0.151   1.193   2.911
 8140SOL     OW25318   4.814   0.198   1.276
 8140SOL    HW125319   4.881   0.248   1.331
 8140SOL    HW225320   4.729   0.250   1.271
 8141SOL     OW25321   5.018   6.383   5.837
 8141SOL    HW125322   5.041   6.379   5.740
 8141SOL    HW225323   4.927   6.423   5.847
 8142SOL     OW25324   1.120   4.783   6.999
 8142SOL    HW125325   1.199   4.740   0.018
 8142SOL    HW225326   1.150   4.856   6.938
 8143SOL     OW25327   0.016   4.941   0.751
 8143SOL    HW125328   6.953   4.978   0.720
 8143SOL    HW225329   0.020   4.944   0.850
 8144SOL     OW25330   6.629   6.709   6.115
 8144SOL    HW125331   6.592   6.714   6.207
 8144SOL    HW225332   6.571   6.761   6.052
 8145SOL     OW25333   5.827   5.611   1.654
 8145SOL    HW125334   5.733   5.620   1.620
 8145SOL    HW225335   5.890   5.658   1.592
 8146SOL     OW25336   4.732   1.028   5.152
 8146SOL    HW125337   4.691   0.939   5.175
 8146SOL    HW225338   4.759   1.075   5.236
 8147SOL     OW25339   6.656   1.914   1.903
 8147SOL    HW125340   6.662   2.009   1.932
 8147SOL    HW225341   6.740   1.866   1.929
 8148SOL     OW25342   5.071   4.305   0.699
 8148SOL    HW125343   5.108   4.262   0.781
 8148SOL    HW225344   5.116   4.393   0.684
 8149SOL     OW25345   2.545   5.986   2.256
 8149SOL    HW125346   2.526   6.008   2.160
 8149SOL    HW225347   2.484   6.039   2.315
 8150SOL     OW25348   2.088   4.316   0.882
 8150SOL    HW125349   2.094   4.416   0.884
 8150SOL    HW225350   1.996   4.289   0.855
 8151SOL     OW25351   5.391   4.289   2.301
 8151SOL    HW125352   5.453   4.364   2.326
 8151SOL    HW225353   5.434   4.233   2.230
 8152SOL     OW25354   6.232   2.180   2.837
 8152SOL    HW125355   6.159   2.249   2.840
 8152SOL    HW225356   6.306   2.212   2.778
 8153SOL     OW25357   1.377   0.877   3.850
 8153SOL    HW125358   1.289   0.924   3.845
 8153SOL    HW225359   1.362   0.779   3.861
 8154SOL     OW25360   3.666   5.162   2.356
 8154SOL    HW125361   3.720   5.183   2.275
 8154SOL    HW225362   3.568   5.172   2.335
 8155SOL     OW25363   1.922   3.126   1.662
 8155SOL    HW125364   1.953   3.054   1.600
 8155SOL    HW225365   1.907   3.210   1.611
 8156SOL     OW25366   5.572   6.190   0.863
 8156SOL    HW125367   5.662   6.233   0.849
 8156SOL    HW225368   5.500   6.259   0.853
 8157SOL     OW25369   6.560   5.024   5.942
 8157SOL    HW125370   6.578   4.944   5.885
 8157SOL    HW225371   6.644   5.049   5.991
 8158SOL     OW25372   4.958   4.606   0.254
 8158SOL    HW125373   4.937   4.512   0.228
 8158SOL    HW225374   4.890   4.638   0.320
 8159SOL     OW25375   2.420   5.807   2.797
 8159SOL    HW125376   2.482   5.884   2.786
 8159SOL    HW225377   2.473   5.722   2.796
 8160SOL     OW25378   5.152   0.974   3.175
 8160SOL    HW125379   5.103   1.056   3.146
 8160SOL    HW225380   5.194   0.930   3.096
 8161SOL     OW25381   6.075   2.523   6.774
 8161SOL    HW125382   5.981   2.500   6.750
 8161SOL    HW225383   6.081   2.618   6.802
 8162SOL     OW25384   5.902   6.455   6.889
 8162SOL    HW125385   5.907   6.359   6.861
 8162SOL    HW225386   5.973   6.508   6.842
 8163SOL     OW25387   2.772   4.106   5.394
 8163SOL    HW125388   2.837   4.123   5.468
 8163SOL    HW225389   2.748   4.008   5.393
 8164SOL     OW25390   5.119   2.014   0.168
 8164SOL    HW125391   5.034   2.013   0.116
 8164SOL    HW225392   5.178   1.940   0.138
 8165SOL     OW25393   0.762   3.715   6.155
 8165SOL    HW125394   0.828   3.664   6.210
 8165SOL    HW225395   0.809   3.761   6.079
 8166SOL     OW25396   1.242   0.976   3.239
 8166SOL    HW125397   1.205   0.906   3.301
 8166SOL    HW225398   1.339   0.959   3.223
 8167SOL     OW25399   7.008   6.935   4.054
 8167SOL    HW125400   0.064   6.922   3.996
 8167SOL    HW225401   6.947   7.001   4.011
 8168SOL     OW25402   1.896   1.528   3.258
 8168SOL    HW125403   1.972   1.562   3.202
 8168SOL    HW225404   1.887   1.429   3.245
 8169SOL     OW25405   4.951   1.964   1.144
 8169SOL    HW125406   4.958   1.982   1.242
 8169SOL    HW225407   4.920   1.870   1.130
 8170SOL     OW25408   1.299   4.646   2.345
 8170SOL    HW125409   1.224   4.659   2.410
 8170SOL    HW225410   1.278   4.694   2.260
 8171SOL     OW25411   1.658   1.816   6.252
 8171SOL    HW125412   1.738   1.877   6.250
 8171SOL    HW225413   1.659   1.763   6.337
 8172SOL     OW25414   0.933   2.425   2.317
 8172SOL    HW125415   1.014   2.468   2.356
 8172SOL    HW225416   0.873   2.495   2.279
 8173SOL     OW25417   5.523   1.399   1.974
 8173SOL    HW125418   5.489   1.331   1.909
 8173SOL    HW225419   5.592   1.357   2.032
 8174SOL     OW25420   6.080   2.582   1.431
 8174SOL    HW125421   6.177   2.584   1.453
 8174SOL    HW225422   6.042   2.494   1.459
 8175SOL     OW25423   0.193   2.391   5.319
 8175SOL    HW125424   0.249   2.474   5.331
 8175SOL    HW225425   0.253   2.313   5.302
 8176SOL     OW25426   2.410   5.472   1.922
 8176SOL    HW125427   2.463   5.476   2.007
 8176SOL    HW225428   2.359   5.557   1.910
 8177SOL     OW25429   3.568   6.877   3.991
 8177SOL    HW125430   3.508   6.867   3.912
 8177SOL    HW225431   3.516   6.865   4.075
 8178SOL     OW25432   2.799   6.341   6.973
 8178SOL    HW125433   2.799   6.282   6.892
 8178SOL    HW225434   2.882   6.398   6.972
 8179SOL     OW25435   5.094   1.939   5.464
 8179SOL    HW125436   5.003   1.972   5.438
 8179SOL    HW225437   5.121   1.864   5.404
 8180SOL     OW25438   6.706   0.107   5.159
 8180SOL    HW125439   6.628   0.091   5.219
 8180SOL    HW225440   6.675   0.150   5.074
 8181SOL     OW25441   2.035   1.447   0.534
 8181SOL    HW125442   2.052   1.545   0.538
 8181SOL    HW225443   2.110   1.398   0.579
 8182SOL     OW25444   3.632   3.360   5.696
 8182SOL    HW125445   3.647   3.459   5.698
 8182SOL    HW225446   3.634   3.328   5.602
 8183SOL     OW25447   6.779   2.141   4.890
 8183SOL    HW125448   6.852   2.104   4.832
 8183SOL    HW225449   6.793   2.110   4.984
 8184SOL     OW25450   6.369   1.036   0.203
 8184SOL    HW125451   6.369   0.964   0.134
 8184SOL    HW225452   6.313   1.113   0.172
 8185SOL     OW25453   3.047   6.775   0.216
 8185SOL    HW125454   3.123   6.840   0.210
 8185SOL    HW225455   2.995   6.777   0.131
 8186SOL     OW25456   3.735   5.667   5.622
 8186SOL    HW125457   3.688   5.578   5.612
 8186SOL    HW225458   3.832   5.655   5.603
 8187SOL     OW25459   1.614   2.242   4.793
 8187SOL    HW125460   1.694   2.183   4.809
 8187SOL    HW225461   1.604   2.259   4.695
 8188SOL     OW25462   5.586   2.543   2.981
 8188SOL    HW125463   5.529   2.513   2.904
 8188SOL    HW225464   5.574   2.641   2.996
 8189SOL     OW25465   4.585   4.640   3.136
 8189SOL    HW125466   4.678   4.605   3.145
 8189SOL    HW225467   4.588   4.733   3.102
 8190SOL     OW25468   4.518   5.233   4.409
 8190SOL    HW125469   4.486   5.243   4.503
 8190SOL    HW225470   4.448   5.268   4.346
 8191SOL     OW25471   4.100   6.435   2.097
 8191SOL    HW125472   4.170   6.496   2.134
 8191SOL    HW225473   4.011   6.480   2.103
 8192SOL     OW25474   4.003   5.073   0.443
 8192SOL    HW125475   3.966   5.116   0.526
 8192SOL    HW225476   4.050   5.142   0.389
 8193SOL     OW25477   6.846   6.509   4.543
 8193SOL    HW125478   6.891   6.577   4.602
 8193SOL    HW225479   6.904   6.428   4.535
 8194SOL     OW25480   5.430   2.634   0.863
 8194SOL    HW125481   5.339   2.617   0.901
 8194SOL    HW225482   5.489   2.670   0.935
 8195SOL     OW25483   1.725   0.567   2.011
 8195SOL    HW125484   1.696   0.624   1.934
 8195SOL    HW225485   1.658   0.494   2.025
 8196SOL     OW25486   3.702   6.270   5.836
 8196SOL    HW125487   3.735   6.223   5.917
 8196SOL    HW225488   3.769   6.339   5.807
 8197SOL     OW25489   4.625   2.093   0.252
 8197SOL    HW125490   4.579   2.060   0.335
 8197SOL    HW225491   4.578   2.057   0.172
 8198SOL     OW25492   3.249   6.829   3.326
 8198SOL    HW125493   3.282   6.896   3.392
 8198SOL    HW225494   3.150   6.818   3.337
 8199SOL     OW25495   5.707   2.835   6.881
 8199SOL    HW125496   5.635   2.889   6.926
 8199SOL    HW225497   5.668   2.790   6.800
 8200SOL     OW25498   5.206   4.009   1.707
 8200SOL    HW125499   5.169   3.974   1.621
 8200SOL    HW225500   5.147   4.082   1.741
 8201SOL     OW25501   5.489   0.253   3.951
 8201SOL    HW125502   5.485   0.155   3.934
 8201SOL    HW225503   5.411   0.280   4.008
 8202SOL     OW25504   0.245   5.827   4.480
 8202SOL    HW125505   0.247   5.818   4.380
 8202SOL    HW225506   0.238   5.736   4.521
 8203SOL     OW25507   4.770   2.533   0.008
 8203SOL    HW125508   4.707   2.465   0.046
 8203SOL    HW225509   4.863   2.512   0.038
 8204SOL     OW25510   3.057   5.239   0.051
 8204SOL    HW125511   3.141   5.190   0.076
 8204SOL    HW225512   2.978   5.184   0.079
 8205SOL     OW25513   0.314   4.797   0.926
 8205SOL    HW125514   0.398   4.850   0.928
 8205SOL    HW225515   0.244   4.844   0.980
 8206SOL     OW25516   4.868   2.750   6.349
 8206SOL    HW125517   4.825   2.660   6.362
 8206SOL    HW225518   4.964   2.737   6.323
 8207SOL     OW25519   3.189   4.030   5.085
 8207SOL    HW125520   3.273   4.009   5.135
 8207SOL    HW225521   3.115   4.048   5.150
 8208SOL     OW25522   1.918   0.154   1.347
 8208SOL    HW125523   1.966   0.159   1.434
 8208SOL    HW225524   1.821   0.137   1.364
 8209SOL     OW25525   0.335   1.314   6.388
 8209SOL    HW125526   0.383   1.252   6.450
 8209SOL    HW225527   0.287   1.261   6.318
 8210SOL     OW25528   2.448   0.637   1.427
 8210SOL    HW125529   2.451   0.551   1.378
 8210SOL    HW225530   2.393   0.626   1.510
 8211SOL     OW25531   3.907   3.913   2.071
 8211SOL    HW125532   3.971   3.911   1.995
 8211SOL    HW225533   3.954   3.883   2.155
 8212SOL     OW25534   2.599   1.820   1.227
 8212SOL    HW125535   2.683   1.875   1.230
 8212SOL    HW225536   2.623   1.723   1.218
 8213SOL     OW25537   6.329   4.592   2.087
 8213SOL    HW125538   6.388   4.606   2.166
 8213SOL    HW225539   6.299   4.681   2.051
 8214SOL     OW25540   0.020   5.275   4.431
 8214SOL    HW125541   0.074   5.307   4.509
 8214SOL    HW225542   6.947   5.283   4.453
 8215SOL     OW25543   2.884   5.388   5.978
 8215SOL    HW125544   2.902   5.486   5.964
 8215SOL    HW225545   2.800   5.377   6.032
 8216SOL     OW25546   4.882   5.952   3.617
 8216SOL    HW125547   4.971   5.995   3.627
 8216SOL    HW225548   4.892   5.852   3.623
 8217SOL     OW25549   2.305   3.890   1.783
 8217SOL    HW125550   2.231   3.826   1.803
 8217SOL    HW225551   2.360   3.855   1.708
 8218SOL     OW25552   0.690   6.303   4.519
 8218SOL    HW125553   0.756   6.362   4.473
 8218SOL    HW225554   0.727   6.272   4.606
 8219SOL     OW25555   4.314   3.130   0.934
 8219SOL    HW125556   4.346   3.037   0.954
 8219SOL    HW225557   4.371   3.170   0.862
 8220SOL     OW25558   3.177   3.470   4.581
 8220SOL    HW125559   3.092   3.520   4.566
 8220SOL    HW225560   3.231   3.516   4.653
 8221SOL     OW25561   6.362   5.778   3.322
 8221SOL    HW125562   6.263   5.773   3.325
 8221SOL    HW225563   6.395   5.743   3.234
 8222SOL     OW25564   5.239   1.520   1.402
 8222SOL    HW125565   5.221   1.560   1.312
 8222SOL    HW225566   5.227   1.421   1.397
 8223SOL     OW25567   1.191   4.157   5.041
 8223SOL    HW125568   1.238   4.096   5.105
 8223SOL    HW225569   1.139   4.102   4.976
 8224SOL     OW25570   5.856   2.600   2.025
 8224SOL    HW125571   5.779   2.535   2.027
 8224SOL    HW225572   5.942   2.550   2.025
 8225SOL     OW25573   4.076   1.245   1.312
 8225SOL    HW125574   4.055   1.318   1.247
 8225SOL    HW225575   4.175   1.244   1.330
 8226SOL     OW25576   3.471   7.009   0.614
 8226SOL    HW125577   3.556   6.973   0.577
 8226SOL    HW225578   3.467   6.991   0.712
 8227SOL     OW25579   6.599   1.252   2.489
 8227SOL    HW125580   6.500   1.237   2.482
 8227SOL    HW225581   6.615   1.344   2.524
 8228SOL     OW25582   0.264   1.722   6.354
 8228SOL    HW125583   0.222   1.691   6.439
 8228SOL    HW225584   0.283   1.642   6.296
 8229SOL     OW25585   3.950   4.041   1.351
 8229SOL    HW125586   3.855   4.056   1.381
 8229SOL    HW225587   3.974   4.110   1.282
 8230SOL     OW25588   3.647   6.522   5.331
 8230SOL    HW125589   3.575   6.580   5.369
 8230SOL    HW225590   3.605   6.444   5.284
 8231SOL     OW25591   2.766   3.033   1.590
 8231SOL    HW125592   2.737   2.943   1.622
 8231SOL    HW225593   2.864   3.045   1.607
 8232SOL     OW25594   5.994   1.954   2.496
 8232SOL    HW125595   5.958   1.910   2.579
 8232SOL    HW225596   6.089   1.983   2.512
 8233SOL     OW25597   1.506   6.656   6.796
 8233SOL    HW125598   1.525   6.587   6.866
 8233SOL    HW225599   1.474   6.612   6.713
 8234SOL     OW25600   3.002   4.000   0.379
 8234SOL    HW125601   2.997   4.069   0.451
 8234SOL    HW225602   2.961   3.915   0.412
 8235SOL     OW25603   0.430   3.770   0.106
 8235SOL    HW125604   0.385   3.683   0.083
 8235SOL    HW225605   0.395   3.803   0.194
 8236SOL     OW25606   6.721   4.825   7.011
 8236SOL    HW125607   6.708   4.875   6.925
 8236SOL    HW225608   6.739   4.729   6.991
 8237SOL     OW25609   4.783   5.881   6.099
 8237SOL    HW125610   4.771   5.977   6.073
 8237SOL    HW225611   4.804   5.827   6.017
 8238SOL     OW25612   0.894   5.359   7.015
 8238SOL    HW125613   0.986   5.394   0.010
 8238SOL    HW225614   0.900   5.263   6.988
 8239SOL     OW25615   0.697   0.761   5.383
 8239SOL    HW125616   0.688   0.666   5.353
 8239SOL    HW225617   0.792   0.779   5.410
 8240SOL     OW25618   3.414   4.128   2.285
 8240SOL    HW125619   3.507   4.118   2.250
 8240SOL    HW225620   3.418   4.166   2.378
 8241SOL     OW25621   2.868   4.959   6.246
 8241SOL    HW125622   2.953   4.909   6.263
 8241SOL    HW225623   2.821   4.920   6.167
 8242SOL     OW25624   0.545   3.795   5.761
 8242SOL    HW125625   0.476   3.723   5.747
 8242SOL    HW225626   0.635   3.753   5.772
 8243SOL     OW25627   6.774   3.840   1.118
 8243SOL    HW125628   6.871   3.833   1.093
 8243SOL    HW225629   6.721   3.775   1.063
 8244SOL     OW25630   0.334   0.609   3.463
 8244SOL    HW125631   0.379   0.668   3.396
 8244SOL    HW225632   0.357   0.640   3.556
 8245SOL     OW25633   3.544   2.073   2.509
 8245SOL    HW125634   3.626   2.030   2.546
 8245SOL    HW225635   3.551   2.077   2.409
 8246SOL     OW25636   0.616   3.710   6.386
 8246SOL    HW125637   0.603   3.614   6.410
 8246SOL    HW225638   0.652   3.717   6.293
 8247SOL     OW25639   1.656   0.471   3.543
 8247SOL    HW125640   1.565   0.463   3.584
 8247SOL    HW225641   1.657   0.425   3.454
 8248SOL     OW25642   0.448   4.110   4.385
 8248SOL    HW125643   0.497   4.046   4.325
 8248SOL    HW225644   0.415   4.061   4.465
 8249SOL     OW25645   2.315   1.327   5.932
 8249SOL    HW125646   2.341   1.262   5.860
 8249SOL    HW225647   2.382   1.400   5.937
 8250SOL     OW25648   2.137   2.342   1.574
 8250SOL    HW125649   2.181   2.401   1.641
 8250SOL    HW225650   2.109   2.398   1.495
 8251SOL     OW25651   5.166   2.615   4.012
 8251SOL    HW125652   5.241   2.574   4.064
 8251SOL    HW225653   5.201   2.688   3.953
 8252SOL     OW25654   4.132   1.906   6.479
 8252SOL    HW125655   4.145   1.977   6.410
 8252SOL    HW225656   4.125   1.817   6.433
 8253SOL     OW25657   3.911   5.473   5.844
 8253SOL    HW125658   3.942   5.486   5.750
 8253SOL    HW225659   3.986   5.489   5.907
 8254SOL     OW25660   4.932   4.887   5.610
 8254SOL    HW125661   4.880   4.971   5.598
 8254SOL    HW225662   4.875   4.809   5.585
 8255SOL     OW25663   1.191   6.142   5.187
 8255SOL    HW125664   1.278   6.190   5.176
 8255SOL    HW225665   1.133   6.162   5.108
 8256SOL     OW25666   6.542   6.382   2.383
 8256SOL    HW125667   6.544   6.282   2.387
 8256SOL    HW225668   6.629   6.416   2.347
 8257SOL     OW25669   5.036   3.987   2.895
 8257SOL    HW125670   5.117   3.936   2.865
 8257SOL    HW225671   5.023   4.065   2.835
 8258SOL     OW25672   4.789   2.646   1.660
 8258SOL    HW125673   4.759   2.684   1.572
 8258SOL    HW225674   4.824   2.720   1.718
 8259SOL     OW25675   3.558   2.274   5.471
 8259SOL    HW125676   3.459   2.259   5.475
 8259SOL    HW225677   3.586   2.287   5.376
 8260SOL     OW25678   2.501   7.005   1.586
 8260SOL    HW125679   2.528   6.922   1.634
 8260SOL    HW225680   2.402   7.004   1.571
 8261SOL     OW25681   5.079   6.431   3.164
 8261SOL    HW125682   4.991   6.455   3.124
 8261SOL    HW225683   5.064   6.395   3.257
 8262SOL     OW25684   1.259   4.291   0.210
 8262SOL    HW125685   1.256   4.372   0.152
 8262SOL    HW225686   1.267   4.319   0.306
 8263SOL     OW25687   6.938   3.052   6.815
 8263SOL    HW125688   6.947   3.057   6.715
 8263SOL    HW225689   6.903   3.138   6.850
 8264SOL     OW25690   1.423   6.763   1.326
 8264SOL    HW125691   1.379   6.677   1.300
 8264SOL    HW225692   1.395   6.835   1.262
 8265SOL     OW25693   5.486   0.186   2.101
 8265SOL    HW125694   5.540   0.260   2.062
 8265SOL    HW225695   5.547   0.110   2.125
 8266SOL     OW25696   2.481   1.069   4.463
 8266SOL    HW125697   2.567   1.115   4.444
 8266SOL    HW225698   2.458   1.009   4.386
 8267SOL     OW25699   1.333   3.565   1.251
 8267SOL    HW125700   1.287   3.643   1.208
 8267SOL    HW225701   1.266   3.492   1.267
 8268SOL     OW25702   2.979   6.081   6.256
 8268SOL    HW125703   3.008   6.101   6.350
 8268SOL    HW225704   2.932   6.161   6.218
 8269SOL     OW25705   4.699   2.716   2.927
 8269SOL    HW125706   4.746   2.804   2.924
 8269SOL    HW225707   4.712   2.668   2.840
 8270SOL     OW25708   2.983   6.146   5.047
 8270SOL    HW125709   2.926   6.223   5.076
 8270SOL    HW225710   3.073   6.152   5.091
 8271SOL     OW25711   6.722   0.118   2.891
 8271SOL    HW125712   6.695   0.156   2.980
 8271SOL    HW225713   6.743   0.021   2.903
 8272SOL     OW25714   6.640   1.422   2.771
 8272SOL    HW125715   6.681   1.334   2.749
 8272SOL    HW225716   6.686   1.461   2.851
 8273SOL     OW25717   2.777   0.822   0.837
 8273SOL    HW125718   2.729   0.767   0.906
 8273SOL    HW225719   2.876   0.816   0.853
 8274SOL     OW25720   4.354   5.595   4.481
 8274SOL    HW125721   4.359   5.531   4.404
 8274SOL    HW225722   4.413   5.564   4.555
 8275SOL     OW25723   5.188   0.570   4.374
 8275SOL    HW125724   5.273   0.560   4.427
 8275SOL    HW225725   5.130   0.639   4.417
 8276SOL     OW25726   0.581   1.751   5.386
 8276SOL    HW125727   0.615   1.657   5.376
 8276SOL    HW225728   0.488   1.756   5.349
 8277SOL     OW25729   1.195   6.179   6.415
 8277SOL    HW125730   1.286   6.147   6.441
 8277SOL    HW225731   1.127   6.138   6.475
 8278SOL     OW25732   3.407   1.933   6.759
 8278SOL    HW125733   3.375   1.984   6.838
 8278SOL    HW225734   3.502   1.958   6.740
 8279SOL     OW25735   0.118   6.483   4.895
 8279SOL    HW125736   0.097   6.439   4.982
 8279SOL    HW225737   0.047   6.548   4.872
 8280SOL     OW25738   3.495   2.769   0.345
 8280SOL    HW125739   3.464   2.803   0.256
 8280SOL    HW225740   3.564   2.698   0.331
 8281SOL     OW25741   2.324   4.574   1.643
 8281SOL    HW125742   2.375   4.490   1.665
 8281SOL    HW225743   2.296   4.572   1.548
 8282SOL     OW25744   3.675   4.609   7.004
 8282SOL    HW125745   3.728   4.620   6.920
 8282SOL    HW225746   3.661   4.511   7.021
 8283SOL     OW25747   1.626   4.544   4.384
 8283SOL    HW125748   1.618   4.444   4.382
 8283SOL    HW225749   1.643   4.574   4.478
 8284SOL     OW25750   1.353   4.098   1.948
 8284SOL    HW125751   1.345   4.017   2.006
 8284SOL    HW225752   1.448   4.109   1.920
 8285SOL     OW25753   3.574   3.841   5.086
 8285SOL    HW125754   3.558   3.929   5.131
 8285SOL    HW225755   3.548   3.847   4.990
 8286SOL     OW25756   5.079   1.634   4.927
 8286SOL    HW125757   5.143   1.599   4.858
 8286SOL    HW225758   5.028   1.558   4.967
 8287SOL     OW25759   1.087   5.026   4.142
 8287SOL    HW125760   1.057   5.085   4.217
 8287SOL    HW225761   1.155   4.961   4.176
 8288SOL     OW25762   2.528   2.369   2.436
 8288SOL    HW125763   2.622   2.353   2.404
 8288SOL    HW225764   2.464   2.319   2.377
 8289SOL     OW25765   6.891   6.801   6.162
 8289SOL    HW125766   6.881   6.888   6.211
 8289SOL    HW225767   6.806   6.779   6.115
 8290SOL     OW25768   5.192   1.659   0.790
 8290SOL    HW125769   5.183   1.578   0.848
 8290SOL    HW225770   5.276   1.653   0.737
 8291SOL     OW25771   6.200   5.288   6.152
 8291SOL    HW125772   6.167   5.328   6.066
 8291SOL    HW225773   6.254   5.206   6.133
 8292SOL     OW25774   2.794   5.625   6.566
 8292SOL    HW125775   2.880   5.575   6.579
 8292SOL    HW225776   2.793   5.666   6.475
 8293SOL     OW25777   2.614   5.014   1.080
 8293SOL    HW125778   2.515   5.012   1.088
 8293SOL    HW225779   2.651   4.922   1.095
 8294SOL     OW25780   6.222   3.689   4.768
 8294SOL    HW125781   6.141   3.713   4.714
 8294SOL    HW225782   6.273   3.618   4.720
 8295SOL     OW25783   4.913   3.731   3.032
 8295SOL    HW125784   4.974   3.780   2.970
 8295SOL    HW225785   4.886   3.644   2.992
 8296SOL     OW25786   2.755   5.973   0.258
 8296SOL    HW125787   2.699   5.959   0.340
 8296SOL    HW225788   2.783   5.884   0.221
 8297SOL     OW25789   6.713   2.937   2.684
 8297SOL    HW125790   6.632   2.936   2.743
 8297SOL    HW225791   6.720   3.026   2.639
 8298SOL     OW25792   6.965   0.814   0.633
 8298SOL    HW125793   6.947   0.856   0.721
 8298SOL    HW225794   0.004   0.871   0.581
 8299SOL     OW25795   0.456   2.966   2.424
 8299SOL    HW125796   0.485   2.975   2.519
 8299SOL    HW225797   0.469   3.053   2.377
 8300SOL     OW25798   0.312   6.449   4.201
 8300SOL    HW125799   0.410   6.452   4.222
 8300SOL    HW225800   0.282   6.540   4.171
 8301SOL     OW25801   4.311   0.965   6.795
 8301SOL    HW125802   4.322   0.948   6.894
 8301SOL    HW225803   4.345   1.056   6.773
 8302SOL     OW25804   5.340   6.272   5.932
 8302SOL    HW125805   5.341   6.196   5.867
 8302SOL    HW225806   5.339   6.237   6.025
 8303SOL     OW25807   5.861   0.517   3.370
 8303SOL    HW125808   5.861   0.445   3.300
 8303SOL    HW225809   5.871   0.606   3.326
 8304SOL     OW25810   5.615   4.855   1.274
 8304SOL    HW125811   5.627   4.843   1.373
 8304SOL    HW225812   5.705   4.857   1.230
 8305SOL     OW25813   4.618   4.982   4.426
 8305SOL    HW125814   4.555   4.916   4.384
 8305SOL    HW225815   4.594   5.074   4.396
 8306SOL     OW25816   5.877   1.426   3.452
 8306SOL    HW125817   5.885   1.419   3.352
 8306SOL    HW225818   5.798   1.482   3.475
 8307SOL     OW25819   4.025   5.453   1.777
 8307SOL    HW125820   3.981   5.513   1.711
 8307SOL    HW225821   4.063   5.374   1.730
 8308SOL     OW25822   2.341   6.006   0.537
 8308SOL    HW125823   2.262   6.006   0.598
 8308SOL    HW225824   2.345   6.092   0.487
 8309SOL     OW25825   6.581   5.729   2.678
 8309SOL    HW125826   6.653   5.671   2.640
 8309SOL    HW225827   6.613   5.824   2.680
 8310SOL     OW25828   1.403   5.335   1.396
 8310SOL    HW125829   1.482   5.393   1.419
 8310SOL    HW225830   1.394   5.262   1.464
 8311SOL     OW25831   6.269   1.345   4.972
 8311SOL    HW125832   6.345   1.283   4.991
 8311SOL    HW225833   6.194   1.293   4.930
 8312SOL     OW25834   5.554   1.189   6.562
 8312SOL    HW125835   5.614   1.141   6.625
 8312SOL    HW225836   5.464   1.201   6.604
 8313SOL     OW25837   5.688   0.638   6.102
 8313SOL    HW125838   5.783   0.657   6.128
 8313SOL    HW225839   5.626   0.688   6.163
 8314SOL     OW25840   6.431   6.987   6.277
 8314SOL    HW125841   6.409   6.890   6.270
 8314SOL    HW225842   6.395   7.023   6.363
 8315SOL     OW25843   3.996   3.096   2.817
 8315SOL    HW125844   4.056   3.028   2.860
 8315SOL    HW225845   3.913   3.106   2.871
 8316SOL     OW25846   1.922   2.927   1.483
 8316SOL    HW125847   1.969   2.850   1.439
 8316SOL    HW225848   1.835   2.943   1.437
 8317SOL     OW25849   1.395   2.310   2.952
 8317SOL    HW125850   1.471   2.261   2.908
 8317SOL    HW225851   1.357   2.376   2.887
 8318SOL     OW25852   4.174   1.493   6.099
 8318SOL    HW125853   4.107   1.420   6.115
 8318SOL    HW225854   4.137   1.559   6.034
 8319SOL     OW25855   1.330   1.107   1.110
 8319SOL    HW125856   1.389   1.081   1.187
 8319SOL    HW225857   1.326   1.031   1.045
 8320SOL     OW25858   3.246   3.901   2.762
 8320SOL    HW125859   3.179   3.833   2.732
 8320SOL    HW225860   3.309   3.859   2.828
 8321SOL     OW25861   6.859   6.984   0.076
 8321SOL    HW125862   6.810   0.032   0.029
 8321SOL    HW225863   6.928   0.000   0.136
 8322SOL     OW25864   6.094   1.232   1.014
 8322SOL    HW125865   6.104   1.201   0.920
 8322SOL    HW225866   6.105   1.155   1.077
 8323SOL     OW25867   4.096   4.604   1.477
 8323SOL    HW125868   4.182   4.556   1.497
 8323SOL    HW225869   4.032   4.541   1.433
 8324SOL     OW25870   5.404   0.383   1.075
 8324SOL    HW125871   5.425   0.375   1.172
 8324SOL    HW225872   5.312   0.348   1.058
 8325SOL     OW25873   1.379   3.679   5.391
 8325SOL    HW125874   1.453   3.650   5.452
 8325SOL    HW225875   1.414   3.687   5.298
 8326SOL     OW25876   4.336   4.202   5.831
 8326SOL    HW125877   4.255   4.257   5.851
 8326SOL    HW225878   4.332   4.169   5.737
 8327SOL     OW25879   0.354   0.638   5.586
 8327SOL    HW125880   0.363   0.736   5.568
 8327SOL    HW225881   0.280   0.623   5.652
 8328SOL     OW25882   2.864   6.242   6.705
 8328SOL    HW125883   2.778   6.260   6.657
 8328SOL    HW225884   2.927   6.318   6.689
 8329SOL     OW25885   0.511   2.672   4.481
 8329SOL    HW125886   0.541   2.765   4.463
 8329SOL    HW225887   0.411   2.667   4.471
 8330SOL     OW25888   3.317   1.514   6.776
 8330SOL    HW125889   3.274   1.518   6.686
 8330SOL    HW225890   3.360   1.425   6.789
 8331SOL     OW25891   3.630   0.708   0.690
 8331SOL    HW125892   3.598   0.738   0.600
 8331SOL    HW225893   3.636   0.608   0.691
 8332SOL     OW25894   6.050   5.778   2.336
 8332SOL    HW125895   6.068   5.833   2.417
 8332SOL    HW225896   5.953   5.784   2.313
 8333SOL     OW25897   1.304   5.006   0.246
 8333SOL    HW125898   1.345   5.018   0.336
 8333SOL    HW225899   1.209   4.976   0.257
 8334SOL     OW25900   3.490   1.732   5.431
 8334SOL    HW125901   3.556   1.713   5.504
 8334SOL    HW225902   3.531   1.795   5.365
 8335SOL     OW25903   4.575   1.418   0.325
 8335SOL    HW125904   4.602   1.335   0.276
 8335SOL    HW225905   4.573   1.400   0.423
 8336SOL     OW25906   0.416   4.121   2.665
 8336SOL    HW125907   0.487   4.185   2.635
 8336SOL    HW225908   0.442   4.028   2.637
 8337SOL     OW25909   0.406   6.312   3.891
 8337SOL    HW125910   0.475   6.383   3.874
 8337SOL    HW225911   0.327   6.353   3.937
 8338SOL     OW25912   3.374   5.600   1.378
 8338SOL    HW125913   3.427   5.573   1.298
 8338SOL    HW225914   3.285   5.635   1.349
 8339SOL     OW25915   6.608   0.325   2.177
 8339SOL    HW125916   6.551   0.314   2.258
 8339SOL    HW225917   6.693   0.274   2.190
 8340SOL     OW25918   4.926   3.965   1.175
 8340SOL    HW125919   4.943   3.871   1.202
 8340SOL    HW225920   4.930   3.973   1.075
 8341SOL     OW25921   2.543   0.496   6.655
 8341SOL    HW125922   2.614   0.429   6.676
 8341SOL    HW225923   2.517   0.487   6.558
 8342SOL     OW25924   4.606   6.838   0.197
 8342SOL    HW125925   4.566   6.924   0.165
 8342SOL    HW225926   4.684   6.858   0.257
 8343SOL     OW25927   0.489   5.682   3.360
 8343SOL    HW125928   0.545   5.730   3.428
 8343SOL    HW225929   0.479   5.740   3.279
 8344SOL     OW25930   6.426   5.742   4.431
 8344SOL    HW125931   6.520   5.776   4.438
 8344SOL    HW225932   6.423   5.667   4.366
 8345SOL     OW25933   3.810   2.027   2.596
 8345SOL    HW125934   3.890   2.003   2.651
 8345SOL    HW225935   3.840   2.063   2.507
 8346SOL     OW25936   3.717   4.826   0.834
 8346SOL    HW125937   3.751   4.811   0.741
 8346SOL    HW225938   3.780   4.888   0.882
 8347SOL     OW25939   2.852   6.670   5.456
 8347SOL    HW125940   2.851   6.745   5.523
 8347SOL    HW225941   2.880   6.585   5.501
 8348SOL     OW25942   2.163   0.982   1.064
 8348SOL    HW125943   2.071   0.946   1.053
 8348SOL    HW225944   2.202   0.950   1.151
 8349SOL     OW25945   0.942   6.698   2.318
 8349SOL    HW125946   0.872   6.669   2.253
 8349SOL    HW225947   0.905   6.766   2.381
 8350SOL     OW25948   2.688   6.997   5.966
 8350SOL    HW125949   2.657   6.919   6.019
 8350SOL    HW225950   2.759   0.022   6.017
 8351SOL     OW25951   5.105   5.640   4.510
 8351SOL    HW125952   5.075   5.546   4.494
 8351SOL    HW225953   5.028   5.695   4.541
 8352SOL     OW25954   0.706   6.712   3.365
 8352SOL    HW125955   0.684   6.658   3.284
 8352SOL    HW225956   0.805   6.713   3.379
 8353SOL     OW25957   0.832   4.040   1.048
 8353SOL    HW125958   0.905   4.108   1.051
 8353SOL    HW225959   0.870   3.949   1.030
 8354SOL     OW25960   3.506   0.097   4.555
 8354SOL    HW125961   3.440   0.039   4.508
 8354SOL    HW225962   3.598   0.077   4.522
 8355SOL     OW25963   2.528   1.461   5.429
 8355SOL    HW125964   2.516   1.560   5.433
 8355SOL    HW225965   2.439   1.417   5.413
 8356SOL     OW25966   1.158   0.200   1.883
 8356SOL    HW125967   1.109   0.120   1.917
 8356SOL    HW225968   1.150   0.274   1.950
 8357SOL     OW25969   3.258   6.890   5.596
 8357SOL    HW125970   3.170   6.936   5.606
 8357SOL    HW225971   3.251   6.797   5.631
 8358SOL     OW25972   2.101   3.860   4.888
 8358SOL    HW125973   2.168   3.934   4.892
 8358SOL    HW225974   2.077   3.831   4.981
 8359SOL     OW25975   3.254   1.198   4.990
 8359SOL    HW125976   3.269   1.105   5.024
 8359SOL    HW225977   3.337   1.230   4.943
 8360SOL     OW25978   4.138   0.300   0.264
 8360SOL    HW125979   4.104   0.238   0.193
 8360SOL    HW225980   4.154   0.248   0.348
 8361SOL     OW25981   3.805   0.555   1.709
 8361SOL    HW125982   3.828   0.644   1.671
 8361SOL    HW225983   3.822   0.483   1.641
 8362SOL     OW25984   4.859   1.698   1.139
 8362SOL    HW125985   4.768   1.738   1.134
 8362SOL    HW225986   4.874   1.638   1.060
 8363SOL     OW25987   4.742   2.802   0.043
 8363SOL    HW125988   4.797   2.843   0.116
 8363SOL    HW225989   4.755   2.703   0.043
 8364SOL     OW25990   0.241   1.653   4.092
 8364SOL    HW125991   0.255   1.743   4.133
 8364SOL    HW225992   0.270   1.654   3.997
 8365SOL     OW25993   1.613   2.604   2.757
 8365SOL    HW125994   1.667   2.610   2.840
 8365SOL    HW225995   1.552   2.524   2.763
 8366SOL     OW25996   2.740   5.232   0.995
 8366SOL    HW125997   2.706   5.145   1.031
 8366SOL    HW225998   2.678   5.306   1.022
 8367SOL     OW25999   3.174   5.857   5.068
 8367SOL    HW126000   3.111   5.891   4.997
 8367SOL    HW226001   3.152   5.762   5.088
 8368SOL     OW26002   1.023   6.483   6.928
 8368SOL    HW126003   1.067   6.507   7.016
 8368SOL    HW226004   0.927   6.511   6.931
 8369SOL     OW26005   0.683   0.382   6.152
 8369SOL    HW126006   0.763   0.379   6.212
 8369SOL    HW226007   0.709   0.419   6.063
 8370SOL     OW26008   2.786   1.820   5.774
 8370SOL    HW126009   2.848   1.774   5.710
 8370SOL    HW226010   2.804   1.788   5.867
 8371SOL     OW26011   2.427   4.585   0.675
 8371SOL    HW126012   2.388   4.605   0.585
 8371SOL    HW226013   2.418   4.666   0.733
 8372SOL     OW26014   1.797   5.475   1.719
 8372SOL    HW126015   1.866   5.547   1.709
 8372SOL    HW226016   1.741   5.494   1.799
 8373SOL     OW26017   1.771   6.282   3.842
 8373SOL    HW126018   1.809   6.277   3.750
 8373SOL    HW226019   1.692   6.220   3.848
 8374SOL     OW26020   0.460   0.153   5.413
 8374SOL    HW126021   0.541   0.201   5.447
 8374SOL    HW226022   0.378   0.206   5.434
 8375SOL     OW26023   4.089   6.329   5.654
 8375SOL    HW126024   4.040   6.416   5.644
 8375SOL    HW226025   4.185   6.343   5.629
 8376SOL     OW26026   1.011   1.293   4.600
 8376SOL    HW126027   1.032   1.293   4.502
 8376SOL    HW226028   0.915   1.273   4.613
 8377SOL     OW26029   5.801   6.391   0.704
 8377SOL    HW126030   5.809   6.424   0.610
 8377SOL    HW226031   5.891   6.395   0.748
 8378SOL     OW26032   3.554   4.926   2.921
 8378SOL    HW126033   3.581   4.885   3.008
 8378SOL    HW226034   3.464   4.968   2.929
 8379SOL     OW26035   5.275   2.542   1.529
 8379SOL    HW126036   5.203   2.483   1.493
 8379SOL    HW226037   5.263   2.635   1.493
 8380SOL     OW26038   0.704   0.411   1.604
 8380SOL    HW126039   0.667   0.325   1.639
 8380SOL    HW226040   0.649   0.487   1.639
 8381SOL     OW26041   0.316   2.598   4.204
 8381SOL    HW126042   0.246   2.544   4.158
 8381SOL    HW226043   0.273   2.666   4.263
 8382SOL     OW26044   2.356   0.021   2.414
 8382SOL    HW126045   2.269   0.067   2.397
 8382SOL    HW226046   2.385   6.996   2.333
 8383SOL     OW26047   2.840   6.990   6.277
 8383SOL    HW126048   2.928   6.967   6.235
 8383SOL    HW226049   2.852   0.038   6.344
 8384SOL     OW26050   6.153   1.833   1.270
 8384SOL    HW126051   6.090   1.774   1.319
 8384SOL    HW226052   6.227   1.861   1.331
 8385SOL     OW26053   4.912   2.774   6.876
 8385SOL    HW126054   4.836   2.797   6.937
 8385SOL    HW226055   4.900   2.682   6.841
 8386SOL     OW26056   1.767   6.473   1.853
 8386SOL    HW126057   1.844   6.478   1.789
 8386SOL    HW226058   1.776   6.545   1.922
 8387SOL     OW26059   0.792   1.604   1.235
 8387SOL    HW126060   0.699   1.630   1.211
 8387SOL    HW226061   0.796   1.505   1.250
 8388SOL     OW26062   2.341   6.815   0.657
 8388SOL    HW126063   2.360   6.765   0.742
 8388SOL    HW226064   2.282   6.893   0.676
 8389SOL     OW26065   0.185   3.696   4.070
 8389SOL    HW126066   0.248   3.760   4.113
 8389SOL    HW226067   0.093   3.736   4.069
 8390SOL     OW26068   4.135   6.512   0.090
 8390SOL    HW126069   4.103   6.454   0.164
 8390SOL    HW226070   4.160   6.602   0.126
 8391SOL     OW26071   5.546   5.288   1.177
 8391SOL    HW126072   5.591   5.370   1.143
 8391SOL    HW226073   5.584   5.264   1.266
 8392SOL     OW26074   0.276   4.987   5.536
 8392SOL    HW126075   0.324   4.903   5.511
 8392SOL    HW226076   0.181   4.965   5.559
 8393SOL     OW26077   0.190   0.156   2.571
 8393SOL    HW126078   0.107   0.204   2.600
 8393SOL    HW226079   0.166   0.087   2.502
 8394SOL     OW26080   0.677   3.165   1.823
 8394SOL    HW126081   0.710   3.084   1.774
 8394SOL    HW226082   0.698   3.155   1.920
 8395SOL     OW26083   1.897   6.511   4.771
 8395SOL    HW126084   1.959   6.443   4.809
 8395SOL    HW226085   1.859   6.477   4.685
 8396SOL     OW26086   4.026   5.243   2.718
 8396SOL    HW126087   4.056   5.183   2.792
 8396SOL    HW226088   3.994   5.187   2.641
 8397SOL     OW26089   2.303   1.156   3.004
 8397SOL    HW126090   2.387   1.101   3.006
 8397SOL    HW226091   2.307   1.219   2.927
 8398SOL     OW26092   4.541   2.537   6.791
 8398SOL    HW126093   4.486   2.602   6.843
 8398SOL    HW226094   4.625   2.516   6.842
 8399SOL     OW26095   6.266   6.939   0.711
 8399SOL    HW126096   6.348   6.904   0.757
 8399SOL    HW226097   6.268   6.910   0.615
 8400SOL     OW26098   1.463   0.537   4.162
 8400SOL    HW126099   1.561   0.548   4.175
 8400SOL    HW226100   1.431   0.457   4.214
 8401SOL     OW26101   3.329   1.680   6.109
 8401SOL    HW126102   3.425   1.657   6.127
 8401SOL    HW226103   3.312   1.774   6.139
 8402SOL     OW26104   3.655   2.182   6.182
 8402SOL    HW126105   3.668   2.182   6.281
 8402SOL    HW226106   3.614   2.096   6.154
 8403SOL     OW26107   0.823   2.319   4.160
 8403SOL    HW126108   0.864   2.347   4.247
 8403SOL    HW226109   0.748   2.381   4.137
 8404SOL     OW26110   4.142   6.894   6.208
 8404SOL    HW126111   4.234   6.855   6.220
 8404SOL    HW226112   4.080   6.854   6.275
 8405SOL     OW26113   2.884   0.596   5.806
 8405SOL    HW126114   2.854   0.510   5.763
 8405SOL    HW226115   2.840   0.673   5.760
 8406SOL     OW26116   5.186   6.928   0.589
 8406SOL    HW126117   5.161   6.978   0.506
 8406SOL    HW226118   5.250   6.855   0.565
 8407SOL     OW26119   3.817   6.394   4.006
 8407SOL    HW126120   3.722   6.399   4.036
 8407SOL    HW226121   3.846   6.484   3.972
 8408SOL     OW26122   5.458   3.366   2.175
 8408SOL    HW126123   5.495   3.441   2.120
 8408SOL    HW226124   5.366   3.343   2.143
 8409SOL     OW26125   5.678   3.286   3.917
 8409SOL    HW126126   5.647   3.261   3.825
 8409SOL    HW226127   5.604   3.270   3.982
 8410SOL     OW26128   5.143   0.378   1.896
 8410SOL    HW126129   5.128   0.475   1.918
 8410SOL    HW226130   5.054   0.335   1.878
 8411SOL     OW26131   0.880   5.072   6.951
 8411SOL    HW126132   0.790   5.042   6.986
 8411SOL    HW226133   0.874   5.086   6.852
 8412SOL     OW26134   3.525   2.204   1.478
 8412SOL    HW126135   3.510   2.265   1.557
 8412SOL    HW226136   3.576   2.253   1.408
 8413SOL     OW26137   3.752   5.564   0.285
 8413SOL    HW126138   3.810   5.484   0.305
 8413SOL    HW226139   3.786   5.609   0.202
 8414SOL     OW26140   3.900   5.736   3.581
 8414SOL    HW126141   3.822   5.693   3.536
 8414SOL    HW226142   3.981   5.728   3.523
 8415SOL     OW26143   6.649   5.933   3.072
 8415SOL    HW126144   6.634   5.834   3.073
 8415SOL    HW226145   6.602   5.975   3.150
 8416SOL     OW26146   5.737   3.657   2.815
 8416SOL    HW126147   5.832   3.660   2.784
 8416SOL    HW226148   5.678   3.698   2.746
 8417SOL     OW26149   1.344   4.953   5.625
 8417SOL    HW126150   1.324   4.947   5.527
 8417SOL    HW226151   1.317   5.043   5.658
 8418SOL     OW26152   5.688   5.420   0.887
 8418SOL    HW126153   5.728   5.512   0.887
 8418SOL    HW226154   5.758   5.354   0.916
 8419SOL     OW26155   5.166   0.790   2.194
 8419SOL    HW126156   5.083   0.806   2.247
 8419SOL    HW226157   5.216   0.712   2.233
 8420SOL     OW26158   4.373   6.815   0.795
 8420SOL    HW126159   4.293   6.785   0.743
 8420SOL    HW226160   4.453   6.814   0.735
 8421SOL     OW26161   2.538   5.717   0.110
 8421SOL    HW126162   2.507   5.674   0.025
 8421SOL    HW226163   2.463   5.767   0.152
 8422SOL     OW26164   4.419   0.921   1.337
 8422SOL    HW126165   4.505   0.924   1.287
 8422SOL    HW226166   4.346   0.889   1.277
 8423SOL     OW26167   4.038   4.574   5.900
 8423SOL    HW126168   4.063   4.484   5.865
 8423SOL    HW226169   3.938   4.584   5.897
 8424SOL     OW26170   1.889   2.368   2.890
 8424SOL    HW126171   1.823   2.410   2.953
 8424SOL    HW226172   1.981   2.400   2.911
 8425SOL     OW26173   5.228   6.019   0.374
 8425SOL    HW126174   5.262   6.007   0.281
 8425SOL    HW226175   5.177   6.104   0.380
 8426SOL     OW26176   3.366   3.747   4.086
 8426SOL    HW126177   3.346   3.845   4.091
 8426SOL    HW226178   3.307   3.698   4.151
 8427SOL     OW26179   3.456   3.122   4.781
 8427SOL    HW126180   3.394   3.177   4.725
 8427SOL    HW226181   3.468   3.032   4.740
 8428SOL     OW26182   0.372   4.499   1.619
 8428SOL    HW126183   0.338   4.580   1.570
 8428SOL    HW226184   0.471   4.493   1.608
 8429SOL     OW26185   1.671   4.967   3.641
 8429SOL    HW126186   1.648   4.899   3.710
 8429SOL    HW226187   1.592   4.983   3.581
 8430SOL     OW26188   3.403   5.214   4.476
 8430SOL    HW126189   3.481   5.196   4.416
 8430SOL    HW226190   3.434   5.258   4.560
 8431SOL     OW26191   2.973   5.532   0.765
 8431SOL    HW126192   3.056   5.576   0.797
 8431SOL    HW226193   2.957   5.554   0.669
 8432SOL     OW26194   5.688   6.364   6.182
 8432SOL    HW126195   5.658   6.294   6.116
 8432SOL    HW226196   5.716   6.319   6.267
 8433SOL     OW26197   5.450   2.192   0.222
 8433SOL    HW126198   5.447   2.196   0.122
 8433SOL    HW226199   5.545   2.178   0.252
 8434SOL     OW26200   2.902   6.726   4.662
 8434SOL    HW126201   2.930   6.819   4.641
 8434SOL    HW226202   2.839   6.726   4.739
 8435SOL     OW26203   5.847   0.668   1.588
 8435SOL    HW126204   5.903   0.751   1.577
 8435SOL    HW226205   5.805   0.669   1.679
 8436SOL     OW26206   3.407   0.271   4.015
 8436SOL    HW126207   3.384   0.300   4.108
 8436SOL    HW226208   3.332   0.294   3.953
 8437SOL     OW26209   2.416   0.054   3.912
 8437SOL    HW126210   2.395   0.140   3.959
 8437SOL    HW226211   2.332   0.018   3.872
 8438SOL     OW26212   2.721   5.045   2.455
 8438SOL    HW126213   2.663   5.093   2.521
 8438SOL    HW226214   2.799   5.004   2.503
 8439SOL     OW26215   6.436   5.228   2.366
 8439SOL    HW126216   6.426   5.231   2.466
 8439SOL    HW226217   6.365   5.170   2.327
 8440SOL     OW26218   0.623   2.017   3.652
 8440SOL    HW126219   0.653   1.976   3.737
 8440SOL    HW226220   0.694   2.078   3.617
 8441SOL     OW26221   6.273   6.939   0.443
 8441SOL    HW126222   6.366   6.972   0.429
 8441SOL    HW226223   6.213   6.977   0.372
 8442SOL     OW26224   2.825   1.839   5.240
 8442SOL    HW126225   2.809   1.922   5.294
 8442SOL    HW226226   2.871   1.864   5.155
 8443SOL     OW26227   1.729   5.811   3.756
 8443SOL    HW126228   1.796   5.883   3.737
 8443SOL    HW226229   1.639   5.853   3.769
 8444SOL     OW26230   2.671   5.985   3.811
 8444SOL    HW126231   2.658   5.997   3.909
 8444SOL    HW226232   2.765   6.011   3.786
 8445SOL     OW26233   3.926   6.272   0.557
 8445SOL    HW126234   4.011   6.288   0.608
 8445SOL    HW226235   3.850   6.314   0.605
 8446SOL     OW26236   4.638   4.989   6.631
 8446SOL    HW126237   4.570   5.059   6.606
 8446SOL    HW226238   4.594   4.920   6.689
 8447SOL     OW26239   4.663   2.268   2.228
 8447SOL    HW126240   4.616   2.354   2.207
 8447SOL    HW226241   4.643   2.242   2.322
 8448SOL     OW26242   4.865   6.359   4.098
 8448SOL    HW126243   4.857   6.260   4.083
 8448SOL    HW226244   4.788   6.390   4.153
 8449SOL     OW26245   6.789   2.199   4.019
 8449SOL    HW126246   6.690   2.207   4.011
 8449SOL    HW226247   6.829   2.194   3.927
 8450SOL     OW26248   1.118   6.309   1.329
 8450SOL    HW126249   1.172   6.224   1.339
 8450SOL    HW226250   1.021   6.286   1.322
 8451SOL     OW26251   4.216   2.523   6.800
 8451SOL    HW126252   4.120   2.549   6.806
 8451SOL    HW226253   4.254   2.514   6.892
 8452SOL     OW26254   6.564   1.112   3.061
 8452SOL    HW126255   6.573   1.092   3.159
 8452SOL    HW226256   6.477   1.159   3.045
 8453SOL     OW26257   6.735   4.418   6.174
 8453SOL    HW126258   6.804   4.460   6.115
 8453SOL    HW226259   6.780   4.369   6.249
 8454SOL     OW26260   0.197   6.893   1.093
 8454SOL    HW126261   0.219   6.864   1.187
 8454SOL    HW226262   0.207   6.816   1.031
 8455SOL     OW26263   5.793   2.475   1.621
 8455SOL    HW126264   5.824   2.391   1.577
 8455SOL    HW226265   5.696   2.468   1.642
 8456SOL     OW26266   4.507   6.137   2.983
 8456SOL    HW126267   4.578   6.200   3.013
 8456SOL    HW226268   4.542   6.078   2.910
 8457SOL     OW26269   6.717   6.462   4.804
 8457SOL    HW126270   6.779   6.479   4.881
 8457SOL    HW226271   6.745   6.517   4.726
 8458SOL     OW26272   3.258   1.447   0.065
 8458SOL    HW126273   3.259   1.546   0.077
 8458SOL    HW226274   3.278   1.425   6.995
 8459SOL     OW26275   3.051   6.470   2.123
 8459SOL    HW126276   3.119   6.424   2.180
 8459SOL    HW226277   3.007   6.404   2.063
 8460SOL     OW26278   4.590   3.737   5.345
 8460SOL    HW126279   4.674   3.684   5.331
 8460SOL    HW226280   4.513   3.688   5.305
 8461SOL     OW26281   6.806   4.072   3.624
 8461SOL    HW126282   6.832   4.151   3.680
 8461SOL    HW226283   6.774   3.999   3.684
 8462SOL     OW26284   3.065   2.427   0.117
 8462SOL    HW126285   3.156   2.461   0.143
 8462SOL    HW226286   3.029   2.369   0.191
 8463SOL     OW26287   6.804   6.871   0.860
 8463SOL    HW126288   6.782   6.856   0.764
 8463SOL    HW226289   6.847   6.789   0.898
 8464SOL     OW26290   5.606   3.869   5.507
 8464SOL    HW126291   5.613   3.805   5.584
 8464SOL    HW226292   5.511   3.900   5.498
 8465SOL     OW26293   1.286   2.768   1.226
 8465SOL    HW126294   1.264   2.702   1.298
 8465SOL    HW226295   1.381   2.754   1.195
 8466SOL     OW26296   0.861   6.851   4.972
 8466SOL    HW126297   0.817   6.930   4.928
 8466SOL    HW226298   0.954   6.875   4.998
 8467SOL     OW26299   4.231   0.292   1.317
 8467SOL    HW126300   4.146   0.339   1.342
 8467SOL    HW226301   4.304   0.318   1.380
 8468SOL     OW26302   4.404   2.211   6.519
 8468SOL    HW126303   4.410   2.310   6.536
 8468SOL    HW226304   4.312   2.179   6.542
 8469SOL     OW26305   3.870   1.192   5.883
 8469SOL    HW126306   3.937   1.142   5.827
 8469SOL    HW226307   3.782   1.193   5.836
 8470SOL     OW26308   1.848   4.174   0.143
 8470SOL    HW126309   1.789   4.117   0.086
 8470SOL    HW226310   1.820   4.166   0.239
 8471SOL     OW26311   3.827   0.659   4.241
 8471SOL    HW126312   3.879   0.636   4.324
 8471SOL    HW226313   3.873   0.734   4.193
 8472SOL     OW26314   6.841   0.564   5.537
 8472SOL    HW126315   6.765   0.553   5.600
 8472SOL    HW226316   6.810   0.548   5.443
 8473SOL     OW26317   6.872   5.940   0.501
 8473SOL    HW126318   6.894   5.851   0.460
 8473SOL    HW226319   6.867   6.009   0.430
 8474SOL     OW26320   3.596   3.435   2.417
 8474SOL    HW126321   3.577   3.534   2.415
 8474SOL    HW226322   3.675   3.415   2.360
 8475SOL     OW26323   6.615   2.431   3.767
 8475SOL    HW126324   6.624   2.520   3.721
 8475SOL    HW226325   6.702   2.382   3.762
 8476SOL     OW26326   6.936   2.494   0.696
 8476SOL    HW126327   6.903   2.569   0.753
 8476SOL    HW226328   6.927   2.408   0.746
 8477SOL     OW26329   4.927   6.691   1.588
 8477SOL    HW126330   4.904   6.594   1.581
 8477SOL    HW226331   4.981   6.706   1.671
 8478SOL     OW26332   2.001   0.057   6.455
 8478SOL    HW126333   2.020   0.047   6.552
 8478SOL    HW226334   2.019   0.151   6.426
 8479SOL     OW26335   0.724   2.935   0.824
 8479SOL    HW126336   0.748   2.885   0.741
 8479SOL    HW226337   0.805   2.942   0.883
 8480SOL     OW26338   4.337   1.907   6.683
 8480SOL    HW126339   4.273   1.888   6.608
 8480SOL    HW226340   4.318   1.844   6.759
 8481SOL     OW26341   4.474   2.576   5.001
 8481SOL    HW126342   4.500   2.505   4.935
 8481SOL    HW226343   4.387   2.551   5.044
 8482SOL     OW26344   4.364   5.839   1.965
 8482SOL    HW126345   4.456   5.866   1.937
 8482SOL    HW226346   4.357   5.841   2.065
 8483SOL     OW26347   4.440   6.359   2.232
 8483SOL    HW126348   4.486   6.345   2.320
 8483SOL    HW226349   4.400   6.451   2.230
 8484SOL     OW26350   0.095   6.501   3.192
 8484SOL    HW126351   0.187   6.474   3.162
 8484SOL    HW226352   0.077   6.595   3.163
 8485SOL     OW26353   3.644   2.566   6.983
 8485SOL    HW126354   3.618   2.470   6.987
 8485SOL    HW226355   3.689   2.585   6.896
 8486SOL     OW26356   2.682   1.818   2.396
 8486SOL    HW126357   2.656   1.818   2.299
 8486SOL    HW226358   2.643   1.899   2.441
 8487SOL     OW26359   6.126   1.533   5.800
 8487SOL    HW126360   6.044   1.479   5.782
 8487SOL    HW226361   6.203   1.494   5.750
 8488SOL     OW26362   5.156   5.588   0.405
 8488SOL    HW126363   5.124   5.571   0.499
 8488SOL    HW226364   5.077   5.599   0.345
 8489SOL     OW26365   6.116   2.117   1.434
 8489SOL    HW126366   6.174   2.070   1.368
 8489SOL    HW226367   6.161   2.117   1.523
 8490SOL     OW26368   4.612   6.796   4.078
 8490SOL    HW126369   4.550   6.733   4.124
 8490SOL    HW226370   4.697   6.803   4.129
 8491SOL     OW26371   3.329   5.874   1.165
 8491SOL    HW126372   3.324   5.782   1.204
 8491SOL    HW226373   3.277   5.877   1.080
 8492SOL     OW26374   4.800   4.021   5.148
 8492SOL    HW126375   4.716   4.027   5.203
 8492SOL    HW226376   4.852   3.941   5.176
 8493SOL     OW26377   2.239   2.840   6.379
 8493SOL    HW126378   2.234   2.845   6.479
 8493SOL    HW226379   2.276   2.925   6.343
 8494SOL     OW26380   3.623   5.748   1.479
 8494SOL    HW126381   3.660   5.715   1.392
 8494SOL    HW226382   3.541   5.696   1.502
 8495SOL     OW26383   5.829   4.934   2.489
 8495SOL    HW126384   5.752   4.901   2.435
 8495SOL    HW226385   5.800   4.946   2.584
 8496SOL     OW26386   1.173   2.495   1.638
 8496SOL    HW126387   1.180   2.396   1.644
 8496SOL    HW226388   1.224   2.537   1.713
 8497SOL     OW26389   6.390   1.407   3.520
 8497SOL    HW126390   6.310   1.428   3.464
 8497SOL    HW226391   6.416   1.312   3.507
 8498SOL     OW26392   6.486   6.350   3.277
 8498SOL    HW126393   6.396   6.310   3.292
 8498SOL    HW226394   6.490   6.440   3.320
 8499SOL     OW26395   1.838   4.625   6.579
 8499SOL    HW126396   1.904   4.599   6.509
 8499SOL    HW226397   1.855   4.574   6.663
 8500SOL     OW26398   1.575   5.697   5.603
 8500SOL    HW126399   1.545   5.609   5.638
 8500SOL    HW226400   1.608   5.754   5.679
 8501SOL     OW26401   0.200   2.438   0.143
 8501SOL    HW126402   0.144   2.518   0.162
 8501SOL    HW226403   0.243   2.407   0.228
 8502SOL     OW26404   0.861   3.613   1.135
 8502SOL    HW126405   0.902   3.542   1.078
 8502SOL    HW226406   0.928   3.644   1.203
 8503SOL     OW26407   0.909   6.492   3.939
 8503SOL    HW126408   0.900   6.392   3.935
 8503SOL    HW226409   0.981   6.516   4.003
 8504SOL     OW26410   2.645   4.864   2.271
 8504SOL    HW126411   2.727   4.849   2.217
 8504SOL    HW226412   2.670   4.897   2.363
 8505SOL     OW26413   5.699   3.559   3.680
 8505SOL    HW126414   5.705   3.576   3.778
 8505SOL    HW226415   5.605   3.572   3.649
 8506SOL     OW26416   0.178   0.615   6.656
 8506SOL    HW126417   0.234   0.687   6.697
 8506SOL    HW226418   0.185   0.532   6.712
 8507SOL     OW26419   3.874   0.664   5.370
 8507SOL    HW126420   3.895   0.651   5.273
 8507SOL    HW226421   3.929   0.602   5.425
 8508SOL     OW26422   5.653   1.581   4.738
 8508SOL    HW126423   5.673   1.526   4.656
 8508SOL    HW226424   5.734   1.635   4.763
 8509SOL     OW26425   4.149   1.306   4.613
 8509SOL    HW126426   4.146   1.405   4.625
 8509SOL    HW226427   4.245   1.277   4.603
 8510SOL     OW26428   6.039   4.295   2.772
 8510SOL    HW126429   5.943   4.319   2.788
 8510SOL    HW226430   6.077   4.252   2.855
 8511SOL     OW26431   5.990   3.775   2.560
 8511SOL    HW126432   5.948   3.688   2.587
 8511SOL    HW226433   6.069   3.757   2.501
 8512SOL     OW26434   2.907   2.107   1.874
 8512SOL    HW126435   2.875   2.183   1.931
 8512SOL    HW226436   3.007   2.108   1.870
 8513SOL     OW26437   5.839   5.225   1.032
 8513SOL    HW126438   5.871   5.232   1.126
 8513SOL    HW226439   5.916   5.244   0.970
 8514SOL     OW26440   2.780   2.212   3.737
 8514SOL    HW126441   2.707   2.200   3.804
 8514SOL    HW226442   2.775   2.139   3.668
 8515SOL     OW26443   5.016   2.338   0.897
 8515SOL    HW126444   4.919   2.316   0.887
 8515SOL    HW226445   5.067   2.306   0.816
 8516SOL     OW26446   6.095   2.217   1.903
 8516SOL    HW126447   6.156   2.159   1.957
 8516SOL    HW226448   6.000   2.188   1.918
 8517SOL     OW26449   1.350   2.765   5.949
 8517SOL    HW126450   1.361   2.673   5.911
 8517SOL    HW226451   1.253   2.785   5.961
 8518SOL     OW26452   4.307   4.429   0.536
 8518SOL    HW126453   4.208   4.438   0.552
 8518SOL    HW226454   4.357   4.468   0.613
 8519SOL     OW26455   1.275   4.393   1.682
 8519SOL    HW126456   1.369   4.380   1.651
 8519SOL    HW226457   1.257   4.335   1.761
 8520SOL     OW26458   3.052   2.694   0.630
 8520SOL    HW126459   3.030   2.596   0.624
 8520SOL    HW226460   3.020   2.741   0.548
 8521SOL     OW26461   2.190   5.324   6.540
 8521SOL    HW126462   2.251   5.248   6.563
 8521SOL    HW226463   2.114   5.326   6.605
 8522SOL     OW26464   1.469   6.369   1.132
 8522SOL    HW126465   1.423   6.420   1.205
 8522SOL    HW226466   1.416   6.376   1.048
 8523SOL     OW26467   2.566   6.933   6.324
 8523SOL    HW126468   2.663   6.956   6.332
 8523SOL    HW226469   2.512   7.000   6.374
 8524SOL     OW26470   0.616   2.719   4.743
 8524SOL    HW126471   0.552   2.658   4.790
 8524SOL    HW226472   0.588   2.728   4.647
 8525SOL     OW26473   6.492   3.855   2.945
 8525SOL    HW126474   6.414   3.795   2.967
 8525SOL    HW226475   6.523   3.901   3.029
 8526SOL     OW26476   3.436   5.435   0.217
 8526SOL    HW126477   3.434   5.516   0.158
 8526SOL    HW226478   3.530   5.421   0.250
 8527SOL     OW26479   3.207   0.788   6.026
 8527SOL    HW126480   3.230   0.703   6.073
 8527SOL    HW226481   3.187   0.768   5.930
 8528SOL     OW26482   4.177   2.677   6.154
 8528SOL    HW126483   4.264   2.629   6.162
 8528SOL    HW226484   4.176   2.728   6.068
 8529SOL     OW26485   0.287   0.245   1.405
 8529SOL    HW126486   0.335   0.264   1.491
 8529SOL    HW226487   0.219   0.173   1.420
 8530SOL     OW26488   3.419   3.269   5.442
 8530SOL    HW126489   3.497   3.331   5.448
 8530SOL    HW226490   3.451   3.175   5.452
 8531SOL     OW26491   6.774   4.939   2.420
 8531SOL    HW126492   6.852   4.890   2.379
 8531SOL    HW226493   6.787   4.944   2.519
 8532SOL     OW26494   4.003   4.969   4.833
 8532SOL    HW126495   3.931   4.977   4.902
 8532SOL    HW226496   3.965   4.932   4.748
 8533SOL     OW26497   1.853   0.109   5.770
 8533SOL    HW126498   1.841   0.043   5.844
 8533SOL    HW226499   1.803   0.078   5.689
 8534SOL     OW26500   6.291   3.270   4.182
 8534SOL    HW126501   6.307   3.351   4.125
 8534SOL    HW226502   6.252   3.298   4.270
 8535SOL     OW26503   0.045   1.516   5.085
 8535SOL    HW126504   7.016   1.472   5.012
 8535SOL    HW226505   7.008   1.561   5.150
 8536SOL     OW26506   5.432   1.833   4.762
 8536SOL    HW126507   5.406   1.812   4.668
 8536SOL    HW226508   5.494   1.762   4.797
 8537SOL     OW26509   5.528   1.875   2.562
 8537SOL    HW126510   5.529   1.781   2.598
 8537SOL    HW226511   5.560   1.874   2.467
 8538SOL     OW26512   0.627   1.738   6.375
 8538SOL    HW126513   0.553   1.671   6.384
 8538SOL    HW226514   0.714   1.690   6.361
 8539SOL     OW26515   6.057   1.166   2.267
 8539SOL    HW126516   6.006   1.094   2.220
 8539SOL    HW226517   6.155   1.144   2.267
 8540SOL     OW26518   4.673   1.217   0.191
 8540SOL    HW126519   4.621   1.194   0.108
 8540SOL    HW226520   4.770   1.225   0.168
 8541SOL     OW26521   2.939   2.217   4.178
 8541SOL    HW126522   2.897   2.307   4.185
 8541SOL    HW226523   3.007   2.205   4.250
 8542SOL     OW26524   2.873   4.488   0.053
 8542SOL    HW126525   2.891   4.422   7.005
 8542SOL    HW226526   2.791   4.540   0.032
 8543SOL     OW26527   3.559   1.530   0.047
 8543SOL    HW126528   3.616   1.520   0.129
 8543SOL    HW226529   3.472   1.573   0.073
 8544SOL     OW26530   5.201   2.873   4.699
 8544SOL    HW126531   5.164   2.824   4.620
 8544SOL    HW226532   5.269   2.816   4.745
 8545SOL     OW26533   4.558   0.063   4.359
 8545SOL    HW126534   4.482   0.087   4.300
 8545SOL    HW226535   4.525   0.012   4.438
 8546SOL     OW26536   0.705   0.461   2.645
 8546SOL    HW126537   0.615   0.425   2.672
 8546SOL    HW226538   0.765   0.384   2.623
 8547SOL     OW26539   1.335   6.543   6.597
 8547SOL    HW126540   1.243   6.577   6.577
 8547SOL    HW226541   1.374   6.501   6.515
 8548SOL     OW26542   6.772   3.159   5.545
 8548SOL    HW126543   6.786   3.216   5.626
 8548SOL    HW226544   6.722   3.076   5.571
 8549SOL     OW26545   1.172   3.263   4.906
 8549SOL    HW126546   1.156   3.165   4.895
 8549SOL    HW226547   1.137   3.312   4.826
 8550SOL     OW26548   1.191   5.278   0.269
 8550SOL    HW126549   1.279   5.259   0.226
 8550SOL    HW226550   1.128   5.203   0.249
 8551SOL     OW26551   2.447   3.194   6.918
 8551SOL    HW126552   2.458   3.283   6.873
 8551SOL    HW226553   2.537   3.159   6.944
 8552SOL     OW26554   2.010   0.153   2.889
 8552SOL    HW126555   1.948   0.221   2.851
 8552SOL    HW226556   1.979   0.127   2.981
 8553SOL     OW26557   4.492   4.790   6.816
 8553SOL    HW126558   4.529   4.697   6.814
 8553SOL    HW226559   4.519   4.835   6.901
 8554SOL     OW26560   0.574   4.864   0.876
 8554SOL    HW126561   0.657   4.811   0.858
 8554SOL    HW226562   0.599   4.959   0.898
 8555SOL     OW26563   2.604   0.933   3.842
 8555SOL    HW126564   2.647   0.979   3.763
 8555SOL    HW226565   2.674   0.882   3.892
 8556SOL     OW26566   1.853   5.991   5.155
 8556SOL    HW126567   1.814   5.899   5.167
 8556SOL    HW226568   1.918   5.989   5.079
 8557SOL     OW26569   6.958   6.661   2.204
 8557SOL    HW126570   6.953   6.761   2.207
 8557SOL    HW226571   6.875   6.622   2.243
 8558SOL     OW26572   2.441   4.616   3.248
 8558SOL    HW126573   2.401   4.689   3.193
 8558SOL    HW226574   2.531   4.644   3.280
 8559SOL     OW26575   1.771   0.595   2.548
 8559SOL    HW126576   1.775   0.564   2.644
 8559SOL    HW226577   1.718   0.529   2.495
 8560SOL     OW26578   0.477   6.215   1.427
 8560SOL    HW126579   0.568   6.174   1.417
 8560SOL    HW226580   0.447   6.208   1.522
 8561SOL     OW26581   3.049   0.746   2.553
 8561SOL    HW126582   2.951   0.734   2.537
 8561SOL    HW226583   3.100   0.724   2.469
 8562SOL     OW26584   3.912   6.277   6.061
 8562SOL    HW126585   4.006   6.308   6.046
 8562SOL    HW226586   3.910   6.177   6.057
 8563SOL     OW26587   1.451   4.853   1.153
 8563SOL    HW126588   1.464   4.760   1.187
 8563SOL    HW226589   1.375   4.854   1.088
 8564SOL     OW26590   3.095   0.158   5.040
 8564SOL    HW126591   3.053   0.217   5.110
 8564SOL    HW226592   3.030   0.088   5.013
 8565SOL     OW26593   3.490   5.534   1.139
 8565SOL    HW126594   3.430   5.458   1.113
 8565SOL    HW226595   3.495   5.599   1.063
 8566SOL     OW26596   0.900   6.875   1.557
 8566SOL    HW126597   0.872   6.824   1.476
 8566SOL    HW226598   0.961   6.949   1.531
 8567SOL     OW26599   0.524   1.977   3.417
 8567SOL    HW126600   0.569   2.003   3.502
 8567SOL    HW226601   0.500   2.059   3.366
 8568SOL     OW26602   5.941   1.292   6.814
 8568SOL    HW126603   5.910   1.357   6.883
 8568SOL    HW226604   5.987   1.215   6.859
 8569SOL     OW26605   4.404   1.363   6.149
 8569SOL    HW126606   4.464   1.416   6.089
 8569SOL    HW226607   4.316   1.410   6.159
 8570SOL     OW26608   1.520   1.398   4.713
 8570SOL    HW126609   1.596   1.450   4.673
 8570SOL    HW226610   1.434   1.443   4.692
 8571SOL     OW26611   0.291   5.834   5.233
 8571SOL    HW126612   0.308   5.819   5.331
 8571SOL    HW226613   0.366   5.796   5.180
 8572SOL     OW26614   2.530   4.920   6.465
 8572SOL    HW126615   2.589   4.976   6.407
 8572SOL    HW226616   2.559   4.930   6.560
 8573SOL     OW26617   3.647   6.304   6.326
 8573SOL    HW126618   3.692   6.339   6.244
 8573SOL    HW226619   3.672   6.208   6.339
 8574SOL     OW26620   0.185   6.539   6.572
 8574SOL    HW126621   0.267   6.571   6.618
 8574SOL    HW226622   0.115   6.611   6.574
 8575SOL     OW26623   1.938   2.817   3.767
 8575SOL    HW126624   1.864   2.828   3.834
 8575SOL    HW226625   1.961   2.720   3.760
 8576SOL     OW26626   1.507   4.348   5.827
 8576SOL    HW126627   1.484   4.328   5.732
 8576SOL    HW226628   1.498   4.264   5.882
 8577SOL     OW26629   1.314   6.715   4.285
 8577SOL    HW126630   1.349   6.635   4.333
 8577SOL    HW226631   1.391   6.769   4.250
 8578SOL     OW26632   5.910   6.525   4.550
 8578SOL    HW126633   5.827   6.486   4.591
 8578SOL    HW226634   5.939   6.604   4.604
 8579SOL     OW26635   2.565   0.641   2.179
 8579SOL    HW126636   2.509   0.560   2.197
 8579SOL    HW226637   2.525   0.693   2.104
 8580SOL     OW26638   2.434   5.913   1.382
 8580SOL    HW126639   2.367   5.973   1.338
 8580SOL    HW226640   2.524   5.957   1.382
 8581SOL     OW26641   3.327   3.700   1.257
 8581SOL    HW126642   3.300   3.606   1.237
 8581SOL    HW226643   3.353   3.747   1.173
 8582SOL     OW26644   4.707   4.248   4.481
 8582SOL    HW126645   4.610   4.250   4.506
 8582SOL    HW226646   4.754   4.180   4.538
 8583SOL     OW26647   4.708   0.608   4.207
 8583SOL    HW126648   4.696   0.595   4.108
 8583SOL    HW226649   4.722   0.705   4.226
 8584SOL     OW26650   0.505   5.384   6.912
 8584SOL    HW126651   0.449   5.357   6.834
 8584SOL    HW226652   0.455   5.365   6.997
 8585SOL     OW26653   0.290   6.883   6.398
 8585SOL    HW126654   0.334   6.839   6.320
 8585SOL    HW226655   0.355   6.943   6.445
 8586SOL     OW26656   3.337   6.683   1.879
 8586SOL    HW126657   3.399   6.637   1.943
 8586SOL    HW226658   3.263   6.727   1.930
 8587SOL     OW26659   1.548   0.146   4.117
 8587SOL    HW126660   1.625   0.208   4.099
 8587SOL    HW226661   1.479   0.193   4.171
 8588SOL     OW26662   3.280   0.501   0.658
 8588SOL    HW126663   3.197   0.469   0.704
 8588SOL    HW226664   3.270   0.598   0.636
 8589SOL     OW26665   5.265   2.456   5.624
 8589SOL    HW126666   5.206   2.430   5.547
 8589SOL    HW226667   5.239   2.403   5.704
 8590SOL     OW26668   6.805   6.626   2.997
 8590SOL    HW126669   6.810   6.624   3.097
 8590SOL    HW226670   6.710   6.631   2.968
 8591SOL     OW26671   0.621   4.106   0.257
 8591SOL    HW126672   0.601   4.095   0.159
 8591SOL    HW226673   0.538   4.092   0.310
 8592SOL     OW26674   6.245   2.352   6.619
 8592SOL    HW126675   6.185   2.422   6.660
 8592SOL    HW226676   6.332   2.394   6.594
 8593SOL     OW26677   2.355   1.653   0.388
 8593SOL    HW126678   2.313   1.564   0.405
 8593SOL    HW226679   2.449   1.640   0.354
 8594SOL     OW26680   4.455   2.599   5.285
 8594SOL    HW126681   4.545   2.635   5.311
 8594SOL    HW226682   4.445   2.603   5.185
 8595SOL     OW26683   0.573   1.692   3.442
 8595SOL    HW126684   0.552   1.787   3.465
 8595SOL    HW226685   0.492   1.635   3.457
 8596SOL     OW26686   1.294   4.926   2.933
 8596SOL    HW126687   1.246   5.010   2.957
 8596SOL    HW226688   1.272   4.900   2.840
 8597SOL     OW26689   4.525   1.928   0.784
 8597SOL    HW126690   4.623   1.929   0.764
 8597SOL    HW226691   4.505   1.997   0.853
 8598SOL     OW26692   5.882   0.192   0.229
 8598SOL    HW126693   5.797   0.160   0.270
 8598SOL    HW226694   5.931   0.250   0.294
 8599SOL     OW26695   1.442   2.657   4.735
 8599SOL    HW126696   1.497   2.599   4.795
 8599SOL    HW226697   1.501   2.695   4.663
 8600SOL     OW26698   5.401   4.577   5.656
 8600SOL    HW126699   5.319   4.578   5.713
 8600SOL    HW226700   5.471   4.636   5.697
 8601SOL     OW26701   1.292   1.512   4.661
 8601SOL    HW126702   1.237   1.450   4.717
 8601SOL    HW226703   1.241   1.535   4.578
 8602SOL     OW26704   3.288   5.999   2.461
 8602SOL    HW126705   3.259   5.976   2.554
 8602SOL    HW226706   3.224   6.065   2.422
 8603SOL     OW26707   5.032   5.764   0.887
 8603SOL    HW126708   5.045   5.838   0.954
 8603SOL    HW226709   4.957   5.788   0.826
 8604SOL     OW26710   0.026   3.045   4.832
 8604SOL    HW126711   0.073   3.093   4.906
 8604SOL    HW226712   0.084   2.971   4.797
 8605SOL     OW26713   2.532   5.571   3.859
 8605SOL    HW126714   2.593   5.553   3.782
 8605SOL    HW226715   2.442   5.530   3.841
 8606SOL     OW26716   1.714   3.197   6.353
 8606SOL    HW126717   1.670   3.123   6.404
 8606SOL    HW226718   1.754   3.160   6.269
 8607SOL     OW26719   3.497   5.234   6.817
 8607SOL    HW126720   3.531   5.176   6.743
 8607SOL    HW226721   3.443   5.309   6.779
 8608SOL     OW26722   3.284   4.963   2.534
 8608SOL    HW126723   3.206   4.923   2.485
 8608SOL    HW226724   3.285   5.062   2.519
 8609SOL     OW26725   5.382   0.600   2.709
 8609SOL    HW126726   5.318   0.605   2.786
 8609SOL    HW226727   5.331   0.591   2.623
 8610SOL     OW26728   0.952   2.108   2.912
 8610SOL    HW126729   1.019   2.139   2.844
 8610SOL    HW226730   0.867   2.084   2.865
 8611SOL     OW26731   3.423   2.057   4.549
 8611SOL    HW126732   3.341   2.022   4.502
 8611SOL    HW226733   3.396   2.123   4.618
 8612SOL     OW26734   2.578   3.239   0.432
 8612SOL    HW126735   2.538   3.148   0.415
 8612SOL    HW226736   2.609   3.245   0.526
 8613SOL     OW26737   2.895   1.518   1.221
 8613SOL    HW126738   2.944   1.493   1.138
 8613SOL    HW226739   2.813   1.570   1.197
 8614SOL     OW26740   1.137   2.846   3.258
 8614SOL    HW126741   1.163   2.750   3.258
 8614SOL    HW226742   1.210   2.901   3.299
 8615SOL     OW26743   4.088   1.608   5.093
 8615SOL    HW126744   4.166   1.545   5.088
 8615SOL    HW226745   4.006   1.561   5.062
 8616SOL     OW26746   3.130   4.564   1.683
 8616SOL    HW126747   3.059   4.517   1.735
 8616SOL    HW226748   3.167   4.639   1.737
 8617SOL     OW26749   6.689   1.567   5.572
 8617SOL    HW126750   6.754   1.494   5.594
 8617SOL    HW226751   6.632   1.585   5.652
 8618SOL     OW26752   6.198   4.923   0.854
 8618SOL    HW126753   6.223   4.925   0.757
 8618SOL    HW226754   6.135   4.998   0.873
 8619SOL     OW26755   3.726   4.904   2.153
 8619SOL    HW126756   3.695   4.852   2.073
 8619SOL    HW226757   3.660   4.893   2.227
 8620SOL     OW26758   1.101   0.196   3.212
 8620SOL    HW126759   1.115   0.197   3.311
 8620SOL    HW226760   1.058   0.282   3.184
 8621SOL     OW26761   5.570   1.713   3.108
 8621SOL    HW126762   5.557   1.799   3.059
 8621SOL    HW226763   5.668   1.696   3.119
 8622SOL     OW26764   5.516   3.315   1.161
 8622SOL    HW126765   5.489   3.299   1.256
 8622SOL    HW226766   5.467   3.394   1.125
 8623SOL     OW26767   0.377   3.631   4.436
 8623SOL    HW126768   0.449   3.687   4.476
 8623SOL    HW226769   0.397   3.534   4.452
 8624SOL     OW26770   1.858   3.825   4.770
 8624SOL    HW126771   1.952   3.822   4.805
 8624SOL    HW226772   1.794   3.803   4.844
 8625SOL     OW26773   4.507   0.499   6.658
 8625SOL    HW126774   4.475   0.583   6.702
 8625SOL    HW226775   4.429   0.437   6.643
 8626SOL     OW26776   3.501   3.140   6.245
 8626SOL    HW126777   3.516   3.228   6.200
 8626SOL    HW226778   3.448   3.080   6.186
 8627SOL     OW26779   0.677   1.559   3.141
 8627SOL    HW126780   0.577   1.555   3.149
 8627SOL    HW226781   0.715   1.598   3.224
 8628SOL     OW26782   6.450   6.203   0.780
 8628SOL    HW126783   6.514   6.127   0.776
 8628SOL    HW226784   6.496   6.284   0.815
 8629SOL     OW26785   1.717   5.493   5.020
 8629SOL    HW126786   1.630   5.503   5.069
 8629SOL    HW226787   1.792   5.491   5.086
 8630SOL     OW26788   5.293   4.409   4.069
 8630SOL    HW126789   5.196   4.427   4.081
 8630SOL    HW226790   5.344   4.441   4.149
 8631SOL     OW26791   0.661   5.218   6.098
 8631SOL    HW126792   0.721   5.187   6.171
 8631SOL    HW226793   0.705   5.292   6.047
 8632SOL     OW26794   3.985   5.009   5.168
 8632SOL    HW126795   3.913   5.007   5.098
 8632SOL    HW226796   4.074   5.008   5.123
 8633SOL     OW26797   5.629   2.217   5.707
 8633SOL    HW126798   5.647   2.235   5.804
 8633SOL    HW226799   5.534   2.240   5.687
 8634SOL     OW26800   4.888   3.488   0.356
 8634SOL    HW126801   4.792   3.514   0.370
 8634SOL    HW226802   4.898   3.448   0.265
 8635SOL     OW26803   5.263   3.315   6.363
 8635SOL    HW126804   5.352   3.304   6.319
 8635SOL    HW226805   5.250   3.410   6.390
 8636SOL     OW26806   5.839   5.918   0.700
 8636SOL    HW126807   5.878   6.008   0.717
 8636SOL    HW226808   5.739   5.924   0.706
 8637SOL     OW26809   2.569   1.045   6.757
 8637SOL    HW126810   2.620   1.061   6.842
 8637SOL    HW226811   2.502   1.118   6.744
 8638SOL     OW26812   3.323   2.142   5.276
 8638SOL    HW126813   3.321   2.092   5.189
 8638SOL    HW226814   3.287   2.234   5.262
 8639SOL     OW26815   5.325   2.745   0.237
 8639SOL    HW126816   5.256   2.748   0.165
 8639SOL    HW226817   5.326   2.654   0.279
 8640SOL     OW26818   4.096   4.067   6.757
 8640SOL    HW126819   4.174   4.016   6.794
 8640SOL    HW226820   4.128   4.151   6.714
 8641SOL     OW26821   4.700   4.636   3.924
 8641SOL    HW126822   4.700   4.663   4.020
 8641SOL    HW226823   4.698   4.717   3.866
 8642SOL     OW26824   1.133   6.084   3.491
 8642SOL    HW126825   1.208   6.149   3.504
 8642SOL    HW226826   1.163   6.010   3.430
 8643SOL     OW26827   2.834   0.650   6.541
 8643SOL    HW126828   2.739   0.656   6.570
 8643SOL    HW226829   2.885   0.591   6.605
 8644SOL     OW26830   5.073   2.413   5.376
 8644SOL    HW126831   4.999   2.354   5.407
 8644SOL    HW226832   5.106   2.380   5.287
 8645SOL     OW26833   4.238   4.196   1.436
 8645SOL    HW126834   4.190   4.173   1.351
 8645SOL    HW226835   4.336   4.198   1.419
 8646SOL     OW26836   6.950   1.862   0.622
 8646SOL    HW126837   6.962   1.887   0.526
 8646SOL    HW226838   7.017   1.792   0.647
 8647SOL     OW26839   2.615   5.432   6.619
 8647SOL    HW126840   2.690   5.496   6.603
 8647SOL    HW226841   2.531   5.466   6.576
 8648SOL     OW26842   6.369   0.054   2.894
 8648SOL    HW126843   6.286   0.072   2.948
 8648SOL    HW226844   6.429   7.017   2.945
 8649SOL     OW26845   5.842   5.529   6.002
 8649SOL    HW126846   5.744   5.509   5.992
 8649SOL    HW226847   5.880   5.475   6.077
 8650SOL     OW26848   2.234   4.789   4.596
 8650SOL    HW126849   2.297   4.867   4.597
 8650SOL    HW226850   2.263   4.724   4.526
 8651SOL     OW26851   4.123   0.567   0.255
 8651SOL    HW126852   4.121   0.569   0.155
 8651SOL    HW226853   4.144   0.474   0.286
 8652SOL     OW26854   1.775   5.578   3.603
 8652SOL    HW126855   1.732   5.653   3.652
 8652SOL    HW226856   1.805   5.508   3.668
 8653SOL     OW26857   6.648   0.814   6.263
 8653SOL    HW126858   6.646   0.721   6.300
 8653SOL    HW226859   6.580   0.870   6.310
 8654SOL     OW26860   0.748   5.229   2.099
 8654SOL    HW126861   0.773   5.265   2.010
 8654SOL    HW226862   0.800   5.146   2.118
 8655SOL     OW26863   6.284   0.994   4.388
 8655SOL    HW126864   6.234   1.076   4.359
 8655SOL    HW226865   6.311   0.941   4.307
 8656SOL     OW26866   7.011   0.027   0.950
 8656SOL    HW126867   6.935   7.009   0.901
 8656SOL    HW226868   0.046   6.981   0.987
 8657SOL     OW26869   5.107   5.155   0.020
 8657SOL    HW126870   5.101   5.056   0.031
 8657SOL    HW226871   5.182   5.190   0.075
 8658SOL     OW26872   6.477   6.226   0.500
 8658SOL    HW126873   6.558   6.178   0.467
 8658SOL    HW226874   6.457   6.197   0.594
 8659SOL     OW26875   4.806   2.004   2.174
 8659SOL    HW126876   4.782   2.100   2.187
 8659SOL    HW226877   4.784   1.977   2.080
 8660SOL     OW26878   6.951   3.616   1.792
 8660SOL    HW126879   7.011   3.576   1.861
 8660SOL    HW226880   6.860   3.631   1.832
 8661SOL     OW26881   6.257   4.163   1.330
 8661SOL    HW126882   6.347   4.144   1.292
 8661SOL    HW226883   6.208   4.076   1.345
 8662SOL     OW26884   4.255   5.672   0.971
 8662SOL    HW126885   4.258   5.770   0.953
 8662SOL    HW226886   4.290   5.622   0.891
 8663SOL     OW26887   2.691   5.738   2.266
 8663SOL    HW126888   2.642   5.825   2.253
 8663SOL    HW226889   2.694   5.716   2.363
 8664SOL     OW26890   1.836   6.581   1.588
 8664SOL    HW126891   1.780   6.511   1.633
 8664SOL    HW226892   1.800   6.597   1.496
 8665SOL     OW26893   5.678   5.615   4.968
 8665SOL    HW126894   5.675   5.611   5.068
 8665SOL    HW226895   5.588   5.643   4.933
 8666SOL     OW26896   5.871   1.440   3.751
 8666SOL    HW126897   5.897   1.346   3.727
 8666SOL    HW226898   5.880   1.498   3.670
 8667SOL     OW26899   3.926   2.066   3.810
 8667SOL    HW126900   3.908   2.064   3.712
 8667SOL    HW226901   3.986   2.144   3.832
 8668SOL     OW26902   4.845   3.153   3.590
 8668SOL    HW126903   4.789   3.079   3.555
 8668SOL    HW226904   4.847   3.150   3.690
 8669SOL     OW26905   1.605   6.228   6.362
 8669SOL    HW126906   1.700   6.245   6.390
 8669SOL    HW226907   1.560   6.170   6.430
 8670SOL     OW26908   4.328   5.060   5.884
 8670SOL    HW126909   4.239   5.050   5.839
 8670SOL    HW226910   4.399   5.020   5.827
 8671SOL     OW26911   5.210   1.565   2.720
 8671SOL    HW126912   5.181   1.590   2.627
 8671SOL    HW226913   5.163   1.624   2.786
 8672SOL     OW26914   1.281   5.422   4.013
 8672SOL    HW126915   1.293   5.391   4.108
 8672SOL    HW226916   1.234   5.351   3.961
 8673SOL     OW26917   5.147   2.775   0.024
 8673SOL    HW126918   5.081   2.735   6.986
 8673SOL    HW226919   5.102   2.846   0.079
 8674SOL     OW26920   4.860   6.562   3.032
 8674SOL    HW126921   4.868   6.634   3.101
 8674SOL    HW226922   4.862   6.602   2.941
 8675SOL     OW26923   3.775   2.010   5.023
 8675SOL    HW126924   3.838   2.002   5.101
 8675SOL    HW226925   3.740   2.103   5.019
 8676SOL     OW26926   5.386   6.632   3.418
 8676SOL    HW126927   5.329   6.662   3.341
 8676SOL    HW226928   5.481   6.623   3.387
 8677SOL     OW26929   2.411   5.444   6.211
 8677SOL    HW126930   2.402   5.349   6.240
 8677SOL    HW226931   2.398   5.504   6.289
 8678SOL     OW26932   0.206   0.442   2.104
 8678SOL    HW126933   0.304   0.442   2.083
 8678SOL    HW226934   0.154   0.438   2.020
 8679SOL     OW26935   0.345   2.105   3.110
 8679SOL    HW126936   0.383   2.164   3.182
 8679SOL    HW226937   0.247   2.122   3.101
 8680SOL     OW26938   0.081   3.427   6.896
 8680SOL    HW126939   0.103   3.404   6.802
 8680SOL    HW226940   0.001   3.375   6.925
 8681SOL     OW26941   4.674   5.173   1.269
 8681SOL    HW126942   4.618   5.248   1.233
 8681SOL    HW226943   4.770   5.191   1.249
 8682SOL     OW26944   5.446   6.479   2.613
 8682SOL    HW126945   5.469   6.385   2.589
 8682SOL    HW226946   5.527   6.525   2.650
 8683SOL     OW26947   1.963   2.127   4.217
 8683SOL    HW126948   2.058   2.140   4.247
 8683SOL    HW226949   1.962   2.097   4.122
 8684SOL     OW26950   5.957   2.577   4.883
 8684SOL    HW126951   5.969   2.660   4.938
 8684SOL    HW226952   5.977   2.497   4.939
 8685SOL     OW26953   0.167   1.967   6.667
 8685SOL    HW126954   0.139   1.954   6.762
 8685SOL    HW226955   0.099   2.022   6.619
 8686SOL     OW26956   0.007   1.252   3.142
 8686SOL    HW126957   0.055   1.185   3.085
 8686SOL    HW226958   0.074   1.303   3.196
 8687SOL     OW26959   4.707   5.239   2.037
 8687SOL    HW126960   4.629   5.178   2.050
 8687SOL    HW226961   4.791   5.191   2.061
 8688SOL     OW26962   0.788   5.422   5.969
 8688SOL    HW126963   0.710   5.449   5.913
 8688SOL    HW226964   0.868   5.407   5.911
 8689SOL     OW26965   4.106   3.530   1.023
 8689SOL    HW126966   4.012   3.542   1.054
 8689SOL    HW226967   4.133   3.608   0.967
 8690SOL     OW26968   1.516   3.997   3.953
 8690SOL    HW126969   1.550   4.061   4.022
 8690SOL    HW226970   1.522   3.904   3.988
 8691SOL     OW26971   3.878   1.989   5.916
 8691SOL    HW126972   3.873   2.089   5.924
 8691SOL    HW226973   3.855   1.947   6.004
 8692SOL     OW26974   3.107   1.398   4.716
 8692SOL    HW126975   3.053   1.460   4.658
 8692SOL    HW226976   3.047   1.355   4.784
 8693SOL     OW26977   5.184   0.306   0.486
 8693SOL    HW126978   5.211   0.218   0.447
 8693SOL    HW226979   5.263   0.348   0.531
 8694SOL     OW26980   5.099   0.843   4.812
 8694SOL    HW126981   5.145   0.764   4.772
 8694SOL    HW226982   5.000   0.830   4.807
 8695SOL     OW26983   4.234   2.762   5.868
 8695SOL    HW126984   4.312   2.745   5.809
 8695SOL    HW226985   4.225   2.860   5.885
 8696SOL     OW26986   2.123   5.087   5.281
 8696SOL    HW126987   2.128   5.035   5.367
 8696SOL    HW226988   2.140   5.025   5.204
 8697SOL     OW26989   0.234   3.429   6.235
 8697SOL    HW126990   0.151   3.467   6.193
 8697SOL    HW226991   0.288   3.381   6.167
 8698SOL     OW26992   4.408   6.119   5.238
 8698SOL    HW126993   4.347   6.096   5.314
 8698SOL    HW226994   4.498   6.078   5.254
 8699SOL     OW26995   0.819   2.751   4.928
 8699SOL    HW126996   0.840   2.662   4.971
 8699SOL    HW226997   0.759   2.736   4.849
 8700SOL     OW26998   1.057   0.535   4.443
 8700SOL    HW126999   1.126   0.589   4.492
 8700SOL    HW227000   1.027   0.460   4.501
 8701SOL     OW27001   1.328   0.982   6.819
 8701SOL    HW127002   1.267   1.005   6.743
 8701SOL    HW227003   1.398   0.918   6.787
 8702SOL     OW27004   5.382   4.892   1.669
 8702SOL    HW127005   5.482   4.894   1.667
 8702SOL    HW227006   5.347   4.938   1.588
 8703SOL     OW27007   3.045   5.280   0.578
 8703SOL    HW127008   2.981   5.336   0.630
 8703SOL    HW227009   3.002   5.249   0.493
 8704SOL     OW27010   0.339   4.202   3.239
 8704SOL    HW127011   0.252   4.216   3.286
 8704SOL    HW227012   0.326   4.218   3.141
 8705SOL     OW27013   5.142   1.022   6.740
 8705SOL    HW127014   5.171   1.111   6.705
 8705SOL    HW227015   5.215   0.984   6.797
 8706SOL     OW27016   5.134   2.475   6.860
 8706SOL    HW127017   5.107   2.386   6.899
 8706SOL    HW227018   5.077   2.494   6.780
 8707SOL     OW27019   0.215   1.552   5.800
 8707SOL    HW127020   0.188   1.501   5.881
 8707SOL    HW227021   0.169   1.515   5.720
 8708SOL     OW27022   4.154   1.218   2.630
 8708SOL    HW127023   4.196   1.159   2.699
 8708SOL    HW227024   4.066   1.251   2.664
 8709SOL     OW27025   6.935   6.898   0.447
 8709SOL    HW127026   6.873   6.834   0.401
 8709SOL    HW227027   6.994   6.941   0.380
 8710SOL     OW27028   2.125   3.030   3.783
 8710SOL    HW127029   2.159   2.994   3.870
 8710SOL    HW227030   2.087   2.954   3.729
 8711SOL     OW27031   1.984   6.755   2.834
 8711SOL    HW127032   1.989   6.817   2.913
 8711SOL    HW227033   1.985   6.660   2.866
 8712SOL     OW27034   3.807   1.567   4.816
 8712SOL    HW127035   3.769   1.523   4.735
 8712SOL    HW227036   3.856   1.499   4.871
 8713SOL     OW27037   6.310   3.414   3.084
 8713SOL    HW127038   6.213   3.390   3.082
 8713SOL    HW227039   6.354   3.377   3.002
 8714SOL     OW27040   1.019   6.743   5.544
 8714SOL    HW127041   1.006   6.842   5.544
 8714SOL    HW227042   1.108   6.721   5.583
 8715SOL     OW27043   4.158   0.633   1.508
 8715SOL    HW127044   4.145   0.732   1.501
 8715SOL    HW227045   4.086   0.586   1.457
 8716SOL     OW27046   6.930   0.307   0.974
 8716SOL    HW127047   6.980   0.220   0.970
 8716SOL    HW227048   6.832   0.289   0.966
 8717SOL     OW27049   3.005   3.540   4.843
 8717SOL    HW127050   3.048   3.601   4.910
 8717SOL    HW227051   2.964   3.462   4.889
 8718SOL     OW27052   1.348   3.141   5.445
 8718SOL    HW127053   1.323   3.176   5.535
 8718SOL    HW227054   1.411   3.204   5.400
 8719SOL     OW27055   4.496   0.028   6.815
 8719SOL    HW127056   4.516   0.123   6.837
 8719SOL    HW227057   4.570   7.014   6.761
 8720SOL     OW27058   0.245   5.382   6.039
 8720SOL    HW127059   0.286   5.319   6.106
 8720SOL    HW227060   0.314   5.409   5.972
 8721SOL     OW27061   6.612   2.497   1.871
 8721SOL    HW127062   6.663   2.557   1.810
 8721SOL    HW227063   6.524   2.474   1.830
 8722SOL     OW27064   3.460   1.227   0.938
 8722SOL    HW127065   3.388   1.170   0.977
 8722SOL    HW227066   3.518   1.262   1.012
 8723SOL     OW27067   4.749   6.456   2.232
 8723SOL    HW127068   4.748   6.401   2.315
 8723SOL    HW227069   4.798   6.407   2.159
 8724SOL     OW27070   5.143   6.663   4.971
 8724SOL    HW127071   5.220   6.606   4.943
 8724SOL    HW227072   5.057   6.619   4.943
 8725SOL     OW27073   1.688   5.892   5.803
 8725SOL    HW127074   1.615   5.914   5.868
 8725SOL    HW227075   1.749   5.970   5.794
 8726SOL     OW27076   0.450   1.205   3.358
 8726SOL    HW127077   0.505   1.266   3.415
 8726SOL    HW227078   0.388   1.259   3.301
 8727SOL     OW27079   5.244   0.176   2.289
 8727SOL    HW127080   5.327   0.179   2.232
 8727SOL    HW227081   5.167   0.211   2.236
 8728SOL     OW27082   6.484   0.938   2.376
 8728SOL    HW127083   6.503   0.949   2.474
 8728SOL    HW227084   6.465   0.842   2.356
 8729SOL     OW27085   3.697   4.929   5.715
 8729SOL    HW127086   3.617   4.874   5.689
 8729SOL    HW227087   3.762   4.930   5.639
 8730SOL     OW27088   5.261   4.570   2.656
 8730SOL    HW127089   5.346   4.523   2.679
 8730SOL    HW227090   5.281   4.645   2.593
 8731SOL     OW27091   1.505   3.051   2.959
 8731SOL    HW127092   1.456   3.094   2.883
 8731SOL    HW227093   1.483   3.099   3.044
 8732SOL     OW27094   5.713   4.765   1.927
 8732SOL    HW127095   5.805   4.730   1.910
 8732SOL    HW227096   5.645   4.696   1.902
 8733SOL     OW27097   2.022   5.744   1.441
 8733SOL    HW127098   2.060   5.833   1.466
 8733SOL    HW227099   2.026   5.682   1.519
 8734SOL     OW27100   1.052   3.955   2.085
 8734SOL    HW127101   1.068   3.942   1.987
 8734SOL    HW227102   0.973   3.902   2.113
 8735SOL     OW27103   0.700   2.823   0.069
 8735SOL    HW127104   0.625   2.881   0.039
 8735SOL    HW227105   0.683   2.729   0.040
 8736SOL     OW27106   0.215   5.571   0.471
 8736SOL    HW127107   0.273   5.636   0.521
 8736SOL    HW227108   0.271   5.516   0.410
 8737SOL     OW27109   1.842   6.377   0.160
 8737SOL    HW127110   1.861   6.318   0.239
 8737SOL    HW227111   1.886   6.466   0.174
 8738SOL     OW27112   3.157   5.707   4.197
 8738SOL    HW127113   3.215   5.645   4.144
 8738SOL    HW227114   3.116   5.775   4.136
 8739SOL     OW27115   5.840   5.773   6.602
 8739SOL    HW127116   5.896   5.750   6.681
 8739SOL    HW227117   5.775   5.699   6.584
 8740SOL     OW27118   4.008   1.199   4.854
 8740SOL    HW127119   3.923   1.174   4.808
 8740SOL    HW227120   4.077   1.220   4.785
 8741SOL     OW27121   2.522   1.201   2.359
 8741SOL    HW127122   2.534   1.127   2.292
 8741SOL    HW227123   2.496   1.285   2.313
 8742SOL     OW27124   4.810   6.451   1.920
 8742SOL    HW127125   4.833   6.449   1.823
 8742SOL    HW227126   4.861   6.379   1.968
 8743SOL     OW27127   1.517   0.185   2.373
 8743SOL    HW127128   1.436   0.227   2.331
 8743SOL    HW227129   1.548   0.109   2.316
 8744SOL     OW27130   3.791   2.924   6.875
 8744SOL    HW127131   3.694   2.905   6.889
 8744SOL    HW227132   3.839   2.838   6.855
 8745SOL     OW27133   6.540   1.821   5.997
 8745SOL    HW127134   6.476   1.895   5.980
 8745SOL    HW227135   6.633   1.856   5.997
 8746SOL     OW27136   4.687   5.634   4.387
 8746SOL    HW127137   4.665   5.667   4.295
 8746SOL    HW227138   4.602   5.620   4.438
 8747SOL     OW27139   0.395   2.197   3.366
 8747SOL    HW127140   0.468   2.262   3.386
 8747SOL    HW227141   0.328   2.197   3.440
 8748SOL     OW27142   0.191   1.192   4.412
 8748SOL    HW127143   0.212   1.168   4.507
 8748SOL    HW227144   0.227   1.121   4.351
 8749SOL     OW27145   2.377   0.603   5.240
 8749SOL    HW127146   2.356   0.547   5.161
 8749SOL    HW227147   2.407   0.545   5.316
 8750SOL     OW27148   3.133   3.868   4.704
 8750SOL    HW127149   3.184   3.950   4.732
 8750SOL    HW227150   3.108   3.816   4.786
 8751SOL     OW27151   6.299   2.101   2.079
 8751SOL    HW127152   6.382   2.131   2.033
 8751SOL    HW227153   6.307   2.120   2.177
 8752SOL     OW27154   3.909   3.143   6.150
 8752SOL    HW127155   3.841   3.148   6.222
 8752SOL    HW227156   3.885   3.070   6.086
 8753SOL     OW27157   3.156   1.534   6.265
 8753SOL    HW127158   3.191   1.574   6.181
 8753SOL    HW227159   3.069   1.576   6.289
 8754SOL     OW27160   1.478   3.715   5.798
 8754SOL    HW127161   1.451   3.799   5.752
 8754SOL    HW227162   1.577   3.703   5.790
 8755SOL     OW27163   2.672   1.334   0.821
 8755SOL    HW127164   2.709   1.245   0.794
 8755SOL    HW227165   2.619   1.373   0.746
 8756SOL     OW27166   1.219   3.135   4.229
 8756SOL    HW127167   1.296   3.141   4.165
 8756SOL    HW227168   1.139   3.181   4.189
 8757SOL     OW27169   3.560   5.769   6.356
 8757SOL    HW127170   3.513   5.736   6.438
 8757SOL    HW227171   3.659   5.755   6.366
 8758SOL     OW27172   4.675   6.344   3.039
 8758SOL    HW127173   4.740   6.418   3.021
 8758SOL    HW227174   4.676   6.321   3.136
 8759SOL     OW27175   4.482   3.053   6.341
 8759SOL    HW127176   4.457   3.062   6.245
 8759SOL    HW227177   4.581   3.044   6.349
 8760SOL     OW27178   2.861   0.913   5.466
 8760SOL    HW127179   2.955   0.942   5.448
 8760SOL    HW227180   2.806   0.991   5.494
 8761SOL     OW27181   6.117   2.382   1.687
 8761SOL    HW127182   6.125   2.319   1.764
 8761SOL    HW227183   6.025   2.375   1.648
 8762SOL     OW27184   0.948   4.666   3.394
 8762SOL    HW127185   0.865   4.663   3.450
 8762SOL    HW227186   1.023   4.701   3.449
 8763SOL     OW27187   6.433   6.707   6.328
 8763SOL    HW127188   6.388   6.652   6.258
 8763SOL    HW227189   6.422   6.662   6.417
 8764SOL     OW27190   5.166   7.003   5.276
 8764SOL    HW127191   5.116   0.049   5.226
 8764SOL    HW227192   5.202   0.016   5.361
 8765SOL     OW27193   4.999   0.204   3.856
 8765SOL    HW127194   4.991   0.304   3.851
 8765SOL    HW227195   5.018   0.168   3.764
 8766SOL     OW27196   4.421   4.625   4.677
 8766SOL    HW127197   4.333   4.673   4.683
 8766SOL    HW227198   4.467   4.630   4.765
 8767SOL     OW27199   4.990   5.865   3.060
 8767SOL    HW127200   4.926   5.898   2.991
 8767SOL    HW227201   5.028   5.777   3.032
 8768SOL     OW27202   1.272   2.387   0.087
 8768SOL    HW127203   1.242   2.321   0.018
 8768SOL    HW227204   1.300   2.472   0.042
 8769SOL     OW27205   6.635   0.840   3.436
 8769SOL    HW127206   6.707   0.775   3.412
 8769SOL    HW227207   6.557   0.791   3.474
 8770SOL     OW27208   4.451   4.570   2.118
 8770SOL    HW127209   4.398   4.490   2.143
 8770SOL    HW227210   4.538   4.570   2.167
 8771SOL     OW27211   0.845   1.559   6.450
 8771SOL    HW127212   0.805   1.555   6.542
 8771SOL    HW227213   0.798   1.493   6.391
 8772SOL     OW27214   4.754   0.438   6.721
 8772SOL    HW127215   4.661   0.462   6.695
 8772SOL    HW227216   4.787   0.502   6.790
 8773SOL     OW27217   5.295   2.939   3.496
 8773SOL    HW127218   5.373   2.886   3.527
 8773SOL    HW227219   5.243   2.972   3.575
 8774SOL     OW27220   1.307   1.028   0.072
 8774SOL    HW127221   1.309   0.986   7.006
 8774SOL    HW227222   1.394   1.075   0.088
 8775SOL     OW27223   5.432   0.297   5.688
 8775SOL    HW127224   5.447   0.202   5.718
 8775SOL    HW227225   5.459   0.359   5.761
 8776SOL     OW27226   4.814   3.090   0.468
 8776SOL    HW127227   4.829   3.128   0.377
 8776SOL    HW227228   4.789   3.164   0.531
 8777SOL     OW27229   6.394   4.252   3.440
 8777SOL    HW127230   6.448   4.214   3.516
 8777SOL    HW227231   6.423   4.346   3.423
 8778SOL     OW27232   5.835   3.088   5.728
 8778SOL    HW127233   5.916   3.049   5.771
 8778SOL    HW227234   5.754   3.035   5.753
 8779SOL     OW27235   3.066   5.238   2.570
 8779SOL    HW127236   3.163   5.257   2.553
 8779SOL    HW227237   3.014   5.323   2.563
 8780SOL     OW27238   0.518   6.712   2.760
 8780SOL    HW127239   0.510   6.616   2.734
 8780SOL    HW227240   0.450   6.766   2.709
 8781SOL     OW27241   4.967   0.816   4.017
 8781SOL    HW127242   5.018   0.880   3.960
 8781SOL    HW227243   4.909   0.759   3.960
 8782SOL     OW27244   6.773   6.950   1.712
 8782SOL    HW127245   6.741   6.870   1.763
 8782SOL    HW227246   6.799   6.922   1.619
 8783SOL     OW27247   6.565   4.211   3.903
 8783SOL    HW127248   6.587   4.136   3.965
 8783SOL    HW227249   6.593   4.298   3.945
 8784SOL     OW27250   0.105   5.269   5.600
 8784SOL    HW127251   0.182   5.218   5.562
 8784SOL    HW227252   0.131   5.307   5.689
 8785SOL     OW27253   5.831   4.594   0.516
 8785SOL    HW127254   5.814   4.526   0.588
 8785SOL    HW227255   5.793   4.561   0.430
 8786SOL     OW27256   3.019   0.898   0.491
 8786SOL    HW127257   3.062   0.811   0.516
 8786SOL    HW227258   2.924   0.880   0.463
 8787SOL     OW27259   3.095   1.109   1.689
 8787SOL    HW127260   3.146   1.192   1.712
 8787SOL    HW227261   3.152   1.049   1.633
 8788SOL     OW27262   6.211   6.992   5.455
 8788SOL    HW127263   6.182   0.063   5.452
 8788SOL    HW227264   6.187   6.948   5.369
 8789SOL     OW27265   6.111   6.323   4.187
 8789SOL    HW127266   6.150   6.231   4.194
 8789SOL    HW227267   6.014   6.315   4.163
 8790SOL     OW27268   6.889   0.032   6.284
 8790SOL    HW127269   6.960   0.103   6.285
 8790SOL    HW227270   6.830   0.045   6.205
 8791SOL     OW27271   5.355   6.650   5.161
 8791SOL    HW127272   5.257   6.628   5.163
 8791SOL    HW227273   5.367   6.747   5.142
 8792SOL     OW27274   2.764   5.628   3.411
 8792SOL    HW127275   2.781   5.579   3.325
 8792SOL    HW227276   2.706   5.707   3.393
 8793SOL     OW27277   1.206   4.315   2.418
 8793SOL    HW127278   1.178   4.223   2.389
 8793SOL    HW227279   1.260   4.358   2.345
 8794SOL     OW27280   4.866   0.030   2.656
 8794SOL    HW127281   4.818   0.018   2.742
 8794SOL    HW227282   4.955   0.072   2.673
 8795SOL     OW27283   1.148   4.209   5.741
 8795SOL    HW127284   1.158   4.196   5.642
 8795SOL    HW227285   1.063   4.257   5.761
 8796SOL     OW27286   4.424   1.888   4.355
 8796SOL    HW127287   4.465   1.934   4.277
 8796SOL    HW227288   4.489   1.885   4.431
 8797SOL     OW27289   0.417   0.301   0.148
 8797SOL    HW127290   0.339   0.283   0.208
 8797SOL    HW227291   0.428   0.225   0.084
 8798SOL     OW27292   5.270   5.824   6.548
 8798SOL    HW127293   5.290   5.847   6.453
 8798SOL    HW227294   5.210   5.744   6.551
 8799SOL     OW27295   2.646   4.749   3.414
 8799SOL    HW127296   2.604   4.832   3.376
 8799SOL    HW227297   2.745   4.759   3.414
 8800SOL     OW27298   6.218   4.668   6.167
 8800SOL    HW127299   6.190   4.662   6.263
 8800SOL    HW227300   6.212   4.578   6.125
 8801SOL     OW27301   6.579   0.829   4.545
 8801SOL    HW127302   6.579   0.920   4.504
 8801SOL    HW227303   6.572   0.759   4.473
 8802SOL     OW27304   2.192   0.152   6.725
 8802SOL    HW127305   2.227   0.148   6.631
 8802SOL    HW227306   2.138   0.235   6.738
 8803SOL     OW27307   0.020   6.381   0.026
 8803SOL    HW127308   0.046   6.323   0.104
 8803SOL    HW227309   0.098   6.392   6.990
 8804SOL     OW27310   2.623   6.768   1.720
 8804SOL    HW127311   2.602   6.682   1.767
 8804SOL    HW227312   2.658   6.834   1.786
 8805SOL     OW27313   3.271   6.398   3.621
 8805SOL    HW127314   3.325   6.319   3.647
 8805SOL    HW227315   3.299   6.477   3.677
 8806SOL     OW27316   3.294   4.778   1.812
 8806SOL    HW127317   3.290   4.811   1.717
 8806SOL    HW227318   3.378   4.724   1.824
 8807SOL     OW27319   5.140   0.452   0.246
 8807SOL    HW127320   5.205   0.406   0.186
 8807SOL    HW227321   5.131   0.401   0.332
 8808SOL     OW27322   5.990   2.807   6.855
 8808SOL    HW127323   6.021   2.897   6.888
 8808SOL    HW227324   5.890   2.804   6.857
 8809SOL     OW27325   3.745   5.530   3.393
 8809SOL    HW127326   3.669   5.466   3.390
 8809SOL    HW227327   3.812   5.506   3.323
 8810SOL     OW27328   6.110   0.654   5.082
 8810SOL    HW127329   6.163   0.625   5.163
 8810SOL    HW227330   6.039   0.718   5.111
 8811SOL     OW27331   3.473   1.424   2.306
 8811SOL    HW127332   3.562   1.388   2.276
 8811SOL    HW227333   3.470   1.522   2.288
 8812SOL     OW27334   2.027   0.797   0.571
 8812SOL    HW127335   2.091   0.722   0.554
 8812SOL    HW227336   2.070   0.865   0.631
 8813SOL     OW27337   2.158   5.439   2.825
 8813SOL    HW127338   2.155   5.537   2.806
 8813SOL    HW227339   2.243   5.416   2.871
 8814SOL     OW27340   6.617   0.373   0.903
 8814SOL    HW127341   6.577   0.315   0.832
 8814SOL    HW227342   6.642   0.462   0.863
 8815SOL     OW27343   5.617   0.011   0.944
 8815SOL    HW127344   5.600   6.995   1.034
 8815SOL    HW227345   5.541   7.014   0.884
 8816SOL     OW27346   1.164   6.216   0.591
 8816SOL    HW127347   1.065   6.231   0.587
 8816SOL    HW227348   1.193   6.168   0.509
 8817SOL     OW27349   6.980   4.923   3.477
 8817SOL    HW127350   6.992   5.023   3.474
 8817SOL    HW227351   6.985   4.892   3.572
 8818SOL     OW27352   0.666   4.660   4.535
 8818SOL    HW127353   0.700   4.753   4.550
 8818SOL    HW227354   0.685   4.605   4.616
 8819SOL     OW27355   5.514   4.866   5.007
 8819SOL    HW127356   5.488   4.890   4.914
 8819SOL    HW227357   5.613   4.879   5.019
 8820SOL     OW27358   2.516   0.865   5.377
 8820SOL    HW127359   2.600   0.821   5.346
 8820SOL    HW227360   2.488   0.828   5.465
 8821SOL     OW27361   1.661   6.107   0.986
 8821SOL    HW127362   1.599   6.112   1.065
 8821SOL    HW227363   1.645   6.186   0.926
 8822SOL     OW27364   0.898   0.455   4.214
 8822SOL    HW127365   0.824   0.511   4.252
 8822SOL    HW227366   0.971   0.447   4.282
 8823SOL     OW27367   2.072   0.956   3.038
 8823SOL    HW127368   2.147   1.020   3.022
 8823SOL    HW227369   2.001   0.969   2.968
 8824SOL     OW27370   1.392   1.942   0.088
 8824SOL    HW127371   1.485   1.955   0.055
 8824SOL    HW227372   1.394   1.920   0.186
 8825SOL     OW27373   2.002   0.899   1.827
 8825SOL    HW127374   1.934   0.913   1.899
 8825SOL    HW227375   2.040   0.987   1.799
 8826SOL     OW27376   0.828   3.844   0.459
 8826SOL    HW127377   0.782   3.909   0.520
 8826SOL    HW227378   0.781   3.843   0.371
 8827SOL     OW27379   4.662   0.919   2.509
 8827SOL    HW127380   4.610   0.887   2.430
 8827SOL    HW227381   4.675   0.843   2.573
 8828SOL     OW27382   4.273   5.842   6.095
 8828SOL    HW127383   4.239   5.764   6.042
 8828SOL    HW227384   4.253   5.927   6.045
 8829SOL     OW27385   5.337   2.744   1.158
 8829SOL    HW127386   5.434   2.744   1.131
 8829SOL    HW227387   5.311   2.652   1.188
 8830SOL     OW27388   1.057   1.922   2.617
 8830SOL    HW127389   1.091   1.871   2.696
 8830SOL    HW227390   1.118   1.907   2.539
 8831SOL     OW27391   4.487   2.350   3.949
 8831SOL    HW127392   4.423   2.346   4.026
 8831SOL    HW227393   4.453   2.416   3.882
 8832SOL     OW27394   6.766   6.898   2.971
 8832SOL    HW127395   6.777   6.911   3.070
 8832SOL    HW227396   6.816   6.816   2.943
 8833SOL     OW27397   2.531   5.041   5.705
 8833SOL    HW127398   2.549   5.048   5.607
 8833SOL    HW227399   2.515   5.132   5.742
 8834SOL     OW27400   5.791   3.816   4.916
 8834SOL    HW127401   5.757   3.751   4.848
 8834SOL    HW227402   5.862   3.773   4.972
 8835SOL     OW27403   4.827   0.952   5.931
 8835SOL    HW127404   4.901   0.910   5.877
 8835SOL    HW227405   4.802   0.890   6.005
 8836SOL     OW27406   5.255   1.740   0.430
 8836SOL    HW127407   5.330   1.801   0.454
 8836SOL    HW227408   5.280   1.686   0.350
 8837SOL     OW27409   6.795   6.447   2.274
 8837SOL    HW127410   6.880   6.434   2.327
 8837SOL    HW227411   6.793   6.382   2.198
 8838SOL     OW27412   1.841   5.233   3.329
 8838SOL    HW127413   1.807   5.176   3.255
 8838SOL    HW227414   1.772   5.300   3.355
 8839SOL     OW27415   5.174   5.759   1.799
 8839SOL    HW127416   5.173   5.754   1.699
 8839SOL    HW227417   5.149   5.851   1.827
 8840SOL     OW27418   6.916   1.764   3.285
 8840SOL    HW127419   6.913   1.833   3.212
 8840SOL    HW227420   7.001   1.773   3.336
 8841SOL     OW27421   0.594   0.617   4.594
 8841SOL    HW127422   0.660   0.683   4.559
 8841SOL    HW227423   0.641   0.548   4.650
 8842SOL     OW27424   3.537   3.013   2.726
 8842SOL    HW127425   3.601   3.038   2.799
 8842SOL    HW227426   3.444   3.032   2.756
 8843SOL     OW27427   1.975   3.418   5.495
 8843SOL    HW127428   2.061   3.455   5.530
 8843SOL    HW227429   1.975   3.422   5.395
 8844SOL     OW27430   0.958   1.300   5.642
 8844SOL    HW127431   0.999   1.209   5.636
 8844SOL    HW227432   0.878   1.304   5.583
 8845SOL     OW27433   3.769   3.720   0.769
 8845SOL    HW127434   3.693   3.718   0.703
 8845SOL    HW227435   3.761   3.803   0.825
 8846SOL     OW27436   3.777   4.879   4.390
 8846SOL    HW127437   3.681   4.863   4.370
 8846SOL    HW227438   3.787   4.968   4.437
 8847SOL     OW27439   2.563   1.857   2.816
 8847SOL    HW127440   2.534   1.762   2.831
 8847SOL    HW227441   2.566   1.876   2.718
 8848SOL     OW27442   2.544   2.131   1.911
 8848SOL    HW127443   2.601   2.135   1.829
 8848SOL    HW227444   2.491   2.215   1.920
 8849SOL     OW27445   2.940   6.303   3.355
 8849SOL    HW127446   2.977   6.373   3.416
 8849SOL    HW227447   2.920   6.344   3.266
 8850SOL     OW27448   1.709   1.732   6.527
 8850SOL    HW127449   1.637   1.769   6.586
 8850SOL    HW227450   1.705   1.632   6.529
 8851SOL     OW27451   0.949   5.566   2.025
 8851SOL    HW127452   1.027   5.627   2.013
 8851SOL    HW227453   0.981   5.479   2.061
 8852SOL     OW27454   4.952   3.804   5.502
 8852SOL    HW127455   4.934   3.826   5.406
 8852SOL    HW227456   4.924   3.711   5.521
 8853SOL     OW27457   2.653   1.237   0.087
 8853SOL    HW127458   2.637   1.270   7.018
 8853SOL    HW227459   2.724   1.293   0.130
 8854SOL     OW27460   3.615   1.353   6.077
 8854SOL    HW127461   3.651   1.262   6.055
 8854SOL    HW227462   3.656   1.421   6.017
 8855SOL     OW27463   0.474   5.953   1.279
 8855SOL    HW127464   0.454   6.049   1.303
 8855SOL    HW227465   0.499   5.948   1.183
 8856SOL     OW27466   0.438   6.559   6.664
 8856SOL    HW127467   0.445   6.547   6.565
 8856SOL    HW227468   0.527   6.543   6.707
 8857SOL     OW27469   0.120   1.726   4.424
 8857SOL    HW127470   0.193   1.759   4.366
 8857SOL    HW227471   0.135   1.630   4.446
 8858SOL     OW27472   0.903   2.392   4.861
 8858SOL    HW127473   0.941   2.463   4.802
 8858SOL    HW227474   0.822   2.352   4.819
 8859SOL     OW27475   6.632   0.581   3.854
 8859SOL    HW127476   6.552   0.584   3.794
 8859SOL    HW227477   6.679   0.494   3.843
 8860SOL     OW27478   0.686   3.277   2.664
 8860SOL    HW127479   0.725   3.317   2.581
 8860SOL    HW227480   0.743   3.301   2.742
 8861SOL     OW27481   4.436   1.688   6.073
 8861SOL    HW127482   4.359   1.648   6.023
 8861SOL    HW227483   4.477   1.761   6.018
 8862SOL     OW27484   5.573   1.135   4.063
 8862SOL    HW127485   5.638   1.059   4.074
 8862SOL    HW227486   5.619   1.211   4.018
 8863SOL     OW27487   1.472   4.761   4.261
 8863SOL    HW127488   1.510   4.671   4.284
 8863SOL    HW227489   1.546   4.822   4.233
 8864SOL     OW27490   3.361   4.316   5.971
 8864SOL    HW127491   3.346   4.314   6.070
 8864SOL    HW227492   3.280   4.351   5.925
 8865SOL     OW27493   2.845   1.382   6.161
 8865SOL    HW127494   2.813   1.384   6.066
 8865SOL    HW227495   2.896   1.297   6.177
 8866SOL     OW27496   5.147   6.955   2.869
 8866SOL    HW127497   5.160   6.981   2.965
 8866SOL    HW227498   5.129   0.012   2.814
 8867SOL     OW27499   5.739   3.357   2.273
 8867SOL    HW127500   5.704   3.419   2.342
 8867SOL    HW227501   5.664   3.319   2.220
 8868SOL     OW27502   6.840   2.684   0.880
 8868SOL    HW127503   6.883   2.726   0.960
 8868SOL    HW227504   6.750   2.649   0.905
 8869SOL     OW27505   4.220   6.398   4.961
 8869SOL    HW127506   4.255   6.308   4.987
 8869SOL    HW227507   4.198   6.450   5.044
 8870SOL     OW27508   3.342   0.143   0.035
 8870SOL    HW127509   3.420   0.186   7.014
 8870SOL    HW227510   3.302   0.074   6.999
 8871SOL     OW27511   1.823   0.822   4.063
 8871SOL    HW127512   1.885   0.875   4.004
 8871SOL    HW227513   1.877   0.761   4.120
 8872SOL     OW27514   1.660   4.039   4.879
 8872SOL    HW127515   1.616   4.103   4.816
 8872SOL    HW227516   1.739   4.083   4.922
 8873SOL     OW27517   1.116   6.496   1.564
 8873SOL    HW127518   1.110   6.439   1.482
 8873SOL    HW227519   1.195   6.556   1.558
 8874SOL     OW27520   2.118   5.684   2.707
 8874SOL    HW127521   2.042   5.707   2.647
 8874SOL    HW227522   2.144   5.764   2.762
 8875SOL     OW27523   6.661   3.267   5.321
 8875SOL    HW127524   6.718   3.240   5.399
 8875SOL    HW227525   6.576   3.308   5.354
 8876SOL     OW27526   2.038   6.820   4.544
 8876SOL    HW127527   2.081   6.748   4.490
 8876SOL    HW227528   2.062   6.808   4.641
 8877SOL     OW27529   3.093   1.383   4.032
 8877SOL    HW127530   3.069   1.480   4.038
 8877SOL    HW227531   3.120   1.349   4.122
 8878SOL     OW27532   6.300   4.781   6.943
 8878SOL    HW127533   6.391   4.780   6.902
 8878SOL    HW227534   6.307   4.763   0.017
 8879SOL     OW27535   4.736   4.578   2.160
 8879SOL    HW127536   4.814   4.519   2.178
 8879SOL    HW227537   4.698   4.557   2.070
 8880SOL     OW27538   4.898   5.804   4.936
 8880SOL    HW127539   4.905   5.780   4.840
 8880SOL    HW227540   4.882   5.721   4.990
 8881SOL     OW27541   5.740   6.748   3.780
 8881SOL    HW127542   5.750   6.777   3.685
 8881SOL    HW227543   5.660   6.793   3.820
 8882SOL     OW27544   5.712   1.207   1.270
 8882SOL    HW127545   5.763   1.121   1.263
 8882SOL    HW227546   5.680   1.219   1.363
 8883SOL     OW27547   1.430   6.054   6.546
 8883SOL    HW127548   1.380   5.989   6.490
 8883SOL    HW227549   1.500   6.006   6.599
 8884SOL     OW27550   6.374   4.036   6.512
 8884SOL    HW127551   6.318   4.037   6.595
 8884SOL    HW227552   6.355   3.953   6.460
 8885SOL     OW27553   6.928   3.489   0.743
 8885SOL    HW127554   6.888   3.537   0.820
 8885SOL    HW227555   6.966   3.555   0.678
 8886SOL     OW27556   3.241   6.883   4.859
 8886SOL    HW127557   3.229   6.845   4.951
 8886SOL    HW227558   3.304   6.960   4.862
 8887SOL     OW27559   3.204   1.700   1.069
 8887SOL    HW127560   3.235   1.775   1.127
 8887SOL    HW227561   3.136   1.646   1.118
 8888SOL     OW27562   1.931   1.678   5.875
 8888SOL    HW127563   1.936   1.769   5.835
 8888SOL    HW227564   2.021   1.634   5.871
 8889SOL     OW27565   6.741   0.506   5.900
 8889SOL    HW127566   6.807   0.444   5.857
 8889SOL    HW227567   6.785   0.553   5.977
 8890SOL     OW27568   6.502   5.882   3.680
 8890SOL    HW127569   6.417   5.830   3.675
 8890SOL    HW227570   6.482   5.980   3.672
 8891SOL     OW27571   4.998   3.736   6.583
 8891SOL    HW127572   4.976   3.649   6.539
 8891SOL    HW227573   5.081   3.774   6.541
 8892SOL     OW27574   3.465   5.867   3.385
 8892SOL    HW127575   3.525   5.926   3.331
 8892SOL    HW227576   3.450   5.781   3.337
 8893SOL     OW27577   0.638   5.858   3.512
 8893SOL    HW127578   0.616   5.955   3.516
 8893SOL    HW227579   0.736   5.845   3.504
 8894SOL     OW27580   4.237   2.887   6.518
 8894SOL    HW127581   4.304   2.957   6.543
 8894SOL    HW227582   4.280   2.820   6.457
 8895SOL     OW27583   6.559   2.476   2.532
 8895SOL    HW127584   6.627   2.549   2.528
 8895SOL    HW227585   6.467   2.516   2.536
 8896SOL     OW27586   2.499   3.425   5.392
 8896SOL    HW127587   2.402   3.431   5.417
 8896SOL    HW227588   2.509   3.439   5.294
 8897SOL     OW27589   2.002   2.555   3.246
 8897SOL    HW127590   2.006   2.531   3.343
 8897SOL    HW227591   1.991   2.654   3.237
 8898SOL     OW27592   5.070   2.883   2.737
 8898SOL    HW127593   5.052   2.787   2.715
 8898SOL    HW227594   5.094   2.891   2.834
 8899SOL     OW27595   1.985   5.596   1.209
 8899SOL    HW127596   1.910   5.652   1.172
 8899SOL    HW227597   2.027   5.644   1.285
 8900SOL     OW27598   6.010   2.863   2.942
 8900SOL    HW127599   5.919   2.840   2.908
 8900SOL    HW227600   6.075   2.858   2.866
 8901SOL     OW27601   2.374   0.839   4.993
 8901SOL    HW127602   2.311   0.794   4.929
 8901SOL    HW227603   2.463   0.850   4.950
 8902SOL     OW27604   2.032   0.217   0.613
 8902SOL    HW127605   2.070   0.125   0.622
 8902SOL    HW227606   2.071   0.261   0.532
 8903SOL     OW27607   0.882   1.477   5.039
 8903SOL    HW127608   0.965   1.453   4.990
 8903SOL    HW227609   0.804   1.475   4.977
 8904SOL     OW27610   5.938   6.507   3.937
 8904SOL    HW127611   5.864   6.451   3.974
 8904SOL    HW227612   5.922   6.604   3.959
 8905SOL     OW27613   0.960   4.522   4.088
 8905SOL    HW127614   0.945   4.426   4.110
 8905SOL    HW227615   0.900   4.579   4.145
 8906SOL     OW27616   0.310   6.004   7.002
 8906SOL    HW127617   0.327   6.041   6.910
 8906SOL    HW227618   0.391   6.018   0.034
 8907SOL     OW27619   2.655   2.391   5.057
 8907SOL    HW127620   2.684   2.437   5.141
 8907SOL    HW227621   2.734   2.344   5.016
 8908SOL     OW27622   1.336   4.379   6.849
 8908SOL    HW127623   1.426   4.337   6.836
 8908SOL    HW227624   1.318   4.443   6.774
 8909SOL     OW27625   2.764   0.828   6.280
 8909SOL    HW127626   2.748   0.774   6.197
 8909SOL    HW227627   2.790   0.921   6.255
 8910SOL     OW27628   0.106   2.353   6.061
 8910SOL    HW127629   0.078   2.449   6.055
 8910SOL    HW227630   0.177   2.335   5.994
 8911SOL     OW27631   3.839   2.088   4.700
 8911SOL    HW127632   3.871   1.996   4.723
 8911SOL    HW227633   3.796   2.087   4.609
 8912SOL     OW27634   3.299   3.382   6.603
 8912SOL    HW127635   3.212   3.376   6.653
 8912SOL    HW227636   3.314   3.297   6.552
 8913SOL     OW27637   5.177   4.899   5.726
 8913SOL    HW127638   5.091   4.903   5.675
 8913SOL    HW227639   5.184   4.979   5.785
 8914SOL     OW27640   4.577   0.306   4.868
 8914SOL    HW127641   4.602   0.352   4.784
 8914SOL    HW227642   4.658   0.264   4.909
 8915SOL     OW27643   0.622   3.092   3.782
 8915SOL    HW127644   0.560   3.014   3.785
 8915SOL    HW227645   0.568   3.177   3.785
 8916SOL     OW27646   6.699   3.761   0.710
 8916SOL    HW127647   6.754   3.845   0.712
 8916SOL    HW227648   6.733   3.701   0.637
 8917SOL     OW27649   6.527   3.273   0.288
 8917SOL    HW127650   6.453   3.269   0.354
 8917SOL    HW227651   6.504   3.217   0.208
 8918SOL     OW27652   6.458   4.290   0.971
 8918SOL    HW127653   6.454   4.348   1.053
 8918SOL    HW227654   6.386   4.221   0.975
 8919SOL     OW27655   3.729   4.068   0.664
 8919SOL    HW127656   3.816   4.024   0.689
 8919SOL    HW227657   3.691   4.023   0.584
 8920SOL     OW27658   0.675   0.656   6.658
 8920SOL    HW127659   0.625   0.655   6.745
 8920SOL    HW227660   0.753   0.718   6.666
 8921SOL     OW27661   2.201   2.540   2.574
 8921SOL    HW127662   2.271   2.594   2.528
 8921SOL    HW227663   2.183   2.578   2.665
 8922SOL     OW27664   3.902   4.889   1.557
 8922SOL    HW127665   3.824   4.851   1.606
 8922SOL    HW227666   3.882   4.983   1.530
 8923SOL     OW27667   1.694   2.826   6.223
 8923SOL    HW127668   1.599   2.806   6.244
 8923SOL    HW227669   1.752   2.796   6.299
 8924SOL     OW27670   3.748   5.236   5.421
 8924SOL    HW127671   3.807   5.247   5.341
 8924SOL    HW227672   3.748   5.321   5.474
 8925SOL     OW27673   0.874   1.599   2.605
 8925SOL    HW127674   0.971   1.619   2.593
 8925SOL    HW227675   0.824   1.624   2.522
 8926SOL     OW27676   6.839   3.160   6.101
 8926SOL    HW127677   6.771   3.224   6.066
 8926SOL    HW227678   6.826   3.147   6.199
 8927SOL     OW27679   0.246   1.133   4.700
 8927SOL    HW127680   0.248   1.060   4.768
 8927SOL    HW227681   0.240   1.222   4.745
 8928SOL     OW27682   0.472   0.135   6.162
 8928SOL    HW127683   0.501   0.040   6.158
 8928SOL    HW227684   0.548   0.194   6.136
 8929SOL     OW27685   6.206   2.777   4.250
 8929SOL    HW127686   6.132   2.719   4.215
 8929SOL    HW227687   6.204   2.865   4.203
 8930SOL     OW27688   1.691   3.726   3.957
 8930SOL    HW127689   1.735   3.661   4.018
 8930SOL    HW227690   1.759   3.761   3.892
 8931SOL     OW27691   2.476   2.971   0.367
 8931SOL    HW127692   2.384   2.997   0.398
 8931SOL    HW227693   2.496   2.878   0.396
 8932SOL     OW27694   6.570   0.983   0.938
 8932SOL    HW127695   6.543   0.981   1.034
 8932SOL    HW227696   6.665   0.953   0.929
 8933SOL     OW27697   2.127   3.061   5.876
 8933SOL    HW127698   2.221   3.034   5.857
 8933SOL    HW227699   2.074   3.060   5.791
 8934SOL     OW27700   3.573   4.940   4.710
 8934SOL    HW127701   3.481   4.974   4.688
 8934SOL    HW227702   3.566   4.872   4.783
 8935SOL     OW27703   6.759   4.485   1.048
 8935SOL    HW127704   6.666   4.451   1.056
 8935SOL    HW227705   6.821   4.408   1.032
 8936SOL     OW27706   1.110   3.461   2.593
 8936SOL    HW127707   1.098   3.442   2.690
 8936SOL    HW227708   1.156   3.383   2.549
 8937SOL     OW27709   6.908   6.680   4.110
 8937SOL    HW127710   6.942   6.767   4.075
 8937SOL    HW227711   6.855   6.634   4.038
 8938SOL     OW27712   0.412   0.582   0.781
 8938SOL    HW127713   0.500   0.548   0.813
 8938SOL    HW227714   0.415   0.682   0.775
 8939SOL     OW27715   6.102   4.588   4.243
 8939SOL    HW127716   6.086   4.512   4.307
 8939SOL    HW227717   6.044   4.665   4.267
 8940SOL     OW27718   5.956   1.326   2.070
 8940SOL    HW127719   5.969   1.421   2.100
 8940SOL    HW227720   5.984   1.264   2.143
 8941SOL     OW27721   5.744   2.606   4.408
 8941SOL    HW127722   5.722   2.510   4.429
 8941SOL    HW227723   5.807   2.641   4.476
 8942SOL     OW27724   6.437   5.492   5.624
 8942SOL    HW127725   6.397   5.554   5.691
 8942SOL    HW227726   6.403   5.515   5.533
 8943SOL     OW27727   3.960   5.707   0.510
 8943SOL    HW127728   4.006   5.706   0.421
 8943SOL    HW227729   3.861   5.715   0.496
 8944SOL     OW27730   5.486   5.649   4.374
 8944SOL    HW127731   5.478   5.596   4.459
 8944SOL    HW227732   5.397   5.655   4.330
 8945SOL     OW27733   1.087   1.188   4.012
 8945SOL    HW127734   1.090   1.200   4.112
 8945SOL    HW227735   1.152   1.251   3.969
 8946SOL     OW27736   2.877   1.194   3.999
 8946SOL    HW127737   2.887   1.153   3.908
 8946SOL    HW227738   2.956   1.253   4.018
 8947SOL     OW27739   2.350   3.421   5.802
 8947SOL    HW127740   2.350   3.328   5.840
 8947SOL    HW227741   2.385   3.485   5.871
 8948SOL     OW27742   6.131   6.061   3.872
 8948SOL    HW127743   6.158   6.157   3.866
 8948SOL    HW227744   6.041   6.049   3.829
 8949SOL     OW27745   4.009   6.090   0.961
 8949SOL    HW127746   4.024   6.182   0.925
 8949SOL    HW227747   3.912   6.080   0.986
 8950SOL     OW27748   3.969   4.492   0.117
 8950SOL    HW127749   4.060   4.466   0.149
 8950SOL    HW227750   3.947   4.584   0.151
 8951SOL     OW27751   2.275   0.957   4.617
 8951SOL    HW127752   2.350   0.977   4.554
 8951SOL    HW227753   2.288   1.010   4.701
 8952SOL     OW27754   0.513   5.235   3.356
 8952SOL    HW127755   0.606   5.214   3.388
 8952SOL    HW227756   0.517   5.312   3.293
 8953SOL     OW27757   1.285   4.194   0.622
 8953SOL    HW127758   1.347   4.118   0.640
 8953SOL    HW227759   1.191   4.160   0.614
 8954SOL     OW27760   6.873   6.822   4.367
 8954SOL    HW127761   6.950   6.816   4.430
 8954SOL    HW227762   6.898   6.780   4.279
 8955SOL     OW27763   6.773   5.269   3.062
 8955SOL    HW127764   6.761   5.333   3.138
 8955SOL    HW227765   6.838   5.198   3.089
 8956SOL     OW27766   2.112   1.434   6.362
 8956SOL    HW127767   2.024   1.441   6.314
 8956SOL    HW227768   2.142   1.525   6.389
 8957SOL     OW27769   1.797   5.017   1.726
 8957SOL    HW127770   1.851   4.934   1.710
 8957SOL    HW227771   1.849   5.097   1.694
 8958SOL     OW27772   0.463   2.513   4.841
 8958SOL    HW127773   0.523   2.437   4.816
 8958SOL    HW227774   0.426   2.498   4.933
 8959SOL     OW27775   1.773   4.434   1.950
 8959SOL    HW127776   1.854   4.488   1.970
 8959SOL    HW227777   1.693   4.476   1.992
 8960SOL     OW27778   4.231   5.819   3.248
 8960SOL    HW127779   4.244   5.859   3.339
 8960SOL    HW227780   4.234   5.892   3.179
 8961SOL     OW27781   3.110   1.442   3.729
 8961SOL    HW127782   3.134   1.531   3.767
 8961SOL    HW227783   3.102   1.375   3.804
 8962SOL     OW27784   6.068   5.387   2.414
 8962SOL    HW127785   6.049   5.300   2.369
 8962SOL    HW227786   6.052   5.462   2.349
 8963SOL     OW27787   3.733   0.422   5.134
 8963SOL    HW127788   3.641   0.461   5.137
 8963SOL    HW227789   3.801   0.495   5.139
 8964SOL     OW27790   5.429   3.117   3.328
 8964SOL    HW127791   5.390   3.056   3.397
 8964SOL    HW227792   5.510   3.075   3.288
 8965SOL     OW27793   2.248   5.740   0.435
 8965SOL    HW127794   2.251   5.840   0.428
 8965SOL    HW227795   2.274   5.712   0.528
 8966SOL     OW27796   6.732   3.872   6.929
 8966SOL    HW127797   6.692   3.917   6.849
 8966SOL    HW227798   6.661   3.861   6.999
 8967SOL     OW27799   4.034   0.640   1.897
 8967SOL    HW127800   3.980   0.561   1.867
 8967SOL    HW227801   4.049   0.702   1.820
 8968SOL     OW27802   4.269   5.572   2.883
 8968SOL    HW127803   4.355   5.575   2.933
 8968SOL    HW227804   4.194   5.553   2.947
 8969SOL     OW27805   6.579   0.295   3.410
 8969SOL    HW127806   6.538   0.308   3.500
 8969SOL    HW227807   6.507   0.290   3.341
 8970SOL     OW27808   2.622   3.469   6.936
 8970SOL    HW127809   2.606   3.546   6.998
 8970SOL    HW227810   2.670   3.396   6.986
 8971SOL     OW27811   5.335   5.203   1.626
 8971SOL    HW127812   5.252   5.254   1.602
 8971SOL    HW227813   5.352   5.132   1.558
 8972SOL     OW27814   4.512   3.635   6.969
 8972SOL    HW127815   4.492   3.554   6.914
 8972SOL    HW227816   4.574   3.611   0.018
 8973SOL     OW27817   0.321   3.777   3.251
 8973SOL    HW127818   0.357   3.728   3.172
 8973SOL    HW227819   0.351   3.731   3.335
 8974SOL     OW27820   1.431   3.494   4.124
 8974SOL    HW127821   1.477   3.563   4.179
 8974SOL    HW227822   1.385   3.428   4.184
 8975SOL     OW27823   1.267   6.070   0.382
 8975SOL    HW127824   1.301   5.976   0.388
 8975SOL    HW227825   1.271   6.101   0.287
 8976SOL     OW27826   0.491   5.099   0.479
 8976SOL    HW127827   0.435   5.087   0.397
 8976SOL    HW227828   0.503   5.011   0.525
 8977SOL     OW27829   6.852   3.304   6.900
 8977SOL    HW127830   6.782   3.356   6.852
 8977SOL    HW227831   6.830   3.301   6.997
 8978SOL     OW27832   5.225   6.717   4.470
 8978SOL    HW127833   5.232   6.808   4.428
 8978SOL    HW227834   5.268   6.719   4.560
 8979SOL     OW27835   0.856   4.477   5.280
 8979SOL    HW127836   0.851   4.426   5.366
 8979SOL    HW227837   0.785   4.547   5.278
 8980SOL     OW27838   4.595   2.923   5.490
 8980SOL    HW127839   4.518   2.863   5.509
 8980SOL    HW227840   4.569   3.018   5.509
 8981SOL     OW27841   4.097   1.896   5.091
 8981SOL    HW127842   4.158   1.934   5.022
 8981SOL    HW227843   4.107   1.797   5.093
 8982SOL     OW27844   1.873   1.617   1.549
 8982SOL    HW127845   1.835   1.687   1.488
 8982SOL    HW227846   1.939   1.659   1.611
 8983SOL     OW27847   1.297   5.423   0.479
 8983SOL    HW127848   1.292   5.378   0.390
 8983SOL    HW227849   1.296   5.522   0.466
 8984SOL     OW27850   6.050   6.938   3.507
 8984SOL    HW127851   6.077   6.999   3.581
 8984SOL    HW227852   6.125   6.875   3.487
 8985SOL     OW27853   2.537   1.536   0.665
 8985SOL    HW127854   2.512   1.631   0.684
 8985SOL    HW227855   2.454   1.482   0.649
 8986SOL     OW27856   4.020   5.084   1.819
 8986SOL    HW127857   4.041   5.107   1.724
 8986SOL    HW227858   4.081   5.134   1.880
 8987SOL     OW27859   4.566   6.584   0.324
 8987SOL    HW127860   4.662   6.569   0.346
 8987SOL    HW227861   4.554   6.678   0.292
 8988SOL     OW27862   1.740   3.718   0.091
 8988SOL    HW127863   1.675   3.794   0.104
 8988SOL    HW227864   1.828   3.755   0.063
 8989SOL     OW27865   4.929   4.425   1.872
 8989SOL    HW127866   4.851   4.485   1.886
 8989SOL    HW227867   4.998   4.472   1.816
 8990SOL     OW27868   2.011   5.948   2.090
 8990SOL    HW127869   2.052   6.037   2.109
 8990SOL    HW227870   2.078   5.876   2.106
 8991SOL     OW27871   1.722   2.020   6.794
 8991SOL    HW127872   1.639   1.970   6.768
 8991SOL    HW227873   1.772   2.046   6.711
 8992SOL     OW27874   6.444   2.198   6.784
 8992SOL    HW127875   6.531   2.230   6.747
 8992SOL    HW227876   6.369   2.240   6.733
 8993SOL     OW27877   5.013   2.627   2.669
 8993SOL    HW127878   4.988   2.569   2.592
 8993SOL    HW227879   4.931   2.652   2.721
 8994SOL     OW27880   0.519   4.652   4.968
 8994SOL    HW127881   0.495   4.674   4.874
 8994SOL    HW227882   0.508   4.554   4.983
 8995SOL     OW27883   1.235   2.449   6.605
 8995SOL    HW127884   1.186   2.412   6.684
 8995SOL    HW227885   1.182   2.523   6.565
 8996SOL     OW27886   6.664   5.207   1.525
 8996SOL    HW127887   6.584   5.153   1.548
 8996SOL    HW227888   6.734   5.148   1.483
 8997SOL     OW27889   4.241   1.475   6.493
 8997SOL    HW127890   4.213   1.387   6.455
 8997SOL    HW227891   4.193   1.491   6.579
 8998SOL     OW27892   7.006   3.444   5.007
 8998SOL    HW127893   6.913   3.420   4.980
 8998SOL    HW227894   7.015   3.434   5.106
 8999SOL     OW27895   5.097   6.768   0.224
 8999SOL    HW127896   5.086   6.752   0.322
 8999SOL    HW227897   5.013   6.745   0.176
 9000SOL     OW27898   2.473   4.324   6.850
 9000SOL    HW127899   2.462   4.423   6.863
 9000SOL    HW227900   2.389   4.287   6.810
 9001SOL     OW27901   0.727   5.565   2.966
 9001SOL    HW127902   0.760   5.471   2.955
 9001SOL    HW227903   0.673   5.591   2.886
 9002SOL     OW27904   6.635   5.028   4.786
 9002SOL    HW127905   6.621   5.104   4.849
 9002SOL    HW227906   6.724   4.986   4.804
 9003SOL     OW27907   5.381   2.482   1.238
 9003SOL    HW127908   5.447   2.486   1.313
 9003SOL    HW227909   5.422   2.436   1.159
 9004SOL     OW27910   5.038   6.730   1.830
 9004SOL    HW127911   5.071   6.803   1.889
 9004SOL    HW227912   5.027   6.646   1.883
 9005SOL     OW27913   4.809   1.705   5.162
 9005SOL    HW127914   4.901   1.691   5.201
 9005SOL    HW227915   4.743   1.715   5.236
 9006SOL     OW27916   2.782   6.413   0.772
 9006SOL    HW127917   2.719   6.367   0.709
 9006SOL    HW227918   2.858   6.351   0.794
 9007SOL     OW27919   3.825   6.625   4.291
 9007SOL    HW127920   3.832   6.579   4.379
 9007SOL    HW227921   3.912   6.618   4.243
 9008SOL     OW27922   7.020   5.409   2.883
 9008SOL    HW127923   6.970   5.326   2.906
 9008SOL    HW227924   0.085   5.407   2.928
 9009SOL     OW27925   2.758   0.849   0.446
 9009SOL    HW127926   2.727   0.921   0.509
 9009SOL    HW227927   2.739   0.877   0.352
 9010SOL     OW27928   0.846   0.131   4.735
 9010SOL    HW127929   0.818   0.119   4.830
 9010SOL    HW227930   0.900   0.053   4.705
 9011SOL     OW27931   4.118   2.045   1.706
 9011SOL    HW127932   4.174   2.049   1.624
 9011SOL    HW227933   4.054   2.121   1.707
 9012SOL     OW27934   3.269   4.128   1.083
 9012SOL    HW127935   3.243   4.065   1.156
 9012SOL    HW227936   3.187   4.161   1.036
 9013SOL     OW27937   0.284   6.004   3.970
 9013SOL    HW127938   0.298   5.918   4.020
 9013SOL    HW227939   0.357   6.068   3.994
 9014SOL     OW27940   0.751   0.778   0.118
 9014SOL    HW127941   0.684   0.849   0.139
 9014SOL    HW227942   0.812   0.765   0.197
 9015SOL     OW27943   6.077   1.951   1.046
 9015SOL    HW127944   6.097   1.925   1.141
 9015SOL    HW227945   6.162   1.953   0.994
 9016SOL     OW27946   0.714   6.520   6.719
 9016SOL    HW127947   0.743   6.562   6.805
 9016SOL    HW227948   0.792   6.474   6.677
 9017SOL     OW27949   4.248   2.299   1.743
 9017SOL    HW127950   4.160   2.297   1.696
 9017SOL    HW227951   4.295   2.212   1.729
 9018SOL     OW27952   4.705   1.522   5.958
 9018SOL    HW127953   4.653   1.539   5.874
 9018SOL    HW227954   4.685   1.429   5.990
 9019SOL     OW27955   0.155   0.790   1.629
 9019SOL    HW127956   0.211   0.821   1.706
 9019SOL    HW227957   0.214   0.751   1.559
 9020SOL     OW27958   1.525   3.239   1.548
 9020SOL    HW127959   1.437   3.285   1.543
 9020SOL    HW227960   1.566   3.253   1.638
 9021SOL     OW27961   6.999   0.388   3.749
 9021SOL    HW127962   7.018   0.472   3.698
 9021SOL    HW227963   6.988   0.312   3.685
 9022SOL     OW27964   2.811   1.585   0.611
 9022SOL    HW127965   2.718   1.556   0.631
 9022SOL    HW227966   2.866   1.507   0.583
 9023SOL     OW27967   3.334   3.350   2.221
 9023SOL    HW127968   3.369   3.256   2.218
 9023SOL    HW227969   3.409   3.414   2.207
 9024SOL     OW27970   0.637   5.141   5.131
 9024SOL    HW127971   0.619   5.193   5.048
 9024SOL    HW227972   0.654   5.045   5.108
 9025SOL     OW27973   0.730   5.730   0.375
 9025SOL    HW127974   0.700   5.823   0.397
 9025SOL    HW227975   0.713   5.711   0.278
 9026SOL     OW27976   4.055   3.579   1.911
 9026SOL    HW127977   4.142   3.579   1.861
 9026SOL    HW227978   4.070   3.539   2.002
 9027SOL     OW27979   1.328   1.915   4.299
 9027SOL    HW127980   1.412   1.877   4.261
 9027SOL    HW227981   1.282   1.846   4.355
 9028SOL     OW27982   2.517   3.845   6.391
 9028SOL    HW127983   2.478   3.902   6.319
 9028SOL    HW227984   2.595   3.893   6.433
 9029SOL     OW27985   3.403   5.238   4.989
 9029SOL    HW127986   3.485   5.258   5.043
 9029SOL    HW227987   3.384   5.140   4.992
 9030SOL     OW27988   2.032   1.525   3.502
 9030SOL    HW127989   1.955   1.523   3.438
 9030SOL    HW227990   2.117   1.536   3.451
 9031SOL     OW27991   4.568   6.225   4.458
 9031SOL    HW127992   4.528   6.232   4.550
 9031SOL    HW227993   4.586   6.129   4.437
 9032SOL     OW27994   3.443   3.357   0.965
 9032SOL    HW127995   3.449   3.269   0.918
 9032SOL    HW227996   3.428   3.429   0.898
 9033SOL     OW27997   1.739   5.190   3.837
 9033SOL    HW127998   1.769   5.098   3.814
 9033SOL    HW227999   1.641   5.189   3.859
 9034SOL     OW28000   2.926   0.613   5.117
 9034SOL    HW128001   3.013   0.612   5.067
 9034SOL    HW228002   2.853   0.581   5.057
 9035SOL     OW28003   1.450   4.962   5.330
 9035SOL    HW128004   1.358   4.923   5.325
 9035SOL    HW228005   1.492   4.958   5.239
 9036SOL     OW28006   1.823   0.773   5.640
 9036SOL    HW128007   1.744   0.718   5.615
 9036SOL    HW228008   1.794   0.867   5.658
 9037SOL     OW28009   1.285   3.951   5.756
 9037SOL    HW128010   1.264   4.046   5.781
 9037SOL    HW228011   1.201   3.906   5.725
 9038SOL     OW28012   5.219   6.548   5.966
 9038SOL    HW128013   5.162   6.494   5.905
 9038SOL    HW228014   5.280   6.487   6.017
 9039SOL     OW28015   2.693   4.707   4.411
 9039SOL    HW128016   2.787   4.732   4.435
 9039SOL    HW228017   2.658   4.641   4.477
 9040SOL     OW28018   2.913   2.251   2.758
 9040SOL    HW128019   2.935   2.261   2.661
 9040SOL    HW228020   2.852   2.325   2.786
 9041SOL     OW28021   1.069   2.293   2.066
 9041SOL    HW128022   1.098   2.322   2.157
 9041SOL    HW228023   1.150   2.268   2.011
 9042SOL     OW28024   2.166   0.123   3.739
 9042SOL    HW128025   2.176   0.189   3.665
 9042SOL    HW228026   2.178   0.030   3.703
 9043SOL     OW28027   2.776   1.633   6.927
 9043SOL    HW128028   2.792   1.712   6.869
 9043SOL    HW228029   2.842   1.562   6.905
 9044SOL     OW28030   5.968   1.764   1.951
 9044SOL    HW128031   5.950   1.703   1.874
 9044SOL    HW228032   5.881   1.797   1.989
 9045SOL     OW28033   3.090   1.537   2.462
 9045SOL    HW128034   3.181   1.499   2.478
 9045SOL    HW228035   3.024   1.462   2.456
 9046SOL     OW28036   3.496   3.983   4.561
 9046SOL    HW128037   3.430   3.912   4.538
 9046SOL    HW228038   3.483   4.010   4.657
 9047SOL     OW28039   1.151   2.960   5.513
 9047SOL    HW128040   1.210   3.038   5.494
 9047SOL    HW228041   1.163   2.890   5.442
 9048SOL     OW28042   6.334   2.004   5.934
 9048SOL    HW128043   6.272   1.935   5.895
 9048SOL    HW228044   6.284   2.059   6.001
 9049SOL     OW28045   3.935   0.253   6.217
 9049SOL    HW128046   3.870   0.318   6.177
 9049SOL    HW228047   3.914   0.239   6.314
 9050SOL     OW28048   6.930   3.950   6.278
 9050SOL    HW128049   6.998   3.985   6.342
 9050SOL    HW228050   6.847   4.005   6.284
 9051SOL     OW28051   4.349   6.201   0.733
 9051SOL    HW128052   4.349   6.116   0.787
 9051SOL    HW228053   4.321   6.181   0.639
 9052SOL     OW28054   1.440   2.365   3.447
 9052SOL    HW128055   1.350   2.321   3.447
 9052SOL    HW228056   1.465   2.390   3.353
 9053SOL     OW28057   1.631   1.671   3.130
 9053SOL    HW128058   1.545   1.620   3.122
 9053SOL    HW228059   1.702   1.624   3.079
 9054SOL     OW28060   1.614   0.446   2.407
 9054SOL    HW128061   1.531   0.502   2.405
 9054SOL    HW228062   1.591   0.351   2.386
 9055SOL     OW28063   6.247   3.209   3.679
 9055SOL    HW128064   6.201   3.293   3.650
 9055SOL    HW228065   6.337   3.231   3.717
 9056SOL     OW28066   6.734   0.997   1.513
 9056SOL    HW128067   6.709   1.085   1.552
 9056SOL    HW228068   6.832   0.996   1.494
 9057SOL     OW28069   6.184   4.923   5.662
 9057SOL    HW128070   6.251   4.994   5.639
 9057SOL    HW228071   6.183   4.909   5.761
 9058SOL     OW28072   1.808   1.969   3.509
 9058SOL    HW128073   1.802   1.885   3.562
 9058SOL    HW228074   1.716   2.005   3.492
 9059SOL     OW28075   1.260   1.030   5.251
 9059SOL    HW128076   1.236   1.062   5.159
 9059SOL    HW228077   1.359   1.041   5.265
 9060SOL     OW28078   6.634   3.096   2.329
 9060SOL    HW128079   6.581   3.046   2.261
 9060SOL    HW228080   6.584   3.099   2.415
 9061SOL     OW28081   2.905   5.705   2.100
 9061SOL    HW128082   2.965   5.785   2.091
 9061SOL    HW228083   2.827   5.729   2.157
 9062SOL     OW28084   1.761   5.915   2.297
 9062SOL    HW128085   1.781   6.011   2.277
 9062SOL    HW228086   1.799   5.857   2.225
 9063SOL     OW28087   2.307   0.312   2.925
 9063SOL    HW128088   2.323   0.410   2.914
 9063SOL    HW228089   2.211   0.297   2.950
 9064SOL     OW28090   6.298   2.880   5.898
 9064SOL    HW128091   6.234   2.814   5.858
 9064SOL    HW228092   6.340   2.840   5.980
 9065SOL     OW28093   3.036   6.811   6.431
 9065SOL    HW128094   2.968   6.878   6.462
 9065SOL    HW228095   3.090   6.779   6.508
 9066SOL     OW28096   5.676   6.712   0.572
 9066SOL    HW128097   5.742   6.638   0.562
 9066SOL    HW228098   5.724   6.800   0.573
 9067SOL     OW28099   5.918   0.304   4.440
 9067SOL    HW128100   5.941   0.212   4.472
 9067SOL    HW228101   5.859   0.297   4.360
 9068SOL     OW28102   2.867   0.378   5.631
 9068SOL    HW128103   2.790   0.379   5.567
 9068SOL    HW228104   2.942   0.431   5.593
 9069SOL     OW28105   2.691   2.487   1.835
 9069SOL    HW128106   2.652   2.473   1.927
 9069SOL    HW228107   2.789   2.469   1.837
 9070SOL     OW28108   1.110   3.255   5.814
 9070SOL    HW128109   1.083   3.340   5.861
 9070SOL    HW228110   1.208   3.256   5.797
 9071SOL     OW28111   5.665   0.270   0.898
 9071SOL    HW128112   5.639   0.174   0.907
 9071SOL    HW228113   5.701   0.303   0.985
 9072SOL     OW28114   6.306   1.082   2.193
 9072SOL    HW128115   6.361   1.050   2.270
 9072SOL    HW228116   6.362   1.143   2.136
 9073SOL     OW28117   3.469   6.663   0.275
 9073SOL    HW128118   3.406   6.730   0.236
 9073SOL    HW228119   3.418   6.595   0.327
 9074SOL     OW28120   2.274   1.245   1.658
 9074SOL    HW128121   2.329   1.164   1.676
 9074SOL    HW228122   2.186   1.237   1.705
 9075SOL     OW28123   1.154   1.159   2.512
 9075SOL    HW128124   1.088   1.159   2.587
 9075SOL    HW228125   1.140   1.079   2.454
 9076SOL     OW28126   5.865   1.879   5.113
 9076SOL    HW128127   5.877   1.910   5.207
 9076SOL    HW228128   5.787   1.816   5.108
 9077SOL     OW28129   5.367   6.535   6.822
 9077SOL    HW128130   5.273   6.565   6.837
 9077SOL    HW228131   5.419   6.547   6.907
 9078SOL     OW28132   4.632   3.791   6.421
 9078SOL    HW128133   4.566   3.866   6.424
 9078SOL    HW228134   4.590   3.708   6.458
 9079SOL     OW28135   2.500   6.667   3.918
 9079SOL    HW128136   2.471   6.747   3.971
 9079SOL    HW228137   2.583   6.628   3.959
 9080SOL     OW28138   5.503   2.191   6.963
 9080SOL    HW128139   5.484   2.287   6.941
 9080SOL    HW228140   5.574   2.156   6.902
 9081SOL     OW28141   3.580   6.175   2.951
 9081SOL    HW128142   3.668   6.195   2.908
 9081SOL    HW228143   3.586   6.089   3.000
 9082SOL     OW28144   2.534   6.646   4.958
 9082SOL    HW128145   2.496   6.689   5.040
 9082SOL    HW228146   2.561   6.552   4.980
 9083SOL     OW28147   3.721   4.874   6.011
 9083SOL    HW128148   3.809   4.922   6.010
 9083SOL    HW228149   3.684   4.870   5.918
 9084SOL     OW28150   3.117   3.754   5.425
 9084SOL    HW128151   3.065   3.723   5.345
 9084SOL    HW228152   3.214   3.733   5.412
 9085SOL     OW28153   2.098   4.761   1.479
 9085SOL    HW128154   2.160   4.684   1.464
 9085SOL    HW228155   2.066   4.796   1.391
 9086SOL     OW28156   0.899   4.182   0.360
 9086SOL    HW128157   0.814   4.155   0.315
 9086SOL    HW228158   0.900   4.282   0.371
 9087SOL     OW28159   4.833   2.447   1.832
 9087SOL    HW128160   4.834   2.505   1.750
 9087SOL    HW228161   4.745   2.458   1.879
 9088SOL     OW28162   5.276   5.874   0.602
 9088SOL    HW128163   5.250   5.924   0.519
 9088SOL    HW228164   5.235   5.919   0.682
 9089SOL     OW28165   4.735   6.265   5.355
 9089SOL    HW128166   4.742   6.344   5.415
 9089SOL    HW228167   4.777   6.186   5.399
 9090SOL     OW28168   0.291   0.468   3.245
 9090SOL    HW128169   0.298   0.499   3.339
 9090SOL    HW228170   0.375   0.420   3.219
 9091SOL     OW28171   3.444   3.829   1.051
 9091SOL    HW128172   3.522   3.885   1.023
 9091SOL    HW228173   3.366   3.846   0.991
 9092SOL     OW28174   0.225   1.591   0.978
 9092SOL    HW128175   0.194   1.663   0.916
 9092SOL    HW228176   0.307   1.548   0.941
 9093SOL     OW28177   1.451   6.485   6.351
 9093SOL    HW128178   1.496   6.567   6.316
 9093SOL    HW228179   1.520   6.416   6.373
 9094SOL     OW28180   6.225   5.119   2.689
 9094SOL    HW128181   6.286   5.198   2.678
 9094SOL    HW228182   6.130   5.147   2.678
 9095SOL     OW28183   4.618   4.359   5.938
 9095SOL    HW128184   4.577   4.329   5.852
 9095SOL    HW228185   4.716   4.337   5.938
 9096SOL     OW28186   6.030   3.531   1.811
 9096SOL    HW128187   6.056   3.438   1.787
 9096SOL    HW228188   5.993   3.533   1.904
 9097SOL     OW28189   0.937   1.994   0.276
 9097SOL    HW128190   0.880   1.932   0.221
 9097SOL    HW228191   1.023   1.948   0.298
 9098SOL     OW28192   3.710   1.554   5.930
 9098SOL    HW128193   3.698   1.652   5.915
 9098SOL    HW228194   3.798   1.524   5.893
 9099SOL     OW28195   2.894   2.613   5.742
 9099SOL    HW128196   2.949   2.559   5.678
 9099SOL    HW228197   2.821   2.659   5.692
 9100SOL     OW28198   0.518   3.727   3.802
 9100SOL    HW128199   0.515   3.787   3.723
 9100SOL    HW228200   0.504   3.780   3.885
 9101SOL     OW28201   2.133   2.451   2.982
 9101SOL    HW128202   2.213   2.395   3.000
 9101SOL    HW228203   2.100   2.491   3.067
 9102SOL     OW28204   2.837   0.175   1.877
 9102SOL    HW128205   2.883   0.088   1.893
 9102SOL    HW228206   2.899   0.237   1.829
 9103SOL     OW28207   6.294   3.123   6.487
 9103SOL    HW128208   6.310   3.045   6.548
 9103SOL    HW228209   6.382   3.155   6.451
 9104SOL     OW28210   0.520   6.540   1.884
 9104SOL    HW128211   0.519   6.633   1.921
 9104SOL    HW228212   0.534   6.474   1.959
 9105SOL     OW28213   1.249   1.714   6.625
 9105SOL    HW128214   1.244   1.616   6.604
 9105SOL    HW228215   1.200   1.766   6.555
 9106SOL     OW28216   0.146   2.778   0.821
 9106SOL    HW128217   0.183   2.869   0.841
 9106SOL    HW228218   0.200   2.709   0.870
 9107SOL     OW28219   3.909   0.540   6.343
 9107SOL    HW128220   3.967   0.526   6.424
 9107SOL    HW228221   3.818   0.570   6.372
 9108SOL     OW28222   4.981   4.056   5.864
 9108SOL    HW128223   4.947   3.963   5.877
 9108SOL    HW228224   4.970   4.083   5.769
 9109SOL     OW28225   6.573   3.026   3.536
 9109SOL    HW128226   6.556   3.073   3.622
 9109SOL    HW228227   6.489   2.984   3.503
 9110SOL     OW28228   1.557   5.113   4.312
 9110SOL    HW128229   1.637   5.161   4.274
 9110SOL    HW228230   1.543   5.143   4.406
 9111SOL     OW28231   4.817   2.110   0.527
 9111SOL    HW128232   4.844   2.180   0.461
 9111SOL    HW228233   4.789   2.027   0.478
 9112SOL     OW28234   0.587   5.196   2.767
 9112SOL    HW128235   0.622   5.131   2.835
 9112SOL    HW228236   0.661   5.254   2.734
 9113SOL     OW28237   4.666   1.684   2.994
 9113SOL    HW128238   4.610   1.604   3.017
 9113SOL    HW228239   4.660   1.751   3.068
 9114SOL     OW28240   1.016   5.042   2.142
 9114SOL    HW128241   1.009   5.029   2.043
 9114SOL    HW228242   1.067   4.966   2.182
 9115SOL     OW28243   0.148   5.716   4.207
 9115SOL    HW128244   0.091   5.794   4.229
 9115SOL    HW228245   0.095   5.649   4.155
 9116SOL     OW28246   6.680   0.983   1.863
 9116SOL    HW128247   6.650   0.979   1.958
 9116SOL    HW228248   6.773   0.948   1.856
 9117SOL     OW28249   5.004   2.457   0.150
 9117SOL    HW128250   5.068   2.420   0.083
 9117SOL    HW228251   5.042   2.541   0.190
 9118SOL     OW28252   6.904   3.650   0.340
 9118SOL    HW128253   6.898   3.556   0.307
 9118SOL    HW228254   6.963   3.654   0.420
 9119SOL     OW28255   3.892   0.430   2.541
 9119SOL    HW128256   3.808   0.441   2.487
 9119SOL    HW228257   3.952   0.363   2.497
 9120SOL     OW28258   6.176   1.806   5.852
 9120SOL    HW128259   6.187   1.720   5.801
 9120SOL    HW228260   6.103   1.795   5.920
 9121SOL     OW28261   4.328   0.253   5.585
 9121SOL    HW128262   4.320   0.339   5.636
 9121SOL    HW228263   4.338   0.177   5.650
 9122SOL     OW28264   2.470   4.564   2.240
 9122SOL    HW128265   2.387   4.616   2.261
 9122SOL    HW228266   2.534   4.622   2.190
 9123SOL     OW28267   2.435   0.754   3.730
 9123SOL    HW128268   2.494   0.806   3.792
 9123SOL    HW228269   2.339   0.771   3.754
 9124SOL     OW28270   5.426   5.691   0.372
 9124SOL    HW128271   5.451   5.604   0.414
 9124SOL    HW228272   5.334   5.684   0.332
 9125SOL     OW28273   4.899   4.337   0.323
 9125SOL    HW128274   4.847   4.363   0.404
 9125SOL    HW228275   4.855   4.260   0.279
 9126SOL     OW28276   6.039   3.360   1.252
 9126SOL    HW128277   5.949   3.325   1.278
 9126SOL    HW228278   6.107   3.331   1.318
 9127SOL     OW28279   6.648   1.325   6.438
 9127SOL    HW128280   6.724   1.389   6.426
 9127SOL    HW228281   6.653   1.283   6.528
 9128SOL     OW28282   6.006   2.609   5.248
 9128SOL    HW128283   5.918   2.564   5.237
 9128SOL    HW228284   6.065   2.551   5.305
 9129SOL     OW28285   0.368   2.956   6.961
 9129SOL    HW128286   0.454   2.994   6.996
 9129SOL    HW228287   0.299   3.029   6.958
 9130SOL     OW28288   0.428   2.805   6.064
 9130SOL    HW128289   0.420   2.737   6.137
 9130SOL    HW228290   0.479   2.884   6.098
 9131SOL     OW28291   5.400   2.707   6.048
 9131SOL    HW128292   5.481   2.670   6.003
 9131SOL    HW228293   5.412   2.702   6.147
 9132SOL     OW28294   0.440   5.097   4.512
 9132SOL    HW128295   0.401   5.139   4.430
 9132SOL    HW228296   0.508   5.159   4.551
 9133SOL     OW28297   4.168   6.206   1.495
 9133SOL    HW128298   4.183   6.305   1.497
 9133SOL    HW228299   4.178   6.172   1.402
 9134SOL     OW28300   3.865   5.679   1.577
 9134SOL    HW128301   3.766   5.690   1.578
 9134SOL    HW228302   3.909   5.766   1.599
 9135SOL     OW28303   6.577   0.275   1.600
 9135SOL    HW128304   6.509   0.207   1.573
 9135SOL    HW228305   6.611   0.254   1.692
 9136SOL     OW28306   5.237   6.334   0.032
 9136SOL    HW128307   5.214   6.248   7.010
 9136SOL    HW228308   5.226   6.410   6.993
 9137SOL     OW28309   5.017   1.135   0.483
 9137SOL    HW128310   4.988   1.167   0.393
 9137SOL    HW228311   5.117   1.134   0.488
 9138SOL     OW28312   0.311   5.512   6.673
 9138SOL    HW128313   0.277   5.444   6.737
 9138SOL    HW228314   0.237   5.544   6.614
 9139SOL     OW28315   1.870   2.316   3.318
 9139SOL    HW128316   1.829   2.240   3.269
 9139SOL    HW228317   1.912   2.379   3.253
 9140SOL     OW28318   6.935   3.577   2.273
 9140SOL    HW128319   6.888   3.661   2.245
 9140SOL    HW228320   6.878   3.527   2.339
 9141SOL     OW28321   5.661   6.771   1.400
 9141SOL    HW128322   5.664   6.767   1.500
 9141SOL    HW228323   5.706   6.690   1.362
 9142SOL     OW28324   0.981   3.389   1.011
 9142SOL    HW128325   1.077   3.361   1.008
 9142SOL    HW228326   0.923   3.307   1.013
 9143SOL     OW28327   6.348   2.698   0.050
 9143SOL    HW128328   6.392   2.730   0.134
 9143SOL    HW228329   6.400   2.623   0.011
 9144SOL     OW28330   2.476   4.826   5.015
 9144SOL    HW128331   2.379   4.801   5.016
 9144SOL    HW228332   2.529   4.758   5.065
 9145SOL     OW28333   0.443   5.560   0.119
 9145SOL    HW128334   0.539   5.585   0.106
 9145SOL    HW228335   0.388   5.601   0.047
 9146SOL     OW28336   5.172   3.239   3.574
 9146SOL    HW128337   5.269   3.250   3.595
 9146SOL    HW228338   5.134   3.326   3.542
 9147SOL     OW28339   5.681   0.155   5.190
 9147SOL    HW128340   5.640   0.096   5.121
 9147SOL    HW228341   5.673   0.111   5.280
 9148SOL     OW28342   5.022   6.044   2.506
 9148SOL    HW128343   5.075   6.019   2.425
 9148SOL    HW228344   5.024   5.969   2.572
 9149SOL     OW28345   5.058   3.570   2.627
 9149SOL    HW128346   4.984   3.602   2.568
 9149SOL    HW228347   5.087   3.479   2.598
 9150SOL     OW28348   3.145   5.352   1.239
 9150SOL    HW128349   3.099   5.368   1.152
 9150SOL    HW228350   3.098   5.280   1.289
 9151SOL     OW28351   1.208   4.304   3.466
 9151SOL    HW128352   1.231   4.385   3.412
 9151SOL    HW228353   1.161   4.237   3.409
 9152SOL     OW28354   2.291   4.141   4.256
 9152SOL    HW128355   2.254   4.109   4.343
 9152SOL    HW228356   2.367   4.081   4.228
 9153SOL     OW28357   0.717   3.087   0.462
 9153SOL    HW128358   0.754   3.127   0.378
 9153SOL    HW228359   0.653   3.013   0.438
 9154SOL     OW28360   5.760   4.717   5.179
 9154SOL    HW128361   5.850   4.754   5.157
 9154SOL    HW228362   5.712   4.781   5.239
 9155SOL     OW28363   1.662   4.416   2.498
 9155SOL    HW128364   1.722   4.347   2.539
 9155SOL    HW228365   1.590   4.370   2.445
 9156SOL     OW28366   0.566   2.049   0.676
 9156SOL    HW128367   0.521   2.039   0.764
 9156SOL    HW228368   0.551   2.142   0.641
 9157SOL     OW28369   2.686   4.166   6.935
 9157SOL    HW128370   2.602   4.206   6.896
 9157SOL    HW228371   2.662   4.105   7.010
 9158SOL     OW28372   6.575   4.093   4.706
 9158SOL    HW128373   6.634   4.155   4.654
 9158SOL    HW228374   6.490   4.140   4.730
 9159SOL     OW28375   1.395   0.392   2.867
 9159SOL    HW128376   1.357   0.379   2.958
 9159SOL    HW228377   1.468   0.326   2.851
 9160SOL     OW28378   0.445   6.244   5.941
 9160SOL    HW128379   0.484   6.157   5.910
 9160SOL    HW228380   0.352   6.253   5.907
 9161SOL     OW28381   5.645   5.386   3.239
 9161SOL    HW128382   5.598   5.301   3.264
 9161SOL    HW228383   5.732   5.364   3.195
 9162SOL     OW28384   4.210   0.561   3.268
 9162SOL    HW128385   4.122   0.523   3.299
 9162SOL    HW228386   4.194   0.650   3.226
 9163SOL     OW28387   6.808   2.603   4.287
 9163SOL    HW128388   6.812   2.696   4.324
 9163SOL    HW228389   6.764   2.542   4.353
 9164SOL     OW28390   1.983   0.824   6.963
 9164SOL    HW128391   1.892   0.783   6.974
 9164SOL    HW228392   1.974   0.916   6.927
 9165SOL     OW28393   5.732   1.595   6.214
 9165SOL    HW128394   5.691   1.626   6.299
 9165SOL    HW228395   5.739   1.495   6.214
 9166SOL     OW28396   4.407   5.516   0.746
 9166SOL    HW128397   4.375   5.497   0.653
 9166SOL    HW228398   4.399   5.434   0.802
 9167SOL     OW28399   2.087   2.130   5.937
 9167SOL    HW128400   2.111   2.198   5.867
 9167SOL    HW228401   2.040   2.053   5.894
 9168SOL     OW28402   6.766   6.197   6.798
 9168SOL    HW128403   6.768   6.205   6.698
 9168SOL    HW228404   6.831   6.127   6.827
 9169SOL     OW28405   6.910   6.697   6.616
 9169SOL    HW128406   6.849   6.732   6.687
 9169SOL    HW228407   6.959   6.774   6.574
 9170SOL     OW28408   2.011   0.336   6.647
 9170SOL    HW128409   2.005   0.359   6.550
 9170SOL    HW228410   1.922   0.350   6.690
 9171SOL     OW28411   3.550   6.199   0.734
 9171SOL    HW128412   3.484   6.178   0.805
 9171SOL    HW228413   3.572   6.117   0.682
 9172SOL     OW28414   4.990   1.105   3.917
 9172SOL    HW128415   4.958   1.129   3.825
 9172SOL    HW228416   4.931   1.148   3.985
 9173SOL     OW28417   6.267   4.164   5.258
 9173SOL    HW128418   6.218   4.237   5.211
 9173SOL    HW228419   6.275   4.186   5.355
 9174SOL     OW28420   0.625   5.499   0.511
 9174SOL    HW128421   0.675   5.416   0.488
 9174SOL    HW228422   0.659   5.575   0.457
 9175SOL     OW28423   1.170   6.965   6.483
 9175SOL    HW128424   1.163   0.004   6.406
 9175SOL    HW228425   1.131   7.007   6.565
 9176SOL     OW28426   3.168   0.294   1.924
 9176SOL    HW128427   3.234   0.364   1.897
 9176SOL    HW228428   3.102   0.279   1.850
 9177SOL     OW28429   1.012   3.505   4.349
 9177SOL    HW128430   0.918   3.471   4.350
 9177SOL    HW228431   1.028   3.555   4.263
 9178SOL     OW28432   1.977   5.058   6.724
 9178SOL    HW128433   1.984   4.998   6.644
 9178SOL    HW228434   2.004   5.008   6.806
 9179SOL     OW28435   1.609   5.470   4.273
 9179SOL    HW128436   1.655   5.392   4.230
 9179SOL    HW228437   1.645   5.555   4.236
 9180SOL     OW28438   5.985   2.528   3.218
 9180SOL    HW128439   5.952   2.458   3.155
 9180SOL    HW228440   5.908   2.586   3.246
 9181SOL     OW28441   6.082   2.438   4.450
 9181SOL    HW128442   6.045   2.364   4.505
 9181SOL    HW228443   6.054   2.526   4.489
 9182SOL     OW28444   2.533   0.072   3.288
 9182SOL    HW128445   2.484   7.013   3.266
 9182SOL    HW228446   2.628   0.064   3.259
 9183SOL     OW28447   4.567   4.642   6.327
 9183SOL    HW128448   4.527   4.585   6.399
 9183SOL    HW228449   4.652   4.682   6.360
 9184SOL     OW28450   4.344   2.355   1.017
 9184SOL    HW128451   4.297   2.330   0.932
 9184SOL    HW228452   4.414   2.423   0.997
 9185SOL     OW28453   6.928   6.676   4.736
 9185SOL    HW128454   6.962   6.739   4.667
 9185SOL    HW228455   6.944   6.714   4.827
 9186SOL     OW28456   5.288   0.303   4.945
 9186SOL    HW128457   5.344   0.273   4.867
 9186SOL    HW228458   5.339   0.287   5.030
 9187SOL     OW28459   3.943   1.947   0.120
 9187SOL    HW128460   3.882   1.887   0.067
 9187SOL    HW228461   3.951   1.912   0.213
 9188SOL     OW28462   2.095   0.583   1.337
 9188SOL    HW128463   2.079   0.626   1.249
 9188SOL    HW228464   2.066   0.645   1.410
 9189SOL     OW28465   3.479   6.154   2.339
 9189SOL    HW128466   3.423   6.073   2.355
 9189SOL    HW228467   3.526   6.144   2.251
 9190SOL     OW28468   0.435   3.305   5.660
 9190SOL    HW128469   0.390   3.388   5.694
 9190SOL    HW228470   0.377   3.226   5.680
 9191SOL     OW28471   5.868   0.983   6.605
 9191SOL    HW128472   5.888   1.022   6.695
 9191SOL    HW228473   5.787   0.924   6.612
 9192SOL     OW28474   6.799   2.240   6.386
 9192SOL    HW128475   6.704   2.223   6.359
 9192SOL    HW228476   6.837   2.313   6.331
 9193SOL     OW28477   4.081   3.466   4.900
 9193SOL    HW128478   4.174   3.435   4.877
 9193SOL    HW228479   4.014   3.412   4.850
 9194SOL     OW28480   2.787   0.059   2.526
 9194SOL    HW128481   2.735   0.140   2.554
 9194SOL    HW228482   2.725   7.017   2.485
 9195SOL     OW28483   1.838   3.386   2.854
 9195SOL    HW128484   1.862   3.291   2.836
 9195SOL    HW228485   1.741   3.400   2.835
 9196SOL     OW28486   5.042   6.541   3.738
 9196SOL    HW128487   5.001   6.632   3.733
 9196SOL    HW228488   5.120   6.536   3.676
 9197SOL     OW28489   3.405   5.250   1.170
 9197SOL    HW128490   3.308   5.244   1.193
 9197SOL    HW228491   3.456   5.181   1.221
 9198SOL     OW28492   6.100   4.001   0.127
 9198SOL    HW128493   6.127   3.990   0.222
 9198SOL    HW228494   6.012   4.049   0.122
 9199SOL     OW28495   0.456   2.595   5.857
 9199SOL    HW128496   0.554   2.579   5.858
 9199SOL    HW228497   0.432   2.657   5.932
 9200SOL     OW28498   2.548   6.073   5.889
 9200SOL    HW128499   2.638   6.118   5.895
 9200SOL    HW228500   2.559   5.983   5.846
 9201SOL     OW28501   0.361   3.152   0.363
 9201SOL    HW128502   0.365   3.074   0.300
 9201SOL    HW228503   0.318   3.124   0.449
 9202SOL     OW28504   0.783   5.506   3.699
 9202SOL    HW128505   0.725   5.425   3.699
 9202SOL    HW228506   0.857   5.494   3.765
 9203SOL     OW28507   6.101   3.175   6.275
 9203SOL    HW128508   6.013   3.179   6.323
 9203SOL    HW228509   6.175   3.194   6.340
 9204SOL     OW28510   5.079   3.689   4.220
 9204SOL    HW128511   5.066   3.760   4.289
 9204SOL    HW228512   5.059   3.599   4.260
 9205SOL     OW28513   4.965   5.861   3.330
 9205SOL    HW128514   4.953   5.816   3.242
 9205SOL    HW228515   4.916   5.949   3.329
 9206SOL     OW28516   2.940   6.793   3.461
 9206SOL    HW128517   2.900   6.859   3.397
 9206SOL    HW228518   2.959   6.839   3.548
 9207SOL     OW28519   3.818   4.982   0.008
 9207SOL    HW128520   3.902   4.948   6.990
 9207SOL    HW228521   3.742   4.976   6.968
 9208SOL     OW28522   5.728   3.754   2.094
 9208SOL    HW128523   5.823   3.725   2.086
 9208SOL    HW228524   5.696   3.738   2.188
 9209SOL     OW28525   4.661   0.416   1.426
 9209SOL    HW128526   4.756   0.435   1.452
 9209SOL    HW228527   4.627   0.337   1.479
 9210SOL     OW28528   0.736   0.917   1.357
 9210SOL    HW128529   0.791   0.838   1.330
 9210SOL    HW228530   0.675   0.891   1.431
 9211SOL     OW28531   5.617   3.362   6.580
 9211SOL    HW128532   5.551   3.361   6.656
 9211SOL    HW228533   5.698   3.311   6.606
 9212SOL     OW28534   4.822   4.456   4.338
 9212SOL    HW128535   4.771   4.380   4.380
 9212SOL    HW228536   4.810   4.538   4.394
 9213SOL     OW28537   4.600   5.837   4.637
 9213SOL    HW128538   4.644   5.893   4.707
 9213SOL    HW228539   4.593   5.889   4.551
 9214SOL     OW28540   0.058   2.708   5.155
 9214SOL    HW128541   0.061   2.611   5.135
 9214SOL    HW228542   6.987   2.739   5.158
 9215SOL     OW28543   1.279   4.413   2.875
 9215SOL    HW128544   1.186   4.444   2.892
 9215SOL    HW228545   1.294   4.407   2.776
 9216SOL     OW28546   2.394   6.692   3.561
 9216SOL    HW128547   2.477   6.707   3.615
 9216SOL    HW228548   2.418   6.646   3.476
 9217SOL     OW28549   6.209   2.300   0.235
 9217SOL    HW128550   6.158   2.300   0.149
 9217SOL    HW228551   6.160   2.353   0.303
 9218SOL     OW28552   4.415   0.451   7.019
 9218SOL    HW128553   4.322   0.488   7.014
 9218SOL    HW228554   4.481   0.524   7.007
 9219SOL     OW28555   4.699   3.544   6.254
 9219SOL    HW128556   4.678   3.627   6.306
 9219SOL    HW228557   4.614   3.497   6.232
 9220SOL     OW28558   1.204   6.704   2.423
 9220SOL    HW128559   1.177   6.607   2.423
 9220SOL    HW228560   1.182   6.745   2.335
 9221SOL     OW28561   2.618   0.027   3.731
 9221SOL    HW128562   2.595   0.094   3.660
 9221SOL    HW228563   2.554   0.037   3.807
 9222SOL     OW28564   2.656   5.651   4.989
 9222SOL    HW128565   2.641   5.741   4.947
 9222SOL    HW228566   2.720   5.599   4.933
 9223SOL     OW28567   1.426   3.128   4.022
 9223SOL    HW128568   1.423   3.193   3.946
 9223SOL    HW228569   1.512   3.077   4.019
 9224SOL     OW28570   1.388   4.728   3.679
 9224SOL    HW128571   1.382   4.725   3.779
 9224SOL    HW228572   1.430   4.645   3.645
 9225SOL     OW28573   3.444   6.306   5.804
 9225SOL    HW128574   3.542   6.304   5.785
 9225SOL    HW228575   3.428   6.354   5.890
 9226SOL     OW28576   0.364   6.705   1.271
 9226SOL    HW128577   0.399   6.625   1.319
 9226SOL    HW228578   0.388   6.788   1.323
 9227SOL     OW28579   2.011   6.333   1.484
 9227SOL    HW128580   2.009   6.384   1.570
 9227SOL    HW228581   1.983   6.394   1.409
 9228SOL     OW28582   2.179   2.306   0.280
 9228SOL    HW128583   2.128   2.221   0.269
 9228SOL    HW228584   2.139   2.377   0.223
 9229SOL     OW28585   1.050   4.588   5.696
 9229SOL    HW128586   1.095   4.622   5.614
 9229SOL    HW228587   1.002   4.664   5.741
 9230SOL     OW28588   4.843   2.982   3.228
 9230SOL    HW128589   4.885   3.062   3.270
 9230SOL    HW228590   4.817   3.003   3.134
 9231SOL     OW28591   1.616   2.835   5.366
 9231SOL    HW128592   1.638   2.931   5.387
 9231SOL    HW228593   1.700   2.782   5.361
 9232SOL     OW28594   2.859   5.421   0.217
 9232SOL    HW128595   2.906   5.398   0.132
 9232SOL    HW228596   2.879   5.351   0.286
 9233SOL     OW28597   7.005   6.530   0.904
 9233SOL    HW128598   0.030   6.458   0.855
 9233SOL    HW228599   6.925   6.558   0.851
 9234SOL     OW28600   2.818   5.787   0.823
 9234SOL    HW128601   2.747   5.782   0.893
 9234SOL    HW228602   2.837   5.696   0.788
 9235SOL     OW28603   1.917   2.864   2.993
 9235SOL    HW128604   2.014   2.885   2.980
 9235SOL    HW228605   1.863   2.907   2.922
 9236SOL     OW28606   1.679   3.884   0.457
 9236SOL    HW128607   1.612   3.906   0.386
 9236SOL    HW228608   1.660   3.794   0.495
 9237SOL     OW28609   0.307   5.586   2.881
 9237SOL    HW128610   0.284   5.559   2.974
 9237SOL    HW228611   0.254   5.667   2.855
 9238SOL     OW28612   2.654   2.955   6.225
 9238SOL    HW128613   2.749   2.985   6.223
 9238SOL    HW228614   2.600   3.019   6.280
 9239SOL     OW28615   0.035   4.394   6.144
 9239SOL    HW128616   0.060   4.487   6.170
 9239SOL    HW228617   0.112   4.349   6.100
 9240SOL     OW28618   4.851   2.856   1.820
 9240SOL    HW128619   4.802   2.933   1.861
 9240SOL    HW228620   4.945   2.883   1.799
 9241SOL     OW28621   0.319   5.026   0.270
 9241SOL    HW128622   0.255   5.041   0.345
 9241SOL    HW228623   0.320   4.929   0.246
 9242SOL     OW28624   1.475   3.948   1.303
 9242SOL    HW128625   1.495   3.986   1.394
 9242SOL    HW228626   1.404   4.002   1.259
 9243SOL     OW28627   6.659   0.514   1.464
 9243SOL    HW128628   6.668   0.592   1.525
 9243SOL    HW228629   6.627   0.435   1.516
 9244SOL     OW28630   2.925   5.645   5.918
 9244SOL    HW128631   2.969   5.734   5.930
 9244SOL    HW228632   2.899   5.634   5.822
 9245SOL     OW28633   0.839   5.071   3.756
 9245SOL    HW128634   0.914   5.111   3.704
 9245SOL    HW228635   0.875   5.004   3.821
 9246SOL     OW28636   5.908   0.275   2.825
 9246SOL    HW128637   5.924   0.261   2.728
 9246SOL    HW228638   5.810   0.280   2.844
 9247SOL     OW28639   2.415   6.111   3.046
 9247SOL    HW128640   2.371   6.023   3.061
 9247SOL    HW228641   2.504   6.098   3.003
 9248SOL     OW28642   2.973   1.891   4.310
 9248SOL    HW128643   2.928   1.803   4.324
 9248SOL    HW228644   2.943   1.931   4.223
 9249SOL     OW28645   4.204   4.799   1.304
 9249SOL    HW128646   4.184   4.740   1.383
 9249SOL    HW228647   4.147   4.881   1.308
 9250SOL     OW28648   5.800   3.303   4.595
 9250SOL    HW128649   5.821   3.380   4.535
 9250SOL    HW228650   5.884   3.255   4.618
 9251SOL     OW28651   4.132   1.661   2.494
 9251SOL    HW128652   4.199   1.613   2.550
 9251SOL    HW228653   4.176   1.737   2.446
 9252SOL     OW28654   5.605   0.807   4.560
 9252SOL    HW128655   5.607   0.735   4.491
 9252SOL    HW228656   5.582   0.767   4.649
 9253SOL     OW28657   5.607   5.042   5.651
 9253SOL    HW128658   5.524   5.024   5.598
 9253SOL    HW228659   5.639   5.135   5.633
 9254SOL     OW28660   4.615   4.918   3.379
 9254SOL    HW128661   4.616   4.961   3.469
 9254SOL    HW228662   4.539   4.953   3.325
 9255SOL     OW28663   4.898   3.883   6.782
 9255SOL    HW128664   4.799   3.871   6.796
 9255SOL    HW228665   4.929   3.822   6.709
 9256SOL     OW28666   2.779   0.683   2.550
 9256SOL    HW128667   2.765   0.696   2.648
 9256SOL    HW228668   2.714   0.615   2.516
 9257SOL     OW28669   6.412   5.300   3.170
 9257SOL    HW128670   6.448   5.222   3.118
 9257SOL    HW228671   6.466   5.381   3.150
 9258SOL     OW28672   4.061   3.039   1.872
 9258SOL    HW128673   4.115   3.037   1.955
 9258SOL    HW228674   4.120   3.061   1.794
 9259SOL     OW28675   0.576   1.795   0.882
 9259SOL    HW128676   0.553   1.886   0.914
 9259SOL    HW228677   0.526   1.775   0.797
 9260SOL     OW28678   5.825   1.943   5.362
 9260SOL    HW128679   5.726   1.947   5.348
 9260SOL    HW228680   5.863   2.035   5.363
 9261SOL     OW28681   4.008   1.075   0.270
 9261SOL    HW128682   4.015   0.977   0.251
 9261SOL    HW228683   3.912   1.101   0.277
 9262SOL     OW28684   0.199   5.692   5.008
 9262SOL    HW128685   0.198   5.727   5.102
 9262SOL    HW228686   0.286   5.646   4.990
 9263SOL     OW28687   3.646   6.477   2.533
 9263SOL    HW128688   3.582   6.547   2.565
 9263SOL    HW228689   3.596   6.403   2.488
 9264SOL     OW28690   4.888   4.033   0.906
 9264SOL    HW128691   4.898   4.037   0.807
 9264SOL    HW228692   4.900   4.124   0.945
 9265SOL     OW28693   3.505   2.320   0.036
 9265SOL    HW128694   3.580   2.253   0.032
 9265SOL    HW228695   3.437   2.297   6.991
 9266SOL     OW28696   1.239   6.030   0.798
 9266SOL    HW128697   1.291   5.948   0.774
 9266SOL    HW228698   1.218   6.081   0.715
 9267SOL     OW28699   0.103   1.767   4.679
 9267SOL    HW128700   0.106   1.746   4.582
 9267SOL    HW228701   0.027   1.828   4.699
 9268SOL     OW28702   1.576   6.991   2.531
 9268SOL    HW128703   1.566   0.054   2.484
 9268SOL    HW228704   1.489   6.941   2.526
 9269SOL     OW28705   4.781   0.993   6.546
 9269SOL    HW128706   4.833   1.073   6.574
 9269SOL    HW228707   4.828   0.947   6.470
 9270SOL     OW28708   4.519   6.569   6.339
 9270SOL    HW128709   4.559   6.654   6.373
 9270SOL    HW228710   4.538   6.495   6.403
 9271SOL     OW28711   6.161   0.172   0.727
 9271SOL    HW128712   6.067   0.196   0.705
 9271SOL    HW228713   6.172   0.073   0.726
 9272SOL     OW28714   1.288   5.575   5.808
 9272SOL    HW128715   1.356   5.503   5.795
 9272SOL    HW228716   1.254   5.573   5.902
 9273SOL     OW28717   5.906   5.867   3.046
 9273SOL    HW128718   5.972   5.792   3.044
 9273SOL    HW228719   5.816   5.832   3.017
 9274SOL     OW28720   6.885   1.564   0.410
 9274SOL    HW128721   6.807   1.618   0.441
 9274SOL    HW228722   6.958   1.570   0.477
 9275SOL     OW28723   6.638   0.609   6.932
 9275SOL    HW128724   6.608   0.540   6.866
 9275SOL    HW228725   6.576   0.688   6.928
 9276SOL     OW28726   2.170   4.628   1.154
 9276SOL    HW128727   2.083   4.676   1.148
 9276SOL    HW228728   2.245   4.694   1.145
 9277SOL     OW28729   4.606   4.315   1.635
 9277SOL    HW128730   4.578   4.403   1.595
 9277SOL    HW228731   4.573   4.309   1.729
 9278SOL     OW28732   1.792   6.944   5.579
 9278SOL    HW128733   1.761   6.855   5.547
 9278SOL    HW228734   1.850   6.987   5.510
 9279SOL     OW28735   3.152   0.082   1.447
 9279SOL    HW128736   3.194   0.000   1.487
 9279SOL    HW228737   3.057   0.087   1.476
 9280SOL     OW28738   2.252   2.238   2.210
 9280SOL    HW128739   2.244   2.271   2.305
 9280SOL    HW228740   2.257   2.138   2.210
 9281SOL     OW28741   3.156   4.096   6.695
 9281SOL    HW128742   3.076   4.047   6.728
 9281SOL    HW228743   3.217   4.033   6.647
 9282SOL     OW28744   5.223   1.454   3.349
 9282SOL    HW128745   5.199   1.498   3.435
 9282SOL    HW228746   5.317   1.476   3.326
 9283SOL     OW28747   4.846   0.370   4.224
 9283SOL    HW128748   4.800   0.458   4.212
 9283SOL    HW228749   4.945   0.383   4.221
 9284SOL     OW28750   2.967   2.899   5.458
 9284SOL    HW128751   2.929   2.974   5.512
 9284SOL    HW228752   2.897   2.830   5.443
 9285SOL     OW28753   5.147   3.395   1.475
 9285SOL    HW128754   5.200   3.461   1.528
 9285SOL    HW228755   5.068   3.440   1.434
 9286SOL     OW28756   5.480   5.687   0.958
 9286SOL    HW128757   5.443   5.651   0.872
 9286SOL    HW228758   5.518   5.778   0.942
 9287SOL     OW28759   3.581   5.059   6.609
 9287SOL    HW128760   3.543   5.005   6.534
 9287SOL    HW228761   3.570   5.010   6.695
 9288SOL     OW28762   4.541   1.389   2.681
 9288SOL    HW128763   4.617   1.382   2.746
 9288SOL    HW228764   4.550   1.472   2.627
 9289SOL     OW28765   4.560   0.221   1.597
 9289SOL    HW128766   4.563   0.142   1.536
 9289SOL    HW228767   4.467   0.230   1.633
 9290SOL     OW28768   5.228   0.848   3.731
 9290SOL    HW128769   5.167   0.903   3.674
 9290SOL    HW228770   5.303   0.813   3.675
 9291SOL     OW28771   1.243   5.251   5.689
 9291SOL    HW128772   1.209   5.259   5.596
 9291SOL    HW228773   1.328   5.303   5.698
 9292SOL     OW28774   2.256   2.687   6.107
 9292SOL    HW128775   2.248   2.744   6.188
 9292SOL    HW228776   2.166   2.649   6.083
 9293SOL     OW28777   6.424   3.499   6.548
 9293SOL    HW128778   6.375   3.483   6.462
 9293SOL    HW228779   6.370   3.463   6.624
 9294SOL     OW28780   5.283   0.742   6.131
 9294SOL    HW128781   5.228   0.814   6.173
 9294SOL    HW228782   5.255   0.729   6.036
 9295SOL     OW28783   5.045   0.560   5.517
 9295SOL    HW128784   5.126   0.605   5.480
 9295SOL    HW228785   4.997   0.511   5.444
 9296SOL     OW28786   2.013   5.356   6.782
 9296SOL    HW128787   2.027   5.443   6.830
 9296SOL    HW228788   1.967   5.291   6.843
 9297SOL     OW28789   1.023   6.767   2.938
 9297SOL    HW128790   0.948   6.797   2.879
 9297SOL    HW228791   1.089   6.715   2.884
 9298SOL     OW28792   0.989   6.524   6.668
 9298SOL    HW128793   1.043   6.587   6.612
 9298SOL    HW228794   1.031   6.517   6.759
 9299SOL     OW28795   0.413   2.051   3.966
 9299SOL    HW128796   0.476   2.127   3.950
 9299SOL    HW228797   0.346   2.078   4.035
 9300SOL     OW28798   0.698   4.610   6.018
 9300SOL    HW128799   0.652   4.524   5.998
 9300SOL    HW228800   0.797   4.597   6.011
 9301SOL     OW28801   5.439   5.345   4.514
 9301SOL    HW128802   5.415   5.427   4.566
 9301SOL    HW228803   5.526   5.309   4.546
 9302SOL     OW28804   2.070   3.494   3.953
 9302SOL    HW128805   2.017   3.517   4.034
 9302SOL    HW228806   2.122   3.410   3.970
 9303SOL     OW28807   3.371   3.950   0.539
 9303SOL    HW128808   3.357   3.941   0.441
 9303SOL    HW228809   3.306   4.018   0.576
 9304SOL     OW28810   4.342   4.559   1.084
 9304SOL    HW128811   4.360   4.561   1.182
 9304SOL    HW228812   4.324   4.652   1.052
 9305SOL     OW28813   3.854   1.003   0.831
 9305SOL    HW128814   3.953   1.010   0.827
 9305SOL    HW228815   3.825   0.990   0.926
 9306SOL     OW28816   0.972   3.627   5.545
 9306SOL    HW128817   1.040   3.574   5.495
 9306SOL    HW228818   0.882   3.614   5.503
 9307SOL     OW28819   1.372   4.231   0.936
 9307SOL    HW128820   1.338   4.282   0.858
 9307SOL    HW228821   1.362   4.286   1.019
 9308SOL     OW28822   1.699   3.504   1.554
 9308SOL    HW128823   1.664   3.598   1.553
 9308SOL    HW228824   1.636   3.444   1.505
 9309SOL     OW28825   3.276   5.537   5.969
 9309SOL    HW128826   3.288   5.441   5.992
 9309SOL    HW228827   3.329   5.594   6.032
 9310SOL     OW28828   5.835   5.641   5.759
 9310SOL    HW128829   5.747   5.690   5.760
 9310SOL    HW228830   5.854   5.603   5.849
 9311SOL     OW28831   4.947   4.641   0.962
 9311SOL    HW128832   4.898   4.631   0.876
 9311SOL    HW228833   5.004   4.560   0.978
 9312SOL     OW28834   1.548   3.028   1.042
 9312SOL    HW128835   1.547   3.120   1.081
 9312SOL    HW228836   1.491   3.026   0.960
 9313SOL     OW28837   7.019   0.400   1.425
 9313SOL    HW128838   6.984   0.309   1.449
 9313SOL    HW228839   7.002   0.463   1.501
 9314SOL     OW28840   6.649   3.430   6.776
 9314SOL    HW128841   6.705   3.513   6.773
 9314SOL    HW228842   6.575   3.438   6.709
 9315SOL     OW28843   6.818   0.103   5.638
 9315SOL    HW128844   6.842   0.151   5.722
 9315SOL    HW228845   6.810   0.169   5.563
 9316SOL     OW28846   6.121   6.101   5.460
 9316SOL    HW128847   6.169   6.015   5.479
 9316SOL    HW228848   6.024   6.090   5.482
 9317SOL     OW28849   4.619   5.735   4.149
 9317SOL    HW128850   4.585   5.829   4.149
 9317SOL    HW228851   4.701   5.729   4.092
 9318SOL     OW28852   6.559   0.421   6.767
 9318SOL    HW128853   6.490   0.363   6.811
 9318SOL    HW228854   6.553   0.411   6.668
 9319SOL     OW28855   2.452   3.060   1.101
 9319SOL    HW128856   2.504   3.091   1.181
 9319SOL    HW228857   2.372   3.007   1.131
 9320SOL     OW28858   4.050   0.546   5.524
 9320SOL    HW128859   4.020   0.483   5.595
 9320SOL    HW228860   4.132   0.510   5.479
 9321SOL     OW28861   0.973   0.385   4.677
 9321SOL    HW128862   0.922   0.301   4.696
 9321SOL    HW228863   0.948   0.455   4.744
 9322SOL     OW28864   0.212   3.954   6.781
 9322SOL    HW128865   0.308   3.952   6.756
 9322SOL    HW228866   0.185   3.866   6.820
 9323SOL     OW28867   1.041   1.050   4.765
 9323SOL    HW128868   0.943   1.039   4.750
 9323SOL    HW228869   1.076   1.124   4.707
 9324SOL     OW28870   2.001   4.121   2.202
 9324SOL    HW128871   1.967   4.141   2.293
 9324SOL    HW228872   1.941   4.054   2.158
 9325SOL     OW28873   6.711   0.099   6.715
 9325SOL    HW128874   6.632   0.160   6.723
 9325SOL    HW228875   6.714   0.060   6.623
 9326SOL     OW28876   2.898   4.931   0.044
 9326SOL    HW128877   2.846   4.849   0.017
 9326SOL    HW228878   2.961   4.907   0.118
 9327SOL     OW28879   4.240   6.991   2.377
 9327SOL    HW128880   4.334   6.971   2.352
 9327SOL    HW228881   4.231   0.062   2.403
 9328SOL     OW28882   2.170   0.755   4.474
 9328SOL    HW128883   2.197   0.829   4.535
 9328SOL    HW228884   2.078   0.773   4.439
 9329SOL     OW28885   6.026   4.160   0.897
 9329SOL    HW128886   6.125   4.164   0.882
 9329SOL    HW228887   5.979   4.187   0.813
 9330SOL     OW28888   6.590   0.558   5.684
 9330SOL    HW128889   6.647   0.564   5.766
 9330SOL    HW228890   6.561   0.463   5.670
 9331SOL     OW28891   2.663   1.253   6.522
 9331SOL    HW128892   2.603   1.254   6.441
 9331SOL    HW228893   2.665   1.161   6.560
 9332SOL     OW28894   3.435   5.104   0.432
 9332SOL    HW128895   3.393   5.148   0.511
 9332SOL    HW228896   3.363   5.066   0.373
 9333SOL     OW28897   3.320   5.392   6.648
 9333SOL    HW128898   3.383   5.418   6.574
 9333SOL    HW228899   3.242   5.344   6.610
 9334SOL     OW28900   4.389   6.635   5.324
 9334SOL    HW128901   4.442   6.552   5.336
 9334SOL    HW228902   4.431   6.692   5.253
 9335SOL     OW28903   1.532   1.243   6.535
 9335SOL    HW128904   1.591   1.320   6.558
 9335SOL    HW228905   1.485   1.262   6.449
 9336SOL     OW28906   4.379   6.925   4.538
 9336SOL    HW128907   4.416   6.869   4.612
 9336SOL    HW228908   4.364   7.018   4.571
 9337SOL     OW28909   4.432   1.030   5.524
 9337SOL    HW128910   4.463   0.965   5.455
 9337SOL    HW228911   4.373   0.983   5.590
 9338SOL     OW28912   6.123   0.116   1.240
 9338SOL    HW128913   6.174   0.161   1.313
 9338SOL    HW228914   6.147   0.157   1.152
 9339SOL     OW28915   6.298   6.157   0.305
 9339SOL    HW128916   6.366   6.202   0.363
 9339SOL    HW228917   6.298   6.200   0.215
 9340SOL     OW28918   3.701   4.852   3.177
 9340SOL    HW128919   3.703   4.951   3.187
 9340SOL    HW228920   3.631   4.814   3.237
 9341SOL     OW28921   5.401   4.970   1.154
 9341SOL    HW128922   5.434   5.043   1.094
 9341SOL    HW228923   5.479   4.922   1.194
 9342SOL     OW28924   2.596   6.984   4.485
 9342SOL    HW128925   2.591   6.951   4.580
 9342SOL    HW228926   2.587   6.906   4.423
 9343SOL     OW28927   4.680   4.248   2.228
 9343SOL    HW128928   4.632   4.319   2.279
 9343SOL    HW228929   4.637   4.237   2.138
 9344SOL     OW28930   5.345   6.243   1.658
 9344SOL    HW128931   5.432   6.268   1.616
 9344SOL    HW228932   5.274   6.306   1.628
 9345SOL     OW28933   6.341   5.145   1.158
 9345SOL    HW128934   6.260   5.090   1.181
 9345SOL    HW228935   6.334   5.234   1.203
 9346SOL     OW28936   4.549   0.469   2.086
 9346SOL    HW128937   4.569   0.405   2.011
 9346SOL    HW228938   4.626   0.471   2.149
 9347SOL     OW28939   3.053   5.849   0.585
 9347SOL    HW128940   3.076   5.848   0.682
 9347SOL    HW228941   2.969   5.902   0.572
 9348SOL     OW28942   2.953   5.653   3.088
 9348SOL    HW128943   2.916   5.727   3.031
 9348SOL    HW228944   3.052   5.646   3.074
 9349SOL     OW28945   6.429   4.939   2.183
 9349SOL    HW128946   6.428   4.951   2.282
 9349SOL    HW228947   6.345   4.893   2.154
 9350SOL     OW28948   6.651   1.770   4.950
 9350SOL    HW128949   6.571   1.810   4.905
 9350SOL    HW228950   6.695   1.839   5.007
 9351SOL     OW28951   3.501   6.638   6.180
 9351SOL    HW128952   3.585   6.585   6.187
 9351SOL    HW228953   3.514   6.712   6.113
 9352SOL     OW28954   3.770   2.281   6.578
 9352SOL    HW128955   3.857   2.233   6.592
 9352SOL    HW228956   3.787   2.365   6.527
 9353SOL     OW28957   1.291   4.728   1.470
 9353SOL    HW128958   1.274   4.689   1.561
 9353SOL    HW228959   1.360   4.674   1.423
 9354SOL     OW28960   0.263   1.874   6.126
 9354SOL    HW128961   0.346   1.842   6.080
 9354SOL    HW228962   0.248   1.819   6.209
 9355SOL     OW28963   0.395   1.546   4.436
 9355SOL    HW128964   0.429   1.459   4.399
 9355SOL    HW228965   0.302   1.532   4.470
 9356SOL     OW28966   4.823   6.082   1.997
 9356SOL    HW128967   4.796   5.991   2.030
 9356SOL    HW228968   4.824   6.083   1.898
 9357SOL     OW28969   2.320   3.713   6.508
 9357SOL    HW128970   2.369   3.640   6.554
 9357SOL    HW228971   2.384   3.780   6.472
 9358SOL     OW28972   6.202   2.916   2.547
 9358SOL    HW128973   6.103   2.925   2.557
 9358SOL    HW228974   6.238   2.998   2.503
 9359SOL     OW28975   0.723   3.522   5.427
 9359SOL    HW128976   0.659   3.475   5.366
 9359SOL    HW228977   0.721   3.479   5.517
 9360SOL     OW28978   1.573   5.863   6.690
 9360SOL    HW128979   1.638   5.811   6.746
 9360SOL    HW228980   1.526   5.801   6.628
 9361SOL     OW28981   1.186   6.346   3.081
 9361SOL    HW128982   1.273   6.394   3.094
 9361SOL    HW228983   1.114   6.412   3.063
 9362SOL     OW28984   2.162   3.138   2.681
 9362SOL    HW128985   2.081   3.194   2.699
 9362SOL    HW228986   2.236   3.195   2.646
 9363SOL     OW28987   4.315   6.613   2.215
 9363SOL    HW128988   4.251   6.688   2.231
 9363SOL    HW228989   4.403   6.649   2.184
 9364SOL     OW28990   3.839   2.886   6.182
 9364SOL    HW128991   3.907   2.937   6.235
 9364SOL    HW228992   3.850   2.788   6.199
 9365SOL     OW28993   2.221   2.167   4.257
 9365SOL    HW128994   2.276   2.238   4.300
 9365SOL    HW228995   2.281   2.093   4.226
 9366SOL     OW28996   3.460   6.262   6.771
 9366SOL    HW128997   3.483   6.167   6.753
 9366SOL    HW228998   3.482   6.318   6.691
 9367SOL     OW28999   6.545   6.424   2.061
 9367SOL    HW129000   6.535   6.479   2.143
 9367SOL    HW229001   6.610   6.350   2.078
 9368SOL     OW29002   3.030   1.344   3.476
 9368SOL    HW129003   2.935   1.364   3.451
 9368SOL    HW229004   3.043   1.360   3.573
 9369SOL     OW29005   6.621   6.766   4.795
 9369SOL    HW129006   6.650   6.810   4.879
 9369SOL    HW229007   6.625   6.666   4.806
 9370SOL     OW29008   4.953   0.672   2.540
 9370SOL    HW129009   4.952   0.714   2.449
 9370SOL    HW229010   4.976   0.575   2.531
 9371SOL     OW29011   2.360   4.930   0.497
 9371SOL    HW129012   2.460   4.929   0.497
 9371SOL    HW229013   2.325   4.837   0.486
 9372SOL     OW29014   5.131   6.045   2.817
 9372SOL    HW129015   5.032   6.054   2.827
 9372SOL    HW229016   5.176   6.125   2.856
 9373SOL     OW29017   4.644   2.178   2.469
 9373SOL    HW129018   4.587   2.096   2.477
 9373SOL    HW229019   4.722   2.171   2.531
 9374SOL     OW29020   0.726   3.820   0.213
 9374SOL    HW129021   0.636   3.792   0.245
 9374SOL    HW229022   0.720   3.911   0.172
 9375SOL     OW29023   0.213   1.446   2.590
 9375SOL    HW129024   0.228   1.456   2.689
 9375SOL    HW229025   0.301   1.448   2.543
 9376SOL     OW29026   2.595   4.612   1.327
 9376SOL    HW129027   2.571   4.665   1.408
 9376SOL    HW229028   2.541   4.528   1.325
 9377SOL     OW29029   2.385   5.212   4.195
 9377SOL    HW129030   2.305   5.211   4.255
 9377SOL    HW229031   2.409   5.118   4.170
 9378SOL     OW29032   1.842   1.214   4.772
 9378SOL    HW129033   1.851   1.151   4.849
 9378SOL    HW229034   1.761   1.191   4.719
 9379SOL     OW29035   4.048   5.603   5.612
 9379SOL    HW129036   4.143   5.573   5.603
 9379SOL    HW229037   4.041   5.671   5.685
 9380SOL     OW29038   5.454   4.969   4.479
 9380SOL    HW129039   5.419   5.034   4.412
 9380SOL    HW229040   5.505   4.896   4.432
 9381SOL     OW29041   3.610   2.889   6.010
 9381SOL    HW129042   3.683   2.909   6.075
 9381SOL    HW229043   3.623   2.798   5.972
 9382SOL     OW29044   3.482   0.824   3.554
 9382SOL    HW129045   3.492   0.726   3.535
 9382SOL    HW229046   3.461   0.872   3.469
 9383SOL     OW29047   0.871   5.900   4.519
 9383SOL    HW129048   0.923   5.942   4.444
 9383SOL    HW229049   0.849   5.970   4.587
 9384SOL     OW29050   4.261   0.380   1.932
 9384SOL    HW129051   4.279   0.474   1.960
 9384SOL    HW229052   4.298   0.317   2.000
 9385SOL     OW29053   4.326   1.114   3.895
 9385SOL    HW129054   4.257   1.139   3.827
 9385SOL    HW229055   4.361   1.023   3.874
 9386SOL     OW29056   2.072   6.005   4.968
 9386SOL    HW129057   2.060   6.012   4.869
 9386SOL    HW229058   2.070   6.096   5.009
 9387SOL     OW29059   3.021   1.444   6.890
 9387SOL    HW129060   3.004   1.425   6.793
 9387SOL    HW229061   3.034   1.542   6.903
 9388SOL     OW29062   2.731   5.759   2.536
 9388SOL    HW129063   2.786   5.727   2.613
 9388SOL    HW229064   2.636   5.730   2.549
 9389SOL     OW29065   1.939   0.081   3.880
 9389SOL    HW129066   2.026   0.105   3.838
 9389SOL    HW229067   1.866   0.135   3.838
 9390SOL     OW29068   5.125   4.632   5.228
 9390SOL    HW129069   5.173   4.718   5.248
 9390SOL    HW229070   5.119   4.578   5.312
 9391SOL     OW29071   2.667   1.513   4.972
 9391SOL    HW129072   2.743   1.513   5.037
 9391SOL    HW229073   2.668   1.598   4.920
 9392SOL     OW29074   6.479   6.615   5.292
 9392SOL    HW129075   6.381   6.604   5.278
 9392SOL    HW229076   6.528   6.541   5.245
 9393SOL     OW29077   3.191   6.479   6.362
 9393SOL    HW129078   3.176   6.458   6.265
 9393SOL    HW229079   3.217   6.575   6.372
 9394SOL     OW29080   0.134   1.386   2.240
 9394SOL    HW129081   0.230   1.368   2.260
 9394SOL    HW229082   0.091   1.431   2.318
 9395SOL     OW29083   2.848   1.254   1.258
 9395SOL    HW129084   2.931   1.222   1.302
 9395SOL    HW229085   2.848   1.354   1.254
 9396SOL     OW29086   1.946   4.937   3.912
 9396SOL    HW129087   2.009   4.870   3.872
 9396SOL    HW229088   1.993   5.024   3.924
 9397SOL     OW29089   4.878   6.983   6.444
 9397SOL    HW129090   4.897   0.038   6.386
 9397SOL    HW229091   4.962   6.931   6.458
 9398SOL     OW29092   6.492   0.657   5.211
 9398SOL    HW129093   6.452   0.618   5.129
 9398SOL    HW229094   6.548   0.736   5.187
 9399SOL     OW29095   0.915   1.785   5.874
 9399SOL    HW129096   0.949   1.819   5.786
 9399SOL    HW229097   0.968   1.705   5.902
 9400SOL     OW29098   4.629   0.578   1.798
 9400SOL    HW129099   4.602   0.484   1.818
 9400SOL    HW229100   4.553   0.625   1.754
 9401SOL     OW29101   6.117   1.106   3.526
 9401SOL    HW129102   6.167   1.189   3.504
 9401SOL    HW229103   6.055   1.082   3.451
 9402SOL     OW29104   0.956   5.303   2.870
 9402SOL    HW129105   0.889   5.317   2.943
 9402SOL    HW229106   1.024   5.376   2.873
 9403SOL     OW29107   6.310   1.223   2.998
 9403SOL    HW129108   6.244   1.154   3.026
 9403SOL    HW229109   6.267   1.314   3.002
 9404SOL     OW29110   1.576   3.096   0.279
 9404SOL    HW129111   1.649   3.138   0.333
 9404SOL    HW229112   1.615   3.026   0.220
 9405SOL     OW29113   2.107   4.853   3.365
 9405SOL    HW129114   2.095   4.766   3.413
 9405SOL    HW229115   2.038   4.918   3.394
 9406SOL     OW29116   6.872   3.025   5.826
 9406SOL    HW129117   6.776   3.021   5.853
 9406SOL    HW229118   6.926   2.965   5.885
 9407SOL     OW29119   2.850   5.048   3.473
 9407SOL    HW129120   2.888   5.132   3.434
 9407SOL    HW229121   2.753   5.062   3.495
 9408SOL     OW29122   6.429   2.565   6.334
 9408SOL    HW129123   6.436   2.493   6.266
 9408SOL    HW229124   6.477   2.538   6.417
 9409SOL     OW29125   5.805   5.954   0.274
 9409SOL    HW129126   5.732   5.934   0.340
 9409SOL    HW229127   5.859   5.872   0.259
 9410SOL     OW29128   3.032   0.376   1.376
 9410SOL    HW129129   3.071   0.459   1.417
 9410SOL    HW229130   3.105   0.312   1.355
 9411SOL     OW29131   3.188   2.945   2.111
 9411SOL    HW129132   3.111   2.974   2.054
 9411SOL    HW229133   3.211   2.849   2.090
 9412SOL     OW29134   0.264   1.728   2.943
 9412SOL    HW129135   0.340   1.677   2.902
 9412SOL    HW229136   0.285   1.746   3.039
 9413SOL     OW29137   3.753   5.969   3.652
 9413SOL    HW129138   3.660   5.938   3.669
 9413SOL    HW229139   3.802   5.900   3.598
 9414SOL     OW29140   2.596   0.749   3.206
 9414SOL    HW129141   2.694   0.760   3.189
 9414SOL    HW229142   2.579   0.740   3.304
 9415SOL     OW29143   2.890   6.822   1.613
 9415SOL    HW129144   2.900   6.920   1.627
 9415SOL    HW229145   2.796   6.795   1.633
 9416SOL     OW29146   0.445   2.632   0.382
 9416SOL    HW129147   0.457   2.628   0.283
 9416SOL    HW229148   0.410   2.544   0.415
 9417SOL     OW29149   4.820   0.781   0.738
 9417SOL    HW129150   4.825   0.717   0.662
 9417SOL    HW229151   4.781   0.867   0.707
 9418SOL     OW29152   4.298   0.041   1.076
 9418SOL    HW129153   4.269   0.096   0.998
 9418SOL    HW229154   4.248   0.068   1.158
 9419SOL     OW29155   3.136   4.698   5.954
 9419SOL    HW129156   3.197   4.703   6.034
 9419SOL    HW229157   3.091   4.786   5.942
 9420SOL     OW29158   6.274   4.036   5.542
 9420SOL    HW129159   6.175   4.047   5.531
 9420SOL    HW229160   6.300   3.942   5.519
 9421SOL     OW29161   1.862   6.114   4.305
 9421SOL    HW129162   1.835   6.112   4.402
 9421SOL    HW229163   1.948   6.066   4.293
 9422SOL     OW29164   3.182   5.387   3.319
 9422SOL    HW129165   3.116   5.401   3.245
 9422SOL    HW229166   3.139   5.410   3.406
 9423SOL     OW29167   2.640   6.792   3.672
 9423SOL    HW129168   2.627   6.891   3.678
 9423SOL    HW229169   2.627   6.750   3.762
 9424SOL     OW29170   4.858   1.287   4.769
 9424SOL    HW129171   4.794   1.360   4.746
 9424SOL    HW229172   4.811   1.219   4.825
 9425SOL     OW29173   5.945   3.448   0.937
 9425SOL    HW129174   5.939   3.526   0.999
 9425SOL    HW229175   5.944   3.481   0.842
 9426SOL     OW29176   3.845   1.782   6.109
 9426SOL    HW129177   3.749   1.757   6.113
 9426SOL    HW229178   3.882   1.788   6.202
 9427SOL     OW29179   2.605   4.944   3.153
 9427SOL    HW129180   2.526   4.967   3.211
 9427SOL    HW229181   2.578   4.946   3.057
 9428SOL     OW29182   6.955   1.185   1.022
 9428SOL    HW129183   6.936   1.095   1.060
 9428SOL    HW229184   7.010   1.238   1.087
 9429SOL     OW29185   2.053   3.751   2.754
 9429SOL    HW129186   2.106   3.668   2.735
 9429SOL    HW229187   1.993   3.771   2.677
 9430SOL     OW29188   0.533   4.238   3.423
 9430SOL    HW129189   0.563   4.148   3.455
 9430SOL    HW229190   0.461   4.226   3.355
 9431SOL     OW29191   6.461   3.942   0.752
 9431SOL    HW129192   6.539   3.878   0.749
 9431SOL    HW229193   6.463   3.992   0.838
 9432SOL     OW29194   5.350   0.316   3.509
 9432SOL    HW129195   5.318   0.398   3.462
 9432SOL    HW229196   5.291   0.238   3.484
 9433SOL     OW29197   2.967   6.205   3.011
 9433SOL    HW129198   3.062   6.177   3.022
 9433SOL    HW229199   2.959   6.304   3.024
 9434SOL     OW29200   5.069   5.622   2.984
 9434SOL    HW129201   5.103   5.569   2.906
 9434SOL    HW229202   5.145   5.639   3.047
 9435SOL     OW29203   0.200   2.543   4.791
 9435SOL    HW129204   0.215   2.589   4.703
 9435SOL    HW229205   0.280   2.490   4.816
 9436SOL     OW29206   1.556   2.753   1.170
 9436SOL    HW129207   1.644   2.707   1.182
 9436SOL    HW229208   1.571   2.844   1.131
 9437SOL     OW29209   1.042   6.002   2.917
 9437SOL    HW129210   1.108   6.039   2.983
 9437SOL    HW229211   1.086   5.997   2.827
 9438SOL     OW29212   0.138   0.229   1.712
 9438SOL    HW129213   0.062   0.204   1.651
 9438SOL    HW229214   0.104   0.289   1.784
 9439SOL     OW29215   0.680   3.391   1.232
 9439SOL    HW129216   0.750   3.462   1.219
 9439SOL    HW229217   0.714   3.304   1.197
 9440SOL     OW29218   3.926   5.135   3.406
 9440SOL    HW129219   4.016   5.178   3.415
 9440SOL    HW229220   3.923   5.052   3.462
 9441SOL     OW29221   6.515   4.030   5.315
 9441SOL    HW129222   6.552   4.075   5.397
 9441SOL    HW229223   6.443   4.087   5.276
 9442SOL     OW29224   4.932   3.251   1.116
 9442SOL    HW129225   4.941   3.324   1.047
 9442SOL    HW229226   5.018   3.243   1.166
 9443SOL     OW29227   2.572   5.468   0.913
 9443SOL    HW129228   2.472   5.466   0.916
 9443SOL    HW229229   2.605   5.555   0.950
 9444SOL     OW29230   1.475   3.132   0.769
 9444SOL    HW129231   1.459   3.216   0.820
 9444SOL    HW229232   1.445   3.143   0.674
 9445SOL     OW29233   6.059   3.166   3.351
 9445SOL    HW129234   6.046   3.095   3.282
 9445SOL    HW229235   6.089   3.251   3.307
 9446SOL     OW29236   6.224   5.307   3.792
 9446SOL    HW129237   6.306   5.306   3.850
 9446SOL    HW229238   6.206   5.401   3.763
 9447SOL     OW29239   6.045   4.288   3.538
 9447SOL    HW129240   5.949   4.293   3.568
 9447SOL    HW229241   6.080   4.380   3.525
 9448SOL     OW29242   0.615   0.409   6.938
 9448SOL    HW129243   0.571   0.321   6.915
 9448SOL    HW229244   0.707   0.411   6.899
 9449SOL     OW29245   6.645   6.783   0.570
 9449SOL    HW129246   6.572   6.843   0.604
 9449SOL    HW229247   6.611   6.731   0.491
 9450SOL     OW29248   2.173   5.103   4.551
 9450SOL    HW129249   2.099   5.134   4.611
 9450SOL    HW229250   2.260   5.108   4.600
 9451SOL     OW29251   4.239   0.062   5.998
 9451SOL    HW129252   4.313   7.021   5.993
 9451SOL    HW229253   4.173   0.033   6.067
 9452SOL     OW29254   1.677   3.678   0.642
 9452SOL    HW129255   1.701   3.601   0.700
 9452SOL    HW229256   1.607   3.734   0.687
 9453SOL     OW29257   2.346   4.957   3.281
 9453SOL    HW129258   2.373   5.032   3.342
 9453SOL    HW229259   2.277   4.901   3.326
 9454SOL     OW29260   3.451   3.568   6.401
 9454SOL    HW129261   3.537   3.518   6.393
 9454SOL    HW229262   3.420   3.565   6.496
 9455SOL     OW29263   2.546   1.594   3.522
 9455SOL    HW129264   2.592   1.557   3.603
 9455SOL    HW229265   2.614   1.613   3.452
 9456SOL     OW29266   0.025   3.500   1.016
 9456SOL    HW129267   6.957   3.514   1.053
 9456SOL    HW229268   0.084   3.466   1.089
 9457SOL     OW29269   1.710   3.526   5.142
 9457SOL    HW129270   1.739   3.618   5.116
 9457SOL    HW229271   1.625   3.530   5.193
 9458SOL     OW29272   1.135   3.059   0.203
 9458SOL    HW129273   1.203   3.132   0.198
 9458SOL    HW229274   1.178   2.972   0.180
 9459SOL     OW29275   5.378   4.441   3.639
 9459SOL    HW129276   5.428   4.369   3.591
 9459SOL    HW229277   5.301   4.400   3.688
 9460SOL     OW29278   1.131   3.494   3.686
 9460SOL    HW129279   1.050   3.548   3.663
 9460SOL    HW229280   1.151   3.505   3.783
 9461SOL     OW29281   6.959   1.894   1.528
 9461SOL    HW129282   6.955   1.944   1.614
 9461SOL    HW229283   7.005   1.806   1.542
 9462SOL     OW29284   2.211   3.997   3.176
 9462SOL    HW129285   2.236   4.062   3.105
 9462SOL    HW229286   2.216   3.904   3.139
 9463SOL     OW29287   6.185   0.442   2.017
 9463SOL    HW129288   6.204   0.352   1.979
 9463SOL    HW229289   6.120   0.490   1.959
 9464SOL     OW29290   5.875   0.692   0.726
 9464SOL    HW129291   5.934   0.615   0.750
 9464SOL    HW229292   5.855   0.746   0.808
 9465SOL     OW29293   1.502   4.527   2.084
 9465SOL    HW129294   1.423   4.466   2.092
 9465SOL    HW229295   1.538   4.547   2.174
 9466SOL     OW29296   3.747   4.512   5.911
 9466SOL    HW129297   3.668   4.494   5.852
 9466SOL    HW229298   3.715   4.540   6.002
 9467SOL     OW29299   1.506   2.365   2.640
 9467SOL    HW129300   1.473   2.447   2.594
 9467SOL    HW229301   1.588   2.332   2.593
 9468SOL     OW29302   5.863   3.833   6.346
 9468SOL    HW129303   5.962   3.847   6.350
 9468SOL    HW229304   5.829   3.860   6.257
 9469SOL     OW29305   6.464   4.980   1.654
 9469SOL    HW129306   6.451   4.898   1.599
 9469SOL    HW229307   6.382   4.998   1.708
 9470SOL     OW29308   5.213   3.103   6.049
 9470SOL    HW129309   5.165   3.167   6.109
 9470SOL    HW229310   5.154   3.024   6.031
 9471SOL     OW29311   6.880   1.891   4.710
 9471SOL    HW129312   6.806   1.850   4.763
 9471SOL    HW229313   6.844   1.927   4.623
 9472SOL     OW29314   6.510   2.622   5.367
 9472SOL    HW129315   6.527   2.719   5.353
 9472SOL    HW229316   6.492   2.578   5.279
 9473SOL     OW29317   2.291   5.493   0.056
 9473SOL    HW129318   2.342   5.414   0.024
 9473SOL    HW229319   2.333   5.529   0.139
 9474SOL     OW29320   0.309   2.917   0.253
 9474SOL    HW129321   0.258   2.834   0.230
 9474SOL    HW229322   0.393   2.893   0.301
 9475SOL     OW29323   3.643   3.332   6.743
 9475SOL    HW129324   3.590   3.251   6.721
 9475SOL    HW229325   3.613   3.368   6.832
 9476SOL     OW29326   3.610   4.189   4.776
 9476SOL    HW129327   3.651   4.164   4.689
 9476SOL    HW229328   3.525   4.240   4.760
 9477SOL     OW29329   0.534   2.963   1.068
 9477SOL    HW129330   0.569   3.016   1.145
 9477SOL    HW229331   0.550   3.012   0.982
 9478SOL     OW29332   5.240   3.164   0.685
 9478SOL    HW129333   5.280   3.249   0.651
 9478SOL    HW229334   5.240   3.096   0.612
 9479SOL     OW29335   3.931   6.274   6.593
 9479SOL    HW129336   3.854   6.227   6.636
 9479SOL    HW229337   3.997   6.207   6.561
 9480SOL     OW29338   6.020   4.651   0.828
 9480SOL    HW129339   5.986   4.600   0.748
 9480SOL    HW229340   5.965   4.733   0.841
 9481SOL     OW29341   4.717   2.754   2.128
 9481SOL    HW129342   4.682   2.681   2.069
 9481SOL    HW229343   4.731   2.837   2.074
 9482SOL     OW29344   0.182   1.370   3.337
 9482SOL    HW129345   0.192   1.281   3.381
 9482SOL    HW229346   0.092   1.408   3.358
 9483SOL     OW29347   1.909   1.442   1.047
 9483SOL    HW129348   1.817   1.418   1.078
 9483SOL    HW229349   1.903   1.515   0.979
 9484SOL     OW29350   4.449   0.721   4.041
 9484SOL    HW129351   4.424   0.765   4.127
 9484SOL    HW229352   4.437   0.622   4.049
 9485SOL     OW29353   0.510   0.859   0.725
 9485SOL    HW129354   0.561   0.890   0.805
 9485SOL    HW229355   0.413   0.880   0.738
 9486SOL     OW29356   3.985   6.489   1.390
 9486SOL    HW129357   4.071   6.539   1.393
 9486SOL    HW229358   3.999   6.400   1.346
 9487SOL     OW29359   3.658   3.523   3.805
 9487SOL    HW129360   3.712   3.499   3.725
 9487SOL    HW229361   3.718   3.551   3.880
 9488SOL     OW29362   2.482   6.460   1.107
 9488SOL    HW129363   2.432   6.446   1.021
 9488SOL    HW229364   2.579   6.474   1.086
 9489SOL     OW29365   4.517   4.181   1.416
 9489SOL    HW129366   4.552   4.247   1.482
 9489SOL    HW229367   4.574   4.099   1.418
 9490SOL     OW29368   6.467   4.631   2.323
 9490SOL    HW129369   6.501   4.723   2.342
 9490SOL    HW229370   6.411   4.600   2.400
 9491SOL     OW29371   5.942   4.857   4.221
 9491SOL    HW129372   5.866   4.838   4.159
 9491SOL    HW229373   5.982   4.946   4.198
 9492SOL     OW29374   3.722   2.990   3.790
 9492SOL    HW129375   3.630   3.017   3.817
 9492SOL    HW229376   3.769   2.950   3.868
 9493SOL     OW29377   3.381   5.863   4.290
 9493SOL    HW129378   3.310   5.797   4.264
 9493SOL    HW229379   3.409   5.846   4.385
 9494SOL     OW29380   4.963   3.338   2.340
 9494SOL    HW129381   4.925   3.261   2.289
 9494SOL    HW229382   5.013   3.399   2.278
 9495SOL     OW29383   6.533   1.842   3.646
 9495SOL    HW129384   6.473   1.842   3.567
 9495SOL    HW229385   6.624   1.872   3.619
 9496SOL     OW29386   6.655   3.743   1.392
 9496SOL    HW129387   6.566   3.789   1.395
 9496SOL    HW229388   6.703   3.770   1.308
 9497SOL     OW29389   5.866   6.400   5.805
 9497SOL    HW129390   5.768   6.408   5.824
 9497SOL    HW229391   5.894   6.304   5.817
 9498SOL     OW29392   4.148   6.841   4.695
 9498SOL    HW129393   4.217   6.792   4.642
 9498SOL    HW229394   4.060   6.836   4.648
 9499SOL     OW29395   2.384   5.529   6.490
 9499SOL    HW129396   2.377   5.628   6.505
 9499SOL    HW229397   2.294   5.487   6.502
 9500SOL     OW29398   5.156   0.232   1.060
 9500SOL    HW129399   5.109   0.195   1.141
 9500SOL    HW229400   5.145   0.168   0.984
 9501SOL     OW29401   2.962   1.263   4.411
 9501SOL    HW129402   2.915   1.343   4.448
 9501SOL    HW229403   3.052   1.290   4.377
 9502SOL     OW29404   5.164   3.148   4.752
 9502SOL    HW129405   5.086   3.197   4.791
 9502SOL    HW229406   5.132   3.065   4.706
 9503SOL     OW29407   0.496   1.480   1.114
 9503SOL    HW129408   0.492   1.462   1.213
 9503SOL    HW229409   0.504   1.579   1.100
 9504SOL     OW29410   0.335   2.786   0.583
 9504SOL    HW129411   0.282   2.723   0.639
 9504SOL    HW229412   0.395   2.734   0.522
 9505SOL     OW29413   4.910   4.478   3.858
 9505SOL    HW129414   4.915   4.397   3.917
 9505SOL    HW229415   4.835   4.537   3.888
 9506SOL     OW29416   1.098   1.820   6.421
 9506SOL    HW129417   1.029   1.763   6.376
 9506SOL    HW229418   1.063   1.914   6.430
 9507SOL     OW29419   1.248   2.167   3.392
 9507SOL    HW129420   1.192   2.134   3.469
 9507SOL    HW229421   1.200   2.150   3.306
 9508SOL     OW29422   6.297   2.520   1.195
 9508SOL    HW129423   6.291   2.520   1.295
 9508SOL    HW229424   6.338   2.434   1.164
 9509SOL     OW29425   0.920   1.024   4.279
 9509SOL    HW129426   0.966   0.935   4.281
 9509SOL    HW229427   0.828   1.015   4.316
 9510SOL     OW29428   1.435   3.799   3.237
 9510SOL    HW129429   1.367   3.869   3.216
 9510SOL    HW229430   1.525   3.842   3.246
 9511SOL     OW29431   1.285   0.518   0.382
 9511SOL    HW129432   1.352   0.534   0.454
 9511SOL    HW229433   1.194   0.507   0.423
 9512SOL     OW29434   6.168   1.580   1.618
 9512SOL    HW129435   6.227   1.656   1.647
 9512SOL    HW229436   6.216   1.525   1.549
 9513SOL     OW29437   2.205   3.800   6.744
 9513SOL    HW129438   2.290   3.817   6.794
 9513SOL    HW229439   2.226   3.763   6.654
 9514SOL     OW29440   2.074   5.244   5.916
 9514SOL    HW129441   2.026   5.163   5.950
 9514SOL    HW229442   2.051   5.322   5.974
 9515SOL     OW29443   2.211   5.657   1.066
 9515SOL    HW129444   2.195   5.743   1.016
 9515SOL    HW229445   2.125   5.626   1.107
 9516SOL     OW29446   5.958   4.432   5.536
 9516SOL    HW129447   5.899   4.360   5.570
 9516SOL    HW229448   6.034   4.447   5.600
 9517SOL     OW29449   2.192   4.900   0.729
 9517SOL    HW129450   2.274   4.851   0.759
 9517SOL    HW229451   2.199   4.920   0.631
 9518SOL     OW29452   2.320   2.105   6.879
 9518SOL    HW129453   2.381   2.131   6.804
 9518SOL    HW229454   2.231   2.080   6.843
 9519SOL     OW29455   3.740   3.576   4.734
 9519SOL    HW129456   3.712   3.580   4.830
 9519SOL    HW229457   3.681   3.512   4.685
 9520SOL     OW29458   1.655   1.359   3.681
 9520SOL    HW129459   1.656   1.439   3.622
 9520SOL    HW229460   1.613   1.282   3.633
 9521SOL     OW29461   4.847   5.441   1.413
 9521SOL    HW129462   4.761   5.424   1.365
 9521SOL    HW229463   4.839   5.411   1.508
 9522SOL     OW29464   3.150   5.651   1.222
 9522SOL    HW129465   3.057   5.646   1.258
 9522SOL    HW229466   3.175   5.564   1.179
 9523SOL     OW29467   2.616   4.670   5.209
 9523SOL    HW129468   2.598   4.611   5.288
 9523SOL    HW229469   2.711   4.657   5.180
 9524SOL     OW29470   3.670   3.393   1.130
 9524SOL    HW129471   3.643   3.357   1.219
 9524SOL    HW229472   3.595   3.382   1.065
 9525SOL     OW29473   2.357   2.645   5.430
 9525SOL    HW129474   2.303   2.583   5.373
 9525SOL    HW229475   2.425   2.691   5.373
 9526SOL     OW29476   5.644   4.950   1.644
 9526SOL    HW129477   5.655   4.979   1.739
 9526SOL    HW229478   5.713   4.880   1.623
 9527SOL     OW29479   0.724   0.629   4.323
 9527SOL    HW129480   0.708   0.687   4.403
 9527SOL    HW229481   0.639   0.621   4.270
 9528SOL     OW29482   6.872   1.288   0.448
 9528SOL    HW129483   6.863   1.379   0.406
 9528SOL    HW229484   6.837   1.219   0.386
 9529SOL     OW29485   6.465   3.221   5.782
 9529SOL    HW129486   6.486   3.151   5.714
 9529SOL    HW229487   6.367   3.241   5.781
 9530SOL     OW29488   1.334   4.328   2.115
 9530SOL    HW129489   1.350   4.244   2.063
 9530SOL    HW229490   1.236   4.347   2.116
 9531SOL     OW29491   4.350   4.910   2.943
 9531SOL    HW129492   4.427   4.892   3.004
 9531SOL    HW229493   4.326   4.826   2.894
 9532SOL     OW29494   6.323   0.039   2.141
 9532SOL    HW129495   6.226   0.037   2.119
 9532SOL    HW229496   6.376   0.051   2.057
 9533SOL     OW29497   6.853   6.226   5.725
 9533SOL    HW129498   6.834   6.127   5.719
 9533SOL    HW229499   6.932   6.247   5.668
 9534SOL     OW29500   0.435   3.932   4.994
 9534SOL    HW129501   0.446   4.018   5.044
 9534SOL    HW229502   0.337   3.916   4.977
 9535SOL     OW29503   1.813   1.081   6.357
 9535SOL    HW129504   1.890   1.036   6.313
 9535SOL    HW229505   1.842   1.117   6.446
 9536SOL     OW29506   2.571   4.213   5.651
 9536SOL    HW129507   2.550   4.116   5.668
 9536SOL    HW229508   2.636   4.220   5.575
 9537SOL     OW29509   2.777   6.636   3.215
 9537SOL    HW129510   2.697   6.594   3.174
 9537SOL    HW229511   2.759   6.656   3.311
 9538SOL     OW29512   5.941   1.993   3.537
 9538SOL    HW129513   6.039   2.012   3.531
 9538SOL    HW229514   5.896   2.067   3.587
 9539SOL     OW29515   2.950   4.110   5.187
 9539SOL    HW129516   2.870   4.114   5.248
 9539SOL    HW229517   2.919   4.107   5.092
 9540SOL     OW29518   5.976   4.083   4.436
 9540SOL    HW129519   5.992   4.039   4.524
 9540SOL    HW229520   5.881   4.067   4.408
 9541SOL     OW29521   4.249   0.312   5.878
 9541SOL    HW129522   4.237   0.214   5.892
 9541SOL    HW229523   4.181   0.362   5.931
 9542SOL     OW29524   5.188   4.510   4.696
 9542SOL    HW129525   5.172   4.479   4.602
 9542SOL    HW229526   5.102   4.511   4.747
 9543SOL     OW29527   3.688   0.867   5.379
 9543SOL    HW129528   3.762   0.802   5.399
 9543SOL    HW229529   3.600   0.825   5.401
 9544SOL     OW29530   6.870   1.706   3.811
 9544SOL    HW129531   6.844   1.621   3.765
 9544SOL    HW229532   6.868   1.781   3.745
 9545SOL     OW29533   5.910   5.197   4.174
 9545SOL    HW129534   5.841   5.167   4.241
 9545SOL    HW229535   6.001   5.172   4.207
 9546SOL     OW29536   3.548   2.408   5.771
 9546SOL    HW129537   3.633   2.374   5.731
 9546SOL    HW229538   3.489   2.331   5.794
 9547SOL     OW29539   2.128   6.368   4.830
 9547SOL    HW129540   2.189   6.443   4.802
 9547SOL    HW229541   2.147   6.288   4.774
 9548SOL     OW29542   6.657   5.624   6.265
 9548SOL    HW129543   6.572   5.584   6.231
 9548SOL    HW229544   6.664   5.719   6.233
 9549SOL     OW29545   3.039   3.167   0.896
 9549SOL    HW129546   3.002   3.132   0.982
 9549SOL    HW229547   2.998   3.116   0.820
 9550SOL     OW29548   0.723   1.400   0.338
 9550SOL    HW129549   0.822   1.394   0.328
 9550SOL    HW229550   0.700   1.439   0.427
 9551SOL     OW29551   5.907   1.198   4.418
 9551SOL    HW129552   5.896   1.231   4.324
 9551SOL    HW229553   5.899   1.098   4.419
 9552SOL     OW29554   1.589   6.270   3.229
 9552SOL    HW129555   1.507   6.323   3.207
 9552SOL    HW229556   1.628   6.302   3.315
 9553SOL     OW29557   5.914   3.833   6.693
 9553SOL    HW129558   5.890   3.772   6.617
 9553SOL    HW229559   6.013   3.849   6.693
 9554SOL     OW29560   2.283   0.289   1.394
 9554SOL    HW129561   2.307   0.345   1.473
 9554SOL    HW229562   2.224   0.342   1.333
 9555SOL     OW29563   1.075   1.452   2.837
 9555SOL    HW129564   1.080   1.511   2.756
 9555SOL    HW229565   1.050   1.507   2.917
 9556SOL     OW29566   1.624   1.997   1.728
 9556SOL    HW129567   1.714   1.962   1.705
 9556SOL    HW229568   1.633   2.089   1.768
 9557SOL     OW29569   0.286   0.442   2.918
 9557SOL    HW129570   0.279   0.537   2.885
 9557SOL    HW229571   0.209   0.422   2.978
 9558SOL     OW29572   6.189   6.177   4.628
 9558SOL    HW129573   6.217   6.104   4.566
 9558SOL    HW229574   6.130   6.241   4.580
 9559SOL     OW29575   0.666   4.197   0.874
 9559SOL    HW129576   0.706   4.288   0.884
 9559SOL    HW229577   0.705   4.136   0.943
 9560SOL     OW29578   1.351   1.876   3.460
 9560SOL    HW129579   1.340   1.899   3.557
 9560SOL    HW229580   1.263   1.849   3.422
 9561SOL     OW29581   1.389   6.487   0.364
 9561SOL    HW129582   1.406   6.432   0.283
 9561SOL    HW229583   1.470   6.540   0.387
 9562SOL     OW29584   3.391   0.453   5.730
 9562SOL    HW129585   3.446   0.443   5.814
 9562SOL    HW229586   3.405   0.544   5.692
 9563SOL     OW29587   6.524   6.927   0.883
 9563SOL    HW129588   6.516   6.973   0.971
 9563SOL    HW229589   6.619   6.899   0.869
 9564SOL     OW29590   2.867   0.537   0.392
 9564SOL    HW129591   2.787   0.545   0.333
 9564SOL    HW229592   2.889   0.440   0.405
 9565SOL     OW29593   4.014   6.260   4.837
 9565SOL    HW129594   4.095   6.319   4.842
 9565SOL    HW229595   4.043   6.165   4.831
 9566SOL     OW29596   2.738   4.718   6.980
 9566SOL    HW129597   2.762   4.702   6.885
 9566SOL    HW229598   2.640   4.736   6.987
 9567SOL     OW29599   5.896   4.515   6.607
 9567SOL    HW129600   5.850   4.562   6.532
 9567SOL    HW229601   5.870   4.558   6.694
 9568SOL     OW29602   4.534   2.396   6.280
 9568SOL    HW129603   4.499   2.314   6.236
 9568SOL    HW229604   4.485   2.412   6.366
 9569SOL     OW29605   0.117   0.664   2.686
 9569SOL    HW129606   0.036   0.715   2.713
 9569SOL    HW229607   0.180   0.658   2.763
 9570SOL     OW29608   1.124   2.962   2.459
 9570SOL    HW129609   1.104   2.923   2.369
 9570SOL    HW229610   1.046   3.016   2.490
 9571SOL     OW29611   2.696   3.801   6.766
 9571SOL    HW129612   2.610   3.849   6.781
 9571SOL    HW229613   2.680   3.722   6.706
 9572SOL     OW29614   2.099   5.765   1.876
 9572SOL    HW129615   2.113   5.861   1.898
 9572SOL    HW229616   2.111   5.709   1.958
 9573SOL     OW29617   1.340   0.879   6.526
 9573SOL    HW129618   1.316   0.782   6.518
 9573SOL    HW229619   1.389   0.908   6.444
 9574SOL     OW29620   4.036   3.559   4.104
 9574SOL    HW129621   4.021   3.464   4.132
 9574SOL    HW229622   3.950   3.599   4.073
 9575SOL     OW29623   5.769   1.667   0.661
 9575SOL    HW129624   5.789   1.605   0.737
 9575SOL    HW229625   5.808   1.630   0.577
 9576SOL     OW29626   2.435   0.412   2.527
 9576SOL    HW129627   2.429   0.429   2.428
 9576SOL    HW229628   2.361   0.352   2.555
 9577SOL     OW29629   1.289   0.587   4.744
 9577SOL    HW129630   1.251   0.639   4.821
 9577SOL    HW229631   1.257   0.627   4.658
 9578SOL     OW29632   0.679   4.498   3.440
 9578SOL    HW129633   0.655   4.403   3.459
 9578SOL    HW229634   0.629   4.558   3.503
 9579SOL     OW29635   1.787   5.278   2.961
 9579SOL    HW129636   1.821   5.372   2.966
 9579SOL    HW229637   1.714   5.273   2.892
 9580SOL     OW29638   4.407   2.892   0.950
 9580SOL    HW129639   4.436   2.856   0.861
 9580SOL    HW229640   4.330   2.838   0.984
 9581SOL     OW29641   1.302   5.413   6.462
 9581SOL    HW129642   1.366   5.372   6.397
 9581SOL    HW229643   1.347   5.489   6.509
 9582SOL     OW29644   4.950   4.554   4.873
 9582SOL    HW129645   4.917   4.467   4.838
 9582SOL    HW229646   4.976   4.543   4.969
 9583SOL     OW29647   3.724   4.851   1.271
 9583SOL    HW129648   3.698   4.777   1.209
 9583SOL    HW229649   3.823   4.862   1.271
 9584SOL     OW29650   6.828   6.411   0.309
 9584SOL    HW129651   6.811   6.467   0.228
 9584SOL    HW229652   6.910   6.444   0.356
 9585SOL     OW29653   6.285   0.145   3.545
 9585SOL    HW129654   6.246   0.125   3.635
 9585SOL    HW229655   6.342   0.228   3.551
 9586SOL     OW29656   5.586   3.827   2.688
 9586SOL    HW129657   5.563   3.844   2.784
 9586SOL    HW229658   5.665   3.882   2.663
 9587SOL     OW29659   6.599   0.979   2.612
 9587SOL    HW129660   6.537   0.981   2.690
 9587SOL    HW229661   6.590   1.065   2.561
 9588SOL     OW29662   0.360   1.747   2.472
 9588SOL    HW129663   0.385   1.651   2.488
 9588SOL    HW229664   0.388   1.802   2.551
 9589SOL     OW29665   2.624   5.315   5.666
 9589SOL    HW129666   2.659   5.391   5.611
 9589SOL    HW229667   2.555   5.349   5.730
 9590SOL     OW29668   0.441   4.350   1.985
 9590SOL    HW129669   0.362   4.363   1.924
 9590SOL    HW229670   0.426   4.268   2.041
 9591SOL     OW29671   3.137   6.219   6.909
 9591SOL    HW129672   3.101   6.132   6.944
 9591SOL    HW229673   3.178   6.204   6.819
 9592SOL     OW29674   3.726   4.498   1.486
 9592SOL    HW129675   3.669   4.456   1.556
 9592SOL    HW229676   3.738   4.595   1.507
 9593SOL     OW29677   6.574   0.138   4.906
 9593SOL    HW129678   6.491   0.104   4.863
 9593SOL    HW229679   6.593   0.231   4.874
 9594SOL     OW29680   1.532   6.109   2.984
 9594SOL    HW129681   1.434   6.090   2.991
 9594SOL    HW229682   1.557   6.181   3.048
 9595SOL     OW29683   1.867   4.100   5.051
 9595SOL    HW129684   1.910   4.190   5.054
 9595SOL    HW229685   1.815   4.085   5.135
 9596SOL     OW29686   0.381   6.218   0.296
 9596SOL    HW129687   0.402   6.235   0.199
 9596SOL    HW229688   0.351   6.123   0.307
 9597SOL     OW29689   0.460   4.852   0.603
 9597SOL    HW129690   0.360   4.855   0.596
 9597SOL    HW229691   0.486   4.833   0.698
 9598SOL     OW29692   0.877   3.610   5.099
 9598SOL    HW129693   0.829   3.693   5.128
 9598SOL    HW229694   0.975   3.621   5.116
 9599SOL     OW29695   3.430   0.435   5.356
 9599SOL    HW129696   3.426   0.451   5.257
 9599SOL    HW229697   3.489   0.504   5.398
 9600SOL     OW29698   2.548   6.864   0.113
 9600SOL    HW129699   2.584   6.870   0.206
 9600SOL    HW229700   2.472   6.799   0.111
 9601SOL     OW29701   6.184   3.799   6.999
 9601SOL    HW129702   6.163   3.881   0.027
 9601SOL    HW229703   6.098   3.756   6.970
 9602SOL     OW29704   6.518   4.814   6.770
 9602SOL    HW129705   6.463   4.854   6.696
 9602SOL    HW229706   6.567   4.735   6.735
 9603SOL     OW29707   3.330   0.959   4.723
 9603SOL    HW129708   3.260   0.992   4.659
 9603SOL    HW229709   3.342   1.026   4.796
 9604SOL     OW29710   4.967   0.419   0.626
 9604SOL    HW129711   4.985   0.445   0.721
 9604SOL    HW229712   5.039   0.357   0.595
 9605SOL     OW29713   0.703   4.925   4.641
 9605SOL    HW129714   0.764   4.994   4.680
 9605SOL    HW229715   0.609   4.958   4.642
 9606SOL     OW29716   1.657   6.224   5.036
 9606SOL    HW129717   1.623   6.138   5.000
 9606SOL    HW229718   1.744   6.209   5.083
 9607SOL     OW29719   1.295   2.193   1.965
 9607SOL    HW129720   1.369   2.156   2.020
 9607SOL    HW229721   1.247   2.118   1.919
 9608SOL     OW29722   6.352   6.502   1.651
 9608SOL    HW129723   6.445   6.499   1.687
 9608SOL    HW229724   6.350   6.561   1.570
 9609SOL     OW29725   1.882   4.028   5.826
 9609SOL    HW129726   1.909   3.934   5.805
 9609SOL    HW229727   1.787   4.042   5.800
 9610SOL     OW29728   1.602   4.557   3.991
 9610SOL    HW129729   1.681   4.501   3.969
 9610SOL    HW229730   1.581   4.617   3.914
 9611SOL     OW29731   0.471   0.172   6.908
 9611SOL    HW129732   0.409   0.171   6.829
 9611SOL    HW229733   0.461   0.087   6.959
 9612SOL     OW29734   6.782   3.193   1.244
 9612SOL    HW129735   6.795   3.279   1.194
 9612SOL    HW229736   6.691   3.156   1.223
 9613SOL     OW29737   3.743   6.681   3.304
 9613SOL    HW129738   3.768   6.712   3.212
 9613SOL    HW229739   3.689   6.597   3.297
 9614SOL     OW29740   3.827   2.893   1.045
 9614SOL    HW129741   3.823   2.795   1.062
 9614SOL    HW229742   3.897   2.912   0.976
 9615SOL     OW29743   0.829   7.002   2.370
 9615SOL    HW129744   0.908   0.033   2.397
 9615SOL    HW229745   0.817   6.927   2.435
 9616SOL     OW29746   4.562   3.582   0.625
 9616SOL    HW129747   4.594   3.577   0.531
 9616SOL    HW229748   4.496   3.657   0.635
 9617SOL     OW29749   0.987   3.735   4.534
 9617SOL    HW129750   0.961   3.831   4.530
 9617SOL    HW229751   1.024   3.706   4.445
 9618SOL     OW29752   4.910   0.177   6.246
 9618SOL    HW129753   4.942   0.260   6.292
 9618SOL    HW229754   4.988   0.124   6.213
 9619SOL     OW29755   1.050   0.491   0.482
 9619SOL    HW129756   1.016   0.499   0.576
 9619SOL    HW229757   0.977   0.516   0.418
 9620SOL     OW29758   5.592   1.585   6.716
 9620SOL    HW129759   5.660   1.517   6.688
 9620SOL    HW229760   5.638   1.672   6.734
 9621SOL     OW29761   1.834   1.563   2.933
 9621SOL    HW129762   1.794   1.593   2.847
 9621SOL    HW229763   1.830   1.463   2.939
 9622SOL     OW29764   6.344   1.105   6.772
 9622SOL    HW129765   6.333   1.177   6.702
 9622SOL    HW229766   6.254   1.075   6.804
 9623SOL     OW29767   4.074   5.298   5.453
 9623SOL    HW129768   3.993   5.346   5.421
 9623SOL    HW229769   4.139   5.365   5.491
 9624SOL     OW29770   5.402   4.109   3.798
 9624SOL    HW129771   5.384   4.094   3.700
 9624SOL    HW229772   5.354   4.191   3.828
 9625SOL     OW29773   5.268   4.687   6.638
 9625SOL    HW129774   5.331   4.684   6.715
 9625SOL    HW229775   5.197   4.617   6.650
 9626SOL     OW29776   1.924   5.689   5.804
 9626SOL    HW129777   2.008   5.713   5.754
 9626SOL    HW229778   1.862   5.768   5.806
 9627SOL     OW29779   6.967   4.072   4.427
 9627SOL    HW129780   0.039   4.096   4.435
 9627SOL    HW229781   6.946   3.998   4.492
 9628SOL     OW29782   6.161   4.369   0.392
 9628SOL    HW129783   6.182   4.327   0.480
 9628SOL    HW229784   6.244   4.408   0.352
 9629SOL     OW29785   6.596   5.860   2.268
 9629SOL    HW129786   6.677   5.842   2.324
 9629SOL    HW229787   6.617   5.839   2.172
 9630SOL     OW29788   6.423   6.184   5.701
 9630SOL    HW129789   6.456   6.147   5.788
 9630SOL    HW229790   6.455   6.125   5.627
 9631SOL     OW29791   4.792   1.911   0.747
 9631SOL    HW129792   4.892   1.916   0.756
 9631SOL    HW229793   4.769   1.872   0.658
 9632SOL     OW29794   2.540   5.651   1.566
 9632SOL    HW129795   2.502   5.610   1.649
 9632SOL    HW229796   2.523   5.591   1.488
 9633SOL     OW29797   3.968   4.196   0.276
 9633SOL    HW129798   3.903   4.256   0.323
 9633SOL    HW229799   3.960   4.210   0.177
 9634SOL     OW29800   0.240   6.000   3.678
 9634SOL    HW129801   0.256   6.001   3.777
 9634SOL    HW229802   0.256   5.908   3.643
 9635SOL     OW29803   2.087   4.330   5.228
 9635SOL    HW129804   2.146   4.339   5.308
 9635SOL    HW229805   2.143   4.334   5.145
 9636SOL     OW29806   4.733   1.678   6.182
 9636SOL    HW129807   4.702   1.625   6.103
 9636SOL    HW229808   4.657   1.691   6.246
 9637SOL     OW29809   3.702   2.918   0.515
 9637SOL    HW129810   3.735   3.009   0.539
 9637SOL    HW229811   3.603   2.920   0.504
 9638SOL     OW29812   0.241   3.120   5.564
 9638SOL    HW129813   0.285   3.031   5.549
 9638SOL    HW229814   0.161   3.109   5.622
 9639SOL     OW29815   4.240   2.252   2.142
 9639SOL    HW129816   4.210   2.160   2.168
 9639SOL    HW229817   4.255   2.307   2.224
 9640SOL     OW29818   3.322   0.757   2.704
 9640SOL    HW129819   3.301   0.836   2.762
 9640SOL    HW229820   3.255   0.752   2.630
 9641SOL     OW29821   5.564   5.321   1.667
 9641SOL    HW129822   5.478   5.273   1.650
 9641SOL    HW229823   5.547   5.419   1.668
 9642SOL     OW29824   1.296   5.886   4.459
 9642SOL    HW129825   1.279   5.984   4.448
 9642SOL    HW229826   1.388   5.873   4.495
 9643SOL     OW29827   4.996   4.253   3.631
 9643SOL    HW129828   4.909   4.292   3.602
 9643SOL    HW229829   5.050   4.228   3.551
 9644SOL     OW29830   1.185   5.841   5.746
 9644SOL    HW129831   1.235   5.904   5.687
 9644SOL    HW229832   1.235   5.754   5.753
 9645SOL     OW29833   2.974   4.779   4.022
 9645SOL    HW129834   2.964   4.686   4.058
 9645SOL    HW229835   2.904   4.795   3.952
 9646SOL     OW29836   2.723   5.084   1.925
 9646SOL    HW129837   2.746   5.011   1.861
 9646SOL    HW229838   2.757   5.060   2.016
 9647SOL     OW29839   0.023   6.335   2.356
 9647SOL    HW129840   0.047   6.319   2.261
 9647SOL    HW229841   0.106   6.338   2.412
 9648SOL     OW29842   3.751   2.501   6.740
 9648SOL    HW129843   3.744   2.580   6.680
 9648SOL    HW229844   3.773   2.420   6.686
 9649SOL     OW29845   2.020   4.360   7.015
 9649SOL    HW129846   1.952   4.426   6.983
 9649SOL    HW229847   1.975   4.289   0.045
 9650SOL     OW29848   4.875   4.922   3.318
 9650SOL    HW129849   4.775   4.927   3.326
 9650SOL    HW229850   4.907   4.989   3.250
 9651SOL     OW29851   5.462   1.560   1.028
 9651SOL    HW129852   5.448   1.475   1.079
 9651SOL    HW229853   5.388   1.624   1.050
 9652SOL     OW29854   1.488   4.739   1.878
 9652SOL    HW129855   1.458   4.675   1.949
 9652SOL    HW229856   1.418   4.745   1.807
 9653SOL     OW29857   5.076   5.430   4.825
 9653SOL    HW129858   5.120   5.395   4.908
 9653SOL    HW229859   5.118   5.389   4.745
 9654SOL     OW29860   3.311   3.186   3.199
 9654SOL    HW129861   3.212   3.200   3.196
 9654SOL    HW229862   3.350   3.205   3.109
 9655SOL     OW29863   0.191   1.680   0.375
 9655SOL    HW129864   0.284   1.650   0.354
 9655SOL    HW229865   0.155   1.626   0.452
 9656SOL     OW29866   4.228   2.755   1.065
 9656SOL    HW129867   4.158   2.704   1.016
 9656SOL    HW229868   4.270   2.696   1.135
 9657SOL     OW29869   5.255   3.359   2.781
 9657SOL    HW129870   5.194   3.326   2.708
 9657SOL    HW229871   5.327   3.415   2.741
 9658SOL     OW29872   4.997   1.816   2.420
 9658SOL    HW129873   5.067   1.828   2.491
 9658SOL    HW229874   4.993   1.719   2.395
 9659SOL     OW29875   0.403   3.671   6.713
 9659SOL    HW129876   0.475   3.606   6.736
 9659SOL    HW229877   0.443   3.748   6.663
 9660SOL     OW29878   0.530   6.972   3.060
 9660SOL    HW129879   0.612   6.962   3.116
 9660SOL    HW229880   0.499   6.882   3.029
 9661SOL     OW29881   3.733   6.211   1.422
 9661SOL    HW129882   3.751   6.247   1.514
 9661SOL    HW229883   3.658   6.146   1.425
 9662SOL     OW29884   3.982   2.951   5.924
 9662SOL    HW129885   4.025   2.978   6.010
 9662SOL    HW229886   3.921   2.873   5.940
 9663SOL     OW29887   6.345   6.207   2.050
 9663SOL    HW129888   6.255   6.248   2.041
 9663SOL    HW229889   6.415   6.279   2.051
 9664SOL     OW29890   5.802   5.081   4.416
 9664SOL    HW129891   5.721   5.115   4.466
 9664SOL    HW229892   5.831   4.994   4.455
 9665SOL     OW29893   6.020   6.234   6.461
 9665SOL    HW129894   5.931   6.262   6.425
 9665SOL    HW229895   6.091   6.296   6.427
 9666SOL     OW29896   6.576   4.159   2.271
 9666SOL    HW129897   6.601   4.208   2.188
 9666SOL    HW229898   6.527   4.220   2.332
 9667SOL     OW29899   4.006   3.387   6.882
 9667SOL    HW129900   4.021   3.304   6.828
 9667SOL    HW229901   3.908   3.397   6.899
 9668SOL     OW29902   0.219   0.914   6.223
 9668SOL    HW129903   0.195   0.852   6.297
 9668SOL    HW229904   0.319   0.918   6.214
 9669SOL     OW29905   2.064   0.186   1.818
 9669SOL    HW129906   2.005   0.114   1.782
 9669SOL    HW229907   2.038   0.206   1.912
 9670SOL     OW29908   0.029   4.912   5.869
 9670SOL    HW129909   0.120   4.901   5.909
 9670SOL    HW229910   7.021   5.005   5.886
 9671SOL     OW29911   0.104   4.102   7.020
 9671SOL    HW129912   0.035   4.039   0.031
 9671SOL    HW229913   0.133   4.071   6.929
 9672SOL     OW29914   1.693   5.469   3.344
 9672SOL    HW129915   1.631   5.398   3.375
 9672SOL    HW229916   1.707   5.536   3.417
 9673SOL     OW29917   4.339   3.712   1.542
 9673SOL    HW129918   4.362   3.638   1.478
 9673SOL    HW229919   4.275   3.775   1.498
 9674SOL     OW29920   3.151   0.167   3.355
 9674SOL    HW129921   3.212   0.093   3.382
 9674SOL    HW229922   3.182   0.206   3.268
 9675SOL     OW29923   5.726   2.639   6.629
 9675SOL    HW129924   5.790   2.689   6.571
 9675SOL    HW229925   5.769   2.557   6.665
 9676SOL     OW29926   1.579   3.331   5.689
 9676SOL    HW129927   1.676   3.328   5.712
 9676SOL    HW229928   1.564   3.397   5.616
 9677SOL     OW29929   6.918   5.580   4.746
 9677SOL    HW129930   6.953   5.667   4.711
 9677SOL    HW229931   6.821   5.573   4.726
 9678SOL     OW29932   3.010   3.742   3.894
 9678SOL    HW129933   2.997   3.659   3.948
 9678SOL    HW229934   3.005   3.822   3.954
 9679SOL     OW29935   3.114   1.099   3.512
 9679SOL    HW129936   3.050   1.038   3.465
 9679SOL    HW229937   3.097   1.194   3.485
 9680SOL     OW29938   4.433   0.932   3.373
 9680SOL    HW129939   4.521   0.962   3.410
 9680SOL    HW229940   4.390   1.007   3.324
 9681SOL     OW29941   3.092   1.751   0.822
 9681SOL    HW129942   3.134   1.727   0.910
 9681SOL    HW229943   3.153   1.724   0.748
 9682SOL     OW29944   4.699   4.259   3.697
 9682SOL    HW129945   4.652   4.314   3.765
 9682SOL    HW229946   4.659   4.276   3.607
 9683SOL     OW29947   3.513   6.346   1.828
 9683SOL    HW129948   3.500   6.370   1.731
 9683SOL    HW229949   3.427   6.313   1.866
 9684SOL     OW29950   0.670   3.296   5.999
 9684SOL    HW129951   0.726   3.325   6.077
 9684SOL    HW229952   0.727   3.245   5.935
 9685SOL     OW29953   3.937   4.471   0.871
 9685SOL    HW129954   3.967   4.541   0.935
 9685SOL    HW229955   4.006   4.399   0.865
 9686SOL     OW29956   0.598   3.238   6.772
 9686SOL    HW129957   0.664   3.165   6.792
 9686SOL    HW229958   0.511   3.198   6.744
 9687SOL     OW29959   1.059   0.733   3.991
 9687SOL    HW129960   1.094   0.813   3.943
 9687SOL    HW229961   1.018   0.761   4.077
 9688SOL     OW29962   1.169   3.006   1.329
 9688SOL    HW129963   1.089   3.042   1.281
 9688SOL    HW229964   1.214   2.938   1.271
 9689SOL     OW29965   0.794   4.357   6.205
 9689SOL    HW129966   0.809   4.283   6.140
 9689SOL    HW229967   0.879   4.408   6.217
 9690SOL     OW29968   6.247   5.742   6.702
 9690SOL    HW129969   6.220   5.802   6.627
 9690SOL    HW229970   6.166   5.701   6.744
 9691SOL     OW29971   3.591   5.111   1.319
 9691SOL    HW129972   3.575   5.114   1.417
 9691SOL    HW229973   3.637   5.026   1.294
 9692SOL     OW29974   4.035   5.976   2.014
 9692SOL    HW129975   4.130   5.984   1.983
 9692SOL    HW229976   3.974   5.973   1.934
 9693SOL     OW29977   5.319   3.977   2.586
 9693SOL    HW129978   5.399   4.029   2.556
 9693SOL    HW229979   5.303   3.901   2.523
 9694SOL     OW29980   3.081   1.475   1.413
 9694SOL    HW129981   3.082   1.541   1.489
 9694SOL    HW229982   3.003   1.495   1.353
 9695SOL     OW29983   0.218   3.047   3.218
 9695SOL    HW129984   0.305   3.050   3.169
 9695SOL    HW229985   0.164   3.128   3.195
 9696SOL     OW29986   5.469   2.914   1.542
 9696SOL    HW129987   5.531   2.879   1.472
 9696SOL    HW229988   5.375   2.892   1.517
 9697SOL     OW29989   0.451   4.966   6.921
 9697SOL    HW129990   0.457   4.988   6.823
 9697SOL    HW229991   0.540   4.977   6.964
 9698SOL     OW29992   5.407   1.943   6.164
 9698SOL    HW129993   5.316   1.931   6.123
 9698SOL    HW229994   5.476   1.903   6.103
 9699SOL     OW29995   6.489   5.802   6.566
 9699SOL    HW129996   6.411   5.773   6.622
 9699SOL    HW229997   6.455   5.840   6.480
 9700SOL     OW29998   4.569   5.482   5.113
 9700SOL    HW129999   4.570   5.575   5.075
 9700SOL    HW230000   4.617   5.420   5.051
 9701SOL     OW30001   4.094   4.828   5.795
 9701SOL    HW130002   4.089   4.733   5.823
 9701SOL    HW230003   4.159   4.837   5.719
 9702SOL     OW30004   4.442   0.723   6.767
 9702SOL    HW130005   4.472   0.703   6.860
 9702SOL    HW230006   4.414   0.819   6.761
 9703SOL     OW30007   4.829   3.811   3.679
 9703SOL    HW130008   4.775   3.782   3.600
 9703SOL    HW230009   4.829   3.738   3.747
 9704SOL     OW30010   3.577   6.744   1.753
 9704SOL    HW130011   3.608   6.709   1.665
 9704SOL    HW230012   3.495   6.694   1.782
 9705SOL     OW30013   5.718   4.264   5.652
 9705SOL    HW130014   5.689   4.319   5.730
 9705SOL    HW230015   5.779   4.192   5.683
 9706SOL     OW30016   2.378   2.943   0.806
 9706SOL    HW130017   2.316   2.926   0.883
 9706SOL    HW230018   2.332   3.000   0.738
 9707SOL     OW30019   6.211   4.422   2.296
 9707SOL    HW130020   6.130   4.466   2.334
 9707SOL    HW230021   6.253   4.482   2.228
 9708SOL     OW30022   1.474   1.935   3.995
 9708SOL    HW130023   1.401   1.905   3.934
 9708SOL    HW230024   1.515   1.856   4.041
 9709SOL     OW30025   5.241   6.207   3.095
 9709SOL    HW130026   5.296   6.249   3.022
 9709SOL    HW230027   5.173   6.272   3.128
 9710SOL     OW30028   0.059   1.639   1.515
 9710SOL    HW130029   0.125   1.599   1.451
 9710SOL    HW230030   7.014   1.572   1.537
 9711SOL     OW30031   3.693   5.460   6.014
 9711SOL    HW130032   3.640   5.377   5.999
 9711SOL    HW230033   3.744   5.483   5.931
 9712SOL     OW30034   5.582   4.003   6.232
 9712SOL    HW130035   5.610   3.985   6.326
 9712SOL    HW230036   5.577   4.102   6.218
 9713SOL     OW30037   1.557   4.535   3.320
 9713SOL    HW130038   1.499   4.514   3.242
 9713SOL    HW230039   1.502   4.530   3.404
 9714SOL     OW30040   4.246   6.167   6.343
 9714SOL    HW130041   4.172   6.141   6.406
 9714SOL    HW230042   4.278   6.259   6.365
 9715SOL     OW30043   5.623   4.400   0.049
 9715SOL    HW130044   5.526   4.399   0.070
 9715SOL    HW230045   5.646   4.325   7.012
 9716SOL     OW30046   3.582   4.871   6.834
 9716SOL    HW130047   3.656   4.811   6.807
 9716SOL    HW230048   3.512   4.819   6.883
 9717SOL     OW30049   5.544   6.023   5.795
 9717SOL    HW130050   5.449   5.994   5.802
 9717SOL    HW230051   5.564   6.050   5.701
 9718SOL     OW30052   5.271   3.424   0.623
 9718SOL    HW130053   5.332   3.457   0.696
 9718SOL    HW230054   5.186   3.476   0.624
 9719SOL     OW30055   6.626   1.096   5.718
 9719SOL    HW130056   6.686   1.127   5.644
 9719SOL    HW230057   6.531   1.115   5.693
 9720SOL     OW30058   0.540   5.144   2.328
 9720SOL    HW130059   0.441   5.146   2.343
 9720SOL    HW230060   0.559   5.156   2.230
 9721SOL     OW30061   0.346   1.946   0.531
 9721SOL    HW130062   0.413   1.995   0.587
 9721SOL    HW230063   0.293   2.010   0.476
 9722SOL     OW30064   4.338   1.004   4.663
 9722SOL    HW130065   4.306   1.004   4.568
 9722SOL    HW230066   4.425   1.053   4.669
 9723SOL     OW30067   2.955   6.850   3.174
 9723SOL    HW130068   2.988   6.861   3.080
 9723SOL    HW230069   2.903   6.766   3.182
 9724SOL     OW30070   1.349   4.547   0.350
 9724SOL    HW130071   1.320   4.625   0.296
 9724SOL    HW230072   1.296   4.544   0.435
 9725SOL     OW30073   4.905   5.447   5.808
 9725SOL    HW130074   4.871   5.382   5.740
 9725SOL    HW230075   5.003   5.433   5.821
 9726SOL     OW30076   5.270   1.457   3.816
 9726SOL    HW130077   5.262   1.518   3.896
 9726SOL    HW230078   5.237   1.366   3.841
 9727SOL     OW30079   1.048   2.736   0.057
 9727SOL    HW130080   1.083   2.771   0.144
 9727SOL    HW230081   1.123   2.699   0.003
 9728SOL     OW30082   1.463   0.174   5.466
 9728SOL    HW130083   1.480   0.084   5.424
 9728SOL    HW230084   1.410   0.230   5.404
 9729SOL     OW30085   1.291   4.753   3.165
 9729SOL    HW130086   1.366   4.688   3.150
 9729SOL    HW230087   1.300   4.829   3.101
 9730SOL     OW30088   1.550   4.140   3.698
 9730SOL    HW130089   1.573   4.068   3.764
 9730SOL    HW230090   1.552   4.102   3.606
 9731SOL     OW30091   5.111   4.435   1.154
 9731SOL    HW130092   5.145   4.342   1.166
 9731SOL    HW230093   5.158   4.496   1.218
 9732SOL     OW30094   6.814   5.355   2.439
 9732SOL    HW130095   6.779   5.296   2.367
 9732SOL    HW230096   6.891   5.310   2.485
 9733SOL     OW30097   5.516   5.070   0.158
 9733SOL    HW130098   5.552   5.027   0.075
 9733SOL    HW230099   5.538   5.013   0.237
 9734SOL     OW30100   6.573   1.939   0.870
 9734SOL    HW130101   6.563   1.860   0.809
 9734SOL    HW230102   6.516   1.926   0.951
 9735SOL     OW30103   1.980   3.543   3.668
 9735SOL    HW130104   2.034   3.525   3.750
 9735SOL    HW230105   1.905   3.477   3.661
 9736SOL     OW30106   6.062   1.783   6.334
 9736SOL    HW130107   5.991   1.794   6.404
 9736SOL    HW230108   6.119   1.704   6.356
 9737SOL     OW30109   5.697   3.148   3.239
 9737SOL    HW130110   5.786   3.127   3.198
 9737SOL    HW230111   5.699   3.241   3.276
 9738SOL     OW30112   2.115   0.537   0.496
 9738SOL    HW130113   2.080   0.456   0.448
 9738SOL    HW230114   2.211   0.551   0.473
 9739SOL     OW30115   5.742   5.181   1.500
 9739SOL    HW130116   5.673   5.249   1.528
 9739SOL    HW230117   5.723   5.094   1.545
 9740SOL     OW30118   6.812   1.433   3.657
 9740SOL    HW130119   6.842   1.479   3.574
 9740SOL    HW230120   6.888   1.382   3.697
 9741SOL     OW30121   3.864   1.641   2.808
 9741SOL    HW130122   3.773   1.659   2.845
 9741SOL    HW230123   3.923   1.604   2.880
 9742SOL     OW30124   4.850   1.292   0.650
 9742SOL    HW130125   4.898   1.246   0.575
 9742SOL    HW230126   4.868   1.390   0.646
 9743SOL     OW30127   6.579   3.018   4.797
 9743SOL    HW130128   6.534   3.077   4.865
 9743SOL    HW230129   6.651   3.070   4.750
 9744SOL     OW30130   2.074   6.972   2.100
 9744SOL    HW130131   2.096   0.006   2.178
 9744SOL    HW230132   2.067   6.877   2.131
 9745SOL     OW30133   5.466   2.527   6.568
 9745SOL    HW130134   5.541   2.579   6.610
 9745SOL    HW230135   5.477   2.430   6.590
 9746SOL     OW30136   6.261   0.233   5.342
 9746SOL    HW130137   6.170   0.248   5.383
 9746SOL    HW230138   6.276   0.301   5.271
 9747SOL     OW30139   2.616   0.973   1.544
 9747SOL    HW130140   2.607   1.040   1.470
 9747SOL    HW230141   2.650   0.887   1.506
 9748SOL     OW30142   7.010   0.785   3.272
 9748SOL    HW130143   0.020   0.722   3.203
 9748SOL    HW230144   6.945   0.738   3.331
 9749SOL     OW30145   2.806   0.409   4.174
 9749SOL    HW130146   2.725   0.467   4.182
 9749SOL    HW230147   2.831   0.374   4.264
 9750SOL     OW30148   5.899   3.943   3.069
 9750SOL    HW130149   5.948   3.901   2.993
 9750SOL    HW230150   5.856   3.871   3.124
 9751SOL     OW30151   2.190   1.204   0.448
 9751SOL    HW130152   2.102   1.233   0.411
 9751SOL    HW230153   2.243   1.284   0.476
 9752SOL     OW30154   4.280   2.273   4.991
 9752SOL    HW130155   4.206   2.232   4.939
 9752SOL    HW230156   4.246   2.352   5.043
 9753SOL     OW30157   0.066   5.478   6.229
 9753SOL    HW130158   0.135   5.441   6.167
 9753SOL    HW230159   0.085   5.574   6.247
 9754SOL     OW30160   2.102   0.707   0.158
 9754SOL    HW130161   2.073   0.719   0.063
 9754SOL    HW230162   2.035   0.748   0.220
 9755SOL     OW30163   3.788   3.744   4.543
 9755SOL    HW130164   3.789   3.677   4.618
 9755SOL    HW230165   3.875   3.793   4.542
 9756SOL     OW30166   5.697   3.393   0.171
 9756SOL    HW130167   5.770   3.431   0.227
 9756SOL    HW230168   5.709   3.294   0.162
 9757SOL     OW30169   5.768   3.873   3.649
 9757SOL    HW130170   5.700   3.876   3.723
 9757SOL    HW230171   5.732   3.923   3.570
 9758SOL     OW30172   2.754   0.336   6.701
 9758SOL    HW130173   2.764   0.273   6.777
 9758SOL    HW230174   2.833   0.329   6.640
 9759SOL     OW30175   1.423   0.170   0.136
 9759SOL    HW130176   1.329   0.195   0.112
 9759SOL    HW230177   1.486   0.241   0.105
 9760SOL     OW30178   5.037   2.817   5.466
 9760SOL    HW130179   4.987   2.903   5.478
 9760SOL    HW230180   4.989   2.760   5.399
 9761SOL     OW30181   6.762   1.265   2.101
 9761SOL    HW130182   6.799   1.315   2.179
 9761SOL    HW230183   6.663   1.278   2.096
 9762SOL     OW30184   3.326   1.434   4.513
 9762SOL    HW130185   3.271   1.398   4.588
 9762SOL    HW230186   3.394   1.498   4.549
 9763SOL     OW30187   4.747   1.700   2.257
 9763SOL    HW130188   4.826   1.640   2.267
 9763SOL    HW230189   4.775   1.795   2.269
 9764SOL     OW30190   0.348   2.804   3.124
 9764SOL    HW130191   0.363   2.789   3.027
 9764SOL    HW230192   0.379   2.724   3.176
 9765SOL     OW30193   6.733   0.202   3.191
 9765SOL    HW130194   6.779   0.114   3.182
 9765SOL    HW230195   6.689   0.207   3.281
 9766SOL     OW30196   2.600   6.719   2.281
 9766SOL    HW130197   2.610   6.774   2.363
 9766SOL    HW230198   2.684   6.666   2.265
 9767SOL     OW30199   3.927   1.060   5.292
 9767SOL    HW130200   3.862   1.041   5.365
 9767SOL    HW230201   3.994   0.986   5.288
 9768SOL     OW30202   5.984   1.556   2.199
 9768SOL    HW130203   5.920   1.597   2.264
 9768SOL    HW230204   6.064   1.615   2.191
 9769SOL     OW30205   3.988   1.214   3.112
 9769SOL    HW130206   4.031   1.280   3.051
 9769SOL    HW230207   4.047   1.133   3.120
 9770SOL     OW30208   4.521   1.044   6.462
 9770SOL    HW130209   4.463   1.105   6.517
 9770SOL    HW230210   4.609   1.032   6.509
 9771SOL     OW30211   2.739   6.418   0.218
 9771SOL    HW130212   2.776   6.389   0.129
 9771SOL    HW230213   2.757   6.516   0.231
 9772SOL     OW30214   2.237   6.204   1.551
 9772SOL    HW130215   2.162   6.270   1.548
 9772SOL    HW230216   2.288   6.207   1.465
 9773SOL     OW30217   4.859   5.657   4.014
 9773SOL    HW130218   4.876   5.594   4.090
 9773SOL    HW230219   4.888   5.615   3.928
 9774SOL     OW30220   0.420   5.236   1.728
 9774SOL    HW130221   0.431   5.144   1.692
 9774SOL    HW230222   0.451   5.239   1.823
 9775SOL     OW30223   2.540   0.736   3.474
 9775SOL    HW130224   2.509   0.766   3.565
 9775SOL    HW230225   2.586   0.648   3.482
 9776SOL     OW30226   1.184   4.480   4.847
 9776SOL    HW130227   1.236   4.464   4.930
 9776SOL    HW230228   1.140   4.394   4.818
 9777SOL     OW30229   6.895   5.892   7.022
 9777SOL    HW130230   6.836   5.825   6.976
 9777SOL    HW230231   6.967   5.921   6.959
 9778SOL     OW30232   7.016   0.907   4.370
 9778SOL    HW130233   6.941   0.941   4.313
 9778SOL    HW230234   0.031   0.826   4.328
 9779SOL     OW30235   1.181   1.496   4.359
 9779SOL    HW130236   1.116   1.424   4.336
 9779SOL    HW230237   1.248   1.506   4.286
 9780SOL     OW30238   2.076   2.321   1.123
 9780SOL    HW130239   2.020   2.247   1.087
 9780SOL    HW230240   2.167   2.286   1.145
 9781SOL     OW30241   2.056   3.597   4.411
 9781SOL    HW130242   2.067   3.650   4.495
 9781SOL    HW230243   2.110   3.513   4.416
 9782SOL     OW30244   0.197   1.034   1.327
 9782SOL    HW130245   0.132   1.094   1.280
 9782SOL    HW230246   0.275   1.088   1.360
 9783SOL     OW30247   3.986   2.176   2.742
 9783SOL    HW130248   3.988   2.152   2.839
 9783SOL    HW230249   3.898   2.220   2.721
 9784SOL     OW30250   3.278   1.557   4.874
 9784SOL    HW130251   3.265   1.489   4.802
 9784SOL    HW230252   3.230   1.528   4.956
 9785SOL     OW30253   0.783   2.534   6.338
 9785SOL    HW130254   0.841   2.573   6.266
 9785SOL    HW230255   0.786   2.434   6.333
 9786SOL     OW30256   2.078   4.239   0.405
 9786SOL    HW130257   2.142   4.206   0.474
 9786SOL    HW230258   1.992   4.188   0.412
 9787SOL     OW30259   4.109   3.908   1.906
 9787SOL    HW130260   4.133   3.812   1.897
 9787SOL    HW230261   4.169   3.963   1.848
 9788SOL     OW30262   0.957   0.955   3.637
 9788SOL    HW130263   0.890   0.892   3.678
 9788SOL    HW230264   0.925   0.982   3.546
 9789SOL     OW30265   1.970   5.424   0.951
 9789SOL    HW130266   1.997   5.473   1.034
 9789SOL    HW230267   1.910   5.482   0.896
 9790SOL     OW30268   6.506   4.486   6.877
 9790SOL    HW130269   6.491   4.513   6.972
 9790SOL    HW230270   6.585   4.535   6.840
 9791SOL     OW30271   0.538   1.533   2.159
 9791SOL    HW130272   0.605   1.525   2.085
 9791SOL    HW230273   0.446   1.535   2.120
 9792SOL     OW30274   4.261   4.962   0.509
 9792SOL    HW130275   4.294   4.915   0.428
 9792SOL    HW230276   4.176   5.010   0.488
 9793SOL     OW30277   4.184   6.494   2.669
 9793SOL    HW130278   4.098   6.454   2.635
 9793SOL    HW230279   4.214   6.443   2.749
 9794SOL     OW30280   0.082   4.402   0.018
 9794SOL    HW130281   0.085   4.303   0.004
 9794SOL    HW230282   0.086   4.423   0.115
 9795SOL     OW30283   2.214   1.691   4.212
 9795SOL    HW130284   2.271   1.765   4.176
 9795SOL    HW230285   2.227   1.609   4.158
 9796SOL     OW30286   3.372   2.641   1.619
 9796SOL    HW130287   3.323   2.679   1.698
 9796SOL    HW230288   3.430   2.712   1.579
 9797SOL     OW30289   2.382   5.556   0.297
 9797SOL    HW130290   2.465   5.522   0.343
 9797SOL    HW230291   2.340   5.628   0.353
 9798SOL     OW30292   2.594   0.622   1.837
 9798SOL    HW130293   2.616   0.527   1.862
 9798SOL    HW230294   2.672   0.663   1.790
 9799SOL     OW30295   3.186   3.094   4.956
 9799SOL    HW130296   3.227   3.025   4.896
 9799SOL    HW230297   3.157   3.173   4.902
 9800SOL     OW30298   3.651   5.742   4.814
 9800SOL    HW130299   3.552   5.734   4.802
 9800SOL    HW230300   3.673   5.739   4.911
 9801SOL     OW30301   4.587   4.066   0.180
 9801SOL    HW130302   4.535   4.127   0.239
 9801SOL    HW230303   4.562   4.084   0.084
 9802SOL     OW30304   0.217   4.092   1.322
 9802SOL    HW130305   0.261   4.158   1.383
 9802SOL    HW230306   0.119   4.111   1.318
 9803SOL     OW30307   1.069   2.389   6.816
 9803SOL    HW130308   1.055   2.313   6.880
 9803SOL    HW230309   0.980   2.427   6.790
 9804SOL     OW30310   1.986   6.686   2.458
 9804SOL    HW130311   1.940   6.769   2.489
 9804SOL    HW230312   1.931   6.607   2.481
 9805SOL     OW30313   1.762   6.886   3.800
 9805SOL    HW130314   1.833   6.952   3.779
 9805SOL    HW230315   1.801   6.794   3.803
 9806SOL     OW30316   1.161   0.642   0.022
 9806SOL    HW130317   1.242   0.608   0.070
 9806SOL    HW230318   1.115   0.711   0.078
 9807SOL     OW30319   3.023   4.296   0.234
 9807SOL    HW130320   2.960   4.341   0.171
 9807SOL    HW230321   3.113   4.339   0.229
 9808SOL     OW30322   4.204   0.393   5.373
 9808SOL    HW130323   4.239   0.396   5.280
 9808SOL    HW230324   4.256   0.327   5.427
 9809SOL     OW30325   1.357   2.512   5.870
 9809SOL    HW130326   1.272   2.462   5.888
 9809SOL    HW230327   1.406   2.468   5.795
 9810SOL     OW30328   2.182   2.673   3.926
 9810SOL    HW130329   2.095   2.624   3.925
 9810SOL    HW230330   2.255   2.614   3.890
 9811SOL     OW30331   5.366   4.765   3.144
 9811SOL    HW130332   5.314   4.821   3.209
 9811SOL    HW230333   5.338   4.670   3.153
 9812SOL     OW30334   3.423   2.147   5.775
 9812SOL    HW130335   3.435   2.114   5.682
 9812SOL    HW230336   3.326   2.148   5.797
 9813SOL     OW30337   5.597   1.311   0.727
 9813SOL    HW130338   5.697   1.303   0.731
 9813SOL    HW230339   5.556   1.261   0.803
 9814SOL     OW30340   0.041   0.045   0.310
 9814SOL    HW130341   0.008   0.133   0.275
 9814SOL    HW230342   0.141   0.045   0.311
 9815SOL     OW30343   5.140   4.239   3.375
 9815SOL    HW130344   5.089   4.196   3.301
 9815SOL    HW230345   5.145   4.338   3.359
 9816SOL     OW30346   0.267   1.186   6.140
 9816SOL    HW130347   0.208   1.111   6.169
 9816SOL    HW230348   0.332   1.152   6.072
 9817SOL     OW30349   2.967   0.203   3.015
 9817SOL    HW130350   3.066   0.190   3.010
 9817SOL    HW230351   2.927   0.180   2.926
 9818SOL     OW30352   1.499   0.790   4.448
 9818SOL    HW130353   1.546   0.779   4.360
 9818SOL    HW230354   1.469   0.885   4.458
 9819SOL     OW30355   4.898   3.129   3.853
 9819SOL    HW130356   4.937   3.161   3.940
 9819SOL    HW230357   4.818   3.071   3.873
 9820SOL     OW30358   4.234   3.666   6.514
 9820SOL    HW130359   4.183   3.580   6.504
 9820SOL    HW230360   4.329   3.646   6.539
 9821SOL     OW30361   5.251   0.789   0.052
 9821SOL    HW130362   5.257   0.786   0.151
 9821SOL    HW230363   5.190   0.716   0.020
 9822SOL     OW30364   2.582   6.162   3.521
 9822SOL    HW130365   2.484   6.179   3.524
 9822SOL    HW230366   2.600   6.067   3.547
 9823SOL     OW30367   2.582   1.354   6.861
 9823SOL    HW130368   2.634   1.308   6.789
 9823SOL    HW230369   2.565   1.449   6.834
 9824SOL     OW30370   2.000   4.850   4.440
 9824SOL    HW130371   2.030   4.778   4.377
 9824SOL    HW230372   2.080   4.895   4.481
 9825SOL     OW30373   5.216   5.694   4.247
 9825SOL    HW130374   5.170   5.713   4.334
 9825SOL    HW230375   5.191   5.764   4.180
 9826SOL     OW30376   4.515   5.220   5.474
 9826SOL    HW130377   4.529   5.241   5.570
 9826SOL    HW230378   4.601   5.234   5.424
 9827SOL     OW30379   1.677   4.396   3.710
 9827SOL    HW130380   1.754   4.407   3.773
 9827SOL    HW230381   1.643   4.302   3.713
 9828SOL     OW30382   2.286   2.310   5.457
 9828SOL    HW130383   2.215   2.361   5.408
 9828SOL    HW230384   2.317   2.234   5.401
 9829SOL     OW30385   4.500   5.191   6.559
 9829SOL    HW130386   4.523   5.243   6.477
 9829SOL    HW230387   4.402   5.199   6.577
 9830SOL     OW30388   4.909   1.929   1.888
 9830SOL    HW130389   4.955   1.931   1.976
 9830SOL    HW230390   4.915   2.019   1.845
 9831SOL     OW30391   1.429   5.166   1.925
 9831SOL    HW130392   1.492   5.204   1.994
 9831SOL    HW230393   1.412   5.070   1.947
 9832SOL     OW30394   4.789   5.660   2.503
 9832SOL    HW130395   4.829   5.574   2.473
 9832SOL    HW230396   4.734   5.644   2.585
 9833SOL     OW30397   3.344   3.263   4.464
 9833SOL    HW130398   3.282   3.336   4.490
 9833SOL    HW230399   3.321   3.231   4.371
 9834SOL     OW30400   2.376   4.254   5.288
 9834SOL    HW130401   2.467   4.295   5.282
 9834SOL    HW230402   2.375   4.168   5.236
 9835SOL     OW30403   4.400   3.577   5.228
 9835SOL    HW130404   4.311   3.587   5.183
 9835SOL    HW230405   4.468   3.551   5.160
 9836SOL     OW30406   6.568   4.231   3.643
 9836SOL    HW130407   6.659   4.203   3.612
 9836SOL    HW230408   6.566   4.234   3.743
 9837SOL     OW30409   3.838   7.007   2.299
 9837SOL    HW130410   3.885   7.000   2.387
 9837SOL    HW230411   3.848   0.074   2.263
 9838SOL     OW30412   1.512   6.717   0.615
 9838SOL    HW130413   1.577   6.665   0.559
 9838SOL    HW230414   1.556   6.744   0.700
 9839SOL     OW30415   5.027   6.972   3.946
 9839SOL    HW130416   5.017   0.038   3.905
 9839SOL    HW230417   4.961   6.909   3.905
 9840SOL     OW30418   5.618   2.089   1.161
 9840SOL    HW130419   5.611   1.996   1.195
 9840SOL    HW230420   5.559   2.100   1.080
 9841SOL     OW30421   1.458   4.187   5.553
 9841SOL    HW130422   1.361   4.166   5.560
 9841SOL    HW230423   1.476   4.231   5.466
 9842SOL     OW30424   3.390   3.041   1.593
 9842SOL    HW130425   3.451   3.071   1.665
 9842SOL    HW230426   3.443   3.015   1.512
 9843SOL     OW30427   6.944   0.502   2.114
 9843SOL    HW130428   6.970   0.487   2.210
 9843SOL    HW230429   6.896   0.590   2.106
 9844SOL     OW30430   6.771   1.209   2.910
 9844SOL    HW130431   6.825   1.278   2.958
 9844SOL    HW230432   6.701   1.173   2.972
 9845SOL     OW30433   1.949   2.834   3.266
 9845SOL    HW130434   1.865   2.811   3.316
 9845SOL    HW230435   1.926   2.860   3.172
 9846SOL     OW30436   3.638   2.361   1.308
 9846SOL    HW130437   3.686   2.437   1.350
 9846SOL    HW230438   3.674   2.344   1.216
 9847SOL     OW30439   3.722   2.968   3.277
 9847SOL    HW130440   3.624   2.952   3.281
 9847SOL    HW230441   3.762   2.952   3.367
 9848SOL     OW30442   3.913   3.118   5.045
 9848SOL    HW130443   3.926   3.184   5.119
 9848SOL    HW230444   3.895   3.027   5.084
 9849SOL     OW30445   0.885   6.992   6.082
 9849SOL    HW130446   0.937   6.909   6.065
 9849SOL    HW230447   0.828   6.981   6.163
 9850SOL     OW30448   6.508   6.939   3.787
 9850SOL    HW130449   6.409   6.932   3.776
 9850SOL    HW230450   6.549   6.984   3.708
 9851SOL     OW30451   0.003   0.071   4.587
 9851SOL    HW130452   0.001   0.100   4.491
 9851SOL    HW230453   6.941   0.094   4.630
 9852SOL     OW30454   3.284   1.657   4.323
 9852SOL    HW130455   3.250   1.709   4.401
 9852SOL    HW230456   3.376   1.624   4.342
 9853SOL     OW30457   5.229   4.099   4.889
 9853SOL    HW130458   5.328   4.107   4.873
 9853SOL    HW230459   5.199   4.173   4.948
 9854SOL     OW30460   6.681   5.828   4.488
 9854SOL    HW130461   6.651   5.921   4.470
 9854SOL    HW230462   6.773   5.830   4.529
 9855SOL     OW30463   1.975   3.688   1.199
 9855SOL    HW130464   1.925   3.646   1.275
 9855SOL    HW230465   2.073   3.676   1.213
 9856SOL     OW30466   4.867   4.305   4.810
 9856SOL    HW130467   4.852   4.210   4.781
 9856SOL    HW230468   4.789   4.361   4.782
 9857SOL     OW30469   4.829   3.207   2.759
 9857SOL    HW130470   4.918   3.226   2.716
 9857SOL    HW230471   4.772   3.155   2.695
 9858SOL     OW30472   6.726   0.234   1.257
 9858SOL    HW130473   6.637   0.243   1.212
 9858SOL    HW230474   6.747   0.319   1.306
 9859SOL     OW30475   6.173   6.207   2.494
 9859SOL    HW130476   6.246   6.191   2.560
 9859SOL    HW230477   6.198   6.168   2.406
 9860SOL     OW30478   1.947   2.530   3.753
 9860SOL    HW130479   1.915   2.469   3.825
 9860SOL    HW230480   1.868   2.562   3.699
 9861SOL     OW30481   2.949   0.469   3.139
 9861SOL    HW130482   2.956   0.374   3.110
 9861SOL    HW230483   3.028   0.520   3.106
 9862SOL     OW30484   3.081   2.928   6.919
 9862SOL    HW130485   3.081   2.843   6.866
 9862SOL    HW230486   3.049   2.908   7.012
 9863SOL     OW30487   3.307   6.660   2.281
 9863SOL    HW130488   3.388   6.705   2.245
 9863SOL    HW230489   3.234   6.727   2.295
 9864SOL     OW30490   2.843   0.357   3.617
 9864SOL    HW130491   2.861   0.262   3.593
 9864SOL    HW230492   2.929   0.403   3.639
 9865SOL     OW30493   1.523   6.946   4.624
 9865SOL    HW130494   1.465   6.909   4.696
 9865SOL    HW230495   1.592   6.879   4.599
 9866SOL     OW30496   5.092   4.391   6.046
 9866SOL    HW130497   5.171   4.341   6.009
 9866SOL    HW230498   5.075   4.362   6.140
 9867SOL     OW30499   7.018   1.530   1.119
 9867SOL    HW130500   6.966   1.606   1.159
 9867SOL    HW230501   0.070   1.567   1.066
 9868SOL     OW30502   0.130   3.486   4.651
 9868SOL    HW130503   0.227   3.471   4.630
 9868SOL    HW230504   0.081   3.514   4.569
 9869SOL     OW30505   0.505   2.661   1.254
 9869SOL    HW130506   0.567   2.683   1.178
 9869SOL    HW230507   0.512   2.563   1.275
 9870SOL     OW30508   4.135   5.504   2.655
 9870SOL    HW130509   4.180   5.554   2.729
 9870SOL    HW230510   4.063   5.446   2.694
 9871SOL     OW30511   6.471   4.759   5.886
 9871SOL    HW130512   6.498   4.727   5.977
 9871SOL    HW230513   6.383   4.806   5.892
 9872SOL     OW30514   3.094   5.612   5.133
 9872SOL    HW130515   3.128   5.560   5.055
 9872SOL    HW230516   3.124   5.567   5.218
 9873SOL     OW30517   2.274   2.659   1.152
 9873SOL    HW130518   2.229   2.622   1.071
 9873SOL    HW230519   2.363   2.697   1.126
 9874SOL     OW30520   5.780   3.517   5.114
 9874SOL    HW130521   5.757   3.598   5.168
 9874SOL    HW230522   5.857   3.469   5.157
 9875SOL     OW30523   6.148   5.306   2.082
 9875SOL    HW130524   6.232   5.332   2.129
 9875SOL    HW230525   6.081   5.381   2.089
 9876SOL     OW30526   5.378   0.686   3.895
 9876SOL    HW130527   5.312   0.749   3.854
 9876SOL    HW230528   5.349   0.592   3.876
 9877SOL     OW30529   6.393   4.540   4.374
 9877SOL    HW130530   6.349   4.516   4.460
 9877SOL    HW230531   6.334   4.602   4.322
 9878SOL     OW30532   2.541   3.929   5.671
 9878SOL    HW130533   2.456   3.949   5.720
 9878SOL    HW230534   2.604   3.882   5.732
 9879SOL     OW30535   5.005   5.746   5.553
 9879SOL    HW130536   5.086   5.739   5.611
 9879SOL    HW230537   5.023   5.809   5.478
 9880SOL     OW30538   3.058   0.834   0.832
 9880SOL    HW130539   3.155   0.816   0.814
 9880SOL    HW230540   3.014   0.864   0.747
 9881SOL     OW30541   0.380   1.726   5.198
 9881SOL    HW130542   0.442   1.662   5.152
 9881SOL    HW230543   0.300   1.741   5.140
 9882SOL     OW30544   1.630   3.534   5.452
 9882SOL    HW130545   1.729   3.535   5.467
 9882SOL    HW230546   1.603   3.446   5.412
 9883SOL     OW30547   1.151   6.219   0.988
 9883SOL    HW130548   1.203   6.303   1.001
 9883SOL    HW230549   1.198   6.160   0.922
 9884SOL     OW30550   4.850   1.420   0.966
 9884SOL    HW130551   4.864   1.342   0.905
 9884SOL    HW230552   4.785   1.483   0.925
 9885SOL     OW30553   6.984   2.441   4.589
 9885SOL    HW130554   6.895   2.406   4.563
 9885SOL    HW230555   6.986   2.456   4.688
 9886SOL     OW30556   1.127   5.379   1.448
 9886SOL    HW130557   1.086   5.289   1.429
 9886SOL    HW230558   1.226   5.373   1.437
 9887SOL     OW30559   4.033   0.117   0.057
 9887SOL    HW130560   3.957   0.053   0.047
 9887SOL    HW230561   4.114   0.080   0.011
 9888SOL     OW30562   5.046   5.428   2.757
 9888SOL    HW130563   4.985   5.370   2.811
 9888SOL    HW230564   5.025   5.417   2.659
 9889SOL     OW30565   6.144   4.745   1.115
 9889SOL    HW130566   6.122   4.780   1.024
 9889SOL    HW230567   6.194   4.815   1.167
 9890SOL     OW30568   0.717   2.242   1.371
 9890SOL    HW130569   0.720   2.256   1.272
 9890SOL    HW230570   0.804   2.269   1.411
 9891SOL     OW30571   6.179   3.261   1.489
 9891SOL    HW130572   6.247   3.334   1.481
 9891SOL    HW230573   6.156   3.246   1.585
 9892SOL     OW30574   1.187   5.275   2.555
 9892SOL    HW130575   1.154   5.338   2.485
 9892SOL    HW230576   1.266   5.316   2.602
 9893SOL     OW30577   6.453   0.264   2.403
 9893SOL    HW130578   6.505   0.330   2.457
 9893SOL    HW230579   6.440   0.180   2.455
 9894SOL     OW30580   3.232   2.260   6.543
 9894SOL    HW130581   3.140   2.292   6.564
 9894SOL    HW230582   3.265   2.304   6.460
 9895SOL     OW30583   5.232   3.207   5.178
 9895SOL    HW130584   5.182   3.150   5.112
 9895SOL    HW230585   5.317   3.239   5.136
 9896SOL     OW30586   5.277   1.160   0.526
 9896SOL    HW130587   5.323   1.248   0.517
 9896SOL    HW230588   5.307   1.100   0.452
 9897SOL     OW30589   5.370   6.833   2.166
 9897SOL    HW130590   5.339   6.861   2.257
 9897SOL    HW230591   5.360   6.734   2.158
 9898SOL     OW30592   0.901   4.817   5.760
 9898SOL    HW130593   0.886   4.911   5.791
 9898SOL    HW230594   0.844   4.799   5.680
 9899SOL     OW30595   0.439   5.591   2.526
 9899SOL    HW130596   0.509   5.662   2.514
 9899SOL    HW230597   0.349   5.635   2.532
 9900SOL     OW30598   2.016   3.504   2.487
 9900SOL    HW130599   2.060   3.532   2.401
 9900SOL    HW230600   2.058   3.419   2.519
 9901SOL     OW30601   2.632   0.998   0.208
 9901SOL    HW130602   2.648   1.087   0.164
 9901SOL    HW230603   2.559   1.007   0.276
 9902SOL     OW30604   4.065   4.147   1.117
 9902SOL    HW130605   4.151   4.193   1.098
 9902SOL    HW230606   4.019   4.125   1.032
 9903SOL     OW30607   5.113   1.667   1.580
 9903SOL    HW130608   5.181   1.660   1.654
 9903SOL    HW230609   5.148   1.620   1.499
 9904SOL     OW30610   0.407   3.346   6.062
 9904SOL    HW130611   0.355   3.264   6.038
 9904SOL    HW230612   0.493   3.348   6.012
 9905SOL     OW30613   1.585   0.680   6.349
 9905SOL    HW130614   1.684   0.693   6.343
 9905SOL    HW230615   1.560   0.659   6.443
 9906SOL     OW30616   1.753   3.492   0.278
 9906SOL    HW130617   1.740   3.576   0.225
 9906SOL    HW230618   1.691   3.493   0.357
 9907SOL     OW30619   1.354   1.128   2.259
 9907SOL    HW130620   1.364   1.141   2.357
 9907SOL    HW230621   1.316   1.037   2.241
 9908SOL     OW30622   0.746   2.735   5.723
 9908SOL    HW130623   0.805   2.813   5.699
 9908SOL    HW230624   0.803   2.658   5.752
 9909SOL     OW30625   3.871   0.807   2.915
 9909SOL    HW130626   3.776   0.796   2.886
 9909SOL    HW230627   3.921   0.859   2.846
 9910SOL     OW30628   1.754   5.302   1.535
 9910SOL    HW130629   1.664   5.272   1.566
 9910SOL    HW230630   1.796   5.360   1.605
 9911SOL     OW30631   3.658   5.760   2.311
 9911SOL    HW130632   3.561   5.747   2.328
 9911SOL    HW230633   3.710   5.695   2.366
 9912SOL     OW30634   4.686   1.193   1.860
 9912SOL    HW130635   4.704   1.225   1.953
 9912SOL    HW230636   4.643   1.266   1.807
 9913SOL     OW30637   5.884   3.006   1.192
 9913SOL    HW130638   5.892   2.912   1.225
 9913SOL    HW230639   5.829   3.008   1.108
 9914SOL     OW30640   0.171   6.644   5.192
 9914SOL    HW130641   0.234   6.640   5.115
 9914SOL    HW230642   0.161   6.553   5.232
 9915SOL     OW30643   5.633   2.373   3.478
 9915SOL    HW130644   5.617   2.304   3.407
 9915SOL    HW230645   5.689   2.335   3.550
 9916SOL     OW30646   1.814   2.266   3.773
 9916SOL    HW130647   1.798   2.168   3.783
 9916SOL    HW230648   1.751   2.304   3.706
 9917SOL     OW30649   3.386   3.623   5.022
 9917SOL    HW130650   3.399   3.529   5.054
 9917SOL    HW230651   3.468   3.677   5.041
 9918SOL     OW30652   1.038   2.993   1.955
 9918SOL    HW130653   1.014   3.090   1.948
 9918SOL    HW230654   1.089   2.965   1.874
 9919SOL     OW30655   2.299   5.960   2.467
 9919SOL    HW130656   2.238   6.031   2.500
 9919SOL    HW230657   2.278   5.938   2.372
 9920SOL     OW30658   4.007   0.601   2.735
 9920SOL    HW130659   3.944   0.667   2.775
 9920SOL    HW230660   3.974   0.574   2.644
 9921SOL     OW30661   4.512   0.043   4.968
 9921SOL    HW130662   4.429   0.047   5.024
 9921SOL    HW230663   4.547   0.135   4.953
 9922SOL     OW30664   4.757   4.469   1.340
 9922SOL    HW130665   4.771   4.372   1.318
 9922SOL    HW230666   4.837   4.503   1.391
 9923SOL     OW30667   6.192   3.026   0.141
 9923SOL    HW130668   6.270   3.087   0.132
 9923SOL    HW230669   6.216   2.949   0.200
 9924SOL     OW30670   4.641   1.671   2.684
 9924SOL    HW130671   4.707   1.745   2.697
 9924SOL    HW230672   4.586   1.660   2.767
 9925SOL     OW30673   1.190   4.975   3.719
 9925SOL    HW130674   1.281   5.014   3.709
 9925SOL    HW230675   1.186   4.887   3.673
 9926SOL     OW30676   4.333   2.762   0.598
 9926SOL    HW130677   4.330   2.833   0.527
 9926SOL    HW230678   4.428   2.745   0.625
 9927SOL     OW30679   1.390   1.405   1.098
 9927SOL    HW130680   1.351   1.313   1.107
 9927SOL    HW230681   1.484   1.398   1.065
 9928SOL     OW30682   5.338   3.544   2.996
 9928SOL    HW130683   5.392   3.484   3.056
 9928SOL    HW230684   5.285   3.488   2.932
 9929SOL     OW30685   3.064   3.974   4.459
 9929SOL    HW130686   3.062   4.072   4.478
 9929SOL    HW230687   3.084   3.924   4.543
 9930SOL     OW30688   0.389   0.429   6.189
 9930SOL    HW130689   0.355   0.338   6.214
 9930SOL    HW230690   0.489   0.431   6.200
 9931SOL     OW30691   0.128   5.477   4.007
 9931SOL    HW130692   0.222   5.442   4.015
 9931SOL    HW230693   0.119   5.528   3.921
 9932SOL     OW30694   2.870   1.971   6.004
 9932SOL    HW130695   2.925   1.954   5.922
 9932SOL    HW230696   2.860   2.070   6.017
 9933SOL     OW30697   1.598   0.104   3.846
 9933SOL    HW130698   1.588   0.126   3.943
 9933SOL    HW230699   1.647   0.018   3.837
 9934SOL     OW30700   6.012   1.780   6.816
 9934SOL    HW130701   6.056   1.690   6.803
 9934SOL    HW230702   6.083   1.849   6.827
 9935SOL     OW30703   3.177   0.310   0.927
 9935SOL    HW130704   3.136   0.329   0.838
 9935SOL    HW230705   3.111   0.260   0.983
 9936SOL     OW30706   6.329   4.920   0.576
 9936SOL    HW130707   6.251   4.966   0.534
 9936SOL    HW230708   6.402   4.987   0.592
 9937SOL     OW30709   0.809   1.647   2.112
 9937SOL    HW130710   0.793   1.572   2.047
 9937SOL    HW230711   0.846   1.609   2.197
 9938SOL     OW30712   5.614   6.372   4.347
 9938SOL    HW130713   5.589   6.439   4.416
 9938SOL    HW230714   5.537   6.310   4.331
 9939SOL     OW30715   3.429   2.995   0.484
 9939SOL    HW130716   3.384   2.950   0.561
 9939SOL    HW230717   3.464   2.926   0.420
 9940SOL     OW30718   1.402   0.590   2.345
 9940SOL    HW130719   1.351   0.525   2.290
 9940SOL    HW230720   1.463   0.644   2.287
 9941SOL     OW30721   2.966   5.212   5.788
 9941SOL    HW130722   3.009   5.124   5.813
 9941SOL    HW230723   2.920   5.250   5.868
 9942SOL     OW30724   3.912   5.651   2.437
 9942SOL    HW130725   3.885   5.561   2.404
 9942SOL    HW230726   3.953   5.704   2.362
 9943SOL     OW30727   1.038   4.283   6.551
 9943SOL    HW130728   0.973   4.353   6.579
 9943SOL    HW230729   0.998   4.192   6.565
 9944SOL     OW30730   0.740   4.756   6.449
 9944SOL    HW130731   0.838   4.770   6.465
 9944SOL    HW230732   0.726   4.717   6.358
 9945SOL     OW30733   4.985   4.836   6.620
 9945SOL    HW130734   4.951   4.904   6.684
 9945SOL    HW230735   5.084   4.826   6.631
 9946SOL     OW30736   6.099   0.234   3.353
 9946SOL    HW130737   6.153   0.206   3.433
 9946SOL    HW230738   6.139   0.316   3.313
 9947SOL     OW30739   3.027   2.247   4.677
 9947SOL    HW130740   3.069   2.261   4.767
 9947SOL    HW230741   2.933   2.280   4.679
 9948SOL     OW30742   6.185   5.876   4.782
 9948SOL    HW130743   6.147   5.924   4.702
 9948SOL    HW230744   6.123   5.803   4.809
 9949SOL     OW30745   6.970   4.696   3.310
 9949SOL    HW130746   6.987   4.769   3.376
 9949SOL    HW230747   0.025   4.635   3.306
 9950SOL     OW30748   6.325   6.028   6.899
 9950SOL    HW130749   6.254   6.095   6.919
 9950SOL    HW230750   6.314   5.995   6.805
 9951SOL     OW30751   1.007   2.376   3.657
 9951SOL    HW130752   0.923   2.352   3.706
 9951SOL    HW230753   0.984   2.414   3.568
 9952SOL     OW30754   2.040   3.684   0.889
 9952SOL    HW130755   1.994   3.703   0.802
 9952SOL    HW230756   1.974   3.648   0.955
 9953SOL     OW30757   6.070   2.293   3.708
 9953SOL    HW130758   6.157   2.307   3.659
 9953SOL    HW230759   6.082   2.315   3.804
 9954SOL     OW30760   1.100   6.973   5.024
 9954SOL    HW130761   1.181   6.993   4.969
 9954SOL    HW230762   1.100   0.007   5.105
 9955SOL     OW30763   3.879   3.676   6.452
 9955SOL    HW130764   3.806   3.743   6.437
 9955SOL    HW230765   3.932   3.703   6.533
 9956SOL     OW30766   0.829   4.692   3.699
 9956SOL    HW130767   0.912   4.664   3.746
 9956SOL    HW230768   0.753   4.632   3.725
 9957SOL     OW30769   5.817   0.405   2.027
 9957SOL    HW130770   5.725   0.443   2.011
 9957SOL    HW230771   5.823   0.373   2.121
 9958SOL     OW30772   2.617   6.513   6.882
 9958SOL    HW130773   2.645   6.574   6.809
 9958SOL    HW230774   2.698   6.467   6.920
 9959SOL     OW30775   4.118   3.601   3.335
 9959SOL    HW130776   4.060   3.654   3.274
 9959SOL    HW230777   4.189   3.554   3.282
 9960SOL     OW30778   0.998   7.004   1.960
 9960SOL    HW130779   0.934   6.928   1.973
 9960SOL    HW230780   1.088   6.978   1.995
 9961SOL     OW30781   1.356   5.255   3.675
 9961SOL    HW130782   1.415   5.265   3.594
 9961SOL    HW230783   1.284   5.324   3.673
 9962SOL     OW30784   4.284   0.237   2.463
 9962SOL    HW130785   4.322   0.317   2.417
 9962SOL    HW230786   4.339   0.215   2.544
 9963SOL     OW30787   2.451   2.494   5.694
 9963SOL    HW130788   2.451   2.394   5.701
 9963SOL    HW230789   2.395   2.522   5.616
 9964SOL     OW30790   4.237   5.347   5.883
 9964SOL    HW130791   4.161   5.304   5.834
 9964SOL    HW230792   4.324   5.313   5.848
 9965SOL     OW30793   3.597   4.638   5.337
 9965SOL    HW130794   3.501   4.658   5.355
 9965SOL    HW230795   3.650   4.723   5.339
 9966SOL     OW30796   2.196   5.419   2.527
 9966SOL    HW130797   2.190   5.515   2.556
 9966SOL    HW230798   2.135   5.403   2.450
 9967SOL     OW30799   5.024   5.653   2.226
 9967SOL    HW130800   5.036   5.741   2.272
 9967SOL    HW230801   4.931   5.648   2.187
 9968SOL     OW30802   3.226   5.577   6.863
 9968SOL    HW130803   3.247   5.524   6.781
 9968SOL    HW230804   3.133   5.557   6.893
 9969SOL     OW30805   0.911   3.147   3.899
 9969SOL    HW130806   0.812   3.135   3.904
 9969SOL    HW230807   0.953   3.067   3.857
 9970SOL     OW30808   6.720   4.539   2.279
 9970SOL    HW130809   6.624   4.563   2.287
 9970SOL    HW230810   6.755   4.567   2.190
 9971SOL     OW30811   2.492   4.668   0.180
 9971SOL    HW130812   2.536   4.579   0.187
 9971SOL    HW230813   2.393   4.657   0.180
 9972SOL     OW30814   3.699   4.639   0.286
 9972SOL    HW130815   3.628   4.676   0.346
 9972SOL    HW230816   3.672   4.650   0.190
 9973SOL     OW30817   3.634   1.888   5.237
 9973SOL    HW130818   3.695   1.815   5.267
 9973SOL    HW230819   3.664   1.923   5.148
 9974SOL     OW30820   6.964   3.480   3.241
 9974SOL    HW130821   0.011   3.426   3.285
 9974SOL    HW230822   6.875   3.455   3.278
 9975SOL     OW30823   0.250   4.539   6.870
 9975SOL    HW130824   0.190   4.493   6.936
 9975SOL    HW230825   0.224   4.635   6.863
 9976SOL     OW30826   6.312   5.263   5.199
 9976SOL    HW130827   6.397   5.215   5.223
 9976SOL    HW230828   6.313   5.285   5.101
 9977SOL     OW30829   6.722   5.456   5.627
 9977SOL    HW130830   6.622   5.461   5.627
 9977SOL    HW230831   6.755   5.438   5.720
 9978SOL     OW30832   6.349   2.096   4.580
 9978SOL    HW130833   6.428   2.133   4.531
 9978SOL    HW230834   6.284   2.057   4.515
 9979SOL     OW30835   6.647   4.784   6.353
 9979SOL    HW130836   6.605   4.749   6.269
 9979SOL    HW230837   6.724   4.844   6.329
 9980SOL     OW30838   1.556   0.853   6.703
 9980SOL    HW130839   1.588   0.943   6.733
 9980SOL    HW230840   1.488   0.865   6.630
 9981SOL     OW30841   2.525   2.110   1.274
 9981SOL    HW130842   2.545   2.024   1.227
 9981SOL    HW230843   2.463   2.165   1.218
 9982SOL     OW30844   1.046   1.913   3.077
 9982SOL    HW130845   1.046   1.934   3.175
 9982SOL    HW230846   1.023   1.996   3.026
 9983SOL     OW30847   0.947   1.421   1.741
 9983SOL    HW130848   0.865   1.478   1.732
 9983SOL    HW230849   1.014   1.448   1.672
 9984SOL     OW30850   0.722   0.533   0.880
 9984SOL    HW130851   0.725   0.434   0.868
 9984SOL    HW230852   0.813   0.571   0.863
 9985SOL     OW30853   3.464   0.470   1.458
 9985SOL    HW130854   3.488   0.535   1.530
 9985SOL    HW230855   3.429   0.519   1.379
 9986SOL     OW30856   4.777   4.354   6.296
 9986SOL    HW130857   4.751   4.442   6.258
 9986SOL    HW230858   4.842   4.308   6.235
 9987SOL     OW30859   5.396   2.258   2.399
 9987SOL    HW130860   5.477   2.287   2.348
 9987SOL    HW230861   5.364   2.171   2.363
 9988SOL     OW30862   0.086   5.384   4.668
 9988SOL    HW130863   0.104   5.357   4.763
 9988SOL    HW230864   7.023   5.434   4.665
 9989SOL     OW30865   5.214   3.717   3.175
 9989SOL    HW130866   5.117   3.707   3.157
 9989SOL    HW230867   5.266   3.654   3.117
 9990SOL     OW30868   2.061   6.863   3.348
 9990SOL    HW130869   1.992   6.879   3.418
 9990SOL    HW230870   2.152   6.855   3.390
 9991SOL     OW30871   1.145   3.054   4.513
 9991SOL    HW130872   1.196   3.106   4.444
 9991SOL    HW230873   1.202   2.979   4.548
 9992SOL     OW30874   4.731   3.822   0.523
 9992SOL    HW130875   4.785   3.899   0.558
 9992SOL    HW230876   4.650   3.809   0.580
 9993SOL     OW30877   4.321   6.733   2.671
 9993SOL    HW130878   4.242   6.673   2.675
 9993SOL    HW230879   4.381   6.704   2.596
 9994SOL     OW30880   6.682   4.037   4.061
 9994SOL    HW130881   6.752   4.108   4.071
 9994SOL    HW230882   6.700   3.963   4.126
 9995SOL     OW30883   3.252   0.243   3.086
 9995SOL    HW130884   3.338   0.194   3.069
 9995SOL    HW230885   3.253   0.330   3.038
 9996SOL     OW30886   3.119   2.363   1.251
 9996SOL    HW130887   3.042   2.330   1.306
 9996SOL    HW230888   3.142   2.457   1.278
 9997SOL     OW30889   4.385   1.706   0.751
 9997SOL    HW130890   4.371   1.682   0.847
 9997SOL    HW230891   4.425   1.797   0.745
 9998SOL     OW30892   6.246   3.665   2.107
 9998SOL    HW130893   6.304   3.591   2.142
 9998SOL    HW230894   6.302   3.746   2.093
 9999SOL     OW30895   6.303   5.095   4.767
 9999SOL    HW130896   6.346   5.004   4.766
 9999SOL    HW230897   6.328   5.144   4.684
10000SOL     OW30898   6.468   1.705   6.400
10000SOL    HW130899   6.374   1.679   6.422
10000SOL    HW230900   6.500   1.652   6.321
10001SOL     OW30901   5.342   0.968   1.567
10001SOL    HW130902   5.288   1.012   1.640
10001SOL    HW230903   5.378   0.881   1.600
10002SOL     OW30904   1.266   1.184   1.698
10002SOL    HW130905   1.365   1.190   1.714
10002SOL    HW230906   1.246   1.098   1.650
10003SOL     OW30907   3.878   1.998   3.537
10003SOL    HW130908   3.939   2.078   3.529
10003SOL    HW230909   3.805   2.005   3.469
10004SOL     OW30910   5.449   3.085   4.837
10004SOL    HW130911   5.451   2.985   4.843
10004SOL    HW230912   5.355   3.115   4.824
10005SOL     OW30913   4.721   5.746   3.219
10005SOL    HW130914   4.732   5.845   3.213
10005SOL    HW230915   4.697   5.720   3.312
10006SOL     OW30916   5.208   1.031   4.611
10006SOL    HW130917   5.168   0.959   4.667
10006SOL    HW230918   5.261   0.991   4.537
10007SOL     OW30919   0.859   4.415   4.947
10007SOL    HW130920   0.919   4.476   4.998
10007SOL    HW230921   0.790   4.377   5.009
10008SOL     OW30922   4.197   1.334   3.781
10008SOL    HW130923   4.214   1.259   3.717
10008SOL    HW230924   4.099   1.349   3.791
10009SOL     OW30925   1.930   3.351   1.506
10009SOL    HW130926   2.021   3.385   1.527
10009SOL    HW230927   1.862   3.419   1.533
10010SOL     OW30928   1.969   6.664   0.405
10010SOL    HW130929   2.027   6.582   0.403
10010SOL    HW230930   2.022   6.743   0.375
10011SOL     OW30931   0.569   2.469   5.105
10011SOL    HW130932   0.575   2.372   5.129
10011SOL    HW230933   0.661   2.508   5.103
10012SOL     OW30934   4.899   6.766   2.605
10012SOL    HW130935   4.972   6.794   2.543
10012SOL    HW230936   4.834   6.842   2.615
10013SOL     OW30937   2.258   1.577   4.610
10013SOL    HW130938   2.256   1.580   4.710
10013SOL    HW230939   2.291   1.665   4.575
10014SOL     OW30940   6.915   2.026   0.418
10014SOL    HW130941   6.852   2.083   0.470
10014SOL    HW230942   6.950   2.077   0.339
10015SOL     OW30943   3.003   4.226   0.547
10015SOL    HW130944   2.906   4.248   0.556
10015SOL    HW230945   3.047   4.295   0.489
10016SOL     OW30946   2.221   0.019   4.790
10016SOL    HW130947   2.278   7.021   4.869
10016SOL    HW230948   2.162   6.965   4.769
10017SOL     OW30949   1.977   2.204   2.237
10017SOL    HW130950   2.070   2.237   2.218
10017SOL    HW230951   1.912   2.278   2.224
10018SOL     OW30952   6.409   5.504   6.179
10018SOL    HW130953   6.409   5.496   6.079
10018SOL    HW230954   6.343   5.440   6.218
10019SOL     OW30955   0.983   2.064   3.606
10019SOL    HW130956   1.029   2.108   3.684
10019SOL    HW230957   0.909   2.123   3.573
10020SOL     OW30958   0.257   1.652   1.297
10020SOL    HW130959   0.347   1.621   1.327
10020SOL    HW230960   0.230   1.602   1.215
10021SOL     OW30961   0.715   2.946   1.673
10021SOL    HW130962   0.804   2.905   1.649
10021SOL    HW230963   0.642   2.880   1.653
10022SOL     OW30964   3.813   6.797   1.190
10022SOL    HW130965   3.750   6.720   1.202
10022SOL    HW230966   3.838   6.806   1.094
10023SOL     OW30967   2.011   5.263   5.635
10023SOL    HW130968   1.923   5.224   5.664
10023SOL    HW230969   2.067   5.283   5.715
10024SOL     OW30970   1.988   6.918   1.842
10024SOL    HW130971   1.914   6.881   1.897
10024SOL    HW230972   2.063   6.946   1.902
10025SOL     OW30973   1.652   1.362   1.057
10025SOL    HW130974   1.670   1.325   0.966
10025SOL    HW230975   1.687   1.299   1.126
10026SOL     OW30976   4.667   6.386   3.651
10026SOL    HW130977   4.581   6.366   3.697
10026SOL    HW230978   4.725   6.442   3.710
10027SOL     OW30979   0.974   4.862   5.110
10027SOL    HW130980   0.885   4.888   5.072
10027SOL    HW230981   0.994   4.767   5.085
10028SOL     OW30982   1.160   1.492   1.564
10028SOL    HW130983   1.208   1.431   1.502
10028SOL    HW230984   1.172   1.587   1.533
10029SOL     OW30985   3.232   1.784   3.581
10029SOL    HW130986   3.180   1.757   3.663
10029SOL    HW230987   3.317   1.733   3.578
10030SOL     OW30988   2.405   6.853   4.097
10030SOL    HW130989   2.310   6.826   4.115
10030SOL    HW230990   2.407   6.943   4.055
10031SOL     OW30991   5.940   5.001   3.399
10031SOL    HW130992   6.039   5.012   3.389
10031SOL    HW230993   5.900   5.087   3.428
10032SOL     OW30994   3.313   0.958   5.089
10032SOL    HW130995   3.231   0.922   5.132
10032SOL    HW230996   3.383   0.887   5.085
10033SOL     OW30997   4.692   2.260   4.163
10033SOL    HW130998   4.633   2.180   4.177
10033SOL    HW230999   4.672   2.300   4.074
10034SOL     OW31000   3.070   0.151   4.207
10034SOL    HW131001   3.036   0.155   4.113
10034SOL    HW231002   3.045   0.063   4.248
10035SOL     OW31003   0.068   4.412   2.161
10035SOL    HW131004   0.095   4.494   2.110
10035SOL    HW231005   0.149   4.356   2.179
10036SOL     OW31006   5.755   1.551   1.273
10036SOL    HW131007   5.797   1.505   1.195
10036SOL    HW231008   5.673   1.500   1.302
10037SOL     OW31009   5.734   1.537   0.915
10037SOL    HW131010   5.811   1.577   0.963
10037SOL    HW231011   5.650   1.552   0.967
10038SOL     OW31012   4.162   1.232   6.400
10038SOL    HW131013   4.132   1.177   6.322
10038SOL    HW231014   4.108   1.209   6.480
10039SOL     OW31015   3.118   0.368   4.421
10039SOL    HW131016   3.171   0.323   4.492
10039SOL    HW231017   3.077   0.300   4.361
10040SOL     OW31018   4.123   5.814   6.339
10040SOL    HW131019   4.174   5.819   6.253
10040SOL    HW231020   4.044   5.754   6.328
10041SOL     OW31021   4.535   5.725   6.095
10041SOL    HW131022   4.589   5.798   6.138
10041SOL    HW231023   4.439   5.752   6.092
10042SOL     OW31024   1.196   1.751   4.462
10042SOL    HW131025   1.192   1.667   4.408
10042SOL    HW231026   1.104   1.785   4.479
10043SOL     OW31027   6.593   2.251   4.732
10043SOL    HW131028   6.663   2.223   4.798
10043SOL    HW231029   6.613   2.211   4.643
10044SOL     OW31030   2.939   1.552   5.258
10044SOL    HW131031   2.978   1.556   5.350
10044SOL    HW231032   2.908   1.643   5.231
10045SOL     OW31033   3.963   0.193   3.154
10045SOL    HW131034   3.895   0.128   3.123
10045SOL    HW231035   3.917   0.275   3.189
10046SOL     OW31036   2.307   3.885   0.655
10046SOL    HW131037   2.290   3.971   0.605
10046SOL    HW231038   2.340   3.906   0.747
10047SOL     OW31039   0.589   3.786   5.368
10047SOL    HW131040   0.662   3.725   5.397
10047SOL    HW231041   0.565   3.767   5.273
10048SOL     OW31042   6.211   0.925   2.938
10048SOL    HW131043   6.195   0.902   2.842
10048SOL    HW231044   6.147   0.997   2.966
10049SOL     OW31045   0.337   1.678   6.643
10049SOL    HW131046   0.334   1.624   6.728
10049SOL    HW231047   0.351   1.774   6.666
10050SOL     OW31048   5.497   3.651   5.050
10050SOL    HW131049   5.538   3.651   4.959
10050SOL    HW231050   5.436   3.571   5.059
10051SOL     OW31051   6.004   3.528   5.873
10051SOL    HW131052   6.000   3.626   5.855
10051SOL    HW231053   6.091   3.505   5.917
10052SOL     OW31054   1.695   2.182   3.111
10052SOL    HW131055   1.704   2.088   3.143
10052SOL    HW231056   1.682   2.183   3.012
10053SOL     OW31057   3.710   5.748   3.246
10053SOL    HW131058   3.804   5.780   3.232
10053SOL    HW231059   3.711   5.664   3.301
10054SOL     OW31060   5.660   5.939   6.764
10054SOL    HW131061   5.740   5.915   6.711
10054SOL    HW231062   5.681   5.932   6.862
10055SOL     OW31063   5.672   1.044   4.796
10055SOL    HW131064   5.604   1.110   4.767
10055SOL    HW231065   5.634   0.951   4.790
10056SOL     OW31066   5.087   4.519   3.035
10056SOL    HW131067   5.154   4.447   3.021
10056SOL    HW231068   5.089   4.582   2.957
10057SOL     OW31069   4.395   2.480   5.603
10057SOL    HW131070   4.479   2.454   5.649
10057SOL    HW231071   4.317   2.468   5.665
10058SOL     OW31072   6.741   3.305   5.026
10058SOL    HW131073   6.785   3.215   5.034
10058SOL    HW231074   6.714   3.337   5.117
10059SOL     OW31075   6.555   0.914   0.672
10059SOL    HW131076   6.559   0.923   0.772
10059SOL    HW231077   6.591   0.826   0.645
10060SOL     OW31078   1.876   2.654   2.261
10060SOL    HW131079   1.813   2.729   2.283
10060SOL    HW231080   1.959   2.692   2.221
10061SOL     OW31081   4.515   1.132   4.154
10061SOL    HW131082   4.602   1.155   4.111
10061SOL    HW231083   4.442   1.186   4.113
10062SOL     OW31084   5.629   0.749   3.808
10062SOL    HW131085   5.545   0.732   3.859
10062SOL    HW231086   5.627   0.842   3.770
10063SOL     OW31087   2.907   0.982   4.209
10063SOL    HW131088   2.899   1.048   4.134
10063SOL    HW231089   2.999   0.943   4.211
10064SOL     OW31090   4.884   6.768   0.062
10064SOL    HW131091   4.812   6.721   0.112
10064SOL    HW231092   4.852   6.859   0.035
10065SOL     OW31093   3.276   0.239   2.730
10065SOL    HW131094   3.359   0.271   2.685
10065SOL    HW231095   3.209   0.313   2.734
10066SOL     OW31096   0.259   2.781   4.389
10066SOL    HW131097   0.262   2.881   4.398
10066SOL    HW231098   0.196   2.743   4.457
10067SOL     OW31099   0.648   3.779   5.007
10067SOL    HW131100   0.611   3.693   4.973
10067SOL    HW231101   0.579   3.851   5.000
10068SOL     OW31102   0.406   3.459   3.280
10068SOL    HW131103   0.390   3.445   3.182
10068SOL    HW231104   0.501   3.482   3.295
10069SOL     OW31105   3.214   5.535   2.296
10069SOL    HW131106   3.301   5.486   2.303
10069SOL    HW231107   3.163   5.503   2.216
10070SOL     OW31108   0.587   5.953   5.087
10070SOL    HW131109   0.529   6.030   5.113
10070SOL    HW231110   0.596   5.890   5.164
10071SOL     OW31111   6.645   6.129   4.453
10071SOL    HW131112   6.569   6.189   4.427
10071SOL    HW231113   6.651   6.123   4.552
10072SOL     OW31114   6.557   6.487   4.318
10072SOL    HW131115   6.653   6.475   4.294
10072SOL    HW231116   6.549   6.556   4.390
10073SOL     OW31117   6.218   4.781   4.003
10073SOL    HW131118   6.194   4.685   3.989
10073SOL    HW231119   6.164   4.819   4.078
10074SOL     OW31120   2.056   0.285   5.695
10074SOL    HW131121   1.983   0.220   5.717
10074SOL    HW231122   2.108   0.251   5.616
10075SOL     OW31123   1.746   2.706   2.520
10075SOL    HW131124   1.806   2.628   2.506
10075SOL    HW231125   1.685   2.689   2.597
10076SOL     OW31126   6.081   6.328   3.798
10076SOL    HW131127   6.012   6.377   3.851
10076SOL    HW231128   6.167   6.380   3.800
10077SOL     OW31129   4.431   3.309   0.261
10077SOL    HW131130   4.352   3.251   0.279
10077SOL    HW231131   4.498   3.258   0.208
10078SOL     OW31132   6.344   5.648   4.122
10078SOL    HW131133   6.365   5.738   4.083
10078SOL    HW231134   6.426   5.609   4.162
10079SOL     OW31135   5.870   3.212   3.583
10079SOL    HW131136   5.901   3.307   3.584
10079SOL    HW231137   5.920   3.161   3.513
10080SOL     OW31138   4.959   0.695   5.892
10080SOL    HW131139   4.973   0.641   5.975
10080SOL    HW231140   4.911   0.638   5.824
10081SOL     OW31141   0.192   1.278   0.417
10081SOL    HW131142   0.115   1.297   0.357
10081SOL    HW231143   0.244   1.201   0.381
10082SOL     OW31144   0.610   5.381   1.578
10082SOL    HW131145   0.523   5.333   1.592
10082SOL    HW231146   0.612   5.464   1.633
10083SOL     OW31147   4.115   0.798   3.733
10083SOL    HW131148   4.187   0.743   3.776
10083SOL    HW231149   4.124   0.793   3.634
10084SOL     OW31150   1.957   0.198   6.047
10084SOL    HW131151   1.885   0.189   6.115
10084SOL    HW231152   1.979   0.109   6.008
10085SOL     OW31153   2.987   6.253   0.824
10085SOL    HW131154   3.027   6.200   0.750
10085SOL    HW231155   3.049   6.327   0.849
10086SOL     OW31156   5.727   6.205   2.264
10086SOL    HW131157   5.730   6.236   2.359
10086SOL    HW231158   5.818   6.218   2.223
10087SOL     OW31159   6.693   5.784   3.842
10087SOL    HW131160   6.645   5.850   3.784
10087SOL    HW231161   6.649   5.695   3.833
10088SOL     OW31162   0.222   6.626   2.233
10088SOL    HW131163   0.125   6.638   2.250
10088SOL    HW231164   0.238   6.539   2.187
10089SOL     OW31165   2.864   1.773   3.752
10089SOL    HW131166   2.823   1.684   3.732
10089SOL    HW231167   2.801   1.845   3.725
10090SOL     OW31168   0.487   5.211   1.979
10090SOL    HW131169   0.582   5.222   2.009
10090SOL    HW231170   0.448   5.128   2.019
10091SOL     OW31171   6.902   5.461   6.581
10091SOL    HW131172   6.816   5.512   6.573
10091SOL    HW231173   6.882   5.364   6.593
10092SOL     OW31174   2.334   2.937   5.717
10092SOL    HW131175   2.359   2.861   5.776
10092SOL    HW231176   2.393   2.938   5.636
10093SOL     OW31177   4.761   3.364   5.327
10093SOL    HW131178   4.695   3.364   5.402
10093SOL    HW231179   4.750   3.447   5.273
10094SOL     OW31180   3.256   5.509   1.887
10094SOL    HW131181   3.282   5.419   1.853
10094SOL    HW231182   3.169   5.503   1.936
10095SOL     OW31183   5.366   1.777   4.252
10095SOL    HW131184   5.407   1.866   4.270
10095SOL    HW231185   5.418   1.706   4.300
10096SOL     OW31186   4.112   5.862   2.878
10096SOL    HW131187   4.082   5.773   2.911
10096SOL    HW231188   4.132   5.922   2.956
10097SOL     OW31189   1.659   1.884   0.014
10097SOL    HW131190   1.736   1.904   6.978
10097SOL    HW231191   1.636   1.786   0.008
10098SOL     OW31192   2.969   0.298   5.263
10098SOL    HW131193   2.990   0.237   5.339
10098SOL    HW231194   2.951   0.390   5.298
10099SOL     OW31195   0.937   5.033   1.791
10099SOL    HW131196   0.946   5.124   1.832
10099SOL    HW231197   0.938   5.041   1.692
10100SOL     OW31198   5.080   5.914   5.953
10100SOL    HW131199   5.003   5.853   5.936
10100SOL    HW231200   5.060   5.974   6.031
10101SOL     OW31201   6.513   2.999   2.088
10101SOL    HW131202   6.563   2.976   2.004
10101SOL    HW231203   6.475   2.915   2.128
10102SOL     OW31204   7.010   1.231   2.062
10102SOL    HW131205   6.912   1.250   2.063
10102SOL    HW231206   0.031   1.289   2.130
10103SOL     OW31207   2.737   0.773   5.658
10103SOL    HW131208   2.794   0.798   5.580
10103SOL    HW231209   2.719   0.854   5.713
10104SOL     OW31210   1.443   1.992   5.042
10104SOL    HW131211   1.412   2.048   4.965
10104SOL    HW231212   1.445   1.896   5.014
10105SOL     OW31213   2.210   0.513   6.266
10105SOL    HW131214   2.208   0.571   6.185
10105SOL    HW231215   2.287   0.539   6.324
10106SOL     OW31216   4.026   6.838   0.647
10106SOL    HW131217   4.034   6.784   0.563
10106SOL    HW231218   4.062   6.930   0.631
10107SOL     OW31219   5.265   1.494   5.785
10107SOL    HW131220   5.316   1.426   5.732
10107SOL    HW231221   5.205   1.447   5.849
10108SOL     OW31222   6.826   0.787   0.387
10108SOL    HW131223   6.886   0.801   0.466
10108SOL    HW231224   6.809   0.875   0.343
10109SOL     OW31225   0.096   1.037   0.557
10109SOL    HW131226   0.187   1.059   0.521
10109SOL    HW231227   0.038   1.117   0.552
10110SOL     OW31228   4.939   4.887   4.014
10110SOL    HW131229   4.879   4.855   4.087
10110SOL    HW231230   5.014   4.821   4.001
10111SOL     OW31231   6.596   3.463   3.706
10111SOL    HW131232   6.676   3.519   3.730
10111SOL    HW231233   6.599   3.378   3.758
10112SOL     OW31234   5.871   3.580   3.065
10112SOL    HW131235   5.924   3.664   3.077
10112SOL    HW231236   5.812   3.590   2.985
10113SOL     OW31237   4.545   6.927   0.551
10113SOL    HW131238   4.633   6.914   0.507
10113SOL    HW231239   4.529   0.001   0.564
10114SOL     OW31240   3.893   2.059   2.327
10114SOL    HW131241   3.901   2.104   2.237
10114SOL    HW231242   3.821   1.990   2.324
10115SOL     OW31243   4.529   1.974   5.201
10115SOL    HW131244   4.546   2.032   5.121
10115SOL    HW231245   4.583   2.008   5.278
10116SOL     OW31246   0.949   0.553   6.881
10116SOL    HW131247   1.026   0.579   6.939
10116SOL    HW231248   0.889   0.632   6.867
10117SOL     OW31249   6.303   6.541   6.145
10117SOL    HW131250   6.216   6.492   6.133
10117SOL    HW231251   6.319   6.598   6.065
10118SOL     OW31252   2.387   4.384   3.644
10118SOL    HW131253   2.288   4.380   3.655
10118SOL    HW231254   2.414   4.329   3.565
10119SOL     OW31255   6.650   5.085   3.935
10119SOL    HW131256   6.737   5.085   3.984
10119SOL    HW231257   6.667   5.084   3.837
10120SOL     OW31258   1.827   3.469   4.441
10120SOL    HW131259   1.804   3.433   4.351
10120SOL    HW231260   1.907   3.529   4.434
10121SOL     OW31261   5.477   4.212   6.534
10121SOL    HW131262   5.576   4.222   6.542
10121SOL    HW231263   5.443   4.275   6.463
10122SOL     OW31264   5.328   2.404   3.000
10122SOL    HW131265   5.272   2.458   3.062
10122SOL    HW231266   5.282   2.395   2.911
10123SOL     OW31267   5.573   5.979   0.710
10123SOL    HW131268   5.561   6.060   0.768
10123SOL    HW231269   5.488   5.926   0.710
10124SOL     OW31270   1.597   4.439   0.804
10124SOL    HW131271   1.620   4.537   0.810
10124SOL    HW231272   1.677   4.385   0.827
10125SOL     OW31273   2.286   1.579   0.881
10125SOL    HW131274   2.189   1.584   0.857
10125SOL    HW231275   2.313   1.663   0.928
10126SOL     OW31276   0.214   0.321   0.509
10126SOL    HW131277   0.180   0.301   0.601
10126SOL    HW231278   0.248   0.236   0.467
10127SOL     OW31279   1.858   3.248   0.261
10127SOL    HW131280   1.826   3.205   0.176
10127SOL    HW231281   1.820   3.340   0.268
10128SOL     OW31282   3.262   1.091   6.313
10128SOL    HW131283   3.201   1.016   6.342
10128SOL    HW231284   3.219   1.142   6.239
10129SOL     OW31285   6.391   1.365   2.729
10129SOL    HW131286   6.486   1.361   2.760
10129SOL    HW231287   6.339   1.428   2.787
10130SOL     OW31288   1.093   3.421   1.317
10130SOL    HW131289   1.022   3.464   1.373
10130SOL    HW231290   1.061   3.414   1.223
10131SOL     OW31291   1.862   7.011   4.448
10131SOL    HW131292   1.920   6.943   4.494
10131SOL    HW231293   1.808   6.966   4.378
10132SOL     OW31294   1.958   0.893   3.337
10132SOL    HW131295   1.867   0.863   3.366
10132SOL    HW231296   1.958   0.905   3.237
10133SOL     OW31297   4.672   6.650   0.787
10133SOL    HW131298   4.583   6.613   0.814
10133SOL    HW231299   4.745   6.592   0.824
10134SOL     OW31300   5.669   1.363   2.374
10134SOL    HW131301   5.608   1.312   2.435
10134SOL    HW231302   5.674   1.458   2.405
10135SOL     OW31303   4.950   2.783   3.635
10135SOL    HW131304   4.877   2.829   3.585
10135SOL    HW231305   5.035   2.834   3.623
10136SOL     OW31306   5.035   2.113   2.361
10136SOL    HW131307   4.962   2.054   2.327
10136SOL    HW231308   4.995   2.187   2.416
10137SOL     OW31309   0.466   4.383   4.901
10137SOL    HW131310   0.388   4.388   4.838
10137SOL    HW231311   0.466   4.295   4.948
10138SOL     OW31312   5.043   3.547   0.575
10138SOL    HW131313   4.991   3.507   0.500
10138SOL    HW231314   5.024   3.645   0.581
10139SOL     OW31315   3.026   3.175   4.342
10139SOL    HW131316   3.053   3.214   4.254
10139SOL    HW231317   3.058   3.081   4.349
10140SOL     OW31318   0.390   6.302   0.022
10140SOL    HW131319   0.407   6.243   6.967
10140SOL    HW231320   0.350   6.388   7.017
10141SOL     OW31321   4.561   1.287   5.528
10141SOL    HW131322   4.505   1.358   5.571
10141SOL    HW231323   4.507   1.203   5.520
10142SOL     OW31324   6.159   6.197   6.101
10142SOL    HW131325   6.204   6.107   6.098
10142SOL    HW231326   6.185   6.250   6.020
10143SOL     OW31327   5.496   2.361   1.019
10143SOL    HW131328   5.533   2.424   0.950
10143SOL    HW231329   5.485   2.270   0.978
10144SOL     OW31330   4.580   6.874   6.331
10144SOL    HW131331   4.524   6.933   6.390
10144SOL    HW231332   4.597   6.920   6.244
10145SOL     OW31333   3.319   5.919   3.093
10145SOL    HW131334   3.312   5.990   3.164
10145SOL    HW231335   3.413   5.915   3.060
10146SOL     OW31336   5.850   4.000   4.707
10146SOL    HW131337   5.831   3.919   4.763
10146SOL    HW231338   5.889   4.072   4.764
10147SOL     OW31339   4.875   3.931   6.390
10147SOL    HW131340   4.787   3.885   6.399
10147SOL    HW231341   4.919   3.938   6.480
10148SOL     OW31342   5.987   4.987   0.081
10148SOL    HW131343   5.901   4.967   0.126
10148SOL    HW231344   5.982   5.077   0.038
10149SOL     OW31345   5.532   3.689   1.509
10149SOL    HW131346   5.554   3.780   1.544
10149SOL    HW231347   5.581   3.673   1.424
10150SOL     OW31348   3.860   2.885   1.718
10150SOL    HW131349   3.763   2.864   1.734
10150SOL    HW231350   3.888   2.959   1.779
10151SOL     OW31351   0.988   6.911   0.290
10151SOL    HW131352   0.953   6.994   0.332
10151SOL    HW231353   1.067   6.933   0.232
10152SOL     OW31354   6.794   6.154   3.449
10152SOL    HW131355   6.831   6.089   3.515
10152SOL    HW231356   6.868   6.187   3.390
10153SOL     OW31357   5.161   6.321   4.070
10153SOL    HW131358   5.203   6.234   4.044
10153SOL    HW231359   5.064   6.320   4.048
10154SOL     OW31360   3.896   6.408   5.317
10154SOL    HW131361   3.807   6.451   5.301
10154SOL    HW231362   3.914   6.341   5.245
10155SOL     OW31363   5.118   2.259   5.775
10155SOL    HW131364   5.131   2.295   5.867
10155SOL    HW231365   5.193   2.198   5.752
10156SOL     OW31366   5.593   0.512   1.939
10156SOL    HW131367   5.572   0.474   1.849
10156SOL    HW231368   5.509   0.546   1.982
10157SOL     OW31369   0.165   2.198   0.547
10157SOL    HW131370   0.081   2.145   0.547
10157SOL    HW231371   0.207   2.194   0.638
10158SOL     OW31372   6.429   6.086   1.282
10158SOL    HW131373   6.388   6.173   1.310
10158SOL    HW231374   6.388   6.056   1.195
10159SOL     OW31375   3.524   2.788   2.127
10159SOL    HW131376   3.577   2.805   2.210
10159SOL    HW231377   3.518   2.689   2.111
10160SOL     OW31378   1.482   3.537   3.242
10160SOL    HW131379   1.570   3.538   3.290
10160SOL    HW231380   1.443   3.629   3.243
10161SOL     OW31381   3.492   4.205   6.773
10161SOL    HW131382   3.445   4.148   6.705
10161SOL    HW231383   3.454   4.188   6.863
10162SOL     OW31384   2.619   5.385   0.658
10162SOL    HW131385   2.686   5.311   0.664
10162SOL    HW231386   2.597   5.417   0.751
10163SOL     OW31387   0.473   4.036   6.729
10163SOL    HW131388   0.525   3.961   6.687
10163SOL    HW231389   0.468   4.113   6.665
10164SOL     OW31390   6.069   3.427   4.864
10164SOL    HW131391   6.011   3.374   4.926
10164SOL    HW231392   6.031   3.518   4.851
10165SOL     OW31393   6.551   2.210   3.334
10165SOL    HW131394   6.550   2.176   3.428
10165SOL    HW231395   6.475   2.274   3.321
10166SOL     OW31396   2.339   1.656   1.361
10166SOL    HW131397   2.309   1.601   1.439
10166SOL    HW231398   2.390   1.736   1.394
10167SOL     OW31399   0.389   5.405   0.360
10167SOL    HW131400   0.424   5.443   0.274
10167SOL    HW231401   0.466   5.386   0.421
10168SOL     OW31402   6.713   2.195   6.067
10168SOL    HW131403   6.632   2.188   6.126
10168SOL    HW231404   6.727   2.108   6.020
10169SOL     OW31405   0.370   3.642   3.491
10169SOL    HW131406   0.290   3.637   3.550
10169SOL    HW231407   0.374   3.561   3.433
10170SOL     OW31408   6.539   5.131   6.273
10170SOL    HW131409   6.450   5.121   6.229
10170SOL    HW231410   6.529   5.184   6.358
10171SOL     OW31411   0.598   2.935   4.423
10171SOL    HW131412   0.698   2.938   4.420
10171SOL    HW231413   0.566   2.997   4.495
10172SOL     OW31414   0.753   6.274   4.195
10172SOL    HW131415   0.729   6.185   4.233
10172SOL    HW231416   0.692   6.344   4.230
10173SOL     OW31417   2.213   2.943   0.478
10173SOL    HW131418   2.174   2.901   0.396
10173SOL    HW231419   2.141   2.959   0.545
10174SOL     OW31420   5.217   4.790   3.552
10174SOL    HW131421   5.155   4.867   3.564
10174SOL    HW231422   5.288   4.793   3.622
10175SOL     OW31423   5.095   2.549   3.515
10175SOL    HW131424   5.018   2.596   3.557
10175SOL    HW231425   5.140   2.609   3.449
10176SOL     OW31426   6.490   2.505   5.602
10176SOL    HW131427   6.524   2.557   5.523
10176SOL    HW231428   6.535   2.416   5.604
10177SOL     OW31429   1.923   0.818   0.322
10177SOL    HW131430   1.947   0.820   0.419
10177SOL    HW231431   1.842   0.761   0.310
10178SOL     OW31432   0.748   0.607   0.597
10178SOL    HW131433   0.710   0.516   0.580
10178SOL    HW231434   0.747   0.627   0.695
10179SOL     OW31435   0.716   3.261   6.512
10179SOL    HW131436   0.769   3.180   6.486
10179SOL    HW231437   0.665   3.242   6.596
10180SOL     OW31438   5.035   0.468   0.889
10180SOL    HW131439   5.045   0.378   0.933
10180SOL    HW231440   4.979   0.526   0.948
10181SOL     OW31441   0.388   2.412   1.119
10181SOL    HW131442   0.294   2.446   1.117
10181SOL    HW231443   0.414   2.391   1.214
10182SOL     OW31444   5.176   0.669   0.564
10182SOL    HW131445   5.076   0.660   0.560
10182SOL    HW231446   5.201   0.716   0.649
10183SOL     OW31447   5.923   2.767   5.645
10183SOL    HW131448   5.832   2.808   5.648
10183SOL    HW231449   5.962   2.780   5.554
10184SOL     OW31450   4.430   2.494   6.531
10184SOL    HW131451   4.423   2.516   6.628
10184SOL    HW231452   4.457   2.576   6.480
10185SOL     OW31453   6.426   5.670   1.952
10185SOL    HW131454   6.437   5.601   1.881
10185SOL    HW231455   6.338   5.657   1.998
10186SOL     OW31456   5.139   3.831   4.448
10186SOL    HW131457   5.139   3.916   4.500
10186SOL    HW231458   5.231   3.811   4.414
10187SOL     OW31459   1.420   3.615   6.461
10187SOL    HW131460   1.494   3.549   6.455
10187SOL    HW231461   1.458   3.707   6.468
10188SOL     OW31462   2.460   5.319   6.931
10188SOL    HW131463   2.549   5.294   6.893
10188SOL    HW231464   2.390   5.261   6.891
10189SOL     OW31465   0.672   1.157   6.125
10189SOL    HW131466   0.706   1.064   6.114
10189SOL    HW231467   0.583   1.165   6.079
10190SOL     OW31468   3.978   2.974   1.465
10190SOL    HW131469   4.077   2.983   1.478
10190SOL    HW231470   3.932   2.983   1.553
10191SOL     OW31471   4.913   5.436   6.558
10191SOL    HW131472   4.971   5.389   6.492
10191SOL    HW231473   4.852   5.369   6.601
10192SOL     OW31474   3.789   1.404   5.369
10192SOL    HW131475   3.866   1.387   5.307
10192SOL    HW231476   3.705   1.413   5.316
10193SOL     OW31477   2.982   3.754   2.602
10193SOL    HW131478   2.917   3.683   2.630
10193SOL    HW231479   3.074   3.715   2.599
10194SOL     OW31480   4.976   0.568   4.719
10194SOL    HW131481   4.949   0.618   4.802
10194SOL    HW231482   4.914   0.592   4.644
10195SOL     OW31483   6.390   6.695   1.430
10195SOL    HW131484   6.298   6.720   1.401
10195SOL    HW231485   6.453   6.770   1.411
10196SOL     OW31486   4.555   1.994   4.141
10196SOL    HW131487   4.613   1.962   4.067
10196SOL    HW231488   4.467   2.023   4.104
10197SOL     OW31489   4.974   2.314   4.180
10197SOL    HW131490   4.992   2.412   4.166
10197SOL    HW231491   4.877   2.301   4.201
10198SOL     OW31492   3.906   0.297   1.581
10198SOL    HW131493   3.937   0.216   1.532
10198SOL    HW231494   3.948   0.300   1.671
10199SOL     OW31495   1.028   2.201   0.020
10199SOL    HW131496   1.006   2.264   0.094
10199SOL    HW231497   0.951   2.138   0.006
10200SOL     OW31498   4.937   3.084   5.442
10200SOL    HW131499   5.000   3.162   5.445
10200SOL    HW231500   4.882   3.089   5.359
10201SOL     OW31501   0.527   6.333   0.657
10201SOL    HW131502   0.555   6.271   0.730
10201SOL    HW231503   0.491   6.418   0.696
10202SOL     OW31504   2.182   4.348   6.775
10202SOL    HW131505   2.161   4.441   6.746
10202SOL    HW231506   2.158   4.336   6.871
10203SOL     OW31507   0.737   3.075   2.085
10203SOL    HW131508   0.677   3.006   2.045
10203SOL    HW231509   0.751   3.054   2.182
10204SOL     OW31510   3.397   5.695   0.032
10204SOL    HW131511   3.333   5.771   0.019
10204SOL    HW231512   3.366   5.616   7.004
10205SOL     OW31513   3.092   1.054   2.303
10205SOL    HW131514   3.145   1.126   2.259
10205SOL    HW231515   2.995   1.066   2.282
10206SOL     OW31516   5.415   6.843   6.586
10206SOL    HW131517   5.463   6.898   6.655
10206SOL    HW231518   5.459   6.754   6.577
10207SOL     OW31519   1.720   1.311   6.918
10207SOL    HW131520   1.768   1.293   7.004
10207SOL    HW231521   1.743   1.402   6.886
10208SOL     OW31522   6.324   4.441   3.679
10208SOL    HW131523   6.418   4.406   3.681
10208SOL    HW231524   6.260   4.364   3.671
10209SOL     OW31525   0.135   0.182   6.239
10209SOL    HW131526   0.134   0.224   6.329
10209SOL    HW231527   0.158   0.085   6.248
10210SOL     OW31528   5.396   6.734   1.423
10210SOL    HW131529   5.487   6.758   1.388
10210SOL    HW231530   5.402   6.715   1.521
10211SOL     OW31531   3.887   6.192   5.110
10211SOL    HW131532   3.955   6.228   5.047
10211SOL    HW231533   3.801   6.178   5.060
10212SOL     OW31534   0.158   6.882   5.341
10212SOL    HW131535   0.098   6.951   5.299
10212SOL    HW231536   0.134   6.792   5.307
10213SOL     OW31537   5.432   3.094   2.779
10213SOL    HW131538   5.391   3.115   2.690
10213SOL    HW231539   5.363   3.105   2.851
10214SOL     OW31540   0.958   2.076   2.187
10214SOL    HW131541   1.008   2.160   2.167
10214SOL    HW231542   0.952   2.064   2.286
10215SOL     OW31543   3.196   2.977   3.891
10215SOL    HW131544   3.211   3.033   3.810
10215SOL    HW231545   3.107   2.998   3.930
10216SOL     OW31546   0.662   6.904   1.188
10216SOL    HW131547   0.609   6.861   1.115
10216SOL    HW231548   0.611   6.982   1.225
10217SOL     OW31549   2.053   1.886   3.065
10217SOL    HW131550   2.051   1.949   2.987
10217SOL    HW231551   1.961   1.880   3.104
10218SOL     OW31552   1.591   0.659   1.783
10218SOL    HW131553   1.520   0.604   1.739
10218SOL    HW231554   1.665   0.676   1.717
10219SOL     OW31555   0.008   3.202   2.437
10219SOL    HW131556   0.086   3.255   2.469
10219SOL    HW231557   0.028   3.166   2.346
10220SOL     OW31558   4.159   1.918   1.093
10220SOL    HW131559   4.145   1.833   1.144
10220SOL    HW231560   4.257   1.931   1.078
10221SOL     OW31561   1.795   3.237   4.573
10221SOL    HW131562   1.803   3.330   4.536
10221SOL    HW231563   1.784   3.242   4.673
10222SOL     OW31564   2.684   3.825   5.404
10222SOL    HW131565   2.749   3.766   5.452
10222SOL    HW231566   2.612   3.853   5.467
10223SOL     OW31567   2.103   6.515   6.701
10223SOL    HW131568   2.170   6.473   6.640
10223SOL    HW231569   2.070   6.448   6.767
10224SOL     OW31570   0.543   1.568   5.055
10224SOL    HW131571   0.504   1.478   5.073
10224SOL    HW231572   0.596   1.566   4.970
10225SOL     OW31573   2.367   6.263   5.806
10225SOL    HW131574   2.380   6.319   5.888
10225SOL    HW231575   2.420   6.179   5.814
10226SOL     OW31576   2.517   0.791   6.364
10226SOL    HW131577   2.605   0.833   6.344
10226SOL    HW231578   2.509   0.775   6.463
10227SOL     OW31579   5.309   4.328   0.898
10227SOL    HW131580   5.352   4.277   0.972
10227SOL    HW231581   5.343   4.422   0.897
10228SOL     OW31582   1.072   6.322   1.778
10228SOL    HW131583   1.078   6.383   1.699
10228SOL    HW231584   0.994   6.260   1.766
10229SOL     OW31585   1.509   1.712   4.136
10229SOL    HW131586   1.426   1.657   4.135
10229SOL    HW231587   1.587   1.656   4.110
10230SOL     OW31588   6.500   6.603   3.020
10230SOL    HW131589   6.419   6.617   3.078
10230SOL    HW231590   6.473   6.604   2.924
10231SOL     OW31591   6.188   5.522   4.823
10231SOL    HW131592   6.114   5.560   4.878
10231SOL    HW231593   6.156   5.508   4.729
10232SOL     OW31594   2.824   1.146   4.733
10232SOL    HW131595   2.772   1.066   4.702
10232SOL    HW231596   2.765   1.227   4.732
10233SOL     OW31597   4.981   3.473   5.134
10233SOL    HW131598   4.914   3.522   5.078
10233SOL    HW231599   4.933   3.417   5.202
10234SOL     OW31600   5.444   0.037   0.263
10234SOL    HW131601   5.451   0.073   0.170
10234SOL    HW231602   5.529   0.052   0.312
10235SOL     OW31603   3.990   3.081   0.294
10235SOL    HW131604   3.943   3.130   0.368
10235SOL    HW231605   3.941   3.096   0.208
10236SOL     OW31606   2.201   0.701   1.863
10236SOL    HW131607   2.225   0.693   1.766
10236SOL    HW231608   2.129   0.769   1.873
10237SOL     OW31609   6.780   4.291   0.294
10237SOL    HW131610   6.717   4.263   0.367
10237SOL    HW231611   6.869   4.248   0.309
10238SOL     OW31612   3.236   3.901   3.211
10238SOL    HW131613   3.257   3.881   3.307
10238SOL    HW231614   3.139   3.880   3.194
10239SOL     OW31615   2.218   4.160   5.641
10239SOL    HW131616   2.211   4.234   5.574
10239SOL    HW231617   2.234   4.073   5.593
10240SOL     OW31618   1.445   4.567   3.058
10240SOL    HW131619   1.508   4.550   2.982
10240SOL    HW231620   1.351   4.565   3.025
10241SOL     OW31621   6.649   0.430   2.478
10241SOL    HW131622   6.621   0.434   2.574
10241SOL    HW231623   6.641   0.520   2.437
10242SOL     OW31624   6.917   1.544   0.148
10242SOL    HW131625   6.837   1.496   0.113
10242SOL    HW231626   6.898   1.577   0.241
10243SOL     OW31627   1.552   5.126   1.673
10243SOL    HW131628   1.532   5.183   1.752
10243SOL    HW231629   1.640   5.081   1.686
10244SOL     OW31630   1.261   3.912   0.503
10244SOL    HW131631   1.219   4.002   0.495
10244SOL    HW231632   1.334   3.915   0.571
10245SOL     OW31633   2.976   4.678   0.206
10245SOL    HW131634   3.051   4.732   0.167
10245SOL    HW231635   2.949   4.608   0.140
10246SOL     OW31636   3.393   4.130   3.658
10246SOL    HW131637   3.404   4.071   3.738
10246SOL    HW231638   3.329   4.203   3.679
10247SOL     OW31639   6.962   5.159   5.923
10247SOL    HW131640   6.982   5.236   5.862
10247SOL    HW231641   6.873   5.175   5.967
10248SOL     OW31642   2.499   6.952   2.172
10248SOL    HW131643   2.519   6.858   2.200
10248SOL    HW231644   2.576   7.012   2.197
10249SOL     OW31645   3.298   0.311   6.468
10249SOL    HW131646   3.240   0.378   6.515
10249SOL    HW231647   3.263   0.296   6.375
10250SOL     OW31648   6.704   3.026   1.482
10250SOL    HW131649   6.742   3.052   1.394
10250SOL    HW231650   6.712   3.102   1.546
10251SOL     OW31651   3.034   1.506   5.015
10251SOL    HW131652   3.000   1.419   4.979
10251SOL    HW231653   2.988   1.525   5.102
10252SOL     OW31654   4.543   4.624   0.184
10252SOL    HW131655   4.587   4.695   0.129
10252SOL    HW231656   4.471   4.579   0.131
10253SOL     OW31657   3.349   6.228   0.119
10253SOL    HW131658   3.308   6.137   0.114
10253SOL    HW231659   3.279   6.297   0.103
10254SOL     OW31660   4.625   0.865   4.685
10254SOL    HW131661   4.533   0.831   4.666
10254SOL    HW231662   4.677   0.873   4.599
10255SOL     OW31663   2.235   6.956   1.531
10255SOL    HW131664   2.175   6.880   1.555
10255SOL    HW231665   2.181   0.006   1.492
10256SOL     OW31666   6.018   0.905   1.647
10256SOL    HW131667   6.117   0.918   1.651
10256SOL    HW231668   5.973   0.983   1.692
10257SOL     OW31669   1.933   5.192   4.884
10257SOL    HW131670   1.888   5.103   4.891
10257SOL    HW231671   1.896   5.242   4.806
10258SOL     OW31672   3.530   0.786   3.965
10258SOL    HW131673   3.544   0.714   4.034
10258SOL    HW231674   3.606   0.850   3.969
10259SOL     OW31675   0.019   4.231   2.984
10259SOL    HW131676   7.010   4.177   2.907
10259SOL    HW231677   7.003   4.197   3.069
10260SOL     OW31678   0.456   0.768   4.185
10260SOL    HW131679   0.420   0.713   4.261
10260SOL    HW231680   0.457   0.714   4.102
10261SOL     OW31681   6.994   6.137   3.109
10261SOL    HW131682   7.023   6.203   3.177
10261SOL    HW231683   6.903   6.162   3.076
10262SOL     OW31684   1.756   6.817   4.266
10262SOL    HW131685   1.779   6.721   4.252
10262SOL    HW231686   1.803   6.873   4.198
10263SOL     OW31687   5.273   0.857   6.562
10263SOL    HW131688   5.241   0.866   6.468
10263SOL    HW231689   5.223   0.921   6.621
10264SOL     OW31690   5.969   2.170   5.354
10264SOL    HW131691   6.005   2.211   5.438
10264SOL    HW231692   5.885   2.218   5.327
10265SOL     OW31693   2.480   2.171   3.359
10265SOL    HW131694   2.414   2.235   3.399
10265SOL    HW231695   2.436   2.120   3.286
10266SOL     OW31696   3.462   2.858   4.685
10266SOL    HW131697   3.502   2.783   4.738
10266SOL    HW231698   3.510   2.866   4.598
10267SOL     OW31699   0.146   1.586   0.104
10267SOL    HW131700   0.174   1.647   0.178
10267SOL    HW231701   0.050   1.560   0.116
10268SOL     OW31702   5.741   5.083   2.177
10268SOL    HW131703   5.706   4.994   2.207
10268SOL    HW231704   5.723   5.094   2.079
10269SOL     OW31705   0.273   3.257   6.440
10269SOL    HW131706   0.254   3.325   6.368
10269SOL    HW231707   0.210   3.271   6.516
10270SOL     OW31708   2.916   4.801   3.412
10270SOL    HW131709   2.937   4.892   3.448
10270SOL    HW231710   2.980   4.734   3.449
10271SOL     OW31711   3.741   2.151   0.040
10271SOL    HW131712   3.798   2.075   0.071
10271SOL    HW231713   3.767   2.234   0.089
10272SOL     OW31714   0.696   0.593   4.907
10272SOL    HW131715   0.605   0.631   4.919
10272SOL    HW231716   0.690   0.494   4.890
10273SOL     OW31717   3.483   5.643   2.720
10273SOL    HW131718   3.511   5.738   2.709
10273SOL    HW231719   3.544   5.584   2.668
10274SOL     OW31720   6.818   5.298   3.667
10274SOL    HW131721   6.906   5.340   3.690
10274SOL    HW231722   6.747   5.335   3.727
10275SOL     OW31723   0.985   0.303   1.655
10275SOL    HW131724   0.887   0.327   1.650
10275SOL    HW231725   1.005   0.262   1.744
10276SOL     OW31726   5.643   5.155   5.184
10276SOL    HW131727   5.584   5.079   5.208
10276SOL    HW231728   5.693   5.133   5.100
10277SOL     OW31729   2.347   5.508   4.351
10277SOL    HW131730   2.360   5.462   4.439
10277SOL    HW231731   2.363   5.442   4.277
10278SOL     OW31732   7.002   0.428   4.529
10278SOL    HW131733   6.904   0.413   4.513
10278SOL    HW231734   0.027   0.411   4.444
10279SOL     OW31735   3.237   5.354   4.313
10279SOL    HW131736   3.162   5.394   4.365
10279SOL    HW231737   3.305   5.316   4.375
10280SOL     OW31738   1.050   4.208   1.059
10280SOL    HW131739   1.051   4.262   0.974
10280SOL    HW231740   1.110   4.250   1.126
10281SOL     OW31741   6.012   1.285   2.839
10281SOL    HW131742   6.086   1.348   2.818
10281SOL    HW231743   5.987   1.234   2.756
10282SOL     OW31744   5.803   4.290   4.073
10282SOL    HW131745   5.784   4.261   3.979
10282SOL    HW231746   5.849   4.379   4.072
10283SOL     OW31747   1.170   3.763   1.123
10283SOL    HW131748   1.182   3.851   1.170
10283SOL    HW231749   1.146   3.780   1.028
10284SOL     OW31750   5.502   3.060   5.520
10284SOL    HW131751   5.501   3.025   5.426
10284SOL    HW231752   5.444   3.001   5.577
10285SOL     OW31753   5.504   1.472   1.439
10285SOL    HW131754   5.475   1.403   1.373
10285SOL    HW231755   5.426   1.500   1.494
10286SOL     OW31756   3.128   1.699   3.819
10286SOL    HW131757   3.030   1.720   3.815
10286SOL    HW231758   3.164   1.727   3.908
10287SOL     OW31759   2.230   6.195   0.998
10287SOL    HW131760   2.295   6.253   0.949
10287SOL    HW231761   2.161   6.252   1.042
10288SOL     OW31762   4.736   6.039   3.238
10288SOL    HW131763   4.708   6.071   3.147
10288SOL    HW231764   4.688   6.092   3.308
10289SOL     OW31765   2.721   0.076   2.171
10289SOL    HW131766   2.809   0.034   2.149
10289SOL    HW231767   2.736   0.170   2.202
10290SOL     OW31768   2.819   3.629   1.849
10290SOL    HW131769   2.892   3.577   1.893
10290SOL    HW231770   2.849   3.723   1.833
10291SOL     OW31771   3.682   1.889   3.754
10291SOL    HW131772   3.637   1.975   3.778
10291SOL    HW231773   3.739   1.902   3.673
10292SOL     OW31774   1.540   0.199   4.859
10292SOL    HW131775   1.511   0.295   4.866
10292SOL    HW231776   1.490   0.144   4.925
10293SOL     OW31777   2.020   5.117   2.885
10293SOL    HW131778   1.943   5.176   2.907
10293SOL    HW231779   1.991   5.021   2.890
10294SOL     OW31780   5.454   3.202   2.397
10294SOL    HW131781   5.372   3.146   2.401
10294SOL    HW231782   5.442   3.275   2.330
10295SOL     OW31783   5.769   4.594   6.351
10295SOL    HW131784   5.693   4.659   6.342
10295SOL    HW231785   5.739   4.504   6.321
10296SOL     OW31786   4.487   2.809   6.926
10296SOL    HW131787   4.555   2.818   6.999
10296SOL    HW231788   4.396   2.829   6.962
10297SOL     OW31789   2.209   0.045   0.083
10297SOL    HW131790   2.175   6.981   0.113
10297SOL    HW231791   2.267   0.032   0.002
10298SOL     OW31792   3.669   5.067   1.822
10298SOL    HW131793   3.709   4.975   1.830
10298SOL    HW231794   3.743   5.134   1.818
10299SOL     OW31795   4.705   5.573   2.997
10299SOL    HW131796   4.697   5.637   3.073
10299SOL    HW231797   4.802   5.565   2.971
10300SOL     OW31798   1.117   4.248   3.210
10300SOL    HW131799   1.045   4.219   3.148
10300SOL    HW231800   1.145   4.341   3.188
10301SOL     OW31801   5.406   2.297   4.515
10301SOL    HW131802   5.354   2.334   4.438
10301SOL    HW231803   5.370   2.207   4.539
10302SOL     OW31804   1.127   5.757   3.556
10302SOL    HW131805   1.029   5.776   3.555
10302SOL    HW231806   1.178   5.843   3.559
10303SOL     OW31807   1.647   5.810   2.669
10303SOL    HW131808   1.615   5.730   2.720
10303SOL    HW231809   1.615   5.804   2.574
10304SOL     OW31810   5.054   0.356   2.197
10304SOL    HW131811   5.034   0.428   2.131
10304SOL    HW231812   4.985   0.358   2.270
10305SOL     OW31813   0.716   4.322   6.967
10305SOL    HW131814   0.708   4.345   6.870
10305SOL    HW231815   0.687   4.227   6.981
10306SOL     OW31816   4.352   6.363   6.988
10306SOL    HW131817   4.307   6.449   7.011
10306SOL    HW231818   4.314   6.328   6.903
10307SOL     OW31819   2.272   1.826   4.459
10307SOL    HW131820   2.336   1.900   4.480
10307SOL    HW231821   2.297   1.783   4.373
10308SOL     OW31822   2.279   4.613   4.409
10308SOL    HW131823   2.228   4.620   4.323
10308SOL    HW231824   2.277   4.518   4.441
10309SOL     OW31825   5.853   1.232   4.706
10309SOL    HW131826   5.771   1.194   4.749
10309SOL    HW231827   5.847   1.221   4.607
10310SOL     OW31828   3.827   3.195   1.640
10310SOL    HW131829   3.786   3.164   1.726
10310SOL    HW231830   3.919   3.231   1.659
10311SOL     OW31831   0.873   6.173   1.038
10311SOL    HW131832   0.845   6.246   1.100
10311SOL    HW231833   0.973   6.175   1.027
10312SOL     OW31834   2.712   6.487   1.608
10312SOL    HW131835   2.786   6.480   1.674
10312SOL    HW231836   2.746   6.465   1.516
10313SOL     OW31837   4.481   0.207   1.204
10313SOL    HW131838   4.399   0.249   1.241
10313SOL    HW231839   4.456   0.131   1.144
10314SOL     OW31840   6.867   0.271   2.475
10314SOL    HW131841   6.783   0.324   2.463
10314SOL    HW231842   6.946   0.333   2.475
10315SOL     OW31843   6.021   5.833   4.319
10315SOL    HW131844   5.965   5.894   4.375
10315SOL    HW231845   6.109   5.877   4.301
10316SOL     OW31846   6.478   2.494   4.682
10316SOL    HW131847   6.513   2.409   4.720
10316SOL    HW231848   6.523   2.572   4.726
10317SOL     OW31849   3.464   5.982   5.533
10317SOL    HW131850   3.436   5.925   5.610
10317SOL    HW231851   3.548   6.032   5.557
10318SOL     OW31852   5.416   5.854   6.308
10318SOL    HW131853   5.441   5.951   6.306
10318SOL    HW231854   5.366   5.831   6.225
10319SOL     OW31855   2.161   2.309   5.740
10319SOL    HW131856   2.216   2.305   5.656
10319SOL    HW231857   2.093   2.381   5.731
10320SOL     OW31858   0.785   0.696   2.520
10320SOL    HW131859   0.815   0.774   2.575
10320SOL    HW231860   0.765   0.619   2.581
10321SOL     OW31861   4.241   0.746   2.714
10321SOL    HW131862   4.256   0.792   2.626
10321SOL    HW231863   4.157   0.691   2.708
10322SOL     OW31864   6.865   5.853   6.433
10322SOL    HW131865   6.830   5.859   6.527
10322SOL    HW231866   6.803   5.900   6.371
10323SOL     OW31867   6.222   3.497   6.020
10323SOL    HW131868   6.219   3.435   6.099
10323SOL    HW231869   6.318   3.518   5.999
10324SOL     OW31870   3.041   3.100   3.223
10324SOL    HW131871   2.992   3.158   3.288
10324SOL    HW231872   3.053   3.009   3.262
10325SOL     OW31873   0.413   3.599   3.037
10325SOL    HW131874   0.351   3.595   2.959
10325SOL    HW231875   0.506   3.620   3.005
10326SOL     OW31876   3.954   4.015   0.021
10326SOL    HW131877   3.942   4.090   6.981
10326SOL    HW231878   4.049   3.985   0.020
10327SOL     OW31879   2.730   2.004   1.694
10327SOL    HW131880   2.703   2.069   1.623
10327SOL    HW231881   2.804   2.043   1.749
10328SOL     OW31882   5.905   2.738   1.266
10328SOL    HW131883   5.898   2.688   1.180
10328SOL    HW231884   5.948   2.679   1.335
10329SOL     OW31885   3.554   0.518   3.626
10329SOL    HW131886   3.653   0.514   3.639
10329SOL    HW231887   3.533   0.509   3.529
10330SOL     OW31888   3.445   5.865   1.799
10330SOL    HW131889   3.411   5.858   1.893
10330SOL    HW231890   3.423   5.781   1.750
10331SOL     OW31891   6.588   0.635   4.349
10331SOL    HW131892   6.510   0.590   4.306
10331SOL    HW231893   6.670   0.620   4.294
10332SOL     OW31894   5.956   1.600   0.454
10332SOL    HW131895   5.898   1.549   0.390
10332SOL    HW231896   5.964   1.695   0.423
10333SOL     OW31897   6.660   4.784   4.046
10333SOL    HW131898   6.580   4.793   3.986
10333SOL    HW231899   6.656   4.855   4.116
10334SOL     OW31900   2.370   6.056   4.176
10334SOL    HW131901   2.455   6.009   4.151
10334SOL    HW231902   2.292   6.003   4.144
10335SOL     OW31903   2.602   4.968   6.708
10335SOL    HW131904   2.685   4.923   6.677
10335SOL    HW231905   2.625   5.054   6.754
10336SOL     OW31906   5.602   0.224   3.149
10336SOL    HW131907   5.679   0.231   3.212
10336SOL    HW231908   5.581   0.315   3.111
10337SOL     OW31909   6.780   6.468   5.829
10337SOL    HW131910   6.798   6.384   5.778
10337SOL    HW231911   6.779   6.449   5.927
10338SOL     OW31912   2.373   6.310   2.193
10338SOL    HW131913   2.469   6.288   2.179
10338SOL    HW231914   2.365   6.394   2.246
10339SOL     OW31915   2.542   6.122   0.159
10339SOL    HW131916   2.582   6.170   0.081
10339SOL    HW231917   2.614   6.070   0.206
10340SOL     OW31918   1.044   5.009   0.794
10340SOL    HW131919   0.977   5.080   0.775
10340SOL    HW231920   1.136   5.047   0.785
10341SOL     OW31921   2.092   3.668   1.777
10341SOL    HW131922   2.126   3.639   1.867
10341SOL    HW231923   2.123   3.605   1.707
10342SOL     OW31924   1.220   6.324   5.597
10342SOL    HW131925   1.120   6.325   5.605
10342SOL    HW231926   1.249   6.397   5.535
10343SOL     OW31927   1.937   4.036   0.809
10343SOL    HW131928   1.923   3.987   0.895
10343SOL    HW231929   1.946   3.970   0.735
10344SOL     OW31930   4.366   3.354   1.730
10344SOL    HW131931   4.413   3.376   1.644
10344SOL    HW231932   4.268   3.369   1.719
10345SOL     OW31933   1.523   0.612   6.024
10345SOL    HW131934   1.494   0.611   6.120
10345SOL    HW231935   1.444   0.596   5.965
10346SOL     OW31936   5.999   0.830   1.075
10346SOL    HW131937   5.916   0.809   1.022
10346SOL    HW231938   6.080   0.810   1.020
10347SOL     OW31939   5.112   2.797   2.432
10347SOL    HW131940   5.152   2.725   2.375
10347SOL    HW231941   5.127   2.774   2.528
10348SOL     OW31942   6.453   1.659   0.044
10348SOL    HW131943   6.421   1.701   0.128
10348SOL    HW231944   6.421   1.564   0.039
10349SOL     OW31945   6.285   0.868   0.646
10349SOL    HW131946   6.232   0.918   0.577
10349SOL    HW231947   6.379   0.903   0.647
10350SOL     OW31948   2.118   6.081   5.566
10350SOL    HW131949   2.144   6.107   5.473
10350SOL    HW231950   2.127   6.160   5.626
10351SOL     OW31951   5.616   4.923   6.064
10351SOL    HW131952   5.713   4.899   6.067
10351SOL    HW231953   5.568   4.860   6.002
10352SOL     OW31954   5.527   1.729   0.098
10352SOL    HW131955   5.623   1.716   0.119
10352SOL    HW231956   5.517   1.778   0.011
10353SOL     OW31957   5.922   1.944   4.553
10353SOL    HW131958   5.907   1.863   4.610
10353SOL    HW231959   5.903   2.026   4.606
10354SOL     OW31960   6.932   2.122   1.770
10354SOL    HW131961   6.859   2.071   1.817
10354SOL    HW231962   6.962   2.198   1.828
10355SOL     OW31963   1.378   0.920   0.940
10355SOL    HW131964   1.449   0.980   0.902
10355SOL    HW231965   1.375   0.835   0.889
10356SOL     OW31966   6.773   3.569   5.392
10356SOL    HW131967   6.770   3.667   5.373
10356SOL    HW231968   6.717   3.520   5.326
10357SOL     OW31969   3.248   2.551   5.919
10357SOL    HW131970   3.164   2.524   5.965
10357SOL    HW231971   3.327   2.524   5.974
10358SOL     OW31972   0.430   3.236   3.578
10358SOL    HW131973   0.394   3.233   3.672
10358SOL    HW231974   0.402   3.154   3.529
10359SOL     OW31975   5.339   1.665   1.721
10359SOL    HW131976   5.353   1.566   1.711
10359SOL    HW231977   5.427   1.710   1.736
10360SOL     OW31978   4.661   5.703   1.911
10360SOL    HW131979   4.683   5.723   2.006
10360SOL    HW231980   4.664   5.605   1.896
10361SOL     OW31981   2.821   1.176   3.014
10361SOL    HW131982   2.918   1.202   3.019
10361SOL    HW231983   2.780   1.185   3.105
10362SOL     OW31984   0.347   5.313   2.791
10362SOL    HW131985   0.341   5.408   2.823
10362SOL    HW231986   0.440   5.279   2.805
10363SOL     OW31987   5.261   2.974   1.255
10363SOL    HW131988   5.223   2.946   1.343
10363SOL    HW231989   5.279   2.893   1.200
10364SOL     OW31990   4.048   4.275   1.632
10364SOL    HW131991   3.980   4.212   1.670
10364SOL    HW231992   4.127   4.224   1.600
10365SOL     OW31993   5.129   4.139   6.512
10365SOL    HW131994   5.126   4.163   6.415
10365SOL    HW231995   5.129   4.040   6.522
10366SOL     OW31996   3.087   0.008   3.900
10366SOL    HW131997   3.057   0.100   3.926
10366SOL    HW231998   3.033   7.000   3.822
10367SOL     OW31999   6.919   1.595   1.835
10367SOL    HW132000   7.002   1.540   1.846
10367SOL    HW232001   6.855   1.573   1.909
10368SOL     OW32002   2.027   1.336   2.170
10368SOL    HW132003   2.083   1.255   2.185
10368SOL    HW232004   2.065   1.413   2.221
10369SOL     OW32005   3.153   0.122   5.826
10369SOL    HW132006   3.249   0.117   5.799
10369SOL    HW232007   3.119   0.029   5.841
10370SOL     OW32008   6.831   0.876   5.401
10370SOL    HW132009   6.810   0.970   5.426
10370SOL    HW232010   6.888   0.835   5.473
10371SOL     OW32011   1.720   6.173   4.540
10371SOL    HW132012   1.744   6.140   4.631
10371SOL    HW232013   1.637   6.129   4.508
10372SOL     OW32014   2.204   1.025   6.833
10372SOL    HW132015   2.107   1.043   6.817
10372SOL    HW232016   2.259   1.087   6.777
10373SOL     OW32017   1.250   5.898   5.098
10373SOL    HW132018   1.234   5.982   5.151
10373SOL    HW232019   1.243   5.918   5.001
10374SOL     OW32020   3.167   0.731   3.872
10374SOL    HW132021   3.251   0.703   3.827
10374SOL    HW232022   3.090   0.719   3.809
10375SOL     OW32023   2.184   2.006   6.226
10375SOL    HW132024   2.122   2.083   6.241
10375SOL    HW232025   2.275   2.029   6.261
10376SOL     OW32026   1.215   5.890   3.305
10376SOL    HW132027   1.283   5.829   3.265
10376SOL    HW232028   1.123   5.854   3.290
10377SOL     OW32029   0.154   0.784   2.420
10377SOL    HW132030   0.199   0.872   2.426
10377SOL    HW232031   0.152   0.741   2.510
10378SOL     OW32032   5.936   5.757   5.552
10378SOL    HW132033   5.906   5.702   5.630
10378SOL    HW232034   5.905   5.852   5.564
10379SOL     OW32035   2.623   5.986   4.097
10379SOL    HW132036   2.712   5.989   4.144
10379SOL    HW232037   2.597   5.890   4.083
10380SOL     OW32038   0.982   2.740   4.689
10380SOL    HW132039   0.961   2.821   4.634
10380SOL    HW232040   0.955   2.757   4.784
10381SOL     OW32041   4.360   4.024   1.219
10381SOL    HW132042   4.454   4.022   1.254
10381SOL    HW232043   4.361   4.006   1.121
10382SOL     OW32044   2.143   5.372   1.801
10382SOL    HW132045   2.231   5.363   1.848
10382SOL    HW232046   2.149   5.329   1.711
10383SOL     OW32047   1.230   4.024   1.213
10383SOL    HW132048   1.203   4.085   1.138
10383SOL    HW232049   1.180   4.050   1.295
10384SOL     OW32050   6.473   0.281   1.128
10384SOL    HW132051   6.379   0.249   1.120
10384SOL    HW232052   6.495   0.337   1.048
10385SOL     OW32053   4.053   5.843   5.742
10385SOL    HW132054   4.047   5.931   5.694
10385SOL    HW232055   3.970   5.828   5.795
10386SOL     OW32056   6.879   1.587   5.239
10386SOL    HW132057   6.874   1.504   5.293
10386SOL    HW232058   6.789   1.631   5.237
10387SOL     OW32059   4.286   1.488   2.675
10387SOL    HW132060   4.370   1.443   2.706
10387SOL    HW232061   4.207   1.440   2.713
10388SOL     OW32062   2.115   5.578   2.057
10388SOL    HW132063   2.152   5.543   2.144
10388SOL    HW232064   2.030   5.530   2.035
10389SOL     OW32065   6.314   5.340   0.476
10389SOL    HW132066   6.335   5.285   0.557
10389SOL    HW232067   6.317   5.281   0.394
10390SOL     OW32068   2.019   3.197   0.975
10390SOL    HW132069   1.931   3.214   0.930
10390SOL    HW232070   2.003   3.152   1.063
10391SOL     OW32071   0.387   6.424   3.125
10391SOL    HW132072   0.332   6.345   3.098
10391SOL    HW232073   0.468   6.429   3.067
10392SOL     OW32074   6.524   4.789   5.320
10392SOL    HW132075   6.592   4.734   5.270
10392SOL    HW232076   6.499   4.741   5.404
10393SOL     OW32077   2.579   2.448   3.676
10393SOL    HW132078   2.600   2.490   3.587
10393SOL    HW232079   2.649   2.381   3.699
10394SOL     OW32080   2.435   5.686   5.156
10394SOL    HW132081   2.509   5.665   5.093
10394SOL    HW232082   2.362   5.735   5.108
10395SOL     OW32083   0.629   0.722   1.997
10395SOL    HW132084   0.590   0.632   2.020
10395SOL    HW232085   0.677   0.716   1.910
10396SOL     OW32086   3.936   1.069   3.502
10396SOL    HW132087   4.028   1.097   3.475
10396SOL    HW232088   3.924   1.082   3.601
10397SOL     OW32089   2.915   1.527   4.572
10397SOL    HW132090   2.913   1.586   4.491
10397SOL    HW232091   2.822   1.519   4.610
10398SOL     OW32092   5.088   2.567   0.439
10398SOL    HW132093   5.183   2.538   0.447
10398SOL    HW232094   5.027   2.492   0.466
10399SOL     OW32095   5.000   2.592   4.223
10399SOL    HW132096   4.984   2.669   4.285
10399SOL    HW232097   5.059   2.621   4.148
10400SOL     OW32098   3.905   5.934   0.051
10400SOL    HW132099   3.902   6.016   0.107
10400SOL    HW232100   3.932   5.958   6.982
10401SOL     OW32101   0.615   6.814   1.919
10401SOL    HW132102   0.588   6.865   2.001
10401SOL    HW232103   0.550   6.832   1.846
10402SOL     OW32104   0.335   1.474   5.494
10402SOL    HW132105   0.344   1.502   5.398
10402SOL    HW232106   0.294   1.549   5.547
10403SOL     OW32107   4.359   1.639   2.936
10403SOL    HW132108   4.322   1.612   2.847
10403SOL    HW232109   4.314   1.723   2.967
10404SOL     OW32110   6.742   6.546   3.962
10404SOL    HW132111   6.730   6.545   3.862
10404SOL    HW232112   6.663   6.502   4.005
10405SOL     OW32113   1.053   5.720   4.763
10405SOL    HW132114   0.964   5.685   4.735
10405SOL    HW232115   1.125   5.669   4.716
10406SOL     OW32116   2.153   2.901   5.174
10406SOL    HW132117   2.229   2.942   5.124
10406SOL    HW232118   2.160   2.924   5.271
10407SOL     OW32119   2.707   0.059   0.122
10407SOL    HW132120   2.635   7.017   0.102
10407SOL    HW232121   2.667   0.136   0.172
10408SOL     OW32122   4.512   6.682   1.691
10408SOL    HW132123   4.437   6.647   1.746
10408SOL    HW232124   4.593   6.693   1.749
10409SOL     OW32125   0.105   4.400   0.612
10409SOL    HW132126   0.155   4.463   0.671
10409SOL    HW232127   0.022   4.445   0.578
10410SOL     OW32128   5.136   2.834   2.091
10410SOL    HW132129   5.149   2.741   2.057
10410SOL    HW232130   5.096   2.830   2.183
10411SOL     OW32131   3.058   5.918   4.004
10411SOL    HW132132   3.131   5.986   4.011
10411SOL    HW232133   2.997   5.943   3.929
10412SOL     OW32134   0.334   1.416   0.619
10412SOL    HW132135   0.347   1.344   0.686
10412SOL    HW232136   0.287   1.379   0.539
10413SOL     OW32137   6.264   2.705   1.879
10413SOL    HW132138   6.173   2.690   1.839
10413SOL    HW232139   6.321   2.756   1.815
10414SOL     OW32140   3.424   4.881   6.476
10414SOL    HW132141   3.378   4.805   6.522
10414SOL    HW232142   3.473   4.847   6.396
10415SOL     OW32143   1.750   4.714   4.193
10415SOL    HW132144   1.707   4.680   4.109
10415SOL    HW232145   1.759   4.639   4.259
10416SOL     OW32146   5.650   6.964   5.371
10416SOL    HW132147   5.732   6.958   5.427
10416SOL    HW232148   5.634   6.877   5.326
10417SOL     OW32149   4.177   5.006   4.170
10417SOL    HW132150   4.133   4.943   4.235
10417SOL    HW232151   4.183   4.962   4.080
10418SOL     OW32152   6.721   4.180   5.683
10418SOL    HW132153   6.705   4.278   5.673
10418SOL    HW232154   6.765   4.145   5.601
10419SOL     OW32155   3.357   6.724   6.379
10419SOL    HW132156   3.347   6.823   6.382
10419SOL    HW232157   3.414   6.698   6.301
10420SOL     OW32158   0.722   3.625   4.193
10420SOL    HW132159   0.712   3.584   4.283
10420SOL    HW232160   0.653   3.587   4.131
10421SOL     OW32161   1.448   3.674   3.884
10421SOL    HW132162   1.542   3.706   3.898
10421SOL    HW232163   1.423   3.609   3.955
10422SOL     OW32164   6.322   3.468   5.562
10422SOL    HW132165   6.377   3.443   5.482
10422SOL    HW232166   6.351   3.558   5.595
10423SOL     OW32167   5.477   4.879   5.829
10423SOL    HW132168   5.521   4.945   5.769
10423SOL    HW232169   5.379   4.899   5.834
10424SOL     OW32170   4.076   3.271   0.944
10424SOL    HW132171   4.164   3.225   0.948
10424SOL    HW232172   4.088   3.369   0.961
10425SOL     OW32173   1.077   6.453   2.343
10425SOL    HW132174   1.028   6.536   2.317
10425SOL    HW232175   1.035   6.414   2.425
10426SOL     OW32176   5.298   4.740   6.923
10426SOL    HW132177   5.230   4.783   6.982
10426SOL    HW232178   5.315   4.647   6.953
10427SOL     OW32179   4.543   0.848   0.346
10427SOL    HW132180   4.450   0.882   0.338
10427SOL    HW232181   4.546   0.771   0.410
10428SOL     OW32182   3.206   1.308   4.305
10428SOL    HW132183   3.225   1.371   4.381
10428SOL    HW232184   3.292   1.283   4.261
10429SOL     OW32185   0.181   4.163   2.570
10429SOL    HW132186   0.275   4.160   2.605
10429SOL    HW232187   0.118   4.171   2.647
10430SOL     OW32188   4.191   6.755   5.490
10430SOL    HW132189   4.135   6.677   5.515
10430SOL    HW232190   4.249   6.732   5.412
10431SOL     OW32191   2.089   6.316   4.227
10431SOL    HW132192   2.145   6.318   4.309
10431SOL    HW232193   2.007   6.261   4.244
10432SOL     OW32194   6.260   0.372   5.089
10432SOL    HW132195   6.222   0.457   5.050
10432SOL    HW232196   6.255   0.299   5.020
10433SOL     OW32197   0.484   6.226   2.773
10433SOL    HW132198   0.492   6.159   2.699
10433SOL    HW232199   0.457   6.314   2.735
10434SOL     OW32200   3.590   6.111   2.651
10434SOL    HW132201   3.515   6.158   2.604
10434SOL    HW232202   3.663   6.091   2.585
10435SOL     OW32203   1.598   1.848   5.227
10435SOL    HW132204   1.535   1.880   5.156
10435SOL    HW232205   1.546   1.811   5.304
10436SOL     OW32206   6.136   4.842   5.380
10436SOL    HW132207   6.196   4.895   5.440
10436SOL    HW232208   6.168   4.849   5.285
10437SOL     OW32209   5.214   4.623   5.849
10437SOL    HW132210   5.165   4.708   5.869
10437SOL    HW232211   5.198   4.558   5.924
10438SOL     OW32212   0.408   5.905   6.652
10438SOL    HW132213   0.472   5.832   6.676
10438SOL    HW232214   0.455   5.974   6.598
10439SOL     OW32215   4.288   1.321   5.030
10439SOL    HW132216   4.368   1.312   5.088
10439SOL    HW232217   4.228   1.242   5.042
10440SOL     OW32218   0.700   6.923   0.806
10440SOL    HW132219   0.764   6.953   0.876
10440SOL    HW232220   0.612   6.968   0.820
10441SOL     OW32221   3.464   1.715   1.679
10441SOL    HW132222   3.508   1.770   1.607
10441SOL    HW232223   3.497   1.621   1.672
10442SOL     OW32224   4.222   6.604   6.247
10442SOL    HW132225   4.317   6.613   6.277
10442SOL    HW232226   4.162   6.639   6.319
10443SOL     OW32227   4.743   2.453   3.688
10443SOL    HW132228   4.786   2.521   3.748
10443SOL    HW232229   4.788   2.365   3.701
10444SOL     OW32230   4.026   5.618   3.006
10444SOL    HW132231   3.933   5.611   2.969
10444SOL    HW232232   4.027   5.583   3.100
10445SOL     OW32233   0.560   4.898   4.237
10445SOL    HW132234   0.530   4.836   4.309
10445SOL    HW232235   0.640   4.950   4.268
10446SOL     OW32236   1.911   3.155   6.515
10446SOL    HW132237   1.997   3.128   6.471
10446SOL    HW232238   1.840   3.167   6.446
10447SOL     OW32239   6.879   0.951   3.025
10447SOL    HW132240   6.918   0.938   3.116
10447SOL    HW232241   6.912   1.038   2.987
10448SOL     OW32242   4.565   0.380   2.616
10448SOL    HW132243   4.609   0.290   2.618
10448SOL    HW232244   4.467   0.370   2.635
10449SOL     OW32245   1.708   5.133   6.334
10449SOL    HW132246   1.776   5.196   6.298
10449SOL    HW232247   1.715   5.045   6.286
10450SOL     OW32248   0.505   1.245   0.232
10450SOL    HW132249   0.580   1.303   0.264
10450SOL    HW232250   0.449   1.296   0.168
10451SOL     OW32251   1.824   5.766   2.923
10451SOL    HW132252   1.862   5.853   2.956
10451SOL    HW232253   1.756   5.783   2.852
10452SOL     OW32254   6.382   3.241   2.037
10452SOL    HW132255   6.393   3.275   1.944
10452SOL    HW232256   6.430   3.153   2.046
10453SOL     OW32257   5.596   6.947   1.189
10453SOL    HW132258   5.607   6.876   1.259
10453SOL    HW232259   5.504   6.985   1.194
10454SOL     OW32260   4.850   3.220   0.228
10454SOL    HW132261   4.929   3.188   0.176
10454SOL    HW232262   4.767   3.210   0.173
10455SOL     OW32263   6.834   6.949   3.254
10455SOL    HW132264   6.793   6.937   3.345
10455SOL    HW232265   6.932   6.965   3.264
10456SOL     OW32266   1.678   5.254   0.279
10456SOL    HW132267   1.585   5.247   0.244
10456SOL    HW232268   1.729   5.321   0.225
10457SOL     OW32269   4.059   2.933   0.875
10457SOL    HW132270   4.091   2.846   0.837
10457SOL    HW232271   4.134   2.999   0.873
10458SOL     OW32272   6.365   0.290   6.384
10458SOL    HW132273   6.380   0.290   6.285
10458SOL    HW232274   6.449   0.316   6.431
10459SOL     OW32275   4.583   5.983   1.305
10459SOL    HW132276   4.582   5.957   1.208
10459SOL    HW232277   4.576   6.083   1.313
10460SOL     OW32278   0.743   3.888   1.891
10460SOL    HW132279   0.704   3.831   1.819
10460SOL    HW232280   0.727   3.985   1.871
10461SOL     OW32281   5.889   5.310   4.840
10461SOL    HW132282   5.850   5.340   4.927
10461SOL    HW232283   5.915   5.214   4.846
10462SOL     OW32284   5.165   1.768   3.330
10462SOL    HW132285   5.182   1.782   3.232
10462SOL    HW232286   5.177   1.671   3.351
10463SOL     OW32287   4.540   2.933   5.979
10463SOL    HW132288   4.583   2.891   5.899
10463SOL    HW232289   4.608   2.948   6.050
10464SOL     OW32290   6.896   6.610   1.380
10464SOL    HW132291   6.819   6.557   1.343
10464SOL    HW232292   6.981   6.579   1.338
10465SOL     OW32293   6.040   5.886   0.439
10465SOL    HW132294   6.049   5.983   0.462
10465SOL    HW232295   6.126   5.852   0.403
10466SOL     OW32296   4.756   5.087   5.731
10466SOL    HW132297   4.707   5.126   5.809
10466SOL    HW232298   4.801   5.160   5.679
10467SOL     OW32299   2.900   1.636   0.177
10467SOL    HW132300   2.852   1.637   0.089
10467SOL    HW232301   2.921   1.729   0.205
10468SOL     OW32302   3.628   5.124   3.240
10468SOL    HW132303   3.562   5.198   3.257
10468SOL    HW232304   3.710   5.140   3.294
10469SOL     OW32305   4.027   4.548   5.456
10469SOL    HW132306   3.972   4.466   5.444
10469SOL    HW232307   3.976   4.614   5.512
10470SOL     OW32308   2.096   2.534   3.514
10470SOL    HW132309   2.166   2.605   3.499
10470SOL    HW232310   2.049   2.552   3.601
10471SOL     OW32311   3.467   0.944   1.083
10471SOL    HW132312   3.495   0.956   1.178
10471SOL    HW232313   3.376   0.982   1.070
10472SOL     OW32314   3.323   6.041   0.528
10472SOL    HW132315   3.292   5.963   0.473
10472SOL    HW232316   3.419   6.061   0.507
10473SOL     OW32317   6.507   6.834   6.977
10473SOL    HW132318   6.503   6.735   6.989
10473SOL    HW232319   6.453   6.861   6.898
10474SOL     OW32320   3.906   1.560   4.436
10474SOL    HW132321   3.877   1.491   4.370
10474SOL    HW232322   3.967   1.626   4.391
10475SOL     OW32323   4.610   6.700   1.249
10475SOL    HW132324   4.533   6.693   1.185
10475SOL    HW232325   4.580   6.748   1.331
10476SOL     OW32326   6.834   6.748   0.222
10476SOL    HW132327   6.924   6.706   0.210
10476SOL    HW232328   6.826   6.827   0.161
10477SOL     OW32329   6.354   0.668   4.675
10477SOL    HW132330   6.443   0.711   4.657
10477SOL    HW232331   6.309   0.715   4.751
10478SOL     OW32332   6.215   0.783   0.903
10478SOL    HW132333   6.244   0.688   0.914
10478SOL    HW232334   6.253   0.820   0.818
10479SOL     OW32335   6.614   1.745   3.052
10479SOL    HW132336   6.644   1.662   3.098
10479SOL    HW232337   6.687   1.813   3.053
10480SOL     OW32338   6.872   0.210   1.569
10480SOL    HW132339   6.779   0.233   1.541
10480SOL    HW232340   6.869   0.166   1.659
10481SOL     OW32341   2.772   6.981   4.208
10481SOL    HW132342   2.738   0.048   4.187
10481SOL    HW232343   2.699   6.928   4.250
10482SOL     OW32344   6.388   4.837   4.292
10482SOL    HW132345   6.478   4.818   4.332
10482SOL    HW232346   6.399   4.866   4.197
10483SOL     OW32347   6.516   4.712   0.147
10483SOL    HW132348   6.581   4.729   0.073
10483SOL    HW232349   6.530   4.780   0.219
10484SOL     OW32350   6.272   1.835   1.701
10484SOL    HW132351   6.309   1.921   1.665
10484SOL    HW232352   6.276   1.836   1.801
10485SOL     OW32353   3.168   3.702   0.260
10485SOL    HW132354   3.216   3.789   0.246
10485SOL    HW232355   3.201   3.635   0.193
10486SOL     OW32356   0.335   0.561   0.499
10486SOL    HW132357   0.347   0.602   0.590
10486SOL    HW232358   0.278   0.479   0.508
10487SOL     OW32359   4.816   1.468   1.292
10487SOL    HW132360   4.864   1.443   1.376
10487SOL    HW232361   4.853   1.554   1.257
10488SOL     OW32362   3.475   1.426   5.696
10488SOL    HW132363   3.478   1.513   5.745
10488SOL    HW232364   3.568   1.390   5.685
10489SOL     OW32365   0.434   6.589   5.007
10489SOL    HW132366   0.488   6.518   4.962
10489SOL    HW232367   0.493   6.666   5.032
10490SOL     OW32368   5.517   1.641   0.473
10490SOL    HW132369   5.504   1.666   0.569
10490SOL    HW232370   5.545   1.722   0.422
10491SOL     OW32371   2.492   2.425   6.003
10491SOL    HW132372   2.468   2.330   6.021
10491SOL    HW232373   2.533   2.432   5.911
10492SOL     OW32374   5.583   5.167   0.645
10492SOL    HW132375   5.518   5.236   0.679
10492SOL    HW232376   5.653   5.152   0.714
10493SOL     OW32377   3.535   0.273   1.702
10493SOL    HW132378   3.502   0.344   1.640
10493SOL    HW232379   3.601   0.314   1.767
10494SOL     OW32380   5.997   3.964   6.098
10494SOL    HW132381   6.072   3.952   6.033
10494SOL    HW232382   5.911   3.933   6.056
10495SOL     OW32383   1.673   6.670   1.344
10495SOL    HW132384   1.661   6.589   1.287
10495SOL    HW232385   1.587   6.721   1.348
10496SOL     OW32386   6.532   3.771   6.718
10496SOL    HW132387   6.568   3.695   6.665
10496SOL    HW232388   6.564   3.858   6.679
10497SOL     OW32389   2.081   0.113   2.316
10497SOL    HW132390   2.000   0.063   2.344
10497SOL    HW232391   2.081   0.203   2.361
10498SOL     OW32392   4.974   5.416   0.976
10498SOL    HW132393   5.042   5.489   0.968
10498SOL    HW232394   4.980   5.356   0.897
10499SOL     OW32395   4.559   6.656   2.131
10499SOL    HW132396   4.575   6.746   2.091
10499SOL    HW232397   4.645   6.605   2.133
10500SOL     OW32398   6.473   1.373   5.773
10500SOL    HW132399   6.424   1.311   5.712
10500SOL    HW232400   6.492   1.326   5.859
10501SOL     OW32401   2.269   5.837   2.171
10501SOL    HW132402   2.302   5.745   2.193
10501SOL    HW232403   2.328   5.877   2.102
10502SOL     OW32404   2.654   1.583   1.885
10502SOL    HW132405   2.701   1.658   1.932
10502SOL    HW232406   2.593   1.620   1.815
10503SOL     OW32407   4.661   2.729   0.872
10503SOL    HW132408   4.662   2.823   0.839
10503SOL    HW232409   4.741   2.713   0.930
10504SOL     OW32410   1.238   1.964   5.651
10504SOL    HW132411   1.154   1.989   5.603
10504SOL    HW232412   1.267   2.040   5.710
10505SOL     OW32413   5.229   4.814   0.848
10505SOL    HW132414   5.158   4.806   0.777
10505SOL    HW232415   5.287   4.893   0.828
10506SOL     OW32416   6.915   4.487   0.464
10506SOL    HW132417   6.895   4.558   0.396
10506SOL    HW232418   6.830   4.445   0.495
10507SOL     OW32419   1.722   6.580   0.498
10507SOL    HW132420   1.806   6.621   0.464
10507SOL    HW232421   1.745   6.498   0.552
10508SOL     OW32422   6.132   5.600   4.328
10508SOL    HW132423   6.086   5.689   4.327
10508SOL    HW232424   6.217   5.606   4.275
10509SOL     OW32425   6.872   4.922   4.848
10509SOL    HW132426   6.887   4.999   4.910
10509SOL    HW232427   6.959   4.895   4.807
10510SOL     OW32428   4.704   5.664   6.618
10510SOL    HW132429   4.637   5.667   6.692
10510SOL    HW232430   4.789   5.623   6.651
10511SOL     OW32431   3.322   0.908   2.403
10511SOL    HW132432   3.357   0.871   2.316
10511SOL    HW232433   3.236   0.956   2.386
10512SOL     OW32434   4.876   0.197   6.662
10512SOL    HW132435   4.804   0.266   6.675
10512SOL    HW232436   4.834   0.111   6.632
10513SOL     OW32437   5.683   2.361   4.500
10513SOL    HW132438   5.586   2.347   4.522
10513SOL    HW232439   5.739   2.321   4.572
10514SOL     OW32440   0.557   3.231   0.854
10514SOL    HW132441   0.493   3.280   0.912
10514SOL    HW232442   0.510   3.154   0.809
10515SOL     OW32443   0.941   4.100   3.583
10515SOL    HW132444   0.961   4.193   3.551
10515SOL    HW232445   0.867   4.061   3.528
10516SOL     OW32446   4.273   1.330   0.647
10516SOL    HW132447   4.230   1.248   0.611
10516SOL    HW232448   4.373   1.323   0.637
10517SOL     OW32449   0.404   3.037   1.483
10517SOL    HW132450   0.455   3.084   1.411
10517SOL    HW232451   0.415   3.087   1.569
10518SOL     OW32452   0.573   5.943   0.427
10518SOL    HW132453   0.589   5.974   0.520
10518SOL    HW232454   0.475   5.941   0.408
10519SOL     OW32455   3.758   3.453   0.644
10519SOL    HW132456   3.756   3.547   0.679
10519SOL    HW232457   3.731   3.390   0.717
10520SOL     OW32458   0.390   2.124   5.976
10520SOL    HW132459   0.464   2.088   5.919
10520SOL    HW232460   0.313   2.149   5.919
10521SOL     OW32461   6.223   5.520   1.768
10521SOL    HW132462   6.164   5.537   1.847
10521SOL    HW232463   6.305   5.471   1.798
10522SOL     OW32464   0.856   0.212   5.387
10522SOL    HW132465   0.858   0.302   5.432
10522SOL    HW232466   0.886   0.142   5.451
10523SOL     OW32467   0.856   4.627   2.779
10523SOL    HW132468   0.759   4.610   2.793
10523SOL    HW232469   0.870   4.719   2.744
10524SOL     OW32470   1.022   6.637   3.707
10524SOL    HW132471   0.961   6.608   3.780
10524SOL    HW232472   1.031   6.737   3.709
10525SOL     OW32473   4.325   6.874   6.637
10525SOL    HW132474   4.338   6.925   6.552
10525SOL    HW232475   4.377   6.918   6.711
10526SOL     OW32476   1.883   6.661   3.646
10526SOL    HW132477   1.891   6.754   3.609
10526SOL    HW232478   1.790   6.628   3.632
10527SOL     OW32479   0.962   1.432   5.304
10527SOL    HW132480   0.930   1.350   5.351
10527SOL    HW232481   0.933   1.429   5.209
10528SOL     OW32482   1.335   3.090   6.044
10528SOL    HW132483   1.340   3.153   6.122
10528SOL    HW232484   1.377   3.133   5.964
10529SOL     OW32485   2.991   6.233   4.195
10529SOL    HW132486   2.894   6.258   4.189
10529SOL    HW232487   3.009   6.190   4.283
10530SOL     OW32488   1.586   0.099   6.466
10530SOL    HW132489   1.675   0.070   6.430
10530SOL    HW232490   1.575   0.197   6.451
10531SOL     OW32491   1.161   2.771   4.321
10531SOL    HW132492   1.091   2.830   4.280
10531SOL    HW232493   1.249   2.819   4.319
10532SOL     OW32494   1.174   6.601   6.223
10532SOL    HW132495   1.268   6.582   6.251
10532SOL    HW232496   1.121   6.517   6.221
10533SOL     OW32497   2.934   6.938   3.683
10533SOL    HW132498   2.898   7.016   3.631
10533SOL    HW232499   2.858   6.889   3.726
10534SOL     OW32500   6.599   5.700   1.546
10534SOL    HW132501   6.533   5.655   1.486
10534SOL    HW232502   6.636   5.781   1.501
10535SOL     OW32503   1.176   2.229   1.681
10535SOL    HW132504   1.090   2.190   1.712
10535SOL    HW232505   1.238   2.156   1.654
10536SOL     OW32506   4.062   0.826   4.137
10536SOL    HW132507   4.045   0.773   4.054
10536SOL    HW232508   4.117   0.906   4.116
10537SOL     OW32509   3.862   6.073   3.890
10537SOL    HW132510   3.806   6.133   3.946
10537SOL    HW232511   3.805   6.024   3.825
10538SOL     OW32512   5.930   2.776   0.674
10538SOL    HW132513   6.001   2.708   0.656
10538SOL    HW232514   5.971   2.867   0.678
10539SOL     OW32515   0.505   4.631   6.915
10539SOL    HW132516   0.424   4.579   6.888
10539SOL    HW232517   0.537   4.686   6.838
10540SOL     OW32518   1.514   1.888   5.558
10540SOL    HW132519   1.424   1.899   5.601
10540SOL    HW232520   1.519   1.946   5.477
10541SOL     OW32521   3.189   4.088   2.130
10541SOL    HW132522   3.123   4.034   2.183
10541SOL    HW232523   3.263   4.118   2.191
10542SOL     OW32524   0.594   0.056   5.859
10542SOL    HW132525   0.646   6.995   5.859
10542SOL    HW232526   0.496   0.035   5.853
10543SOL     OW32527   0.144   1.369   4.810
10543SOL    HW132528   0.194   1.446   4.849
10543SOL    HW232529   0.050   1.369   4.845
10544SOL     OW32530   2.680   6.973   1.899
10544SOL    HW132531   2.707   0.033   1.854
10544SOL    HW232532   2.589   6.984   1.940
10545SOL     OW32533   0.460   2.359   1.367
10545SOL    HW132534   0.554   2.343   1.396
10545SOL    HW232535   0.397   2.315   1.432
10546SOL     OW32536   1.535   0.803   1.132
10546SOL    HW132537   1.486   0.862   1.069
10546SOL    HW232538   1.558   0.854   1.215
10547SOL     OW32539   4.909   3.499   2.913
10547SOL    HW132540   4.861   3.428   2.861
10547SOL    HW232541   5.000   3.512   2.875
10548SOL     OW32542   5.547   4.453   3.951
10548SOL    HW132543   5.595   4.441   4.038
10548SOL    HW232544   5.448   4.448   3.967
10549SOL     OW32545   0.535   0.235   1.963
10549SOL    HW132546   0.552   0.241   1.864
10549SOL    HW232547   0.612   0.190   2.008
10550SOL     OW32548   4.797   6.951   3.761
10550SOL    HW132549   4.761   0.001   3.817
10550SOL    HW232550   4.738   6.871   3.770
10551SOL     OW32551   1.675   2.510   6.527
10551SOL    HW132552   1.632   2.442   6.586
10551SOL    HW232553   1.775   2.501   6.533
10552SOL     OW32554   3.002   0.978   5.972
10552SOL    HW132555   3.034   0.891   6.012
10552SOL    HW232556   3.047   0.992   5.884
10553SOL     OW32557   0.663   4.635   1.816
10553SOL    HW132558   0.617   4.637   1.905
10553SOL    HW232559   0.668   4.727   1.779
10554SOL     OW32560   6.049   4.654   0.377
10554SOL    HW132561   6.124   4.590   0.393
10554SOL    HW232562   5.969   4.626   0.430
10555SOL     OW32563   1.806   2.343   0.178
10555SOL    HW132564   1.814   2.421   0.117
10555SOL    HW232565   1.868   2.355   0.256
10556SOL     OW32566   1.813   1.520   4.668
10556SOL    HW132567   1.786   1.435   4.714
10556SOL    HW232568   1.902   1.507   4.625
10557SOL     OW32569   2.188   2.941   3.379
10557SOL    HW132570   2.163   3.012   3.445
10557SOL    HW232571   2.108   2.917   3.324
10558SOL     OW32572   3.999   0.174   4.201
10558SOL    HW132573   4.007   0.079   4.230
10558SOL    HW232574   4.055   0.189   4.120
10559SOL     OW32575   5.047   0.608   2.031
10559SOL    HW132576   4.948   0.614   2.037
10559SOL    HW232577   5.087   0.696   2.056
10560SOL     OW32578   4.077   6.198   2.510
10560SOL    HW132579   4.103   6.105   2.537
10560SOL    HW232580   4.106   6.213   2.415
10561SOL     OW32581   3.615   4.032   1.659
10561SOL    HW132582   3.583   4.094   1.731
10561SOL    HW232583   3.687   3.974   1.696
10562SOL     OW32584   4.109   5.448   0.053
10562SOL    HW132585   4.123   5.436   6.979
10562SOL    HW232586   4.185   5.501   0.091
10563SOL     OW32587   0.804   1.567   3.516
10563SOL    HW132588   0.894   1.607   3.498
10563SOL    HW232589   0.732   1.632   3.489
10564SOL     OW32590   5.958   6.153   2.124
10564SOL    HW132591   5.990   6.088   2.193
10564SOL    HW232592   6.035   6.207   2.091
10565SOL     OW32593   0.727   6.826   5.748
10565SOL    HW132594   0.723   6.763   5.670
10565SOL    HW232595   0.823   6.844   5.772
10566SOL     OW32596   3.646   1.983   6.393
10566SOL    HW132597   3.550   1.957   6.389
10566SOL    HW232598   3.697   1.914   6.444
10567SOL     OW32599   2.848   2.197   4.919
10567SOL    HW132600   2.780   2.145   4.971
10567SOL    HW232601   2.915   2.235   4.982
10568SOL     OW32602   6.413   3.194   1.747
10568SOL    HW132603   6.433   3.291   1.729
10568SOL    HW232604   6.433   3.140   1.665
10569SOL     OW32605   5.740   2.054   2.434
10569SOL    HW132606   5.766   2.145   2.468
10569SOL    HW232607   5.806   1.986   2.467
10570SOL     OW32608   1.121   5.112   3.393
10570SOL    HW132609   1.161   5.032   3.439
10570SOL    HW232610   1.171   5.129   3.308
10571SOL     OW32611   0.145   4.372   5.513
10571SOL    HW132612   0.149   4.463   5.473
10571SOL    HW232613   0.056   4.360   5.558
10572SOL     OW32614   6.603   3.913   3.190
10572SOL    HW132615   6.585   4.010   3.171
10572SOL    HW232616   6.603   3.898   3.289
10573SOL     OW32617   5.160   0.396   5.191
10573SOL    HW132618   5.201   0.477   5.234
10573SOL    HW232619   5.204   0.378   5.103
10574SOL     OW32620   1.696   1.502   4.147
10574SOL    HW132621   1.703   1.452   4.233
10574SOL    HW232622   1.786   1.535   4.119
10575SOL     OW32623   6.991   1.548   4.144
10575SOL    HW132624   6.993   1.462   4.196
10575SOL    HW232625   0.060   1.578   4.127
10576SOL     OW32626   6.964   5.556   5.014
10576SOL    HW132627   6.938   5.543   4.919
10576SOL    HW232628   0.033   5.590   5.019
10577SOL     OW32629   1.775   4.412   0.187
10577SOL    HW132630   1.789   4.319   0.153
10577SOL    HW232631   1.693   4.451   0.144
10578SOL     OW32632   4.807   1.319   2.741
10578SOL    HW132633   4.863   1.313   2.658
10578SOL    HW232634   4.840   1.395   2.797
10579SOL     OW32635   4.259   3.016   1.485
10579SOL    HW132636   4.236   3.109   1.457
10579SOL    HW232637   4.324   3.020   1.561
10580SOL     OW32638   6.588   0.389   6.466
10580SOL    HW132639   6.686   0.375   6.451
10580SOL    HW232640   6.568   0.487   6.462
10581SOL     OW32641   6.099   7.005   3.043
10581SOL    HW132642   6.078   0.075   3.018
10581SOL    HW232643   6.045   6.980   3.123
10582SOL     OW32644   4.822   4.768   5.837
10582SOL    HW132645   4.751   4.722   5.784
10582SOL    HW232646   4.857   4.847   5.787
10583SOL     OW32647   3.918   1.024   3.786
10583SOL    HW132648   3.951   1.097   3.845
10583SOL    HW232649   3.989   0.954   3.775
10584SOL     OW32650   6.623   0.380   0.461
10584SOL    HW132651   6.604   0.478   0.463
10584SOL    HW232652   6.688   0.358   0.534
10585SOL     OW32653   2.447   1.743   5.447
10585SOL    HW132654   2.394   1.786   5.374
10585SOL    HW232655   2.518   1.806   5.478
10586SOL     OW32656   6.745   5.224   4.434
10586SOL    HW132657   6.765   5.214   4.531
10586SOL    HW232658   6.742   5.321   4.410
10587SOL     OW32659   6.282   4.330   0.065
10587SOL    HW132660   6.233   4.340   0.152
10587SOL    HW232661   6.356   4.264   0.077
10588SOL     OW32662   1.465   3.235   4.368
10588SOL    HW132663   1.538   3.301   4.388
10588SOL    HW232664   1.376   3.280   4.376
10589SOL     OW32665   6.600   1.048   4.390
10589SOL    HW132666   6.573   0.992   4.312
10589SOL    HW232667   6.574   1.143   4.374
10590SOL     OW32668   0.350   0.490   1.635
10590SOL    HW132669   0.320   0.518   1.726
10590SOL    HW232670   0.272   0.490   1.573
10591SOL     OW32671   1.982   1.807   6.700
10591SOL    HW132672   1.992   1.895   6.747
10591SOL    HW232673   1.963   1.823   6.603
10592SOL     OW32674   5.653   3.500   2.511
10592SOL    HW132675   5.557   3.528   2.506
10592SOL    HW232676   5.668   3.450   2.596
10593SOL     OW32677   2.181   6.503   0.426
10593SOL    HW132678   2.209   6.410   0.404
10593SOL    HW232679   2.258   6.566   0.412
10594SOL     OW32680   5.173   0.591   2.876
10594SOL    HW132681   5.095   0.562   2.821
10594SOL    HW232682   5.156   0.569   2.972
10595SOL     OW32683   4.580   6.214   0.023
10595SOL    HW132684   4.487   6.240   7.022
10595SOL    HW232685   4.602   6.125   7.008
10596SOL     OW32686   4.419   0.308   0.216
10596SOL    HW132687   4.326   0.310   0.254
10596SOL    HW232688   4.421   0.358   0.130
10597SOL     OW32689   3.065   1.503   5.535
10597SOL    HW132690   3.159   1.528   5.512
10597SOL    HW232691   3.063   1.453   5.621
10598SOL     OW32692   3.495   2.838   6.835
10598SOL    HW132693   3.453   2.787   6.760
10598SOL    HW232694   3.455   2.810   6.921
10599SOL     OW32695   5.313   3.255   5.862
10599SOL    HW132696   5.412   3.270   5.871
10599SOL    HW232697   5.280   3.203   5.941
10600SOL     OW32698   2.798   2.692   0.216
10600SOL    HW132699   2.705   2.697   0.252
10600SOL    HW232700   2.798   2.648   0.127
10601SOL     OW32701   1.907   4.552   5.278
10601SOL    HW132702   1.853   4.500   5.211
10601SOL    HW232703   1.954   4.488   5.339
10602SOL     OW32704   2.842   0.718   2.164
10602SOL    HW132705   2.749   0.685   2.177
10602SOL    HW232706   2.885   0.667   2.089
10603SOL     OW32707   3.778   0.365   3.237
10603SOL    HW132708   3.756   0.294   3.304
10603SOL    HW232709   3.715   0.358   3.160
10604SOL     OW32710   5.923   5.677   4.928
10604SOL    HW132711   5.828   5.648   4.940
10604SOL    HW232712   5.940   5.693   4.831
10605SOL     OW32713   1.753   6.188   7.020
10605SOL    HW132714   1.714   6.207   6.930
10605SOL    HW232715   1.751   6.272   0.051
10606SOL     OW32716   0.078   0.969   2.112
10606SOL    HW132717   0.065   0.918   2.197
10606SOL    HW232718   0.041   1.062   2.123
10607SOL     OW32719   4.488   5.017   5.647
10607SOL    HW132720   4.444   5.097   5.606
10607SOL    HW232721   4.587   5.029   5.646
10608SOL     OW32722   5.676   2.956   5.910
10608SOL    HW132723   5.610   2.900   5.959
10608SOL    HW232724   5.757   2.970   5.967
10609SOL     OW32725   2.102   6.940   6.850
10609SOL    HW132726   2.187   6.887   6.841
10609SOL    HW232727   2.110   7.024   6.796
10610SOL     OW32728   1.261   2.230   4.548
10610SOL    HW132729   1.328   2.204   4.478
10610SOL    HW232730   1.169   2.204   4.518
10611SOL     OW32731   2.744   3.981   6.524
10611SOL    HW132732   2.793   4.034   6.454
10611SOL    HW232733   2.793   3.987   6.611
10612SOL     OW32734   3.627   1.441   4.649
10612SOL    HW132735   3.581   1.512   4.596
10612SOL    HW232736   3.611   1.352   4.606
10613SOL     OW32737   5.347   5.868   5.556
10613SOL    HW132738   5.322   5.943   5.617
10613SOL    HW232739   5.308   5.783   5.590
10614SOL     OW32740   5.232   1.510   4.770
10614SOL    HW132741   5.297   1.489   4.843
10614SOL    HW232742   5.245   1.446   4.694
10615SOL     OW32743   4.376   0.011   5.711
10615SOL    HW132744   4.448   6.998   5.653
10615SOL    HW232745   4.374   6.987   5.798
10616SOL     OW32746   2.300   0.009   0.448
10616SOL    HW132747   2.334   0.067   0.373
10616SOL    HW232748   2.311   0.057   0.535
10617SOL     OW32749   2.958   3.410   1.671
10617SOL    HW132750   2.909   3.433   1.587
10617SOL    HW232751   3.011   3.327   1.657
10618SOL     OW32752   1.052   3.746   6.015
10618SOL    HW132753   1.028   3.666   5.960
10618SOL    HW232754   1.151   3.760   6.012
10619SOL     OW32755   0.049   3.420   2.106
10619SOL    HW132756   7.021   3.473   2.173
10619SOL    HW232757   7.011   3.379   2.039
10620SOL     OW32758   1.087   5.705   5.030
10620SOL    HW132759   1.164   5.761   5.060
10620SOL    HW232760   1.079   5.710   4.931
10621SOL     OW32761   0.776   5.344   1.859
10621SOL    HW132762   0.753   5.440   1.878
10621SOL    HW232763   0.726   5.314   1.778
10622SOL     OW32764   4.633   2.145   1.519
10622SOL    HW132765   4.663   2.068   1.462
10622SOL    HW232766   4.599   2.218   1.460
10623SOL     OW32767   0.341   4.527   5.232
10623SOL    HW132768   0.413   4.457   5.241
10623SOL    HW232769   0.354   4.597   5.302
10624SOL     OW32770   0.643   2.406   4.444
10624SOL    HW132771   0.741   2.406   4.428
10624SOL    HW232772   0.610   2.500   4.453
10625SOL     OW32773   0.222   4.579   0.774
10625SOL    HW132774   0.241   4.618   0.864
10625SOL    HW232775   0.221   4.651   0.705
10626SOL     OW32776   2.568   2.874   7.007
10626SOL    HW132777   2.602   2.940   0.049
10626SOL    HW232778   2.523   2.798   0.030
10627SOL     OW32779   5.370   0.222   1.405
10627SOL    HW132780   5.406   0.181   1.321
10627SOL    HW232781   5.383   0.158   1.481
10628SOL     OW32782   5.004   6.437   0.123
10628SOL    HW132783   4.964   6.442   0.032
10628SOL    HW232784   5.094   6.394   0.117
10629SOL     OW32785   2.376   5.065   4.956
10629SOL    HW132786   2.284   5.027   4.963
10629SOL    HW232787   2.443   4.991   4.970
10630SOL     OW32788   5.813   1.688   3.883
10630SOL    HW132789   5.812   1.610   3.820
10630SOL    HW232790   5.908   1.719   3.896
10631SOL     OW32791   3.180   5.176   5.235
10631SOL    HW132792   3.098   5.234   5.237
10631SOL    HW232793   3.261   5.233   5.220
10632SOL     OW32794   5.470   1.179   3.787
10632SOL    HW132795   5.537   1.239   3.831
10632SOL    HW232796   5.383   1.183   3.837
10633SOL     OW32797   2.461   2.777   0.566
10633SOL    HW132798   2.384   2.827   0.606
10633SOL    HW232799   2.488   2.703   0.628
10634SOL     OW32800   3.382   4.642   0.977
10634SOL    HW132801   3.462   4.633   1.038
10634SOL    HW232802   3.355   4.738   0.973
10635SOL     OW32803   1.825   2.953   1.146
10635SOL    HW132804   1.740   3.005   1.140
10635SOL    HW232805   1.894   3.007   1.194
10636SOL     OW32806   0.951   2.201   1.497
10636SOL    HW132807   1.005   2.280   1.525
10636SOL    HW232808   0.929   2.145   1.577
10637SOL     OW32809   2.384   4.432   6.422
10637SOL    HW132810   2.418   4.488   6.347
10637SOL    HW232811   2.287   4.453   6.437
10638SOL     OW32812   6.388   5.322   2.615
10638SOL    HW132813   6.336   5.396   2.574
10638SOL    HW232814   6.478   5.356   2.644
10639SOL     OW32815   1.059   3.098   3.589
10639SOL    HW132816   1.015   3.043   3.661
10639SOL    HW232817   0.991   3.120   3.519
10640SOL     OW32818   3.752   0.230   5.345
10640SOL    HW132819   3.729   0.299   5.277
10640SOL    HW232820   3.837   0.185   5.319
10641SOL     OW32821   2.470   1.902   1.545
10641SOL    HW132822   2.564   1.937   1.544
10641SOL    HW232823   2.410   1.968   1.500
10642SOL     OW32824   6.384   2.569   1.477
10642SOL    HW132825   6.443   2.649   1.467
10642SOL    HW232826   6.406   2.521   1.561
10643SOL     OW32827   1.931   5.235   5.155
10643SOL    HW132828   1.950   5.227   5.057
10643SOL    HW232829   1.988   5.170   5.205
10644SOL     OW32830   5.693   2.839   2.890
10644SOL    HW132831   5.683   2.939   2.894
10644SOL    HW232832   5.627   2.797   2.952
10645SOL     OW32833   1.807   2.774   4.626
10645SOL    HW132834   1.733   2.787   4.560
10645SOL    HW232835   1.843   2.681   4.618
10646SOL     OW32836   0.488   0.495   6.540
10646SOL    HW132837   0.571   0.510   6.594
10646SOL    HW232838   0.427   0.574   6.552
10647SOL     OW32839   2.930   5.517   4.827
10647SOL    HW132840   2.865   5.522   4.751
10647SOL    HW232841   2.991   5.439   4.814
10648SOL     OW32842   6.071   4.392   6.288
10648SOL    HW132843   6.148   4.349   6.335
10648SOL    HW232844   5.996   4.326   6.278
10649SOL     OW32845   0.188   4.589   2.520
10649SOL    HW132846   0.106   4.592   2.463
10649SOL    HW232847   0.221   4.682   2.535
10650SOL     OW32848   0.971   0.323   3.812
10650SOL    HW132849   0.937   0.400   3.866
10650SOL    HW232850   0.896   0.261   3.792
10651SOL     OW32851   5.395   6.015   6.711
10651SOL    HW132852   5.484   5.987   6.747
10651SOL    HW232853   5.355   5.939   6.658
10652SOL     OW32854   3.432   0.096   5.710
10652SOL    HW132855   3.475   0.101   5.800
10652SOL    HW232856   3.449   0.006   5.670
10653SOL     OW32857   3.998   4.803   3.321
10653SOL    HW132858   3.970   4.826   3.228
10653SOL    HW232859   3.918   4.806   3.382
10654SOL     OW32860   5.325   1.000   0.756
10654SOL    HW132861   5.324   1.051   0.669
10654SOL    HW232862   5.234   1.002   0.797
10655SOL     OW32863   2.293   5.467   0.875
10655SOL    HW132864   2.227   5.396   0.852
10655SOL    HW232865   2.249   5.536   0.934
10656SOL     OW32866   6.598   2.388   2.924
10656SOL    HW132867   6.647   2.454   2.866
10656SOL    HW232868   6.524   2.346   2.871
10657SOL     OW32869   6.718   0.067   6.068
10657SOL    HW132870   6.764   0.089   5.982
10657SOL    HW232871   6.635   0.014   6.049
10658SOL     OW32872   6.411   4.706   4.999
10658SOL    HW132873   6.345   4.631   5.002
10658SOL    HW232874   6.504   4.670   5.010
10659SOL     OW32875   6.848   5.614   0.884
10659SOL    HW132876   6.754   5.584   0.866
10659SOL    HW232877   6.847   5.684   0.955
10660SOL     OW32878   4.789   4.507   6.538
10660SOL    HW132879   4.800   4.446   6.459
10660SOL    HW232880   4.869   4.566   6.545
10661SOL     OW32881   1.593   0.041   2.156
10661SOL    HW132882   1.549   0.015   2.071
10661SOL    HW232883   1.674   0.096   2.136
10662SOL     OW32884   5.749   6.496   2.935
10662SOL    HW132885   5.817   6.570   2.943
10662SOL    HW232886   5.659   6.530   2.961
10663SOL     OW32887   0.417   1.534   1.710
10663SOL    HW132888   0.368   1.621   1.703
10663SOL    HW232889   0.362   1.462   1.668
10664SOL     OW32890   0.172   4.259   5.131
10664SOL    HW132891   0.079   4.294   5.132
10664SOL    HW232892   0.191   4.209   5.215
10665SOL     OW32893   1.340   1.041   0.504
10665SOL    HW132894   1.296   1.130   0.515
10665SOL    HW232895   1.439   1.052   0.510
10666SOL     OW32896   2.986   3.675   1.207
10666SOL    HW132897   3.029   3.677   1.297
10666SOL    HW232898   2.895   3.634   1.215
10667SOL     OW32899   3.961   3.318   5.290
10667SOL    HW132900   3.955   3.394   5.354
10667SOL    HW232901   4.045   3.328   5.235
10668SOL     OW32902   2.156   0.257   4.945
10668SOL    HW132903   2.184   0.176   4.894
10668SOL    HW232904   2.102   0.317   4.885
10669SOL     OW32905   5.753   6.599   0.877
10669SOL    HW132906   5.828   6.664   0.893
10669SOL    HW232907   5.778   6.538   0.802
10670SOL     OW32908   5.254   3.503   5.106
10670SOL    HW132909   5.296   3.447   5.177
10670SOL    HW232910   5.155   3.491   5.107
10671SOL     OW32911   2.434   2.400   3.138
10671SOL    HW132912   2.408   2.492   3.167
10671SOL    HW232913   2.441   2.341   3.218
10672SOL     OW32914   6.178   2.941   0.786
10672SOL    HW132915   6.161   3.017   0.848
10672SOL    HW232916   6.237   2.874   0.831
10673SOL     OW32917   1.114   1.220   6.316
10673SOL    HW132918   1.058   1.170   6.382
10673SOL    HW232919   1.091   1.190   6.224
10674SOL     OW32920   3.633   3.662   1.857
10674SOL    HW132921   3.552   3.643   1.801
10674SOL    HW232922   3.688   3.580   1.865
10675SOL     OW32923   1.634   6.549   0.009
10675SOL    HW132924   1.612   6.625   0.070
10675SOL    HW232925   1.732   6.530   0.013
10676SOL     OW32926   6.529   6.114   6.186
10676SOL    HW132927   6.478   6.091   6.269
10676SOL    HW232928   6.554   6.210   6.187
10677SOL     OW32929   0.949   0.943   2.357
10677SOL    HW132930   1.003   0.860   2.343
10677SOL    HW232931   0.881   0.951   2.284
10678SOL     OW32932   3.137   6.299   3.970
10678SOL    HW132933   3.230   6.265   3.987
10678SOL    HW232934   3.084   6.296   4.054
10679SOL     OW32935   4.297   5.636   6.449
10679SOL    HW132936   4.224   5.690   6.407
10679SOL    HW232937   4.339   5.578   6.379
10680SOL     OW32938   2.747   2.015   3.007
10680SOL    HW132939   2.701   2.103   3.015
10680SOL    HW232940   2.687   1.950   2.960
10681SOL     OW32941   1.017   3.322   6.872
10681SOL    HW132942   1.079   3.395   6.902
10681SOL    HW232943   0.997   3.262   6.950
10682SOL     OW32944   2.144   1.353   4.840
10682SOL    HW132945   2.114   1.435   4.888
10682SOL    HW232946   2.073   1.323   4.776
10683SOL     OW32947   3.212   2.064   3.534
10683SOL    HW132948   3.183   1.973   3.563
10683SOL    HW232949   3.300   2.057   3.486
10684SOL     OW32950   5.205   4.176   1.219
10684SOL    HW132951   5.282   4.121   1.252
10684SOL    HW232952   5.127   4.116   1.199
10685SOL     OW32953   0.560   5.626   2.762
10685SOL    HW132954   0.470   5.633   2.805
10685SOL    HW232955   0.550   5.598   2.667
10686SOL     OW32956   1.276   4.794   6.258
10686SOL    HW132957   1.338   4.836   6.192
10686SOL    HW232958   1.318   4.710   6.293
10687SOL     OW32959   6.943   5.094   1.849
10687SOL    HW132960   6.966   5.164   1.781
10687SOL    HW232961   6.844   5.094   1.863
10688SOL     OW32962   6.140   4.340   3.128
10688SOL    HW132963   6.068   4.408   3.114
10688SOL    HW232964   6.125   4.262   3.069
10689SOL     OW32965   0.319   6.495   3.439
10689SOL    HW132966   0.276   6.414   3.478
10689SOL    HW232967   0.324   6.486   3.339
10690SOL     OW32968   0.113   6.317   2.704
10690SOL    HW132969   0.095   6.401   2.756
10690SOL    HW232970   0.036   6.298   2.644
10691SOL     OW32971   0.249   2.112   1.995
10691SOL    HW132972   0.315   2.184   2.016
10691SOL    HW232973   0.192   2.095   2.075
10692SOL     OW32974   2.764   5.226   3.085
10692SOL    HW132975   2.811   5.165   3.020
10692SOL    HW232976   2.758   5.181   3.174
10693SOL     OW32977   2.792   0.411   0.092
10693SOL    HW132978   2.808   0.504   0.058
10693SOL    HW232979   2.880   0.369   0.116
10694SOL     OW32980   5.329   6.690   1.698
10694SOL    HW132981   5.395   6.681   1.773
10694SOL    HW232982   5.248   6.738   1.732
10695SOL     OW32983   5.188   1.849   2.625
10695SOL    HW132984   5.245   1.917   2.671
10695SOL    HW232985   5.242   1.803   2.554
10696SOL     OW32986   0.187   3.906   3.777
10696SOL    HW132987   0.195   3.957   3.863
10696SOL    HW232988   0.122   3.952   3.717
10697SOL     OW32989   0.807   5.641   4.438
10697SOL    HW132990   0.787   5.605   4.530
10697SOL    HW232991   0.839   5.735   4.445
10698SOL     OW32992   4.265   5.736   4.786
10698SOL    HW132993   4.227   5.826   4.762
10698SOL    HW232994   4.314   5.698   4.707
10699SOL     OW32995   3.618   2.831   1.807
10699SOL    HW132996   3.524   2.862   1.822
10699SOL    HW232997   3.623   2.732   1.821
10700SOL     OW32998   0.370   6.568   0.700
10700SOL    HW132999   0.451   6.627   0.700
10700SOL    HW233000   0.314   6.589   0.780
10701SOL     OW33001   3.230   5.928   0.049
10701SOL    HW133002   3.161   5.955   7.006
10701SOL    HW233003   3.184   5.893   0.130
10702SOL     OW33004   5.952   2.707   2.312
10702SOL    HW133005   5.906   2.654   2.241
10702SOL    HW233006   5.883   2.751   2.370
10703SOL     OW33007   3.161   3.177   4.695
10703SOL    HW133008   3.208   3.212   4.614
10703SOL    HW233009   3.064   3.202   4.690
10704SOL     OW33010   6.259   5.633   1.358
10704SOL    HW133011   6.202   5.617   1.438
10704SOL    HW233012   6.254   5.730   1.333
10705SOL     OW33013   6.272   4.209   2.135
10705SOL    HW133014   6.248   4.279   2.202
10705SOL    HW233015   6.289   4.122   2.181
10706SOL     OW33016   4.751   6.537   2.535
10706SOL    HW133017   4.705   6.533   2.624
10706SOL    HW233018   4.808   6.619   2.531
10707SOL     OW33019   0.327   6.912   3.623
10707SOL    HW133020   0.419   6.879   3.645
10707SOL    HW233021   0.302   6.879   3.532
10708SOL     OW33022   4.668   0.702   2.666
10708SOL    HW133023   4.672   0.721   2.764
10708SOL    HW233024   4.653   0.604   2.652
10709SOL     OW33025   6.012   6.679   5.078
10709SOL    HW133026   5.946   6.732   5.025
10709SOL    HW233027   6.083   6.643   5.017
10710SOL     OW33028   0.330   6.641   4.757
10710SOL    HW133029   0.345   6.621   4.853
10710SOL    HW233030   0.239   6.611   4.730
10711SOL     OW33031   1.712   6.072   3.379
10711SOL    HW133032   1.777   6.008   3.337
10711SOL    HW233033   1.656   6.114   3.308
10712SOL     OW33034   2.569   0.960   1.076
10712SOL    HW133035   2.512   0.945   1.157
10712SOL    HW233036   2.520   0.928   0.995
10713SOL     OW33037   1.251   3.249   1.461
10713SOL    HW133038   1.206   3.318   1.405
10713SOL    HW233039   1.238   3.158   1.421
10714SOL     OW33040   6.040   3.490   5.524
10714SOL    HW133041   5.968   3.468   5.591
10714SOL    HW233042   6.129   3.475   5.565
10715SOL     OW33043   4.566   0.099   2.565
10715SOL    HW133044   4.634   0.054   2.622
10715SOL    HW233045   4.482   0.044   2.564
10716SOL     OW33046   5.736   3.117   4.412
10716SOL    HW133047   5.811   3.051   4.403
10716SOL    HW233048   5.764   3.191   4.473
10717SOL     OW33049   1.009   2.700   0.811
10717SOL    HW133050   1.079   2.636   0.782
10717SOL    HW233051   0.959   2.734   0.731
10718SOL     OW33052   0.386   3.096   6.695
10718SOL    HW133053   0.291   3.114   6.722
10718SOL    HW233054   0.388   3.047   6.609
10719SOL     OW33055   5.197   5.773   0.089
10719SOL    HW133056   5.291   5.778   0.056
10719SOL    HW233057   5.156   5.864   0.090
10720SOL     OW33058   6.555   2.991   5.652
10720SOL    HW133059   6.589   2.958   5.741
10720SOL    HW233060   6.477   2.936   5.624
10721SOL     OW33061   6.225   3.931   5.105
10721SOL    HW133062   6.230   4.025   5.139
10721SOL    HW233063   6.247   3.868   5.179
10722SOL     OW33064   0.118   3.920   0.594
10722SOL    HW133065   0.087   4.010   0.625
10722SOL    HW233066   0.214   3.909   0.616
10723SOL     OW33067   0.078   3.415   6.622
10723SOL    HW133068   7.010   3.415   6.586
10723SOL    HW233069   0.139   3.463   6.558
10724SOL     OW33070   4.592   0.495   0.337
10724SOL    HW133071   4.520   0.429   0.313
10724SOL    HW233072   4.660   0.499   0.264
10725SOL     OW33073   0.069   5.193   3.422
10725SOL    HW133074   0.154   5.162   3.466
10725SOL    HW233075   0.072   5.293   3.412
10726SOL     OW33076   5.873   6.029   5.583
10726SOL    HW133077   5.888   6.057   5.678
10726SOL    HW233078   5.780   6.054   5.557
10727SOL     OW33079   0.822   4.955   4.313
10727SOL    HW133080   0.895   4.897   4.346
10727SOL    HW233081   0.846   5.051   4.327
10728SOL     OW33082   6.509   6.244   1.628
10728SOL    HW133083   6.486   6.330   1.673
10728SOL    HW233084   6.495   6.168   1.692
10729SOL     OW33085   5.934   1.097   3.322
10729SOL    HW133086   5.897   1.187   3.345
10729SOL    HW233087   5.861   1.029   3.323
10730SOL     OW33088   2.484   0.074   0.867
10730SOL    HW133089   2.447   0.151   0.919
10730SOL    HW233090   2.458   0.083   0.771
10731SOL     OW33091   2.412   5.851   6.819
10731SOL    HW133092   2.328   5.796   6.825
10731SOL    HW233093   2.389   5.948   6.828
10732SOL     OW33094   5.339   5.880   2.758
10732SOL    HW133095   5.256   5.932   2.775
10732SOL    HW233096   5.419   5.937   2.777
10733SOL     OW33097   5.138   1.837   6.867
10733SOL    HW133098   5.041   1.839   6.842
10733SOL    HW233099   5.181   1.923   6.840
10734SOL     OW33100   1.109   0.130   6.684
10734SOL    HW133101   1.061   0.112   6.770
10734SOL    HW233102   1.207   0.137   6.702
10735SOL     OW33103   1.643   4.646   2.832
10735SOL    HW133104   1.626   4.678   2.739
10735SOL    HW233105   1.725   4.589   2.833
10736SOL     OW33106   0.467   0.921   3.402
10736SOL    HW133107   0.395   0.900   3.337
10736SOL    HW233108   0.481   1.020   3.407
10737SOL     OW33109   1.332   1.824   0.345
10737SOL    HW133110   1.349   1.890   0.419
10737SOL    HW233111   1.234   1.804   0.340
10738SOL     OW33112   2.478   0.795   2.385
10738SOL    HW133113   2.508   0.724   2.321
10738SOL    HW233114   2.503   0.885   2.350
10739SOL     OW33115   0.735   1.465   1.948
10739SOL    HW133116   0.709   1.369   1.952
10739SOL    HW233117   0.718   1.500   1.856
10740SOL     OW33118   1.570   4.315   6.240
10740SOL    HW133119   1.521   4.402   6.236
10740SOL    HW233120   1.606   4.293   6.149
10741SOL     OW33121   0.145   0.877   3.462
10741SOL    HW133122   0.102   0.852   3.375
10741SOL    HW233123   0.099   0.829   3.537
10742SOL     OW33124   6.043   0.053   2.022
10742SOL    HW133125   5.998   0.038   2.110
10742SOL    HW233126   5.982   0.105   1.961
10743SOL     OW33127   2.674   1.952   3.644
10743SOL    HW133128   2.584   1.992   3.658
10743SOL    HW233129   2.679   1.914   3.552
10744SOL     OW33130   3.360   1.556   3.020
10744SOL    HW133131   3.298   1.517   2.951
10744SOL    HW233132   3.306   1.588   3.098
10745SOL     OW33133   0.644   5.140   0.839
10745SOL    HW133134   0.578   5.104   0.773
10745SOL    HW233135   0.607   5.223   0.881
10746SOL     OW33136   1.862   3.784   1.686
10746SOL    HW133137   1.869   3.843   1.606
10746SOL    HW233138   1.951   3.740   1.703
10747SOL     OW33139   4.503   1.260   3.551
10747SOL    HW133140   4.602   1.254   3.541
10747SOL    HW233141   4.474   1.207   3.631
10748SOL     OW33142   4.398   6.798   1.087
10748SOL    HW133143   4.353   6.881   1.121
10748SOL    HW233144   4.374   6.784   0.991
10749SOL     OW33145   6.715   4.314   3.292
10749SOL    HW133146   6.759   4.327   3.380
10749SOL    HW233147   6.710   4.401   3.243
10750SOL     OW33148   3.979   5.853   4.330
10750SOL    HW133149   4.048   5.819   4.265
10750SOL    HW233150   3.888   5.823   4.301
10751SOL     OW33151   0.819   4.067   5.552
10751SOL    HW133152   0.722   4.044   5.541
10751SOL    HW233153   0.848   4.126   5.477
10752SOL     OW33154   6.438   3.851   5.865
10752SOL    HW133155   6.522   3.904   5.880
10752SOL    HW233156   6.419   3.795   5.945
10753SOL     OW33157   5.375   0.694   3.566
10753SOL    HW133158   5.331   0.669   3.480
10753SOL    HW233159   5.470   0.663   3.566
10754SOL     OW33160   1.719   1.740   3.655
10754SOL    HW133161   1.696   1.680   3.731
10754SOL    HW233162   1.730   1.686   3.571
10755SOL     OW33163   0.683   2.027   0.363
10755SOL    HW133164   0.779   2.044   0.339
10755SOL    HW233165   0.644   2.108   0.405
10756SOL     OW33166   6.384   4.058   6.990
10756SOL    HW133167   6.312   3.992   6.968
10756SOL    HW233168   6.442   4.021   0.038
10757SOL     OW33169   0.493   3.667   0.369
10757SOL    HW133170   0.463   3.576   0.397
10757SOL    HW233171   0.417   3.717   0.328
10758SOL     OW33172   1.133   6.434   4.790
10758SOL    HW133173   1.071   6.503   4.829
10758SOL    HW233174   1.201   6.479   4.733
10759SOL     OW33175   1.482   2.702   6.795
10759SOL    HW133176   1.467   2.747   6.707
10759SOL    HW233177   1.532   2.617   6.780
10760SOL     OW33178   6.993   0.411   0.433
10760SOL    HW133179   0.063   0.379   0.427
10760SOL    HW233180   6.977   0.451   0.524
10761SOL     OW33181   1.061   1.951   6.062
10761SOL    HW133182   1.149   1.903   6.067
10761SOL    HW233183   1.003   1.906   5.994
10762SOL     OW33184   3.882   1.846   4.842
10762SOL    HW133185   3.840   1.756   4.848
10762SOL    HW233186   3.830   1.911   4.897
10763SOL     OW33187   4.832   6.487   0.898
10763SOL    HW133188   4.912   6.529   0.941
10763SOL    HW233189   4.861   6.410   0.840
10764SOL     OW33190   5.650   1.571   5.792
10764SOL    HW133191   5.582   1.498   5.797
10764SOL    HW233192   5.605   1.659   5.806
10765SOL     OW33193   5.672   2.822   1.366
10765SOL    HW133194   5.767   2.794   1.352
10765SOL    HW233195   5.641   2.874   1.287
10766SOL     OW33196   3.378   3.052   0.166
10766SOL    HW133197   3.440   3.123   0.199
10766SOL    HW233198   3.292   3.094   0.136
10767SOL     OW33199   1.254   0.502   6.827
10767SOL    HW133200   1.227   0.555   6.908
10767SOL    HW233201   1.236   0.556   6.745
10768SOL     OW33202   5.294   5.388   1.228
10768SOL    HW133203   5.278   5.422   1.135
10768SOL    HW233204   5.380   5.336   1.229
10769SOL     OW33205   1.856   4.932   4.914
10769SOL    HW133206   1.768   4.897   4.944
10769SOL    HW233207   1.894   4.872   4.843
10770SOL     OW33208   5.316   6.906   5.064
10770SOL    HW133209   5.256   6.889   4.986
10770SOL    HW233210   5.262   6.942   5.140
10771SOL     OW33211   4.538   0.494   5.082
10771SOL    HW133212   4.489   0.409   5.062
10771SOL    HW233213   4.546   0.505   5.181
10772SOL     OW33214   6.152   6.702   4.272
10772SOL    HW133215   6.233   6.750   4.306
10772SOL    HW233216   6.181   6.615   4.231
10773SOL     OW33217   6.730   5.193   6.096
10773SOL    HW133218   6.645   5.166   6.142
10773SOL    HW233219   6.767   5.274   6.140
10774SOL     OW33220   1.722   1.426   6.540
10774SOL    HW133221   1.702   1.464   6.449
10774SOL    HW233222   1.799   1.362   6.532
10775SOL     OW33223   0.947   3.766   0.927
10775SOL    HW133224   0.896   3.725   1.002
10775SOL    HW233225   0.921   3.723   0.841
10776SOL     OW33226   1.556   6.067   0.592
10776SOL    HW133227   1.539   6.098   0.498
10776SOL    HW233228   1.501   5.987   0.612
10777SOL     OW33229   4.223   6.364   3.655
10777SOL    HW133230   4.181   6.314   3.579
10777SOL    HW233231   4.174   6.344   3.739
10778SOL     OW33232   5.634   6.221   5.243
10778SOL    HW133233   5.706   6.275   5.200
10778SOL    HW233234   5.622   6.135   5.194
10779SOL     OW33235   5.982   4.863   2.946
10779SOL    HW133236   6.045   4.786   2.940
10779SOL    HW233237   5.889   4.832   2.923
10780SOL     OW33238   1.423   6.725   3.090
10780SOL    HW133239   1.411   6.746   2.993
10780SOL    HW233240   1.517   6.744   3.117
10781SOL     OW33241   3.874   1.353   3.456
10781SOL    HW133242   3.800   1.373   3.391
10781SOL    HW233243   3.860   1.261   3.494
10782SOL     OW33244   6.801   1.854   3.556
10782SOL    HW133245   6.849   1.940   3.539
10782SOL    HW233246   6.803   1.797   3.474
10783SOL     OW33247   1.423   3.315   3.847
10783SOL    HW133248   1.397   3.403   3.887
10783SOL    HW233249   1.372   3.300   3.763
10784SOL     OW33250   2.984   0.534   2.762
10784SOL    HW133251   2.893   0.573   2.755
10784SOL    HW233252   3.050   0.607   2.779
10785SOL     OW33253   0.856   4.790   0.770
10785SOL    HW133254   0.906   4.843   0.702
10785SOL    HW233255   0.867   4.831   0.860
10786SOL     OW33256   4.989   3.122   1.960
10786SOL    HW133257   4.905   3.081   1.997
10786SOL    HW233258   4.972   3.217   1.936
10787SOL     OW33259   3.083   2.179   4.406
10787SOL    HW133260   3.136   2.094   4.413
10787SOL    HW233261   3.054   2.208   4.497
10788SOL     OW33262   2.245   4.669   0.464
10788SOL    HW133263   2.268   4.619   0.380
10788SOL    HW233264   2.146   4.679   0.470
10789SOL     OW33265   6.085   2.646   0.184
10789SOL    HW133266   6.161   2.650   0.120
10789SOL    HW233267   6.011   2.706   0.152
10790SOL     OW33268   1.379   0.634   3.506
10790SOL    HW133269   1.417   0.611   3.596
10790SOL    HW233270   1.363   0.549   3.455
10791SOL     OW33271   0.398   1.128   1.038
10791SOL    HW133272   0.325   1.115   0.971
10791SOL    HW233273   0.484   1.149   0.991
10792SOL     OW33274   3.806   3.452   1.939
10792SOL    HW133275   3.806   3.354   1.959
10792SOL    HW233276   3.892   3.477   1.896
10793SOL     OW33277   5.469   2.649   4.344
10793SOL    HW133278   5.471   2.721   4.275
10793SOL    HW233279   5.550   2.658   4.403
10794SOL     OW33280   2.936   3.802   3.210
10794SOL    HW133281   2.920   3.804   3.111
10794SOL    HW233282   2.911   3.712   3.246
10795SOL     OW33283   6.750   3.610   3.909
10795SOL    HW133284   6.685   3.576   3.978
10795SOL    HW233285   6.723   3.702   3.882
10796SOL     OW33286   4.602   6.501   0.047
10796SOL    HW133287   4.569   6.508   0.141
10796SOL    HW233288   4.579   6.411   0.010
10797SOL     OW33289   4.416   2.314   1.286
10797SOL    HW133290   4.415   2.346   1.191
10797SOL    HW233291   4.333   2.260   1.303
10798SOL     OW33292   1.961   6.660   0.827
10798SOL    HW133293   1.992   6.575   0.786
10798SOL    HW233294   2.035   6.698   0.884
10799SOL     OW33295   3.393   0.928   2.098
10799SOL    HW133296   3.468   0.986   2.129
10799SOL    HW233297   3.320   0.984   2.061
10800SOL     OW33298   1.177   0.259   7.012
10800SOL    HW133299   1.084   0.226   6.992
10800SOL    HW233300   1.194   0.342   6.959
10801SOL     OW33301   0.954   6.807   5.269
10801SOL    HW133302   1.022   6.866   5.225
10801SOL    HW233303   0.984   6.784   5.361
10802SOL     OW33304   1.935   3.139   4.193
10802SOL    HW133305   2.025   3.153   4.235
10802SOL    HW233306   1.899   3.050   4.221
10803SOL     OW33307   4.229   4.197   5.547
10803SOL    HW133308   4.229   4.097   5.538
10803SOL    HW233309   4.205   4.238   5.459
10804SOL     OW33310   6.723   4.270   1.311
10804SOL    HW133311   6.821   4.252   1.311
10804SOL    HW233312   6.700   4.329   1.389
10805SOL     OW33313   3.228   6.682   6.615
10805SOL    HW133314   3.286   6.680   6.533
10805SOL    HW233315   3.285   6.684   6.697
10806SOL     OW33316   4.918   4.633   6.267
10806SOL    HW133317   4.872   4.704   6.321
10806SOL    HW233318   4.868   4.620   6.181
10807SOL     OW33319   1.833   6.916   3.495
10807SOL    HW133320   1.742   6.880   3.475
10807SOL    HW233321   1.843   7.007   3.455
10808SOL     OW33322   6.454   4.235   6.764
10808SOL    HW133323   6.411   4.170   6.826
10808SOL    HW233324   6.466   4.323   6.810
10809SOL     OW33325   2.295   6.227   3.454
10809SOL    HW133326   2.264   6.289   3.526
10809SOL    HW233327   2.267   6.263   3.365
10810SOL     OW33328   2.042   6.744   4.844
10810SOL    HW133329   1.995   6.816   4.894
10810SOL    HW233330   1.975   6.678   4.810
10811SOL     OW33331   4.591   4.588   5.725
10811SOL    HW133332   4.513   4.552   5.674
10811SOL    HW233333   4.676   4.560   5.679
10812SOL     OW33334   0.971   3.588   1.808
10812SOL    HW133335   0.884   3.539   1.809
10812SOL    HW233336   1.040   3.534   1.761
10813SOL     OW33337   1.729   5.672   0.245
10813SOL    HW133338   1.816   5.667   0.295
10813SOL    HW233339   1.697   5.767   0.244
10814SOL     OW33340   1.481   6.358   0.151
10814SOL    HW133341   1.528   6.439   0.116
10814SOL    HW233342   1.465   6.294   0.076
10815SOL     OW33343   4.836   4.642   3.388
10815SOL    HW133344   4.839   4.742   3.378
10815SOL    HW233345   4.866   4.616   3.479
10816SOL     OW33346   1.193   1.746   1.482
10816SOL    HW133347   1.151   1.711   1.398
10816SOL    HW233348   1.291   1.760   1.467
10817SOL     OW33349   5.310   6.943   2.404
10817SOL    HW133350   5.305   0.017   2.386
10817SOL    HW233351   5.327   6.928   2.501
10818SOL     OW33352   4.481   4.253   5.331
10818SOL    HW133353   4.518   4.163   5.310
10818SOL    HW233354   4.412   4.278   5.262
10819SOL     OW33355   6.555   4.206   0.143
10819SOL    HW133356   6.615   4.265   0.196
10819SOL    HW233357   6.576   4.214   0.046
10820SOL     OW33358   5.709   5.659   4.062
10820SOL    HW133359   5.769   5.587   4.098
10820SOL    HW233360   5.732   5.746   4.104
10821SOL     OW33361   5.824   6.457   2.102
10821SOL    HW133362   5.737   6.419   2.070
10821SOL    HW233363   5.895   6.439   2.034
10822SOL     OW33364   0.931   2.965   3.118
10822SOL    HW133365   0.934   3.055   3.162
10822SOL    HW233366   0.999   2.905   3.161
10823SOL     OW33367   1.819   5.139   2.238
10823SOL    HW133368   1.797   5.041   2.240
10823SOL    HW233369   1.882   5.160   2.312
10824SOL     OW33370   5.130   0.297   4.375
10824SOL    HW133371   5.123   0.245   4.290
10824SOL    HW233372   5.151   0.392   4.355
10825SOL     OW33373   3.189   0.371   6.777
10825SOL    HW133374   3.267   0.372   6.840
10825SOL    HW233375   3.134   0.289   6.795
10826SOL     OW33376   0.655   3.395   3.504
10826SOL    HW133377   0.559   3.368   3.519
10826SOL    HW233378   0.659   3.470   3.438
10827SOL     OW33379   6.042   3.806   4.535
10827SOL    HW133380   6.133   3.846   4.526
10827SOL    HW233381   5.977   3.860   4.482
10828SOL     OW33382   1.345   5.537   2.123
10828SOL    HW133383   1.251   5.505   2.138
10828SOL    HW233384   1.359   5.553   2.025
10829SOL     OW33385   3.440   2.641   0.791
10829SOL    HW133386   3.429   2.587   0.875
10829SOL    HW233387   3.448   2.580   0.713
10830SOL     OW33388   5.384   1.797   3.777
10830SOL    HW133389   5.340   1.849   3.850
10830SOL    HW233390   5.369   1.844   3.690
10831SOL     OW33391   4.137   5.861   1.576
10831SOL    HW133392   4.149   5.813   1.664
10831SOL    HW233393   4.227   5.880   1.537
10832SOL     OW33394   0.624   2.268   0.435
10832SOL    HW133395   0.684   2.266   0.355
10832SOL    HW233396   0.659   2.334   0.502
10833SOL     OW33397   1.317   1.383   2.757
10833SOL    HW133398   1.227   1.410   2.791
10833SOL    HW233399   1.379   1.462   2.761
10834SOL     OW33400   1.515   2.122   6.010
10834SOL    HW133401   1.593   2.164   6.057
10834SOL    HW233402   1.544   2.037   5.967
10835SOL     OW33403   6.231   2.040   0.343
10835SOL    HW133404   6.216   1.996   0.254
10835SOL    HW233405   6.233   2.139   0.331
10836SOL     OW33406   6.927   1.400   4.913
10836SOL    HW133407   6.872   1.324   4.949
10836SOL    HW233408   6.866   1.466   4.869
10837SOL     OW33409   6.983   4.770   0.391
10837SOL    HW133410   6.972   4.814   0.302
10837SOL    HW233411   6.900   4.782   0.445
10838SOL     OW33412   5.677   6.723   4.971
10838SOL    HW133413   5.649   6.719   5.066
10838SOL    HW233414   5.631   6.651   4.919
10839SOL     OW33415   3.196   3.148   0.431
10839SOL    HW133416   3.235   3.235   0.460
10839SOL    HW233417   3.265   3.075   0.443
10840SOL     OW33418   3.753   5.701   1.274
10840SOL    HW133419   3.757   5.708   1.174
10840SOL    HW233420   3.826   5.756   1.314
10841SOL     OW33421   3.710   6.753   0.419
10841SOL    HW133422   3.632   6.719   0.367
10841SOL    HW233423   3.790   6.696   0.401
10842SOL     OW33424   5.167   3.231   1.224
10842SOL    HW133425   5.206   3.139   1.221
10842SOL    HW233426   5.182   3.271   1.315
10843SOL     OW33427   0.262   2.193   1.480
10843SOL    HW133428   0.311   2.110   1.454
10843SOL    HW233429   0.230   2.185   1.575
10844SOL     OW33430   0.234   6.930   3.877
10844SOL    HW133431   0.286   6.993   3.934
10844SOL    HW233432   0.278   6.923   3.787
10845SOL     OW33433   3.480   0.717   7.013
10845SOL    HW133434   3.557   0.682   0.041
10845SOL    HW233435   3.500   0.709   6.915
10846SOL     OW33436   4.884   2.957   1.174
10846SOL    HW133437   4.896   3.052   1.146
10846SOL    HW233438   4.919   2.945   1.267
10847SOL     OW33439   3.754   2.978   6.577
10847SOL    HW133440   3.692   3.015   6.647
10847SOL    HW233441   3.769   3.048   6.506
10848SOL     OW33442   2.830   2.536   7.011
10848SOL    HW133443   2.754   2.470   7.011
10848SOL    HW233444   2.907   2.498   0.036
10849SOL     OW33445   2.473   4.487   2.885
10849SOL    HW133446   2.423   4.414   2.840
10849SOL    HW233447   2.489   4.463   2.981
10850SOL     OW33448   3.582   6.042   0.422
10850SOL    HW133449   3.667   6.030   0.474
10850SOL    HW233450   3.598   6.015   0.327
10851SOL     OW33451   2.887   3.081   6.785
10851SOL    HW133452   2.939   3.011   6.833
10851SOL    HW233453   2.819   3.038   6.725
10852SOL     OW33454   0.537   6.517   6.416
10852SOL    HW133455   0.595   6.438   6.401
10852SOL    HW233456   0.480   6.532   6.335
10853SOL     OW33457   3.664   1.812   5.865
10853SOL    HW133458   3.754   1.845   5.892
10853SOL    HW233459   3.593   1.866   5.911
10854SOL     OW33460   5.675   6.425   5.447
10854SOL    HW133461   5.666   6.363   5.369
10854SOL    HW233462   5.737   6.384   5.514
10855SOL     OW33463   3.113   6.170   2.104
10855SOL    HW133464   3.112   6.071   2.091
10855SOL    HW233465   3.033   6.210   2.059
10856SOL     OW33466   6.236   1.717   2.223
10856SOL    HW133467   6.254   1.772   2.141
10856SOL    HW233468   6.307   1.647   2.232
10857SOL     OW33469   5.691   3.416   3.322
10857SOL    HW133470   5.766   3.457   3.373
10857SOL    HW233471   5.703   3.433   3.224
10858SOL     OW33472   0.746   2.231   6.263
10858SOL    HW133473   0.663   2.179   6.285
10858SOL    HW233474   0.826   2.173   6.273
10859SOL     OW33475   2.041   3.822   3.971
10859SOL    HW133476   2.054   3.842   4.069
10859SOL    HW233477   2.055   3.725   3.955
10860SOL     OW33478   6.512   1.261   6.026
10860SOL    HW133479   6.580   1.188   6.018
10860SOL    HW233480   6.449   1.239   6.100
10861SOL     OW33481   3.721   3.031   2.967
10861SOL    HW133482   3.631   2.995   2.993
10861SOL    HW233483   3.784   3.020   3.044
10862SOL     OW33484   3.035   1.924   6.630
10862SOL    HW133485   2.991   1.960   6.549
10862SOL    HW233486   3.118   1.874   6.603
10863SOL     OW33487   4.247   0.686   2.324
10863SOL    HW133488   4.194   0.734   2.255
10863SOL    HW233489   4.261   0.591   2.295
10864SOL     OW33490   3.164   5.141   0.940
10864SOL    HW133491   3.117   5.228   0.954
10864SOL    HW233492   3.254   5.144   0.984
10865SOL     OW33493   5.639   1.543   3.525
10865SOL    HW133494   5.581   1.558   3.605
10865SOL    HW233495   5.682   1.629   3.498
10866SOL     OW33496   5.066   4.973   0.417
10866SOL    HW133497   4.974   5.010   0.414
10866SOL    HW233498   5.130   5.036   0.374
10867SOL     OW33499   3.453   4.224   0.213
10867SOL    HW133500   3.535   4.245   0.267
10867SOL    HW233501   3.452   4.126   0.191
10868SOL     OW33502   2.152   2.286   3.768
10868SOL    HW133503   2.123   2.192   3.749
10868SOL    HW233504   2.113   2.348   3.700
10869NA      NA33505   0.369   2.076   6.203
10870NA      NA33506   4.419   4.584   5.237
10871NA      NA33507   2.356   4.357   2.116
10872NA      NA33508   4.859   4.064   3.721
10873NA      NA33509   4.262   2.495   5.375
10874NA      NA33510   3.244   4.414   1.524
10875NA      NA33511   0.693   4.538   0.062
10876NA      NA33512   3.823   3.834   2.536
10877NA      NA33513   4.995   4.854   1.066
10878NA      NA33514   3.396   0.252   5.549
10879NA      NA33515   5.965   5.733   0.640
10880NA      NA33516   2.349   0.873   5.223
10881NA      NA33517   4.074   4.780   1.656
10882NA      NA33518   3.909   3.023   1.249
   7.02466   7.02466   7.02466
