Generated by trjconv : CNT in water t=  37.00000
33518
    1C        C    1   2.838   2.766   4.743
    1C        C    2   2.893   2.711   4.860
    1C        C    3   2.837   2.768   4.975
    1C        C    4   2.844   2.767   4.258
    1C        C    5   2.898   2.724   4.381
    1C        C    6   2.837   2.764   4.502
    1C        C    7   3.006   2.632   4.622
    1C        C    8   2.889   2.711   4.623
    1C        C    9   3.073   2.593   4.740
    1C        C   10   3.006   2.626   4.860
    1C        C   11   3.175   2.486   4.973
    1C        C   12   3.057   2.560   4.973
    1C        C   13   2.850   2.767   3.769
    1C        C   14   2.898   2.716   3.892
    1C        C   15   2.849   2.770   4.013
    1C        C   16   3.017   2.645   4.135
    1C        C   17   2.898   2.721   4.136
    1C        C   18   3.078   2.612   4.258
    1C        C   19   3.020   2.652   4.381
    1C        C   20   3.205   2.549   4.501
    1C        C   21   3.073   2.601   4.501
    1C        C   22   3.276   2.528   4.621
    1C        C   23   3.204   2.539   4.742
    1C        C   24   3.408   2.482   4.863
    1C        C   25   3.266   2.494   4.862
    1C        C   26   3.485   2.470   4.979
    1C        C   27   2.843   2.766   3.277
    1C        C   28   2.901   2.722   3.398
    1C        C   29   2.856   2.771   3.523
    1C        C   30   3.017   2.637   3.643
    1C        C   31   2.902   2.720   3.646
    1C        C   32   3.074   2.602   3.768
    1C        C   33   3.013   2.635   3.891
    1C        C   34   3.206   2.547   4.014
    1C        C   35   3.077   2.604   4.014
    1C        C   36   3.273   2.527   4.137
    1C        C   37   3.208   2.557   4.259
    1C        C   38   3.412   2.496   4.377
    1C        C   39   3.273   2.524   4.380
    1C        C   40   3.484   2.494   4.498
    1C        C   41   3.414   2.496   4.621
    1C        C   42   3.626   2.477   4.742
    1C        C   43   3.484   2.475   4.742
    1C        C   44   3.703   2.482   4.860
    1C        C   45   3.624   2.476   4.976
    1C        C   46   2.835   2.749   2.791
    1C        C   47   2.891   2.707   2.913
    1C        C   48   2.838   2.757   3.034
    1C        C   49   3.015   2.638   3.156
    1C        C   50   2.896   2.715   3.156
    1C        C   51   3.075   2.603   3.279
    1C        C   52   3.015   2.638   3.402
    1C        C   53   3.210   2.546   3.525
    1C        C   54   3.080   2.602   3.522
    1C        C   55   3.275   2.527   3.650
    1C        C   56   3.204   2.548   3.770
    1C        C   57   3.412   2.500   3.890
    1C        C   58   3.272   2.524   3.892
    1C        C   59   3.482   2.493   4.012
    1C        C   60   3.411   2.499   4.134
    1C        C   61   3.624   2.500   4.258
    1C        C   62   3.483   2.489   4.255
    1C        C   63   3.697   2.505   4.379
    1C        C   64   3.625   2.493   4.500
    1C        C   65   3.831   2.540   4.620
    1C        C   66   3.697   2.495   4.621
    1C        C   67   3.898   2.567   4.742
    1C        C   68   3.836   2.531   4.863
    1C        C   69   4.050   2.578   4.975
    1C        C   70   3.918   2.532   4.976
    1C        C   71   2.819   2.731   2.306
    1C        C   72   2.879   2.687   2.426
    1C        C   73   2.830   2.744   2.546
    1C        C   74   3.003   2.621   2.669
    1C        C   75   2.886   2.701   2.668
    1C        C   76   3.071   2.592   2.790
    1C        C   77   3.013   2.635   2.911
    1C        C   78   3.206   2.548   3.033
    1C        C   79   3.078   2.608   3.034
    1C        C   80   3.271   2.524   3.156
    1C        C   81   3.206   2.549   3.278
    1C        C   82   3.410   2.492   3.400
    1C        C   83   3.273   2.525   3.401
    1C        C   84   3.479   2.488   3.523
    1C        C   85   3.413   2.497   3.647
    1C        C   86   3.625   2.499   3.766
    1C        C   87   3.484   2.491   3.769
    1C        C   88   3.693   2.507   3.890
    1C        C   89   3.623   2.497   4.012
    1C        C   90   3.826   2.560   4.135
    1C        C   91   3.692   2.515   4.135
    1C        C   92   3.897   2.577   4.256
    1C        C   93   3.832   2.545   4.377
    1C        C   94   4.025   2.631   4.496
    1C        C   95   3.898   2.569   4.499
    1C        C   96   4.083   2.673   4.618
    1C        C   97   4.026   2.629   4.739
    1C        C   98   4.191   2.759   4.861
    1C        C   99   4.097   2.651   4.861
    1C        C  100   4.204   2.844   4.971
    1C        C  101   2.820   2.729   2.069
    1C        C  102   2.991   2.594   2.188
    1C        C  103   2.875   2.678   2.187
    1C        C  104   3.064   2.575   2.309
    1C        C  105   2.999   2.613   2.429
    1C        C  106   3.197   2.529   2.546
    1C        C  107   3.065   2.580   2.549
    1C        C  108   3.268   2.511   2.667
    1C        C  109   3.201   2.537   2.788
    1C        C  110   3.410   2.500   2.911
    1C        C  111   3.269   2.517   2.910
    1C        C  112   3.477   2.487   3.034
    1C        C  113   3.408   2.490   3.158
    1C        C  114   3.623   2.495   3.273
    1C        C  115   3.482   2.486   3.278
    1C        C  116   3.690   2.507   3.397
    1C        C  117   3.620   2.501   3.520
    1C        C  118   3.829   2.543   3.645
    1C        C  119   3.691   2.513   3.642
    1C        C  120   3.894   2.572   3.768
    1C        C  121   3.828   2.548   3.890
    1C        C  122   4.018   2.643   4.010
    1C        C  123   3.893   2.576   4.012
    1C        C  124   4.085   2.671   4.131
    1C        C  125   4.028   2.631   4.254
    1C        C  126   4.193   2.765   4.374
    1C        C  127   4.088   2.671   4.376
    1C        C  128   4.239   2.820   4.496
    1C        C  129   4.187   2.769   4.617
    1C        C  130   4.324   2.931   4.736
    1C        C  131   4.238   2.817   4.740
    1C        C  132   4.354   2.999   4.856
    1C        C  133   4.278   2.962   4.968
    1C        C  134   3.171   2.472   2.075
    1C        C  135   3.036   2.513   2.079
    1C        C  136   3.258   2.479   2.184
    1C        C  137   3.194   2.519   2.304
    1C        C  138   3.404   2.482   2.426
    1C        C  139   3.264   2.499   2.425
    1C        C  140   3.480   2.479   2.545
    1C        C  141   3.408   2.490   2.666
    1C        C  142   3.621   2.493   2.786
    1C        C  143   3.479   2.495   2.788
    1C        C  144   3.689   2.499   2.909
    1C        C  145   3.618   2.491   3.031
    1C        C  146   3.829   2.534   3.152
    1C        C  147   3.693   2.497   3.151
    1C        C  148   3.894   2.559   3.275
    1C        C  149   3.826   2.543   3.398
    1C        C  150   4.019   2.628   3.519
    1C        C  151   3.891   2.569   3.521
    1C        C  152   4.078   2.670   3.641
    1C        C  153   4.018   2.639   3.765
    1C        C  154   4.192   2.762   3.885
    1C        C  155   4.079   2.677   3.887
    1C        C  156   4.243   2.808   4.008
    1C        C  157   4.196   2.758   4.132
    1C        C  158   4.339   2.917   4.251
    1C        C  159   4.251   2.807   4.252
    1C        C  160   4.379   2.977   4.372
    1C        C  161   4.330   2.927   4.495
    1C        C  162   4.434   3.114   4.611
    1C        C  163   4.372   2.987   4.616
    1C        C  164   4.467   3.181   4.730
    1C        C  165   4.431   3.117   4.851
    1C        C  166   4.515   3.315   4.966
    1C        C  167   4.465   3.186   4.968
    1C        C  168   3.475   2.426   2.070
    1C        C  169   3.397   2.452   2.183
    1C        C  170   3.613   2.468   2.302
    1C        C  171   3.471   2.462   2.303
    1C        C  172   3.690   2.487   2.418
    1C        C  173   3.621   2.485   2.541
    1C        C  174   3.826   2.538   2.664
    1C        C  175   3.690   2.500   2.663
    1C        C  176   3.891   2.560   2.788
    1C        C  177   3.827   2.530   2.911
    1C        C  178   4.023   2.623   3.028
    1C        C  179   3.898   2.557   3.030
    1C        C  180   4.080   2.663   3.151
    1C        C  181   4.019   2.625   3.273
    1C        C  182   4.190   2.748   3.395
    1C        C  183   4.080   2.659   3.396
    1C        C  184   4.238   2.805   3.515
    1C        C  185   4.188   2.758   3.639
    1C        C  186   4.334   2.913   3.762
    1C        C  187   4.242   2.805   3.760
    1C        C  188   4.375   2.972   3.883
    1C        C  189   4.334   2.916   4.006
    1C        C  190   4.441   3.101   4.122
    1C        C  191   4.376   2.976   4.128
    1C        C  192   4.467   3.167   4.244
    1C        C  193   4.446   3.102   4.368
    1C        C  194   4.500   3.311   4.485
    1C        C  195   4.469   3.173   4.487
    1C        C  196   4.521   3.384   4.604
    1C        C  197   4.509   3.317   4.728
    1C        C  198   4.552   3.531   4.848
    1C        C  199   4.528   3.390   4.849
    1C        C  200   4.579   3.614   4.962
    1C        C  201   3.615   2.417   2.067
    1C        C  202   3.825   2.502   2.178
    1C        C  203   3.690   2.456   2.183
    1C        C  204   3.898   2.532   2.296
    1C        C  205   3.826   2.527   2.418
    1C        C  206   4.019   2.615   2.539
    1C        C  207   3.891   2.556   2.540
    1C        C  208   4.080   2.651   2.662
    1C        C  209   4.016   2.625   2.785
    1C        C  210   4.195   2.745   2.905
    1C        C  211   4.080   2.662   2.905
    1C        C  212   4.243   2.796   3.028
    1C        C  213   4.190   2.752   3.151
    1C        C  214   4.328   2.910   3.270
    1C        C  215   4.239   2.801   3.274
    1C        C  216   4.368   2.970   3.392
    1C        C  217   4.327   2.914   3.515
    1C        C  218   4.435   3.095   3.634
    1C        C  219   4.366   2.972   3.638
    1C        C  220   4.464   3.164   3.755
    1C        C  221   4.437   3.099   3.878
    1C        C  222   4.492   3.305   3.998
    1C        C  223   4.463   3.166   3.999
    1C        C  224   4.508   3.377   4.118
    1C        C  225   4.500   3.304   4.239
    1C        C  226   4.518   3.517   4.362
    1C        C  227   4.510   3.376   4.360
    1C        C  228   4.520   3.593   4.482
    1C        C  229   4.529   3.525   4.605
    1C        C  230   4.503   3.738   4.726
    1C        C  231   4.535   3.599   4.725
    1C        C  232   4.491   3.815   4.843
    1C        C  233   4.546   3.750   4.954
    1C        C  234   4.008   2.618   2.058
    1C        C  235   3.891   2.543   2.061
    1C        C  236   4.081   2.646   2.174
    1C        C  237   4.023   2.599   2.294
    1C        C  238   4.191   2.734   2.417
    1C        C  239   4.077   2.648   2.415
    1C        C  240   4.245   2.783   2.538
    1C        C  241   4.188   2.741   2.660
    1C        C  242   4.327   2.904   2.782
    1C        C  243   4.243   2.791   2.781
    1C        C  244   4.377   2.957   2.903
    1C        C  245   4.339   2.899   3.026
    1C        C  246   4.437   3.091   3.145
    1C        C  247   4.372   2.965   3.147
    1C        C  248   4.455   3.160   3.266
    1C        C  249   4.428   3.098   3.391
    1C        C  250   4.491   3.300   3.511
    1C        C  251   4.460   3.163   3.513
    1C        C  252   4.505   3.371   3.632
    1C        C  253   4.491   3.302   3.755
    1C        C  254   4.520   3.514   3.874
    1C        C  255   4.508   3.373   3.876
    1C        C  256   4.516   3.587   3.995
    1C        C  257   4.516   3.518   4.118
    1C        C  258   4.485   3.727   4.237
    1C        C  259   4.515   3.589   4.240
    1C        C  260   4.470   3.798   4.358
    1C        C  261   4.484   3.729   4.481
    1C        C  262   4.413   3.928   4.602
    1C        C  263   4.463   3.796   4.604
    1C        C  264   4.391   4.003   4.720
    1C        C  265   4.428   3.942   4.841
    1C        C  266   4.311   4.124   4.957
    1C        C  267   4.389   4.008   4.958
    1C        C  268   4.257   2.774   2.060
    1C        C  269   4.197   2.727   2.177
    1C        C  270   4.344   2.885   2.297
    1C        C  271   4.249   2.779   2.297
    1C        C  272   4.383   2.948   2.418
    1C        C  273   4.341   2.887   2.538
    1C        C  274   4.437   3.080   2.658
    1C        C  275   4.372   2.954   2.658
    1C        C  276   4.463   3.149   2.778
    1C        C  277   4.441   3.083   2.901
    1C        C  278   4.507   3.288   3.023
    1C        C  279   4.469   3.152   3.021
    1C        C  280   4.511   3.362   3.143
    1C        C  281   4.497   3.294   3.266
    1C        C  282   4.516   3.508   3.385
    1C        C  283   4.507   3.367   3.387
    1C        C  284   4.514   3.580   3.506
    1C        C  285   4.517   3.512   3.630
    1C        C  286   4.495   3.724   3.747
    1C        C  287   4.517   3.584   3.752
    1C        C  288   4.475   3.791   3.869
    1C        C  289   4.491   3.726   3.994
    1C        C  290   4.419   3.928   4.114
    1C        C  291   4.471   3.796   4.115
    1C        C  292   4.390   3.994   4.235
    1C        C  293   4.420   3.931   4.358
    1C        C  294   4.321   4.119   4.478
    1C        C  295   4.385   3.993   4.480
    1C        C  296   4.278   4.182   4.597
    1C        C  297   4.317   4.125   4.720
    1C        C  298   4.202   4.314   4.834
    1C        C  299   4.272   4.189   4.839
    1C        C  300   4.170   4.400   4.944
    1C        C  301   4.348   2.879   2.059
    1C        C  302   4.466   3.064   2.174
    1C        C  303   4.396   2.939   2.177
    1C        C  304   4.477   3.140   2.294
    1C        C  305   4.440   3.077   2.415
    1C        C  306   4.508   3.280   2.535
    1C        C  307   4.468   3.144   2.536
    1C        C  308   4.510   3.355   2.655
    1C        C  309   4.495   3.286   2.777
    1C        C  310   4.517   3.497   2.895
    1C        C  311   4.514   3.356   2.899
    1C        C  312   4.510   3.569   3.016
    1C        C  313   4.509   3.503   3.141
    1C        C  314   4.483   3.716   3.262
    1C        C  315   4.507   3.577   3.262
    1C        C  316   4.476   3.790   3.382
    1C        C  317   4.493   3.720   3.504
    1C        C  318   4.424   3.923   3.623
    1C        C  319   4.473   3.790   3.624
    1C        C  320   4.389   3.984   3.746
    1C        C  321   4.416   3.920   3.869
    1C        C  322   4.316   4.108   3.990
    1C        C  323   4.392   3.989   3.990
    1C        C  324   4.273   4.169   4.110
    1C        C  325   4.319   4.117   4.233
    1C        C  326   4.185   4.279   4.352
    1C        C  327   4.279   4.174   4.355
    1C        C  328   4.135   4.336   4.472
    1C        C  329   4.183   4.287   4.595
    1C        C  330   4.019   4.429   4.711
    1C        C  331   4.136   4.348   4.713
    1C        C  332   3.966   4.479   4.831
    1C        C  333   4.052   4.476   4.942
    1C        C  334   4.546   3.263   2.057
    1C        C  335   4.531   3.124   2.062
    1C        C  336   4.540   3.345   2.171
    1C        C  337   4.519   3.276   2.292
    1C        C  338   4.518   3.490   2.408
    1C        C  339   4.518   3.349   2.413
    1C        C  340   4.515   3.563   2.529
    1C        C  341   4.511   3.496   2.653
    1C        C  342   4.487   3.709   2.772
    1C        C  343   4.509   3.569   2.774
    1C        C  344   4.477   3.782   2.892
    1C        C  345   4.491   3.709   3.013
    1C        C  346   4.423   3.911   3.133
    1C        C  347   4.469   3.777   3.135
    1C        C  348   4.388   3.980   3.251
    1C        C  349   4.419   3.919   3.375
    1C        C  350   4.318   4.103   3.499
    1C        C  351   4.393   3.983   3.498
    1C        C  352   4.274   4.160   3.620
    1C        C  353   4.314   4.103   3.744
    1C        C  354   4.175   4.262   3.865
    1C        C  355   4.272   4.159   3.866
    1C        C  356   4.121   4.312   3.985
    1C        C  357   4.170   4.266   4.110
    1C        C  358   4.004   4.396   4.230
    1C        C  359   4.124   4.321   4.232
    1C        C  360   3.946   4.441   4.351
    1C        C  361   4.017   4.414   4.470
    1C        C  362   3.826   4.517   4.589
    1C        C  363   3.953   4.455   4.589
    1C        C  364   3.759   4.544   4.710
    1C        C  365   3.835   4.533   4.829
    1C        C  366   3.629   4.603   4.943
    1C        C  367   3.763   4.565   4.944
    1C        C  368   4.517   3.562   2.049
    1C        C  369   4.522   3.485   2.165
    1C        C  370   4.488   3.699   2.284
    1C        C  371   4.511   3.559   2.285
    1C        C  372   4.471   3.771   2.404
    1C        C  373   4.492   3.703   2.526
    1C        C  374   4.422   3.905   2.647
    1C        C  375   4.475   3.774   2.647
    1C        C  376   4.394   3.972   2.768
    1C        C  377   4.427   3.914   2.892
    1C        C  378   4.317   4.097   3.007
    1C        C  379   4.396   3.980   3.013
    1C        C  380   4.271   4.152   3.128
    1C        C  381   4.314   4.100   3.252
    1C        C  382   4.173   4.255   3.375
    1C        C  383   4.271   4.154   3.376
    1C        C  384   4.120   4.303   3.497
    1C        C  385   4.174   4.259   3.620
    1C        C  386   4.002   4.384   3.742
    1C        C  387   4.118   4.304   3.742
    1C        C  388   3.941   4.426   3.862
    1C        C  389   4.003   4.390   3.984
    1C        C  390   3.815   4.486   4.104
    1C        C  391   3.944   4.427   4.106
    1C        C  392   3.746   4.511   4.225
    1C        C  393   3.817   4.498   4.346
    1C        C  394   3.613   4.549   4.470
    1C        C  395   3.753   4.528   4.469
    1C        C  396   3.544   4.561   4.593
    1C        C  397   3.619   4.564   4.713
    1C        C  398   3.408   4.545   4.835
    1C        C  399   3.546   4.574   4.833
    1C        C  400   3.342   4.511   4.953
    1C        C  401   4.502   3.701   2.049
    1C        C  402   4.452   3.913   2.162
    1C        C  403   4.483   3.775   2.166
    1C        C  404   4.412   3.974   2.284
    1C        C  405   4.427   3.905   2.406
    1C        C  406   4.323   4.094   2.521
    1C        C  407   4.396   3.973   2.526
    1C        C  408   4.279   4.151   2.643
    1C        C  409   4.322   4.094   2.765
    1C        C  410   4.172   4.250   2.884
    1C        C  411   4.273   4.151   2.884
    1C        C  412   4.117   4.296   3.006
    1C        C  413   4.172   4.253   3.129
    1C        C  414   3.997   4.370   3.250
    1C        C  415   4.118   4.299   3.251
    1C        C  416   3.936   4.407   3.372
    1C        C  417   3.998   4.373   3.495
    1C        C  418   3.812   4.474   3.616
    1C        C  419   3.938   4.410   3.618
    1C        C  420   3.746   4.504   3.737
    1C        C  421   3.810   4.478   3.861
    1C        C  422   3.606   4.532   3.980
    1C        C  423   3.745   4.505   3.983
    1C        C  424   3.536   4.541   4.102
    1C        C  425   3.607   4.539   4.224
    1C        C  426   3.401   4.547   4.354
    1C        C  427   3.542   4.557   4.348
    1C        C  428   3.329   4.546   4.475
    1C        C  429   3.403   4.553   4.595
    1C        C  430   3.191   4.518   4.717
    1C        C  431   3.331   4.542   4.716
    1C        C  432   3.124   4.491   4.839
    1C        C  433   3.206   4.484   4.953
    1C        C  434   4.380   4.122   2.047
    1C        C  435   4.447   3.999   2.052
    1C        C  436   4.298   4.159   2.159
    1C        C  437   4.336   4.094   2.280
    1C        C  438   4.178   4.245   2.397
    1C        C  439   4.282   4.150   2.398
    1C        C  440   4.122   4.290   2.519
    1C        C  441   4.174   4.245   2.642
    1C        C  442   4.003   4.377   2.763
    1C        C  443   4.116   4.293   2.762
    1C        C  444   3.941   4.414   2.884
    1C        C  445   4.001   4.377   3.006
    1C        C  446   3.809   4.468   3.128
    1C        C  447   3.936   4.407   3.128
    1C        C  448   3.741   4.489   3.251
    1C        C  449   3.807   4.465   3.373
    1C        C  450   3.604   4.524   3.492
    1C        C  451   3.743   4.496   3.495
    1C        C  452   3.536   4.535   3.615
    1C        C  453   3.608   4.533   3.737
    1C        C  454   3.395   4.548   3.862
    1C        C  455   3.536   4.547   3.858
    1C        C  456   3.328   4.529   3.985
    1C        C  457   3.395   4.540   4.109
    1C        C  458   3.191   4.502   4.232
    1C        C  459   3.328   4.538   4.233
    1C        C  460   3.126   4.478   4.355
    1C        C  461   3.193   4.509   4.476
    1C        C  462   2.994   4.432   4.598
    1C        C  463   3.123   4.489   4.597
    1C        C  464   2.932   4.395   4.720
    1C        C  465   2.989   4.442   4.841
    1C        C  466   2.800   4.330   4.957
    1C        C  467   2.904   4.424   4.954
    1C        C  468   4.116   4.274   2.036
    1C        C  469   4.183   4.244   2.155
    1C        C  470   4.004   4.369   2.274
    1C        C  471   4.122   4.290   2.275
    1C        C  472   3.941   4.399   2.397
    1C        C  473   4.006   4.371   2.519
    1C        C  474   3.811   4.461   2.641
    1C        C  475   3.941   4.405   2.639
    1C        C  476   3.744   4.491   2.761
    1C        C  477   3.808   4.463   2.884
    1C        C  478   3.602   4.515   3.006
    1C        C  479   3.740   4.486   3.006
    1C        C  480   3.529   4.532   3.126
    1C        C  481   3.602   4.515   3.246
    1C        C  482   3.394   4.530   3.375
    1C        C  483   3.535   4.528   3.369
    1C        C  484   3.323   4.530   3.497
    1C        C  485   3.395   4.542   3.619
    1C        C  486   3.189   4.497   3.743
    1C        C  487   3.324   4.540   3.741
    1C        C  488   3.123   4.472   3.865
    1C        C  489   3.192   4.489   3.987
    1C        C  490   3.000   4.407   4.115
    1C        C  491   3.127   4.470   4.111
    1C        C  492   2.939   4.374   4.237
    1C        C  493   2.999   4.417   4.358
    1C        C  494   2.826   4.292   4.480
    1C        C  495   2.934   4.383   4.479
    1C        C  496   2.774   4.247   4.603
    1C        C  497   2.825   4.301   4.723
    1C        C  498   2.667   4.155   4.841
    1C        C  499   2.758   4.263   4.841
    1C        C  500   2.602   4.110   4.957
    1C        C  501   3.998   4.348   2.038
    1C        C  502   3.808   4.457   2.152
    1C        C  503   3.937   4.398   2.154
    1C        C  504   3.739   4.474   2.274
    1C        C  505   3.809   4.449   2.394
    1C        C  506   3.605   4.501   2.517
    1C        C  507   3.742   4.468   2.518
    1C        C  508   3.534   4.508   2.639
    1C        C  509   3.604   4.511   2.761
    1C        C  510   3.391   4.527   2.884
    1C        C  511   3.533   4.525   2.883
    1C        C  512   3.319   4.519   3.006
    1C        C  513   3.388   4.527   3.129
    1C        C  514   3.184   4.491   3.252
    1C        C  515   3.322   4.523   3.254
    1C        C  516   3.121   4.461   3.375
    1C        C  517   3.188   4.489   3.497
    1C        C  518   2.998   4.404   3.623
    1C        C  519   3.123   4.470   3.621
    1C        C  520   2.940   4.366   3.746
    1C        C  521   2.995   4.413   3.867
    1C        C  522   2.837   4.275   3.992
    1C        C  523   2.944   4.367   3.991
    1C        C  524   2.788   4.228   4.115
    1C        C  525   2.829   4.285   4.238
    1C        C  526   2.689   4.128   4.363
    1C        C  527   2.771   4.243   4.359
    1C        C  528   2.651   4.067   4.485
    1C        C  529   2.690   4.134   4.602
    1C        C  530   2.578   3.954   4.727
    1C        C  531   2.636   4.084   4.723
    1C        C  532   2.535   3.897   4.850
    1C        C  533   2.525   3.993   4.955
    1C        C  534   3.614   4.552   2.035
    1C        C  535   3.747   4.507   2.037
    1C        C  536   3.533   4.529   2.151
    1C        C  537   3.602   4.510   2.274
    1C        C  538   3.391   4.511   2.397
    1C        C  539   3.532   4.515   2.397
    1C        C  540   3.320   4.505   2.519
    1C        C  541   3.392   4.508   2.640
    1C        C  542   3.183   4.484   2.761
    1C        C  543   3.322   4.513   2.762
    1C        C  544   3.117   4.461   2.884
    1C        C  545   3.183   4.483   3.007
    1C        C  546   2.991   4.402   3.131
    1C        C  547   3.116   4.469   3.131
    1C        C  548   2.939   4.358   3.255
    1C        C  549   2.995   4.396   3.379
    1C        C  550   2.826   4.275   3.503
    1C        C  551   2.934   4.366   3.502
    1C        C  552   2.775   4.227   3.626
    1C        C  553   2.832   4.275   3.746
    1C        C  554   2.701   4.112   3.873
    1C        C  555   2.788   4.223   3.870
    1C        C  556   2.661   4.054   3.996
    1C        C  557   2.702   4.115   4.117
    1C        C  558   2.588   3.942   4.241
    1C        C  559   2.657   4.065   4.241
    1C        C  560   2.561   3.874   4.362
    1C        C  561   2.585   3.941   4.484
    1C        C  562   2.525   3.743   4.613
    1C        C  563   2.564   3.879   4.609
    1C        C  564   2.512   3.676   4.737
    1C        C  565   2.519   3.755   4.856
    1C        C  566   2.525   3.541   4.973
    1C        C  567   2.514   3.679   4.974
    1C        C  568   3.321   4.470   2.039
    1C        C  569   3.393   4.505   2.154
    1C        C  570   3.179   4.479   2.280
    1C        C  571   3.319   4.506   2.275
    1C        C  572   3.108   4.461   2.401
    1C        C  573   3.181   4.484   2.520
    1C        C  574   2.985   4.399   2.644
    1C        C  575   3.111   4.462   2.641
    1C        C  576   2.929   4.356   2.767
    1C        C  577   2.994   4.393   2.887
    1C        C  578   2.827   4.266   3.012
    1C        C  579   2.934   4.358   3.010
    1C        C  580   2.779   4.217   3.136
    1C        C  581   2.835   4.262   3.258
    1C        C  582   2.691   4.110   3.380
    1C        C  583   2.782   4.218   3.381
    1C        C  584   2.656   4.052   3.504
    1C        C  585   2.691   4.114   3.626
    1C        C  586   2.595   3.930   3.751
    1C        C  587   2.655   4.058   3.751
    1C        C  588   2.569   3.865   3.874
    1C        C  589   2.592   3.931   3.997
    1C        C  590   2.533   3.734   4.123
    1C        C  591   2.562   3.872   4.121
    1C        C  592   2.523   3.666   4.247
    1C        C  593   2.530   3.736   4.369
    1C        C  594   2.501   3.529   4.495
    1C        C  595   2.513   3.670   4.493
    1C        C  596   2.510   3.458   4.617
    1C        C  597   2.513   3.534   4.736
    1C        C  598   2.525   3.321   4.856
    1C        C  599   2.524   3.462   4.857
    1C        C  600   2.528   3.246   4.975
    1C        C  601   3.187   4.436   2.041
    1C        C  602   2.980   4.388   2.156
    1C        C  603   3.113   4.438   2.160
    1C        C  604   2.922   4.355   2.282
    1C        C  605   2.983   4.397   2.403
    1C        C  606   2.810   4.273   2.524
    1C        C  607   2.921   4.360   2.524
    1C        C  608   2.763   4.222   2.647
    1C        C  609   2.819   4.267   2.768
    1C        C  610   2.688   4.103   2.894
    1C        C  611   2.775   4.214   2.892
    1C        C  612   2.648   4.047   3.017
    1C        C  613   2.692   4.106   3.138
    1C        C  614   2.585   3.924   3.261
    1C        C  615   2.649   4.050   3.260
    1C        C  616   2.559   3.862   3.386
    1C        C  617   2.591   3.926   3.508
    1C        C  618   2.524   3.726   3.631
    1C        C  619   2.569   3.860   3.631
    1C        C  620   2.510   3.659   3.755
    1C        C  621   2.532   3.729   3.876
    1C        C  622   2.509   3.523   4.004
    1C        C  623   2.524   3.664   4.001
    1C        C  624   2.509   3.455   4.128
    1C        C  625   2.505   3.526   4.250
    1C        C  626   2.531   3.318   4.374
    1C        C  627   2.505   3.457   4.374
    1C        C  628   2.550   3.248   4.495
    1C        C  629   2.530   3.318   4.616
    1C        C  630   2.583   3.111   4.736
    1C        C  631   2.543   3.247   4.737
    1C        C  632   2.604   3.042   4.859
    1C        C  633   2.551   3.108   4.975
    1C        C  634   2.776   4.300   2.055
    1C        C  635   2.885   4.388   2.049
    1C        C  636   2.744   4.225   2.169
    1C        C  637   2.811   4.267   2.286
    1C        C  638   2.675   4.100   2.407
    1C        C  639   2.758   4.214   2.406
    1C        C  640   2.635   4.046   2.532
    1C        C  641   2.677   4.110   2.651
    1C        C  642   2.587   3.916   2.774
    1C        C  643   2.651   4.042   2.772
    1C        C  644   2.565   3.851   2.898
    1C        C  645   2.588   3.919   3.019
    1C        C  646   2.519   3.718   3.144
    1C        C  647   2.558   3.854   3.141
    1C        C  648   2.510   3.651   3.268
    1C        C  649   2.529   3.724   3.388
    1C        C  650   2.500   3.514   3.515
    1C        C  651   2.514   3.655   3.510
    1C        C  652   2.502   3.447   3.640
    1C        C  653   2.503   3.518   3.762
    1C        C  654   2.523   3.307   3.885
    1C        C  655   2.507   3.448   3.885
    1C        C  656   2.547   3.243   4.009
    1C        C  657   2.534   3.316   4.129
    1C        C  658   2.600   3.117   4.254
    1C        C  659   2.548   3.248   4.252
    1C        C  660   2.632   3.051   4.375
    1C        C  661   2.604   3.117   4.497
    1C        C  662   2.708   2.931   4.622
    1C        C  663   2.630   3.049   4.618
    1C        C  664   2.745   2.873   4.745
    1C        C  665   2.691   2.929   4.865
    1C        C  666   2.740   2.867   4.981
    1C        C  667   2.687   4.012   2.056
    1C        C  668   2.685   4.097   2.167
    1C        C  669   2.580   3.907   2.289
    1C        C  670   2.640   4.036   2.287
    1C        C  671   2.552   3.845   2.413
    1C        C  672   2.577   3.918   2.531
    1C        C  673   2.512   3.715   2.655
    1C        C  674   2.556   3.849   2.653
    1C        C  675   2.501   3.645   2.778
    1C        C  676   2.522   3.716   2.898
    1C        C  677   2.501   3.508   3.026
    1C        C  678   2.512   3.648   3.022
    1C        C  679   2.500   3.440   3.149
    1C        C  680   2.498   3.510   3.272
    1C        C  681   2.520   3.301   3.397
    1C        C  682   2.496   3.440   3.395
    1C        C  683   2.548   3.238   3.521
    1C        C  684   2.532   3.309   3.642
    1C        C  685   2.596   3.108   3.769
    1C        C  686   2.542   3.238   3.763
    1C        C  687   2.633   3.047   3.891
    1C        C  688   2.604   3.114   4.011
    1C        C  689   2.710   2.931   4.133
    1C        C  690   2.633   3.050   4.134
    1C        C  691   2.754   2.876   4.256
    1C        C  692   2.710   2.933   4.377
    1C        C  693   2.750   2.875   4.499
    1C        C  694   2.623   3.888   2.056
    1C        C  695   2.522   3.699   2.173
    1C        C  696   2.559   3.835   2.169
    1C        C  697   2.500   3.634   2.296
    1C        C  698   2.511   3.710   2.415
    1C        C  699   2.492   3.498   2.538
    1C        C  700   2.502   3.639   2.537
    1C        C  701   2.497   3.429   2.661
    1C        C  702   2.498   3.504   2.781
    1C        C  703   2.520   3.295   2.906
    1C        C  704   2.504   3.435   2.904
    1C        C  705   2.538   3.229   3.030
    1C        C  706   2.521   3.300   3.151
    1C        C  707   2.593   3.104   3.280
    1C        C  708   2.534   3.232   3.275
    1C        C  709   2.632   3.043   3.401
    1C        C  710   2.599   3.107   3.523
    1C        C  711   2.707   2.927   3.646
    1C        C  712   2.631   3.046   3.647
    1C        C  713   2.753   2.870   3.767
    1C        C  714   2.708   2.927   3.888
    1C        C  715   2.757   2.877   4.011
    1C        C  716   2.448   3.495   2.061
    1C        C  717   2.487   3.630   2.057
    1C        C  718   2.458   3.415   2.179
    1C        C  719   2.476   3.494   2.296
    1C        C  720   2.506   3.285   2.420
    1C        C  721   2.481   3.424   2.419
    1C        C  722   2.522   3.216   2.542
    1C        C  723   2.513   3.288   2.663
    1C        C  724   2.591   3.093   2.790
    1C        C  725   2.535   3.223   2.786
    1C        C  726   2.621   3.031   2.913
    1C        C  727   2.590   3.097   3.034
    1C        C  728   2.704   2.922   3.155
    1C        C  729   2.627   3.041   3.158
    1C        C  730   2.748   2.870   3.279
    1C        C  731   2.713   2.927   3.404
    1C        C  732   2.755   2.870   3.526
    1C        C  733   2.477   3.186   2.068
    1C        C  734   2.478   3.273   2.178
    1C        C  735   2.577   3.082   2.302
    1C        C  736   2.518   3.211   2.300
    1C        C  737   2.613   3.020   2.424
    1C        C  738   2.584   3.089   2.544
    1C        C  739   2.692   2.908   2.667
    1C        C  740   2.616   3.027   2.667
    1C        C  741   2.744   2.858   2.787
    1C        C  742   2.700   2.914   2.909
    1C        C  743   2.744   2.863   3.033
    1C        C  744   2.538   3.061   2.067
    1C        C  745   2.681   2.896   2.182
    1C        C  746   2.600   3.011   2.182
    1C        C  747   2.728   2.840   2.303
    1C        C  748   2.682   2.897   2.424
    1C        C  749   2.733   2.847   2.546
    1C        C  750   2.733   2.838   2.066
    1C        C  751   3.665   2.311   1.976
    1C        O  752   3.660   2.190   2.011
    1C        O  753   3.693   2.336   1.841
    1C        C  754   4.639   3.060   1.983
    1C        O  755   4.618   3.028   1.863
    1C        O  756   4.765   3.024   2.032
    1C        C  757   4.464   4.222   1.978
    1C        O  758   4.544   4.287   2.051
    1C        O  759   4.424   4.277   1.856
    1C        C  760   3.588   4.669   1.948
    1C        O  761   3.632   4.784   1.974
    1C        O  762   3.576   4.652   1.809
    1C        C  763   2.861   4.503   1.958
    1C        O  764   2.878   4.499   1.833
    1C        O  765   2.776   4.608   1.994
    1C        C  766   2.355   3.460   1.951
    1C        O  767   2.397   3.409   1.844
    1C        O  768   2.220   3.461   1.986
    1C        C  769   4.701   3.591   5.044
    1C        O  770   4.691   3.552   5.163
    1C        O  771   4.827   3.578   4.986
    1C        C  772   4.288   4.459   5.011
    1C        O  773   4.310   4.437   5.133
    1C        O  774   4.353   4.580   4.983
    1C        C  775   4.146   2.509   5.064
    1C        O  776   4.148   2.383   5.061
    1C        O  777   4.178   2.555   5.192
    1C        C  778   2.878   4.540   5.042
    1C        O  779   2.798   4.631   5.010
    1C        O  780   2.906   4.541   5.180
    1C        C  781   2.467   3.047   5.080
    1C        O  782   2.361   2.984   5.051
    1C        O  783   2.482   3.089   5.211
    1C        C  784   2.412   3.991   5.051
    1C        O  785   2.295   3.991   5.002
    1C        O  786   2.428   3.954   5.185
    1C        C  787   2.940   2.437   1.997
    1C        O  788   2.914   2.478   1.880
    1C        O  789   2.892   2.314   2.038
    1C        C  790   3.177   2.360   5.051
    1C        O  791   3.152   2.255   4.987
    1C        O  792   3.149   2.352   5.188
    1C        H  793   4.241   3.040   5.031
    1C        H  794   4.134   2.842   5.051
    1C        H  795   4.470   3.126   5.057
    1C        H  796   4.515   3.368   5.059
    1C        H  797   4.599   3.812   5.023
    1C        H  798   4.425   3.977   5.054
    1C        H  799   4.287   4.173   5.049
    1C        H  800   4.019   4.516   5.035
    1C        H  801   3.801   4.516   5.031
    1C        H  802   3.597   4.670   5.020
    1C        H  803   3.395   4.486   5.043
    1C        H  804   3.158   4.455   5.044
    1C        H  805   3.867   2.538   5.070
    1C        H  806   3.671   2.474   5.072
    1C        H  807   3.012   2.587   5.067
    1C        H  808   3.439   2.427   5.065
    1C        H  809   2.826   2.697   5.054
    1C        H  810   2.692   2.892   5.074
    1C        H  811   2.450   3.280   5.040
    1C        H  812   2.577   3.502   5.058
    1C        H  813   2.519   3.732   5.067
    1C        H  814   2.581   4.181   5.034
    1C        H  815   2.752   4.311   5.051
    1C        H  816   2.715   2.881   1.970
    1C        H  817   2.884   2.716   1.984
    1C        H  818   3.215   2.483   1.978
    1C        H  819   3.437   2.460   1.976
    1C        H  820   3.824   2.568   1.981
    1C        H  821   4.024   2.671   1.966
    1C        H  822   4.257   2.721   1.967
    1C        H  823   4.354   2.932   1.966
    1C        H  824   4.505   3.299   1.965
    1C        H  825   4.552   3.520   1.957
    1C        H  826   4.506   3.745   1.951
    1C        H  827   3.775   4.457   1.947
    1C        H  828   3.945   4.347   1.945
    1C        H  829   4.165   4.270   1.941
    1C        H  830   4.470   3.961   1.955
    1C        H  831   2.604   3.845   1.959
    1C        H  832   2.742   4.040   1.968
    1C        H  833   2.707   4.301   1.974
    1C        H  834   3.371   4.467   1.944
    1C        H  835   3.142   4.409   1.948
    1C        H  836   2.482   2.989   2.012
    1C        H  837   2.416   3.206   1.982
    1C        H  838   2.440   3.691   1.982
    2V3OU   H29  839   2.793   3.545   0.982
    2V3OU   C27  840   2.780   3.501   1.084
    2V3OU   H27  841   2.724   3.572   1.149
    2V3OU   H28  842   2.724   3.404   1.081
    2V3OU   O11  843   2.905   3.465   1.144
    2V3OU   C15  844   2.916   3.392   1.260
    2V3OU   C13  845   3.044   3.371   1.315
    2V3OU   C14  846   3.070   3.268   1.406
    2V3OU   C16  847   2.968   3.185   1.452
    2V3OU    H6  848   2.988   3.103   1.521
    2V3OU   C12  849   3.210   3.231   1.440
    2V3OU    O2  850   3.235   3.122   1.494
    2V3OU   C10  851   3.319   3.306   1.375
    2V3OU    C8  852   3.452   3.267   1.375
    2V3OU   O10  853   3.486   3.154   1.443
    2V3OU   H26  854   3.402   3.112   1.466
    2V3OU    C6  855   3.561   3.340   1.317
    2V3OU    C5  856   3.535   3.461   1.253
    2V3OU    C4  857   3.699   3.285   1.322
    2V3OU    H4  858   3.716   3.217   1.410
    2V3OU    H5  859   3.706   3.226   1.226
    2V3OU    C2  860   3.811   3.390   1.316
    2V3OU    O6  861   3.798   3.467   1.435
    2V3OU   H21  862   3.761   3.550   1.401
    2V3OU    C3  863   3.777   3.487   1.203
    2V3OU    H2  864   3.854   3.568   1.206
    2V3OU    H3  865   3.775   3.436   1.104
    2V3OU   C25  866   3.943   3.313   1.305
    2V3OU    O7  867   3.993   3.286   1.196
    2V3OU   C26  868   4.025   3.281   1.429
    2V3OU   H22  869   4.057   3.378   1.475
    2V3OU   H23  870   4.110   3.214   1.402
    2V3OU    O8  871   3.956   3.202   1.524
    2V3OU   H24  872   3.934   3.260   1.599
    2V3OU    C1  873   3.645   3.559   1.225
    2V3OU    H1  874   3.619   3.617   1.132
    2V3OU    O3  875   3.652   3.654   1.332
    2V3OU   C19  876   3.614   3.790   1.310
    2V3OU    H9  877   3.524   3.808   1.244
    2V3OU    O4  878   3.713   3.840   1.224
    2V3OU   C20  879   3.844   3.870   1.273
    2V3OU   H10  880   3.888   3.769   1.297
    2V3OU   C24  881   3.603   3.857   1.447
    2V3OU   H16  882   3.538   3.793   1.511
    2V3OU   H17  883   3.556   3.958   1.433
    2V3OU   C23  884   3.744   3.875   1.504
    2V3OU   H15  885   3.787   3.771   1.522
    2V3OU    N1  886   3.733   3.947   1.630
    2V3OU   H19  887   3.796   3.913   1.699
    2V3OU   H20  888   3.645   3.930   1.673
    2V3OU   C21  889   3.845   3.944   1.407
    2V3OU   H11  890   3.950   3.928   1.445
    2V3OU    O5  891   3.823   4.084   1.412
    2V3OU   H18  892   3.785   4.099   1.501
    2V3OU   C22  893   3.908   3.950   1.160
    2V3OU   H12  894   3.859   4.050   1.157
    2V3OU   H13  895   3.901   3.891   1.065
    2V3OU   H14  896   4.020   3.951   1.171
    2V3OU   C11  897   3.151   3.468   1.286
    2V3OU    O1  898   3.131   3.584   1.246
    2V3OU    C9  899   3.292   3.426   1.304
    2V3OU    C7  900   3.397   3.499   1.250
    2V3OU    O9  901   3.379   3.613   1.175
    2V3OU   H25  902   3.286   3.632   1.195
    2V3OU   C17  903   2.816   3.311   1.319
    2V3OU    H7  904   2.711   3.341   1.312
    2V3OU   C18  905   2.838   3.207   1.408
    2V3OU    H8  906   2.754   3.151   1.452
    3SOL     OW  907   0.725   4.074   0.703
    3SOL    HW1  908   0.699   4.167   0.676
    3SOL    HW2  909   0.817   4.076   0.743
    4SOL     OW  910   5.351   1.271   2.284
    4SOL    HW1  911   5.376   1.363   2.317
    4SOL    HW2  912   5.432   1.212   2.289
    5SOL     OW  913   3.547   2.769   1.288
    5SOL    HW1  914   3.479   2.770   1.214
    5SOL    HW2  915   3.610   2.846   1.277
    6SOL     OW  916   2.599   2.556   0.590
    6SOL    HW1  917   2.506   2.531   0.617
    6SOL    HW2  918   2.595   2.633   0.525
    7SOL     OW  919   5.987   1.112   1.594
    7SOL    HW1  920   5.970   1.194   1.540
    7SOL    HW2  921   6.020   1.039   1.534
    8SOL     OW  922   3.015   1.853   3.484
    8SOL    HW1  923   2.945   1.790   3.518
    8SOL    HW2  924   3.089   1.802   3.441
    9SOL     OW  925   0.124   4.085   5.673
    9SOL    HW1  926   0.125   4.102   5.771
    9SOL    HW2  927   0.079   4.161   5.626
   10SOL     OW  928   0.645   4.294   0.612
   10SOL    HW1  929   0.643   4.364   0.683
   10SOL    HW2  930   0.555   4.289   0.568
   11SOL     OW  931   4.096   6.577   6.806
   11SOL    HW1  932   4.152   6.586   6.889
   11SOL    HW2  933   4.001   6.563   6.832
   12SOL     OW  934   5.624   6.457   2.291
   12SOL    HW1  935   5.692   6.472   2.363
   12SOL    HW2  936   5.532   6.467   2.328
   13SOL     OW  937   1.482   0.230   3.130
   13SOL    HW1  938   1.505   0.328   3.129
   13SOL    HW2  939   1.399   0.216   3.184
   14SOL     OW  940   3.228   0.104   2.897
   14SOL    HW1  941   3.299   0.097   2.826
   14SOL    HW2  942   3.151   0.044   2.873
   15SOL     OW  943   2.616   6.532   6.539
   15SOL    HW1  944   2.539   6.547   6.477
   15SOL    HW2  945   2.701   6.556   6.492
   16SOL     OW  946   6.437   1.757   6.811
   16SOL    HW1  947   6.524   1.744   6.763
   16SOL    HW2  948   6.454   1.759   6.910
   17SOL     OW  949   4.496   6.083   3.278
   17SOL    HW1  950   4.528   6.018   3.347
   17SOL    HW2  951   4.433   6.148   3.320
   18SOL     OW  952   1.791   1.380   0.399
   18SOL    HW1  953   1.850   1.459   0.379
   18SOL    HW2  954   1.837   1.297   0.370
   19SOL     OW  955   0.859   6.825   1.206
   19SOL    HW1  956   0.856   6.752   1.137
   19SOL    HW2  957   0.950   6.865   1.208
   20SOL     OW  958   3.560   0.739   4.146
   20SOL    HW1  959   3.471   0.695   4.129
   20SOL    HW2  960   3.629   0.697   4.088
   21SOL     OW  961   2.799   2.905   1.617
   21SOL    HW1  962   2.830   2.825   1.668
   21SOL    HW2  963   2.753   2.876   1.533
   22SOL     OW  964   0.946   1.155   5.370
   22SOL    HW1  965   0.880   1.193   5.306
   22SOL    HW2  966   0.900   1.088   5.430
   23SOL     OW  967   2.765   5.890   4.455
   23SOL    HW1  968   2.799   5.796   4.450
   23SOL    HW2  969   2.808   5.937   4.532
   24SOL     OW  970   4.117   1.481   4.986
   24SOL    HW1  971   4.072   1.415   5.046
   24SOL    HW2  972   4.086   1.573   5.009
   25SOL     OW  973   2.407   5.061   1.122
   25SOL    HW1  974   2.449   4.996   1.186
   25SOL    HW2  975   2.365   5.011   1.046
   26SOL     OW  976   5.843   1.102   2.805
   26SOL    HW1  977   5.897   1.174   2.762
   26SOL    HW2  978   5.753   1.098   2.763
   27SOL     OW  979   6.107   6.993   2.270
   27SOL    HW1  980   6.148   0.055   2.318
   27SOL    HW2  981   6.171   6.960   2.200
   28SOL     OW  982   3.119   0.180   0.660
   28SOL    HW1  983   3.211   0.150   0.684
   28SOL    HW2  984   3.060   0.100   0.647
   29SOL     OW  985   4.073   2.770   1.676
   29SOL    HW1  986   4.149   2.759   1.612
   29SOL    HW2  987   3.986   2.753   1.629
   30SOL     OW  988   3.953   1.432   5.316
   30SOL    HW1  989   3.890   1.509   5.305
   30SOL    HW2  990   3.904   1.346   5.308
   31SOL     OW  991   0.513   1.141   5.119
   31SOL    HW1  992   0.470   1.165   5.032
   31SOL    HW2  993   0.443   1.115   5.185
   32SOL     OW  994   6.953   2.030   1.816
   32SOL    HW1  995   6.951   2.071   1.907
   32SOL    HW2  996   6.925   1.934   1.822
   33SOL     OW  997   1.739   2.210   5.785
   33SOL    HW1  998   1.837   2.230   5.778
   33SOL    HW2  999   1.725   2.133   5.848
   34SOL     OW 1000   0.649   0.376   4.750
   34SOL    HW1 1001   0.550   0.369   4.751
   34SOL    HW2 1002   0.679   0.434   4.826
   35SOL     OW 1003   3.851   2.205   6.351
   35SOL    HW1 1004   3.934   2.255   6.325
   35SOL    HW2 1005   3.860   2.174   6.446
   36SOL     OW 1006   1.563   1.861   5.745
   36SOL    HW1 1007   1.529   1.770   5.719
   36SOL    HW2 1008   1.540   1.926   5.672
   37SOL     OW 1009   2.355   6.427   0.808
   37SOL    HW1 1010   2.313   6.395   0.723
   37SOL    HW2 1011   2.444   6.383   0.820
   38SOL     OW 1012   6.978   6.382   1.584
   38SOL    HW1 1013   6.950   6.360   1.490
   38SOL    HW2 1014   0.041   6.444   1.581
   39SOL     OW 1015   6.923   2.584   6.043
   39SOL    HW1 1016   6.958   2.620   6.130
   39SOL    HW2 1017   6.960   2.637   5.967
   40SOL     OW 1018   6.764   1.032   1.302
   40SOL    HW1 1019   6.749   0.949   1.356
   40SOL    HW2 1020   6.772   1.110   1.364
   41SOL     OW 1021   1.165   1.120   6.143
   41SOL    HW1 1022   1.224   1.147   6.067
   41SOL    HW2 1023   1.195   1.032   6.180
   42SOL     OW 1024   4.007   0.035   0.764
   42SOL    HW1 1025   4.034   0.042   0.668
   42SOL    HW2 1026   4.059   6.978   0.807
   43SOL     OW 1027   4.722   5.812   5.189
   43SOL    HW1 1028   4.728   5.720   5.229
   43SOL    HW2 1029   4.683   5.875   5.256
   44SOL     OW 1030   0.379   3.208   6.724
   44SOL    HW1 1031   0.320   3.175   6.797
   44SOL    HW2 1032   0.327   3.270   6.665
   45SOL     OW 1033   2.857   0.332   1.385
   45SOL    HW1 1034   2.885   0.419   1.426
   45SOL    HW2 1035   2.833   0.268   1.458
   46SOL     OW 1036   1.258   5.074   4.174
   46SOL    HW1 1037   1.281   4.979   4.196
   46SOL    HW2 1038   1.240   5.124   4.258
   47SOL     OW 1039   5.255   4.572   2.834
   47SOL    HW1 1040   5.158   4.552   2.822
   47SOL    HW2 1041   5.278   4.568   2.931
   48SOL     OW 1042   0.583   1.117   5.448
   48SOL    HW1 1043   0.567   1.215   5.450
   48SOL    HW2 1044   0.512   1.072   5.394
   49SOL     OW 1045   5.541   3.086   0.542
   49SOL    HW1 1046   5.597   3.118   0.466
   49SOL    HW2 1047   5.594   3.092   0.627
   50SOL     OW 1048   0.070   3.402   4.745
   50SOL    HW1 1049   0.108   3.413   4.653
   50SOL    HW2 1050   0.063   3.492   4.789
   51SOL     OW 1051   2.843   5.678   2.662
   51SOL    HW1 1052   2.909   5.753   2.652
   51SOL    HW2 1053   2.756   5.705   2.619
   52SOL     OW 1054   0.873   1.993   1.714
   52SOL    HW1 1055   0.882   1.909   1.660
   52SOL    HW2 1056   0.777   2.009   1.736
   53SOL     OW 1057   4.861   6.352   4.028
   53SOL    HW1 1058   4.937   6.315   4.081
   53SOL    HW2 1059   4.843   6.292   3.950
   54SOL     OW 1060   4.947   5.244   5.852
   54SOL    HW1 1061   4.917   5.289   5.936
   54SOL    HW2 1062   5.035   5.198   5.869
   55SOL     OW 1063   3.595   1.998   0.823
   55SOL    HW1 1064   3.647   2.036   0.899
   55SOL    HW2 1065   3.640   1.916   0.789
   56SOL     OW 1066   0.565   6.714   1.341
   56SOL    HW1 1067   0.573   6.616   1.360
   56SOL    HW2 1068   0.645   6.761   1.378
   57SOL     OW 1069   5.561   1.315   1.344
   57SOL    HW1 1070   5.587   1.257   1.267
   57SOL    HW2 1071   5.482   1.372   1.318
   58SOL     OW 1072   6.940   0.199   6.607
   58SOL    HW1 1073   6.978   0.107   6.600
   58SOL    HW2 1074   6.841   0.194   6.617
   59SOL     OW 1075   0.949   0.173   4.800
   59SOL    HW1 1076   0.917   0.217   4.716
   59SOL    HW2 1077   1.043   0.141   4.787
   60SOL     OW 1078   4.901   6.982   5.086
   60SOL    HW1 1079   4.883   6.951   4.993
   60SOL    HW2 1080   4.855   6.922   5.151
   61SOL     OW 1081   4.269   0.286   4.932
   61SOL    HW1 1082   4.275   0.271   4.834
   61SOL    HW2 1083   4.174   0.278   4.961
   62SOL     OW 1084   3.048   1.108   4.976
   62SOL    HW1 1085   2.976   1.062   4.923
   62SOL    HW2 1086   3.079   1.188   4.925
   63SOL     OW 1087   0.039   3.432   3.547
   63SOL    HW1 1088   6.973   3.404   3.498
   63SOL    HW2 1089   0.109   3.461   3.482
   64SOL     OW 1090   0.361   2.367   5.290
   64SOL    HW1 1091   0.396   2.444   5.344
   64SOL    HW2 1092   0.354   2.286   5.349
   65SOL     OW 1093   0.510   3.470   5.598
   65SOL    HW1 1094   0.599   3.466   5.554
   65SOL    HW2 1095   0.497   3.559   5.641
   66SOL     OW 1096   2.767   0.845   0.840
   66SOL    HW1 1097   2.674   0.814   0.820
   66SOL    HW2 1098   2.804   0.792   0.916
   67SOL     OW 1099   4.573   5.525   4.132
   67SOL    HW1 1100   4.511   5.503   4.208
   67SOL    HW2 1101   4.662   5.481   4.149
   68SOL     OW 1102   5.514   2.709   6.616
   68SOL    HW1 1103   5.553   2.792   6.653
   68SOL    HW2 1104   5.504   2.641   6.689
   69SOL     OW 1105   2.215   2.891   5.713
   69SOL    HW1 1106   2.117   2.889   5.690
   69SOL    HW2 1107   2.253   2.799   5.705
   70SOL     OW 1108   6.285   6.197   2.265
   70SOL    HW1 1109   6.278   6.127   2.336
   70SOL    HW2 1110   6.334   6.159   2.186
   71SOL     OW 1111   2.137   3.477   2.629
   71SOL    HW1 1112   2.116   3.575   2.633
   71SOL    HW2 1113   2.171   3.447   2.719
   72SOL     OW 1114   3.399   5.636   3.718
   72SOL    HW1 1115   3.321   5.677   3.766
   72SOL    HW2 1116   3.424   5.550   3.763
   73SOL     OW 1117   3.598   2.399   6.423
   73SOL    HW1 1118   3.576   2.302   6.413
   73SOL    HW2 1119   3.615   2.439   6.333
   74SOL     OW 1120   5.261   6.531   6.267
   74SOL    HW1 1121   5.188   6.490   6.212
   74SOL    HW2 1122   5.302   6.460   6.324
   75SOL     OW 1123   3.434   4.845   5.453
   75SOL    HW1 1124   3.514   4.899   5.481
   75SOL    HW2 1125   3.391   4.888   5.373
   76SOL     OW 1126   2.715   2.941   1.171
   76SOL    HW1 1127   2.789   2.903   1.226
   76SOL    HW2 1128   2.693   2.878   1.096
   77SOL     OW 1129   5.288   4.730   6.330
   77SOL    HW1 1130   5.370   4.784   6.350
   77SOL    HW2 1131   5.280   4.655   6.396
   78SOL     OW 1132   6.673   6.091   6.420
   78SOL    HW1 1133   6.731   6.163   6.380
   78SOL    HW2 1134   6.597   6.134   6.469
   79SOL     OW 1135   3.329   6.537   0.253
   79SOL    HW1 1136   3.359   6.449   0.217
   79SOL    HW2 1137   3.260   6.522   0.324
   80SOL     OW 1138   0.147   1.042   4.095
   80SOL    HW1 1139   0.213   1.107   4.132
   80SOL    HW2 1140   0.171   1.021   4.000
   81SOL     OW 1141   1.712   0.126   4.162
   81SOL    HW1 1142   1.739   0.146   4.068
   81SOL    HW2 1143   1.784   0.076   4.209
   82SOL     OW 1144   6.696   4.358   5.869
   82SOL    HW1 1145   6.732   4.399   5.785
   82SOL    HW2 1146   6.768   4.357   5.939
   83SOL     OW 1147   6.635   6.954   6.238
   83SOL    HW1 1148   6.655   6.857   6.221
   83SOL    HW2 1149   6.590   6.963   6.327
   84SOL     OW 1150   6.326   3.446   1.587
   84SOL    HW1 1151   6.266   3.369   1.570
   84SOL    HW2 1152   6.412   3.414   1.628
   85SOL     OW 1153   1.050   1.399   5.439
   85SOL    HW1 1154   1.084   1.440   5.355
   85SOL    HW2 1155   1.035   1.301   5.425
   86SOL     OW 1156   2.273   1.046   4.790
   86SOL    HW1 1157   2.259   0.994   4.706
   86SOL    HW2 1158   2.194   1.106   4.806
   87SOL     OW 1159   4.601   0.026   1.559
   87SOL    HW1 1160   4.629   0.061   1.648
   87SOL    HW2 1161   4.503   0.043   1.545
   88SOL     OW 1162   5.753   0.653   0.500
   88SOL    HW1 1163   5.778   0.680   0.592
   88SOL    HW2 1164   5.654   0.634   0.496
   89SOL     OW 1165   2.423   1.617   5.671
   89SOL    HW1 1166   2.427   1.594   5.574
   89SOL    HW2 1167   2.330   1.643   5.695
   90SOL     OW 1168   6.737   5.806   3.456
   90SOL    HW1 1169   6.646   5.780   3.488
   90SOL    HW2 1170   6.738   5.904   3.434
   91SOL     OW 1171   4.274   4.973   4.806
   91SOL    HW1 1172   4.327   4.891   4.828
   91SOL    HW2 1173   4.262   4.979   4.707
   92SOL     OW 1174   3.297   6.463   1.448
   92SOL    HW1 1175   3.256   6.507   1.527
   92SOL    HW2 1176   3.228   6.410   1.400
   93SOL     OW 1177   3.516   4.674   5.794
   93SOL    HW1 1178   3.563   4.608   5.735
   93SOL    HW2 1179   3.418   4.655   5.795
   94SOL     OW 1180   2.577   6.760   1.758
   94SOL    HW1 1181   2.563   6.740   1.855
   94SOL    HW2 1182   2.613   6.679   1.712
   95SOL     OW 1183   6.633   0.199   5.131
   95SOL    HW1 1184   6.715   0.247   5.161
   95SOL    HW2 1185   6.656   0.137   5.056
   96SOL     OW 1186   1.611   6.879   5.155
   96SOL    HW1 1187   1.594   6.885   5.056
   96SOL    HW2 1188   1.706   6.852   5.170
   97SOL     OW 1189   6.082   2.916   4.844
   97SOL    HW1 1190   6.081   2.835   4.902
   97SOL    HW2 1191   6.176   2.932   4.811
   98SOL     OW 1192   5.632   2.031   5.995
   98SOL    HW1 1193   5.646   1.934   5.974
   98SOL    HW2 1194   5.598   2.041   6.088
   99SOL     OW 1195   4.311   2.345   0.957
   99SOL    HW1 1196   4.348   2.420   0.903
   99SOL    HW2 1197   4.228   2.310   0.914
  100SOL     OW 1198   6.356   4.938   6.870
  100SOL    HW1 1199   6.450   4.971   6.866
  100SOL    HW2 1200   6.346   4.876   6.948
  101SOL     OW 1201   0.764   6.516   4.173
  101SOL    HW1 1202   0.700   6.540   4.246
  101SOL    HW2 1203   0.804   6.426   4.192
  102SOL     OW 1204   4.447   0.373   3.117
  102SOL    HW1 1205   4.492   0.286   3.138
  102SOL    HW2 1206   4.390   0.401   3.194
  103SOL     OW 1207   3.394   1.809   1.753
  103SOL    HW1 1208   3.334   1.858   1.690
  103SOL    HW2 1209   3.338   1.769   1.827
  104SOL     OW 1210   6.945   6.084   2.194
  104SOL    HW1 1211   6.959   6.052   2.100
  104SOL    HW2 1212   0.017   6.096   2.239
  105SOL     OW 1213   5.346   1.471   5.871
  105SOL    HW1 1214   5.439   1.487   5.905
  105SOL    HW2 1215   5.326   1.373   5.874
  106SOL     OW 1216   3.364   6.488   0.855
  106SOL    HW1 1217   3.378   6.527   0.946
  106SOL    HW2 1218   3.445   6.504   0.799
  107SOL     OW 1219   2.425   3.105   0.988
  107SOL    HW1 1220   2.440   3.170   1.062
  107SOL    HW2 1221   2.446   3.012   1.020
  108SOL     OW 1222   4.675   4.248   4.937
  108SOL    HW1 1223   4.734   4.167   4.946
  108SOL    HW2 1224   4.611   4.252   5.013
  109SOL     OW 1225   6.221   0.623   1.543
  109SOL    HW1 1226   6.298   0.572   1.503
  109SOL    HW2 1227   6.155   0.559   1.582
  110SOL     OW 1228   3.221   5.971   4.701
  110SOL    HW1 1229   3.226   6.037   4.626
  110SOL    HW2 1230   3.285   5.997   4.773
  111SOL     OW 1231   3.281   1.180   3.427
  111SOL    HW1 1232   3.359   1.214   3.375
  111SOL    HW2 1233   3.311   1.151   3.518
  112SOL     OW 1234   6.646   1.125   6.426
  112SOL    HW1 1235   6.669   1.214   6.466
  112SOL    HW2 1236   6.582   1.077   6.486
  113SOL     OW 1237   6.901   6.478   3.746
  113SOL    HW1 1238   6.911   6.548   3.676
  113SOL    HW2 1239   6.810   6.484   3.787
  114SOL     OW 1240   1.374   6.764   0.111
  114SOL    HW1 1241   1.343   6.809   0.027
  114SOL    HW2 1242   1.312   6.689   0.134
  115SOL     OW 1243   5.638   0.985   5.622
  115SOL    HW1 1244   5.682   0.901   5.592
  115SOL    HW2 1245   5.541   0.984   5.595
  116SOL     OW 1246   6.019   4.352   2.552
  116SOL    HW1 1247   5.936   4.323   2.600
  116SOL    HW2 1248   5.999   4.433   2.497
  117SOL     OW 1249   1.569   6.904   6.241
  117SOL    HW1 1250   1.567   6.809   6.209
  117SOL    HW2 1251   1.656   6.921   6.287
  118SOL     OW 1252   2.176   0.592   2.788
  118SOL    HW1 1253   2.253   0.636   2.834
  118SOL    HW2 1254   2.127   0.533   2.853
  119SOL     OW 1255   6.813   2.426   6.363
  119SOL    HW1 1256   6.725   2.427   6.316
  119SOL    HW2 1257   6.822   2.342   6.417
  120SOL     OW 1258   5.586   6.559   1.538
  120SOL    HW1 1259   5.685   6.567   1.550
  120SOL    HW2 1260   5.541   6.574   1.626
  121SOL     OW 1261   2.873   3.075   5.778
  121SOL    HW1 1262   2.856   3.082   5.680
  121SOL    HW2 1263   2.791   3.103   5.828
  122SOL     OW 1264   0.300   3.225   4.464
  122SOL    HW1 1265   0.319   3.290   4.537
  122SOL    HW2 1266   0.314   3.132   4.497
  123SOL     OW 1267   0.602   1.973   1.637
  123SOL    HW1 1268   0.574   2.014   1.550
  123SOL    HW2 1269   0.528   1.915   1.671
  124SOL     OW 1270   5.017   3.533   0.934
  124SOL    HW1 1271   5.001   3.601   0.862
  124SOL    HW2 1272   5.115   3.524   0.949
  125SOL     OW 1273   2.284   3.408   1.614
  125SOL    HW1 1274   2.351   3.398   1.688
  125SOL    HW2 1275   2.211   3.469   1.644
  126SOL     OW 1276   3.820   4.609   0.747
  126SOL    HW1 1277   3.797   4.696   0.791
  126SOL    HW2 1278   3.801   4.615   0.649
  127SOL     OW 1279   1.148   5.057   5.835
  127SOL    HW1 1280   1.187   5.129   5.778
  127SOL    HW2 1281   1.088   5.000   5.779
  128SOL     OW 1282   4.427   2.806   1.249
  128SOL    HW1 1283   4.452   2.899   1.222
  128SOL    HW2 1284   4.475   2.781   1.333
  129SOL     OW 1285   2.311   4.072   6.421
  129SOL    HW1 1286   2.382   4.031   6.363
  129SOL    HW2 1287   2.324   4.171   6.424
  130SOL     OW 1288   1.848   2.762   4.680
  130SOL    HW1 1289   1.870   2.665   4.678
  130SOL    HW2 1290   1.913   2.813   4.624
  131SOL     OW 1291   5.453   1.772   2.412
  131SOL    HW1 1292   5.533   1.815   2.453
  131SOL    HW2 1293   5.450   1.793   2.314
  132SOL     OW 1294   0.474   2.409   2.280
  132SOL    HW1 1295   0.551   2.356   2.315
  132SOL    HW2 1296   0.432   2.461   2.354
  133SOL     OW 1297   0.082   5.447   2.573
  133SOL    HW1 1298   0.038   5.435   2.662
  133SOL    HW2 1299   0.089   5.545   2.552
  134SOL     OW 1300   1.070   3.553   2.377
  134SOL    HW1 1301   1.164   3.529   2.353
  134SOL    HW2 1302   1.007   3.482   2.343
  135SOL     OW 1303   4.007   1.181   4.031
  135SOL    HW1 1304   4.040   1.260   3.978
  135SOL    HW2 1305   4.044   1.097   3.992
  136SOL     OW 1306   4.726   4.898   5.451
  136SOL    HW1 1307   4.826   4.890   5.447
  136SOL    HW2 1308   4.698   4.986   5.413
  137SOL     OW 1309   3.314   0.794   5.632
  137SOL    HW1 1310   3.227   0.815   5.587
  137SOL    HW2 1311   3.322   0.849   5.715
  138SOL     OW 1312   6.016   4.761   5.121
  138SOL    HW1 1313   5.931   4.814   5.121
  138SOL    HW2 1314   5.998   4.669   5.087
  139SOL     OW 1315   3.008   6.104   5.607
  139SOL    HW1 1316   3.019   6.016   5.562
  139SOL    HW2 1317   3.090   6.124   5.661
  140SOL     OW 1318   6.439   4.337   4.453
  140SOL    HW1 1319   6.458   4.387   4.538
  140SOL    HW2 1320   6.354   4.286   4.462
  141SOL     OW 1321   1.248   2.036   2.138
  141SOL    HW1 1322   1.338   2.055   2.098
  141SOL    HW2 1323   1.184   2.010   2.066
  142SOL     OW 1324   1.622   5.451   1.457
  142SOL    HW1 1325   1.616   5.376   1.391
  142SOL    HW2 1326   1.534   5.499   1.460
  143SOL     OW 1327   5.235   4.344   2.126
  143SOL    HW1 1328   5.286   4.264   2.096
  143SOL    HW2 1329   5.149   4.315   2.168
  144SOL     OW 1330   2.367   6.075   1.044
  144SOL    HW1 1331   2.349   6.065   0.946
  144SOL    HW2 1332   2.465   6.065   1.061
  145SOL     OW 1333   6.632   4.890   0.976
  145SOL    HW1 1334   6.567   4.965   0.961
  145SOL    HW2 1335   6.716   4.925   1.017
  146SOL     OW 1336   6.408   5.052   0.866
  146SOL    HW1 1337   6.322   5.018   0.904
  146SOL    HW2 1338   6.412   5.033   0.768
  147SOL     OW 1339   5.393   2.708   0.650
  147SOL    HW1 1340   5.303   2.742   0.621
  147SOL    HW2 1341   5.456   2.785   0.661
  148SOL     OW 1342   1.211   5.341   5.441
  148SOL    HW1 1343   1.161   5.424   5.414
  148SOL    HW2 1344   1.181   5.264   5.384
  149SOL     OW 1345   3.040   1.277   5.996
  149SOL    HW1 1346   2.952   1.284   5.950
  149SOL    HW2 1347   3.111   1.256   5.928
  150SOL     OW 1348   0.333   5.746   5.886
  150SOL    HW1 1349   0.306   5.706   5.799
  150SOL    HW2 1350   0.260   5.806   5.919
  151SOL     OW 1351   3.751   0.741   1.818
  151SOL    HW1 1352   3.844   0.707   1.831
  151SOL    HW2 1353   3.720   0.788   1.901
  152SOL     OW 1354   3.390   1.278   5.019
  152SOL    HW1 1355   3.294   1.262   4.995
  152SOL    HW2 1356   3.404   1.376   5.036
  153SOL     OW 1357   1.458   0.482   2.794
  153SOL    HW1 1358   1.437   0.384   2.799
  153SOL    HW2 1359   1.427   0.527   2.878
  154SOL     OW 1360   6.317   2.082   3.084
  154SOL    HW1 1361   6.259   2.010   3.045
  154SOL    HW2 1362   6.386   2.041   3.143
  155SOL     OW 1363   0.478   1.512   2.722
  155SOL    HW1 1364   0.491   1.420   2.761
  155SOL    HW2 1365   0.381   1.536   2.725
  156SOL     OW 1366   0.465   2.488   1.599
  156SOL    HW1 1367   0.513   2.475   1.513
  156SOL    HW2 1368   0.431   2.400   1.633
  157SOL     OW 1369   6.068   3.034   2.642
  157SOL    HW1 1370   6.141   3.049   2.575
  157SOL    HW2 1371   5.994   3.098   2.625
  158SOL     OW 1372   1.393   1.991   4.171
  158SOL    HW1 1373   1.440   2.034   4.247
  158SOL    HW2 1374   1.427   2.030   4.085
  159SOL     OW 1375   4.902   3.490   2.176
  159SOL    HW1 1376   4.898   3.390   2.175
  159SOL    HW2 1377   4.950   3.523   2.095
  160SOL     OW 1378   6.078   4.420   5.952
  160SOL    HW1 1379   6.153   4.455   5.896
  160SOL    HW2 1380   6.092   4.449   6.047
  161SOL     OW 1381   3.265   4.720   5.643
  161SOL    HW1 1382   3.299   4.803   5.597
  161SOL    HW2 1383   3.248   4.649   5.574
  162SOL     OW 1384   4.718   6.200   2.257
  162SOL    HW1 1385   4.806   6.151   2.258
  162SOL    HW2 1386   4.653   6.152   2.316
  163SOL     OW 1387   5.527   0.653   1.939
  163SOL    HW1 1388   5.564   0.724   1.879
  163SOL    HW2 1389   5.481   0.697   2.017
  164SOL     OW 1390   6.528   3.170   1.361
  164SOL    HW1 1391   6.519   3.258   1.407
  164SOL    HW2 1392   6.558   3.184   1.267
  165SOL     OW 1393   5.991   3.988   6.354
  165SOL    HW1 1394   5.991   4.071   6.298
  165SOL    HW2 1395   5.899   3.948   6.353
  166SOL     OW 1396   1.411   0.458   1.051
  166SOL    HW1 1397   1.446   0.421   1.137
  166SOL    HW2 1398   1.349   0.534   1.070
  167SOL     OW 1399   6.776   3.146   0.567
  167SOL    HW1 1400   6.781   3.137   0.667
  167SOL    HW2 1401   6.680   3.147   0.538
  168SOL     OW 1402   2.673   5.504   1.667
  168SOL    HW1 1403   2.733   5.583   1.678
  168SOL    HW2 1404   2.702   5.450   1.588
  169SOL     OW 1405   1.458   0.164   1.554
  169SOL    HW1 1406   1.418   0.080   1.518
  169SOL    HW2 1407   1.386   0.231   1.569
  170SOL     OW 1408   0.492   1.261   2.843
  170SOL    HW1 1409   0.418   1.217   2.895
  170SOL    HW2 1410   0.580   1.224   2.872
  171SOL     OW 1411   3.380   4.053   0.744
  171SOL    HW1 1412   3.327   4.040   0.661
  171SOL    HW2 1413   3.476   4.032   0.727
  172SOL     OW 1414   6.930   3.145   1.358
  172SOL    HW1 1415   6.917   3.197   1.273
  172SOL    HW2 1416   0.010   3.120   1.367
  173SOL     OW 1417   0.324   6.431   5.561
  173SOL    HW1 1418   0.246   6.402   5.617
  173SOL    HW2 1419   0.408   6.394   5.601
  174SOL     OW 1420   2.602   5.757   3.281
  174SOL    HW1 1421   2.695   5.735   3.309
  174SOL    HW2 1422   2.598   5.764   3.181
  175SOL     OW 1423   0.608   5.374   2.895
  175SOL    HW1 1424   0.615   5.359   2.993
  175SOL    HW2 1425   0.577   5.290   2.850
  176SOL     OW 1426   2.904   5.220   0.488
  176SOL    HW1 1427   2.899   5.199   0.390
  176SOL    HW2 1428   2.982   5.279   0.506
  177SOL     OW 1429   4.770   2.347   3.345
  177SOL    HW1 1430   4.864   2.377   3.329
  177SOL    HW2 1431   4.762   2.250   3.323
  178SOL     OW 1432   5.364   4.360   5.535
  178SOL    HW1 1433   5.413   4.322   5.614
  178SOL    HW2 1434   5.266   4.359   5.554
  179SOL     OW 1435   3.118   0.003   1.190
  179SOL    HW1 1436   3.027   0.010   1.149
  179SOL    HW2 1437   3.126   0.071   1.263
  180SOL     OW 1438   1.282   2.488   6.928
  180SOL    HW1 1439   1.216   2.413   6.932
  180SOL    HW2 1440   1.349   2.471   6.856
  181SOL     OW 1441   3.045   3.114   4.720
  181SOL    HW1 1442   3.054   3.197   4.666
  181SOL    HW2 1443   2.985   3.132   4.799
  182SOL     OW 1444   4.957   2.291   4.962
  182SOL    HW1 1445   4.942   2.280   5.061
  182SOL    HW2 1446   4.950   2.387   4.938
  183SOL     OW 1447   5.842   1.822   2.223
  183SOL    HW1 1448   5.850   1.722   2.222
  183SOL    HW2 1449   5.803   1.853   2.136
  184SOL     OW 1450   0.349   4.248   3.010
  184SOL    HW1 1451   0.345   4.348   3.007
  184SOL    HW2 1452   0.257   4.212   3.029
  185SOL     OW 1453   2.626   3.149   6.455
  185SOL    HW1 1454   2.680   3.203   6.519
  185SOL    HW2 1455   2.532   3.140   6.491
  186SOL     OW 1456   6.039   6.282   3.767
  186SOL    HW1 1457   6.035   6.321   3.675
  186SOL    HW2 1458   5.981   6.334   3.828
  187SOL     OW 1459   5.812   0.526   4.106
  187SOL    HW1 1460   5.908   0.502   4.119
  187SOL    HW2 1461   5.763   0.446   4.071
  188SOL     OW 1462   6.137   2.116   4.547
  188SOL    HW1 1463   6.160   2.213   4.550
  188SOL    HW2 1464   6.086   2.091   4.629
  189SOL     OW 1465   1.555   4.268   2.896
  189SOL    HW1 1466   1.569   4.169   2.897
  189SOL    HW2 1467   1.543   4.300   2.802
  190SOL     OW 1468   3.050   1.403   6.652
  190SOL    HW1 1469   3.097   1.329   6.700
  190SOL    HW2 1470   2.977   1.365   6.596
  191SOL     OW 1471   4.501   6.155   6.015
  191SOL    HW1 1472   4.516   6.249   6.045
  191SOL    HW2 1473   4.404   6.142   5.992
  192SOL     OW 1474   6.752   0.539   0.643
  192SOL    HW1 1475   6.712   0.459   0.600
  192SOL    HW2 1476   6.689   0.616   0.636
  193SOL     OW 1477   5.726   4.392   6.923
  193SOL    HW1 1478   5.774   4.471   6.885
  193SOL    HW2 1479   5.777   4.355   7.001
  194SOL     OW 1480   4.337   6.715   4.393
  194SOL    HW1 1481   4.301   6.774   4.465
  194SOL    HW2 1482   4.413   6.760   4.347
  195SOL     OW 1483   6.591   5.385   3.582
  195SOL    HW1 1484   6.537   5.324   3.524
  195SOL    HW2 1485   6.531   5.428   3.650
  196SOL     OW 1486   1.092   1.100   0.875
  196SOL    HW1 1487   1.134   1.056   0.796
  196SOL    HW2 1488   1.164   1.129   0.938
  197SOL     OW 1489   1.994   0.880   0.758
  197SOL    HW1 1490   2.038   0.954   0.810
  197SOL    HW2 1491   2.064   0.823   0.716
  198SOL     OW 1492   2.594   1.255   4.296
  198SOL    HW1 1493   2.586   1.355   4.285
  198SOL    HW2 1494   2.552   1.210   4.219
  199SOL     OW 1495   1.089   1.791   4.811
  199SOL    HW1 1496   1.181   1.753   4.814
  199SOL    HW2 1497   1.042   1.758   4.729
  200SOL     OW 1498   6.224   2.223   6.883
  200SOL    HW1 1499   6.210   2.242   6.980
  200SOL    HW2 1500   6.198   2.304   6.830
  201SOL     OW 1501   0.278   1.245   6.651
  201SOL    HW1 1502   0.330   1.330   6.660
  201SOL    HW2 1503   0.337   1.174   6.613
  202SOL     OW 1504   5.067   0.283   0.510
  202SOL    HW1 1505   5.123   0.230   0.574
  202SOL    HW2 1506   4.975   0.294   0.548
  203SOL     OW 1507   6.397   2.957   6.137
  203SOL    HW1 1508   6.406   2.877   6.195
  203SOL    HW2 1509   6.472   2.959   6.071
  204SOL     OW 1510   6.284   0.682   4.987
  204SOL    HW1 1511   6.289   0.586   5.012
  204SOL    HW2 1512   6.375   0.722   4.985
  205SOL     OW 1513   1.924   4.141   2.491
  205SOL    HW1 1514   1.862   4.085   2.546
  205SOL    HW2 1515   2.001   4.086   2.461
  206SOL     OW 1516   0.212   3.591   0.645
  206SOL    HW1 1517   0.130   3.551   0.686
  206SOL    HW2 1518   0.191   3.680   0.606
  207SOL     OW 1519   6.161   2.615   4.811
  207SOL    HW1 1520   6.164   2.581   4.905
  207SOL    HW2 1521   6.067   2.619   4.779
  208SOL     OW 1522   0.917   3.467   5.242
  208SOL    HW1 1523   0.956   3.376   5.232
  208SOL    HW2 1524   0.991   3.534   5.245
  209SOL     OW 1525   6.403   4.683   3.051
  209SOL    HW1 1526   6.371   4.589   3.052
  209SOL    HW2 1527   6.438   4.705   2.960
  210SOL     OW 1528   4.599   3.246   0.379
  210SOL    HW1 1529   4.534   3.320   0.363
  210SOL    HW2 1530   4.675   3.281   0.434
  211SOL     OW 1531   1.430   1.372   2.004
  211SOL    HW1 1532   1.393   1.379   2.097
  211SOL    HW2 1533   1.528   1.395   2.006
  212SOL     OW 1534   1.859   3.812   1.731
  212SOL    HW1 1535   1.835   3.812   1.634
  212SOL    HW2 1536   1.775   3.816   1.786
  213SOL     OW 1537   1.156   4.825   0.919
  213SOL    HW1 1538   1.115   4.813   0.828
  213SOL    HW2 1539   1.208   4.910   0.921
  214SOL     OW 1540   5.556   0.128   2.214
  214SOL    HW1 1541   5.655   0.113   2.215
  214SOL    HW2 1542   5.537   0.226   2.215
  215SOL     OW 1543   2.065   5.121   3.033
  215SOL    HW1 1544   2.150   5.171   3.049
  215SOL    HW2 1545   2.079   5.056   2.958
  216SOL     OW 1546   1.400   6.203   3.223
  216SOL    HW1 1547   1.418   6.266   3.298
  216SOL    HW2 1548   1.436   6.242   3.138
  217SOL     OW 1549   1.083   4.811   5.610
  217SOL    HW1 1550   1.106   4.854   5.522
  217SOL    HW2 1551   1.098   4.712   5.604
  218SOL     OW 1552   2.686   1.947   5.243
  218SOL    HW1 1553   2.599   1.995   5.235
  218SOL    HW2 1554   2.691   1.874   5.175
  219SOL     OW 1555   4.401   2.374   1.477
  219SOL    HW1 1556   4.337   2.379   1.400
  219SOL    HW2 1557   4.353   2.338   1.557
  220SOL     OW 1558   3.372   6.556   1.138
  220SOL    HW1 1559   3.326   6.611   1.207
  220SOL    HW2 1560   3.356   6.459   1.157
  221SOL     OW 1561   5.121   4.834   1.901
  221SOL    HW1 1562   5.050   4.831   1.971
  221SOL    HW2 1563   5.093   4.779   1.822
  222SOL     OW 1564   1.766   4.538   6.481
  222SOL    HW1 1565   1.707   4.615   6.455
  222SOL    HW2 1566   1.767   4.529   6.580
  223SOL     OW 1567   6.420   2.931   5.089
  223SOL    HW1 1568   6.416   3.011   5.029
  223SOL    HW2 1569   6.516   2.912   5.113
  224SOL     OW 1570   3.378   2.207   5.720
  224SOL    HW1 1571   3.295   2.238   5.768
  224SOL    HW2 1572   3.438   2.159   5.784
  225SOL     OW 1573   4.063   6.596   6.441
  225SOL    HW1 1574   4.147   6.619   6.490
  225SOL    HW2 1575   4.080   6.598   6.342
  226SOL     OW 1576   1.553   2.833   6.819
  226SOL    HW1 1577   1.564   2.830   6.720
  226SOL    HW2 1578   1.604   2.912   6.856
  227SOL     OW 1579   1.566   3.785   1.178
  227SOL    HW1 1580   1.658   3.748   1.185
  227SOL    HW2 1581   1.503   3.731   1.233
  228SOL     OW 1582   0.765   0.552   1.947
  228SOL    HW1 1583   0.834   0.481   1.935
  228SOL    HW2 1584   0.745   0.562   2.045
  229SOL     OW 1585   3.700   6.978   6.294
  229SOL    HW1 1586   3.733   6.884   6.300
  229SOL    HW2 1587   3.626   6.983   6.227
  230SOL     OW 1588   5.493   5.411   5.530
  230SOL    HW1 1589   5.482   5.337   5.596
  230SOL    HW2 1590   5.570   5.390   5.469
  231SOL     OW 1591   5.439   1.640   6.736
  231SOL    HW1 1592   5.535   1.613   6.726
  231SOL    HW2 1593   5.385   1.560   6.762
  232SOL     OW 1594   1.049   1.787   5.966
  232SOL    HW1 1595   1.036   1.751   5.874
  232SOL    HW2 1596   1.126   1.850   5.967
  233SOL     OW 1597   3.307   1.720   2.864
  233SOL    HW1 1598   3.274   1.633   2.900
  233SOL    HW2 1599   3.397   1.741   2.903
  234SOL     OW 1600   5.289   0.758   0.883
  234SOL    HW1 1601   5.235   0.756   0.799
  234SOL    HW2 1602   5.271   0.676   0.936
  235SOL     OW 1603   4.822   3.103   2.863
  235SOL    HW1 1604   4.843   3.053   2.779
  235SOL    HW2 1605   4.862   3.055   2.941
  236SOL     OW 1606   4.033   4.008   5.983
  236SOL    HW1 1607   4.031   4.106   6.005
  236SOL    HW2 1608   3.940   3.975   5.968
  237SOL     OW 1609   6.170   3.508   2.604
  237SOL    HW1 1610   6.138   3.461   2.522
  237SOL    HW2 1611   6.092   3.537   2.659
  238SOL     OW 1612   5.992   1.873   0.649
  238SOL    HW1 1613   6.070   1.932   0.668
  238SOL    HW2 1614   5.944   1.853   0.735
  239SOL     OW 1615   1.070   3.511   0.407
  239SOL    HW1 1616   1.010   3.474   0.479
  239SOL    HW2 1617   1.053   3.463   0.322
  240SOL     OW 1618   4.863   3.304   3.884
  240SOL    HW1 1619   4.830   3.212   3.865
  240SOL    HW2 1620   4.939   3.325   3.822
  241SOL     OW 1621   2.598   1.903   4.466
  241SOL    HW1 1622   2.608   1.905   4.367
  241SOL    HW2 1623   2.636   1.817   4.502
  242SOL     OW 1624   3.857   3.535   2.592
  242SOL    HW1 1625   3.843   3.440   2.562
  242SOL    HW2 1626   3.810   3.549   2.679
  243SOL     OW 1627   3.851   2.760   6.494
  243SOL    HW1 1628   3.950   2.773   6.504
  243SOL    HW2 1629   3.803   2.825   6.553
  244SOL     OW 1630   4.907   3.242   4.618
  244SOL    HW1 1631   4.827   3.183   4.614
  244SOL    HW2 1632   4.927   3.266   4.713
  245SOL     OW 1633   3.528   1.138   3.274
  245SOL    HW1 1634   3.555   1.217   3.219
  245SOL    HW2 1635   3.524   1.057   3.216
  246SOL     OW 1636   6.444   1.121   2.383
  246SOL    HW1 1637   6.442   1.028   2.348
  246SOL    HW2 1638   6.437   1.186   2.307
  247SOL     OW 1639   1.673   1.509   1.915
  247SOL    HW1 1640   1.731   1.518   1.834
  247SOL    HW2 1641   1.625   1.595   1.931
  248SOL     OW 1642   2.821   3.147   1.792
  248SOL    HW1 1643   2.873   3.140   1.877
  248SOL    HW2 1644   2.822   3.059   1.745
  249SOL     OW 1645   4.726   6.506   4.802
  249SOL    HW1 1646   4.648   6.451   4.830
  249SOL    HW2 1647   4.784   6.525   4.881
  250SOL     OW 1648   4.288   2.440   0.289
  250SOL    HW1 1649   4.283   2.396   0.379
  250SOL    HW2 1650   4.204   2.422   0.238
  251SOL     OW 1651   3.950   4.743   5.347
  251SOL    HW1 1652   3.945   4.843   5.351
  251SOL    HW2 1653   3.857   4.705   5.353
  252SOL     OW 1654   6.347   6.635   5.353
  252SOL    HW1 1655   6.348   6.537   5.336
  252SOL    HW2 1656   6.394   6.682   5.279
  253SOL     OW 1657   4.295   6.388   6.388
  253SOL    HW1 1658   4.323   6.473   6.432
  253SOL    HW2 1659   4.214   6.404   6.332
  254SOL     OW 1660   6.286   2.222   5.618
  254SOL    HW1 1661   6.242   2.143   5.576
  254SOL    HW2 1662   6.216   2.281   5.660
  255SOL     OW 1663   0.829   4.096   6.906
  255SOL    HW1 1664   0.798   4.134   6.993
  255SOL    HW2 1665   0.927   4.114   6.896
  256SOL     OW 1666   5.556   2.412   4.928
  256SOL    HW1 1667   5.514   2.352   4.997
  256SOL    HW2 1668   5.618   2.476   4.973
  257SOL     OW 1669   4.969   6.663   2.310
  257SOL    HW1 1670   4.973   6.743   2.250
  257SOL    HW2 1671   4.889   6.670   2.370
  258SOL     OW 1672   1.725   3.156   6.257
  258SOL    HW1 1673   1.801   3.127   6.198
  258SOL    HW2 1674   1.761   3.186   6.345
  259SOL     OW 1675   3.616   6.859   3.712
  259SOL    HW1 1676   3.675   6.917   3.768
  259SOL    HW2 1677   3.615   6.893   3.618
  260SOL     OW 1678   3.993   5.404   2.970
  260SOL    HW1 1679   3.938   5.462   3.031
  260SOL    HW2 1680   4.035   5.460   2.899
  261SOL     OW 1681   4.515   5.116   0.065
  261SOL    HW1 1682   4.453   5.058   0.119
  261SOL    HW2 1683   4.567   5.060   0.001
  262SOL     OW 1684   0.678   4.519   6.666
  262SOL    HW1 1685   0.691   4.534   6.568
  262SOL    HW2 1686   0.649   4.425   6.681
  263SOL     OW 1687   0.783   6.846   4.065
  263SOL    HW1 1688   0.866   6.834   4.120
  263SOL    HW2 1689   0.713   6.782   4.096
  264SOL     OW 1690   6.376   3.651   6.238
  264SOL    HW1 1691   6.392   3.739   6.284
  264SOL    HW2 1692   6.326   3.667   6.152
  265SOL     OW 1693   6.963   0.302   3.286
  265SOL    HW1 1694   6.903   0.328   3.362
  265SOL    HW2 1695   6.999   0.384   3.242
  266SOL     OW 1696   3.300   0.933   5.882
  266SOL    HW1 1697   3.322   0.914   5.978
  266SOL    HW2 1698   3.307   1.032   5.866
  267SOL     OW 1699   2.081   0.197   3.704
  267SOL    HW1 1700   2.019   0.254   3.758
  267SOL    HW2 1701   2.051   0.102   3.708
  268SOL     OW 1702   3.192   2.550   1.117
  268SOL    HW1 1703   3.131   2.616   1.073
  268SOL    HW2 1704   3.183   2.559   1.217
  269SOL     OW 1705   4.415   2.014   0.262
  269SOL    HW1 1706   4.476   2.082   0.220
  269SOL    HW2 1707   4.437   1.923   0.225
  270SOL     OW 1708   5.604   0.818   6.894
  270SOL    HW1 1709   5.541   0.894   6.908
  270SOL    HW2 1710   5.599   0.787   6.799
  271SOL     OW 1711   0.519   3.637   6.405
  271SOL    HW1 1712   0.438   3.589   6.372
  271SOL    HW2 1713   0.592   3.629   6.337
  272SOL     OW 1714   3.539   5.743   3.237
  272SOL    HW1 1715   3.505   5.834   3.215
  272SOL    HW2 1716   3.617   5.750   3.299
  273SOL     OW 1717   1.862   4.936   6.179
  273SOL    HW1 1718   1.947   4.933   6.126
  273SOL    HW2 1719   1.784   4.944   6.118
  274SOL     OW 1720   5.342   2.486   3.603
  274SOL    HW1 1721   5.380   2.428   3.531
  274SOL    HW2 1722   5.315   2.574   3.564
  275SOL     OW 1723   6.261   6.472   1.272
  275SOL    HW1 1724   6.222   6.434   1.356
  275SOL    HW2 1725   6.244   6.409   1.196
  276SOL     OW 1726   0.698   0.483   5.051
  276SOL    HW1 1727   0.793   0.472   5.021
  276SOL    HW2 1728   0.666   0.575   5.027
  277SOL     OW 1729   2.055   4.248   0.673
  277SOL    HW1 1730   2.003   4.211   0.750
  277SOL    HW2 1731   1.997   4.251   0.592
  278SOL     OW 1732   0.814   3.171   2.690
  278SOL    HW1 1733   0.781   3.179   2.596
  278SOL    HW2 1734   0.841   3.077   2.708
  279SOL     OW 1735   6.498   1.201   3.787
  279SOL    HW1 1736   6.437   1.254   3.728
  279SOL    HW2 1737   6.444   1.134   3.838
  280SOL     OW 1738   1.559   4.896   2.387
  280SOL    HW1 1739   1.576   4.801   2.415
  280SOL    HW2 1740   1.518   4.896   2.296
  281SOL     OW 1741   2.464   4.805   1.244
  281SOL    HW1 1742   2.523   4.770   1.171
  281SOL    HW2 1743   2.518   4.821   1.326
  282SOL     OW 1744   2.813   1.548   6.045
  282SOL    HW1 1745   2.884   1.564   6.113
  282SOL    HW2 1746   2.821   1.454   6.010
  283SOL     OW 1747   3.548   2.464   5.791
  283SOL    HW1 1748   3.482   2.537   5.811
  283SOL    HW2 1749   3.519   2.380   5.836
  284SOL     OW 1750   0.957   3.833   4.030
  284SOL    HW1 1751   1.033   3.777   3.998
  284SOL    HW2 1752   0.871   3.783   4.017
  285SOL     OW 1753   4.810   5.347   4.437
  285SOL    HW1 1754   4.735   5.375   4.496
  285SOL    HW2 1755   4.793   5.254   4.403
  286SOL     OW 1756   2.818   3.450   0.305
  286SOL    HW1 1757   2.755   3.419   0.234
  286SOL    HW2 1758   2.858   3.371   0.351
  287SOL     OW 1759   1.622   2.663   0.389
  287SOL    HW1 1760   1.632   2.600   0.312
  287SOL    HW2 1761   1.526   2.691   0.398
  288SOL     OW 1762   4.747   3.396   0.986
  288SOL    HW1 1763   4.699   3.477   1.021
  288SOL    HW2 1764   4.838   3.423   0.954
  289SOL     OW 1765   3.852   5.604   6.483
  289SOL    HW1 1766   3.805   5.516   6.494
  289SOL    HW2 1767   3.794   5.677   6.518
  290SOL     OW 1768   1.543   1.417   4.686
  290SOL    HW1 1769   1.583   1.406   4.595
  290SOL    HW2 1770   1.460   1.362   4.693
  291SOL     OW 1771   6.219   2.388   2.812
  291SOL    HW1 1772   6.293   2.367   2.876
  291SOL    HW2 1773   6.252   2.449   2.741
  292SOL     OW 1774   2.913   0.050   3.828
  292SOL    HW1 1775   2.926   0.039   3.729
  292SOL    HW2 1776   3.002   0.042   3.874
  293SOL     OW 1777   3.532   4.877   3.491
  293SOL    HW1 1778   3.441   4.847   3.522
  293SOL    HW2 1779   3.541   4.975   3.506
  294SOL     OW 1780   4.578   0.827   0.572
  294SOL    HW1 1781   4.633   0.901   0.535
  294SOL    HW2 1782   4.606   0.740   0.531
  295SOL     OW 1783   6.109   6.789   3.259
  295SOL    HW1 1784   6.065   6.844   3.188
  295SOL    HW2 1785   6.039   6.751   3.320
  296SOL     OW 1786   2.452   2.385   3.577
  296SOL    HW1 1787   2.519   2.358   3.646
  296SOL    HW2 1788   2.497   2.437   3.504
  297SOL     OW 1789   1.647   5.230   2.543
  297SOL    HW1 1790   1.644   5.298   2.616
  297SOL    HW2 1791   1.554   5.207   2.515
  298SOL     OW 1792   6.569   4.401   0.888
  298SOL    HW1 1793   6.612   4.471   0.945
  298SOL    HW2 1794   6.596   4.415   0.792
  299SOL     OW 1795   5.908   2.327   4.422
  299SOL    HW1 1796   5.971   2.403   4.440
  299SOL    HW2 1797   5.820   2.346   4.466
  300SOL     OW 1798   6.749   6.842   1.922
  300SOL    HW1 1799   6.713   6.839   2.015
  300SOL    HW2 1800   6.674   6.829   1.857
  301SOL     OW 1801   4.481   2.564   5.556
  301SOL    HW1 1802   4.455   2.643   5.500
  301SOL    HW2 1803   4.571   2.579   5.595
  302SOL     OW 1804   0.792   5.800   4.045
  302SOL    HW1 1805   0.792   5.827   3.948
  302SOL    HW2 1806   0.702   5.765   4.070
  303SOL     OW 1807   6.247   6.838   2.974
  303SOL    HW1 1808   6.196   6.812   2.893
  303SOL    HW2 1809   6.287   6.756   3.016
  304SOL     OW 1810   3.523   0.080   3.270
  304SOL    HW1 1811   3.432   0.107   3.303
  304SOL    HW2 1812   3.539   7.000   3.290
  305SOL     OW 1813   1.590   4.492   1.203
  305SOL    HW1 1814   1.685   4.522   1.203
  305SOL    HW2 1815   1.557   4.484   1.297
  306SOL     OW 1816   1.947   0.689   3.478
  306SOL    HW1 1817   1.917   0.657   3.568
  306SOL    HW2 1818   1.963   0.610   3.419
  307SOL     OW 1819   3.352   0.241   1.562
  307SOL    HW1 1820   3.260   0.274   1.586
  307SOL    HW2 1821   3.348   0.142   1.546
  308SOL     OW 1822   0.881   4.555   3.928
  308SOL    HW1 1823   0.938   4.636   3.936
  308SOL    HW2 1824   0.934   4.474   3.954
  309SOL     OW 1825   3.195   4.855   5.292
  309SOL    HW1 1826   3.170   4.887   5.200
  309SOL    HW2 1827   3.183   4.756   5.296
  310SOL     OW 1828   1.482   5.680   6.132
  310SOL    HW1 1829   1.452   5.592   6.097
  310SOL    HW2 1830   1.562   5.667   6.191
  311SOL     OW 1831   6.820   0.789   1.435
  311SOL    HW1 1832   6.813   0.741   1.348
  311SOL    HW2 1833   6.904   0.761   1.482
  312SOL     OW 1834   3.729   1.225   5.786
  312SOL    HW1 1835   3.807   1.195   5.732
  312SOL    HW2 1836   3.687   1.305   5.743
  313SOL     OW 1837   0.271   4.536   0.571
  313SOL    HW1 1838   0.330   4.605   0.530
  313SOL    HW2 1839   0.312   4.446   0.559
  314SOL     OW 1840   3.273   6.085   1.641
  314SOL    HW1 1841   3.318   6.078   1.552
  314SOL    HW2 1842   3.204   6.158   1.637
  315SOL     OW 1843   1.119   3.639   2.955
  315SOL    HW1 1844   1.041   3.695   2.984
  315SOL    HW2 1845   1.090   3.544   2.947
  316SOL     OW 1846   1.997   3.136   4.857
  316SOL    HW1 1847   1.952   3.160   4.771
  316SOL    HW2 1848   2.074   3.074   4.839
  317SOL     OW 1849   6.356   1.196   0.144
  317SOL    HW1 1850   6.413   1.253   0.204
  317SOL    HW2 1851   6.375   1.219   0.049
  318SOL     OW 1852   2.722   4.432   1.131
  318SOL    HW1 1853   2.751   4.505   1.194
  318SOL    HW2 1854   2.756   4.344   1.163
  319SOL     OW 1855   1.541   0.138   6.521
  319SOL    HW1 1856   1.590   0.217   6.558
  319SOL    HW2 1857   1.606   0.077   6.476
  320SOL     OW 1858   5.706   3.115   0.761
  320SOL    HW1 1859   5.762   3.193   0.734
  320SOL    HW2 1860   5.648   3.142   0.839
  321SOL     OW 1861   2.089   1.356   2.418
  321SOL    HW1 1862   2.133   1.426   2.361
  321SOL    HW2 1863   2.153   1.280   2.432
  322SOL     OW 1864   3.453   2.381   5.538
  322SOL    HW1 1865   3.424   2.318   5.610
  322SOL    HW2 1866   3.527   2.439   5.573
  323SOL     OW 1867   0.421   4.394   1.833
  323SOL    HW1 1868   0.482   4.470   1.810
  323SOL    HW2 1869   0.389   4.405   1.927
  324SOL     OW 1870   0.513   2.740   4.403
  324SOL    HW1 1871   0.466   2.657   4.373
  324SOL    HW2 1872   0.599   2.715   4.448
  325SOL     OW 1873   2.219   1.882   3.164
  325SOL    HW1 1874   2.169   1.869   3.078
  325SOL    HW2 1875   2.289   1.811   3.173
  326SOL     OW 1876   1.667   4.060   5.118
  326SOL    HW1 1877   1.686   4.139   5.060
  326SOL    HW2 1878   1.569   4.042   5.119
  327SOL     OW 1879   5.840   4.419   6.321
  327SOL    HW1 1880   5.938   4.430   6.303
  327SOL    HW2 1881   5.816   4.469   6.405
  328SOL     OW 1882   3.929   5.883   2.608
  328SOL    HW1 1883   3.970   5.832   2.683
  328SOL    HW2 1884   3.835   5.852   2.594
  329SOL     OW 1885   3.658   4.047   2.483
  329SOL    HW1 1886   3.668   3.950   2.505
  329SOL    HW2 1887   3.716   4.101   2.544
  330SOL     OW 1888   2.580   1.880   2.038
  330SOL    HW1 1889   2.651   1.950   2.038
  330SOL    HW2 1890   2.497   1.916   2.081
  331SOL     OW 1891   5.777   4.351   5.525
  331SOL    HW1 1892   5.768   4.399   5.438
  331SOL    HW2 1893   5.724   4.266   5.521
  332SOL     OW 1894   4.417   2.003   3.321
  332SOL    HW1 1895   4.430   1.915   3.275
  332SOL    HW2 1896   4.438   2.077   3.258
  333SOL     OW 1897   4.554   6.245   0.419
  333SOL    HW1 1898   4.641   6.208   0.386
  333SOL    HW2 1899   4.549   6.235   0.518
  334SOL     OW 1900   4.895   6.444   2.802
  334SOL    HW1 1901   4.850   6.533   2.809
  334SOL    HW2 1902   4.871   6.402   2.714
  335SOL     OW 1903   3.539   6.849   2.785
  335SOL    HW1 1904   3.571   6.900   2.865
  335SOL    HW2 1905   3.490   6.910   2.723
  336SOL     OW 1906   3.333   0.388   4.694
  336SOL    HW1 1907   3.422   0.432   4.686
  336SOL    HW2 1908   3.266   0.437   4.639
  337SOL     OW 1909   0.037   4.426   2.246
  337SOL    HW1 1910   6.985   4.375   2.298
  337SOL    HW2 1911   0.126   4.382   2.255
  338SOL     OW 1912   2.387   2.248   1.705
  338SOL    HW1 1913   2.458   2.223   1.639
  338SOL    HW2 1914   2.310   2.185   1.696
  339SOL     OW 1915   4.420   1.434   3.226
  339SOL    HW1 1916   4.446   1.428   3.129
  339SOL    HW2 1917   4.369   1.351   3.251
  340SOL     OW 1918   4.823   4.122   4.640
  340SOL    HW1 1919   4.771   4.036   4.634
  340SOL    HW2 1920   4.901   4.110   4.702
  341SOL     OW 1921   4.466   4.804   5.448
  341SOL    HW1 1922   4.559   4.839   5.447
  341SOL    HW2 1923   4.408   4.865   5.502
  342SOL     OW 1924   5.801   3.999   0.170
  342SOL    HW1 1925   5.826   3.902   0.176
  342SOL    HW2 1926   5.708   4.008   0.136
  343SOL     OW 1927   2.291   0.765   2.523
  343SOL    HW1 1928   2.231   0.845   2.527
  343SOL    HW2 1929   2.349   0.764   2.605
  344SOL     OW 1930   4.260   6.477   0.449
  344SOL    HW1 1931   4.303   6.438   0.368
  344SOL    HW2 1932   4.228   6.403   0.508
  345SOL     OW 1933   1.670   1.211   5.726
  345SOL    HW1 1934   1.646   1.134   5.785
  345SOL    HW2 1935   1.760   1.196   5.686
  346SOL     OW 1936   3.417   1.011   4.635
  346SOL    HW1 1937   3.397   1.109   4.630
  346SOL    HW2 1938   3.487   0.994   4.703
  347SOL     OW 1939   4.627   6.440   5.888
  347SOL    HW1 1940   4.577   6.433   5.974
  347SOL    HW2 1941   4.580   6.386   5.818
  348SOL     OW 1942   2.491   6.216   2.662
  348SOL    HW1 1943   2.448   6.299   2.626
  348SOL    HW2 1944   2.557   6.240   2.734
  349SOL     OW 1945   2.989   5.074   2.402
  349SOL    HW1 1946   3.030   5.000   2.349
  349SOL    HW2 1947   2.907   5.107   2.355
  350SOL     OW 1948   4.600   3.213   0.843
  350SOL    HW1 1949   4.668   3.142   0.824
  350SOL    HW2 1950   4.644   3.289   0.891
  351SOL     OW 1951   3.236   1.578   0.764
  351SOL    HW1 1952   3.244   1.597   0.666
  351SOL    HW2 1953   3.168   1.639   0.804
  352SOL     OW 1954   3.080   2.067   6.144
  352SOL    HW1 1955   3.161   2.101   6.191
  352SOL    HW2 1956   3.101   1.980   6.100
  353SOL     OW 1957   2.071   0.050   1.394
  353SOL    HW1 1958   2.165   0.085   1.396
  353SOL    HW2 1959   2.035   0.046   1.487
  354SOL     OW 1960   5.008   0.266   2.586
  354SOL    HW1 1961   5.064   0.213   2.523
  354SOL    HW2 1962   4.982   0.353   2.544
  355SOL     OW 1963   1.097   1.254   2.067
  355SOL    HW1 1964   1.185   1.291   2.096
  355SOL    HW2 1965   1.082   1.165   2.110
  356SOL     OW 1966   3.606   0.262   2.953
  356SOL    HW1 1967   3.559   0.348   2.970
  356SOL    HW2 1968   3.583   0.229   2.861
  357SOL     OW 1969   1.234   4.824   5.368
  357SOL    HW1 1970   1.252   4.728   5.388
  357SOL    HW2 1971   1.249   4.842   5.271
  358SOL     OW 1972   5.156   1.181   2.964
  358SOL    HW1 1973   5.113   1.264   2.930
  358SOL    HW2 1974   5.131   1.104   2.905
  359SOL     OW 1975   0.371   1.553   0.594
  359SOL    HW1 1976   0.464   1.586   0.607
  359SOL    HW2 1977   0.310   1.599   0.659
  360SOL     OW 1978   5.028   0.346   0.224
  360SOL    HW1 1979   5.104   0.289   0.193
  360SOL    HW2 1980   5.040   0.367   0.321
  361SOL     OW 1981   3.374   0.790   2.795
  361SOL    HW1 1982   3.281   0.813   2.767
  361SOL    HW2 1983   3.427   0.761   2.715
  362SOL     OW 1984   2.998   4.051   1.197
  362SOL    HW1 1985   2.926   4.120   1.194
  362SOL    HW2 1986   2.971   3.977   1.258
  363SOL     OW 1987   4.455   4.502   3.546
  363SOL    HW1 1988   4.441   4.423   3.605
  363SOL    HW2 1989   4.388   4.573   3.568
  364SOL     OW 1990   2.365   5.730   6.292
  364SOL    HW1 1991   2.438   5.735   6.361
  364SOL    HW2 1992   2.396   5.674   6.215
  365SOL     OW 1993   4.521   0.093   3.119
  365SOL    HW1 1994   4.604   0.041   3.139
  365SOL    HW2 1995   4.443   0.050   3.164
  366SOL     OW 1996   5.226   1.327   0.357
  366SOL    HW1 1997   5.241   1.389   0.435
  366SOL    HW2 1998   5.307   1.270   0.344
  367SOL     OW 1999   4.700   2.121   2.401
  367SOL    HW1 2000   4.772   2.052   2.412
  367SOL    HW2 2001   4.722   2.179   2.322
  368SOL     OW 2002   0.910   5.140   5.464
  368SOL    HW1 2003   0.992   5.165   5.412
  368SOL    HW2 2004   0.855   5.221   5.481
  369SOL     OW 2005   0.831   3.682   1.925
  369SOL    HW1 2006   0.855   3.591   1.891
  369SOL    HW2 2007   0.839   3.748   1.851
  370SOL     OW 2008   3.785   1.740   6.840
  370SOL    HW1 2009   3.881   1.748   6.866
  370SOL    HW2 2010   3.769   1.788   6.754
  371SOL     OW 2011   3.480   3.076   6.540
  371SOL    HW1 2012   3.410   3.008   6.560
  371SOL    HW2 2013   3.529   3.051   6.457
  372SOL     OW 2014   2.021   5.434   0.324
  372SOL    HW1 2015   2.048   5.341   0.298
  372SOL    HW2 2016   2.044   5.450   0.420
  373SOL     OW 2017   6.320   6.942   6.211
  373SOL    HW1 2018   6.276   6.858   6.240
  373SOL    HW2 2019   6.394   6.964   6.275
  374SOL     OW 2020   4.570   0.619   1.337
  374SOL    HW1 2021   4.524   0.591   1.253
  374SOL    HW2 2022   4.564   0.546   1.405
  375SOL     OW 2023   6.743   4.100   0.694
  375SOL    HW1 2024   6.716   4.153   0.775
  375SOL    HW2 2025   6.842   4.086   0.696
  376SOL     OW 2026   2.063   3.873   4.994
  376SOL    HW1 2027   2.036   3.866   5.090
  376SOL    HW2 2028   2.155   3.912   4.988
  377SOL     OW 2029   5.024   1.362   4.557
  377SOL    HW1 2030   5.095   1.356   4.627
  377SOL    HW2 2031   5.031   1.448   4.508
  378SOL     OW 2032   5.662   2.005   4.851
  378SOL    HW1 2033   5.699   2.097   4.838
  378SOL    HW2 2034   5.681   1.949   4.771
  379SOL     OW 2035   6.248   2.524   1.473
  379SOL    HW1 2036   6.327   2.480   1.516
  379SOL    HW2 2037   6.200   2.580   1.541
  380SOL     OW 2038   1.298   2.017   0.177
  380SOL    HW1 2039   1.338   2.109   0.169
  380SOL    HW2 2040   1.368   1.948   0.160
  381SOL     OW 2041   4.676   5.319   0.166
  381SOL    HW1 2042   4.769   5.305   0.131
  381SOL    HW2 2043   4.613   5.257   0.119
  382SOL     OW 2044   2.722   5.005   0.027
  382SOL    HW1 2045   2.656   4.959   0.085
  382SOL    HW2 2046   2.683   5.092   7.012
  383SOL     OW 2047   6.385   1.715   0.413
  383SOL    HW1 2048   6.330   1.780   0.361
  383SOL    HW2 2049   6.459   1.763   0.459
  384SOL     OW 2050   1.004   5.532   5.323
  384SOL    HW1 2051   0.981   5.627   5.304
  384SOL    HW2 2052   1.024   5.485   5.237
  385SOL     OW 2053   4.434   5.391   1.534
  385SOL    HW1 2054   4.465   5.434   1.449
  385SOL    HW2 2055   4.334   5.383   1.533
  386SOL     OW 2056   2.655   6.123   4.101
  386SOL    HW1 2057   2.568   6.103   4.148
  386SOL    HW2 2058   2.636   6.149   4.006
  387SOL     OW 2059   6.882   0.285   5.822
  387SOL    HW1 2060   6.892   0.285   5.922
  387SOL    HW2 2061   6.965   0.248   5.780
  388SOL     OW 2062   0.149   1.617   4.461
  388SOL    HW1 2063   0.098   1.597   4.378
  388SOL    HW2 2064   0.186   1.710   4.456
  389SOL     OW 2065   4.881   3.838   2.076
  389SOL    HW1 2066   4.837   3.787   2.150
  389SOL    HW2 2067   4.864   3.792   1.989
  390SOL     OW 2068   3.819   2.593   0.284
  390SOL    HW1 2069   3.746   2.571   0.348
  390SOL    HW2 2070   3.851   2.686   0.302
  391SOL     OW 2071   4.074   3.782   3.852
  391SOL    HW1 2072   4.063   3.760   3.948
  391SOL    HW2 2073   4.171   3.793   3.830
  392SOL     OW 2074   1.761   3.852   1.467
  392SOL    HW1 2075   1.670   3.889   1.448
  392SOL    HW2 2076   1.830   3.922   1.451
  393SOL     OW 2077   1.125   5.838   1.630
  393SOL    HW1 2078   1.143   5.789   1.545
  393SOL    HW2 2079   1.203   5.826   1.692
  394SOL     OW 2080   6.079   1.154   6.015
  394SOL    HW1 2081   6.101   1.247   6.045
  394SOL    HW2 2082   5.986   1.152   5.979
  395SOL     OW 2083   6.136   4.573   6.733
  395SOL    HW1 2084   6.153   4.666   6.703
  395SOL    HW2 2085   6.172   4.508   6.666
  396SOL     OW 2086   0.572   1.042   1.245
  396SOL    HW1 2087   0.618   0.979   1.307
  396SOL    HW2 2088   0.632   1.119   1.225
  397SOL     OW 2089   4.785   2.195   4.736
  397SOL    HW1 2090   4.746   2.108   4.769
  397SOL    HW2 2091   4.835   2.239   4.811
  398SOL     OW 2092   7.004   1.501   2.925
  398SOL    HW1 2093   6.930   1.562   2.952
  398SOL    HW2 2094   7.011   1.426   2.990
  399SOL     OW 2095   5.771   5.962   3.207
  399SOL    HW1 2096   5.854   5.935   3.158
  399SOL    HW2 2097   5.790   6.043   3.263
  400SOL     OW 2098   0.076   6.397   2.957
  400SOL    HW1 2099   0.029   6.384   3.045
  400SOL    HW2 2100   0.134   6.478   2.962
  401SOL     OW 2101   1.139   6.080   4.883
  401SOL    HW1 2102   1.066   6.107   4.946
  401SOL    HW2 2103   1.138   5.981   4.872
  402SOL     OW 2104   5.658   1.001   3.653
  402SOL    HW1 2105   5.593   0.939   3.698
  402SOL    HW2 2106   5.656   1.090   3.698
  403SOL     OW 2107   2.710   1.767   4.991
  403SOL    HW1 2108   2.796   1.727   5.020
  403SOL    HW2 2109   2.724   1.862   4.964
  404SOL     OW 2110   2.996   5.124   3.573
  404SOL    HW1 2111   2.971   5.161   3.483
  404SOL    HW2 2112   2.931   5.157   3.642
  405SOL     OW 2113   2.738   4.906   3.938
  405SOL    HW1 2114   2.758   4.816   3.977
  405SOL    HW2 2115   2.815   4.934   3.880
  406SOL     OW 2116   0.530   6.833   6.378
  406SOL    HW1 2117   0.593   6.808   6.304
  406SOL    HW2 2118   0.532   6.761   6.447
  407SOL     OW 2119   1.919   3.808   4.197
  407SOL    HW1 2120   1.936   3.906   4.213
  407SOL    HW2 2121   1.838   3.779   4.248
  408SOL     OW 2122   2.759   2.300   2.258
  408SOL    HW1 2123   2.817   2.321   2.179
  408SOL    HW2 2124   2.722   2.208   2.249
  409SOL     OW 2125   0.381   2.785   2.346
  409SOL    HW1 2126   0.373   2.693   2.384
  409SOL    HW2 2127   0.312   2.799   2.276
  410SOL     OW 2128   1.946   2.999   1.860
  410SOL    HW1 2129   2.012   3.071   1.884
  410SOL    HW2 2130   1.994   2.926   1.811
  411SOL     OW 2131   6.934   1.500   0.994
  411SOL    HW1 2132   6.968   1.506   0.901
  411SOL    HW2 2133   6.906   1.406   1.014
  412SOL     OW 2134   1.762   4.735   2.886
  412SOL    HW1 2135   1.733   4.640   2.900
  412SOL    HW2 2136   1.697   4.781   2.825
  413SOL     OW 2137   6.158   4.972   2.325
  413SOL    HW1 2138   6.240   5.007   2.279
  413SOL    HW2 2139   6.082   5.036   2.312
  414SOL     OW 2140   2.468   0.057   3.318
  414SOL    HW1 2141   2.406   0.134   3.332
  414SOL    HW2 2142   2.507   0.062   3.226
  415SOL     OW 2143   5.602   2.863   0.201
  415SOL    HW1 2144   5.526   2.820   0.250
  415SOL    HW2 2145   5.686   2.856   0.256
  416SOL     OW 2146   5.895   3.230   6.633
  416SOL    HW1 2147   5.983   3.189   6.609
  416SOL    HW2 2148   5.866   3.292   6.560
  417SOL     OW 2149   2.285   2.774   5.326
  417SOL    HW1 2150   2.290   2.873   5.339
  417SOL    HW2 2151   2.331   2.729   5.403
  418SOL     OW 2152   3.832   5.986   6.556
  418SOL    HW1 2153   3.800   5.987   6.461
  418SOL    HW2 2154   3.927   5.956   6.559
  419SOL     OW 2155   5.618   0.464   0.187
  419SOL    HW1 2156   5.538   0.522   0.175
  419SOL    HW2 2157   5.699   0.508   0.149
  420SOL     OW 2158   3.491   6.802   1.066
  420SOL    HW1 2159   3.461   6.707   1.067
  420SOL    HW2 2160   3.533   6.823   0.978
  421SOL     OW 2161   4.788   4.096   3.111
  421SOL    HW1 2162   4.761   4.132   3.022
  421SOL    HW2 2163   4.831   4.168   3.164
  422SOL     OW 2164   3.960   1.742   1.983
  422SOL    HW1 2165   4.055   1.765   1.962
  422SOL    HW2 2166   3.912   1.824   2.013
  423SOL     OW 2167   3.238   1.463   6.347
  423SOL    HW1 2168   3.313   1.398   6.360
  423SOL    HW2 2169   3.231   1.522   6.427
  424SOL     OW 2170   1.504   3.759   5.011
  424SOL    HW1 2171   1.602   3.765   4.996
  424SOL    HW2 2172   1.462   3.704   4.938
  425SOL     OW 2173   3.530   1.734   0.440
  425SOL    HW1 2174   3.477   1.653   0.418
  425SOL    HW2 2175   3.487   1.783   0.516
  426SOL     OW 2176   2.097   2.475   3.783
  426SOL    HW1 2177   2.076   2.425   3.867
  426SOL    HW2 2178   2.122   2.410   3.711
  427SOL     OW 2179   4.430   1.471   4.234
  427SOL    HW1 2180   4.381   1.475   4.147
  427SOL    HW2 2181   4.505   1.537   4.233
  428SOL     OW 2182   2.407   2.000   6.325
  428SOL    HW1 2183   2.324   1.998   6.381
  428SOL    HW2 2184   2.389   2.045   6.238
  429SOL     OW 2185   6.983   6.551   3.174
  429SOL    HW1 2186   6.884   6.563   3.183
  429SOL    HW2 2187   0.014   6.623   3.225
  430SOL     OW 2188   2.468   1.563   3.795
  430SOL    HW1 2189   2.377   1.523   3.789
  430SOL    HW2 2190   2.495   1.572   3.891
  431SOL     OW 2191   2.769   0.951   1.743
  431SOL    HW1 2192   2.713   0.886   1.691
  431SOL    HW2 2193   2.733   1.044   1.729
  432SOL     OW 2194   4.918   1.974   1.262
  432SOL    HW1 2195   4.892   1.973   1.166
  432SOL    HW2 2196   5.016   1.990   1.270
  433SOL     OW 2197   2.326   4.764   0.241
  433SOL    HW1 2198   2.359   4.676   0.206
  433SOL    HW2 2199   2.270   4.748   0.322
  434SOL     OW 2200   3.914   5.567   2.579
  434SOL    HW1 2201   3.997   5.514   2.560
  434SOL    HW2 2202   3.854   5.513   2.639
  435SOL     OW 2203   2.804   2.509   6.481
  435SOL    HW1 2204   2.856   2.493   6.398
  435SOL    HW2 2205   2.858   2.566   6.544
  436SOL     OW 2206   5.094   6.765   2.590
  436SOL    HW1 2207   5.183   6.757   2.635
  436SOL    HW2 2208   5.103   6.739   2.494
  437SOL     OW 2209   6.884   1.106   5.693
  437SOL    HW1 2210   6.894   1.043   5.770
  437SOL    HW2 2211   6.786   1.120   5.675
  438SOL     OW 2212   0.861   4.045   2.254
  438SOL    HW1 2213   0.935   3.986   2.221
  438SOL    HW2 2214   0.819   4.092   2.176
  439SOL     OW 2215   0.359   0.739   6.130
  439SOL    HW1 2216   0.402   0.822   6.166
  439SOL    HW2 2217   0.427   0.666   6.122
  440SOL     OW 2218   3.380   1.798   1.264
  440SOL    HW1 2219   3.448   1.803   1.191
  440SOL    HW2 2220   3.296   1.755   1.229
  441SOL     OW 2221   0.729   4.349   2.395
  441SOL    HW1 2222   0.640   4.388   2.369
  441SOL    HW2 2223   0.716   4.288   2.473
  442SOL     OW 2224   3.454   2.819   4.504
  442SOL    HW1 2225   3.385   2.758   4.542
  442SOL    HW2 2226   3.435   2.836   4.408
  443SOL     OW 2227   4.647   2.681   3.010
  443SOL    HW1 2228   4.744   2.683   3.036
  443SOL    HW2 2229   4.606   2.771   3.028
  444SOL     OW 2230   3.828   2.489   1.344
  444SOL    HW1 2231   3.730   2.468   1.347
  444SOL    HW2 2232   3.868   2.469   1.433
  445SOL     OW 2233   2.595   5.471   3.517
  445SOL    HW1 2234   2.647   5.551   3.546
  445SOL    HW2 2235   2.497   5.487   3.535
  446SOL     OW 2236   6.700   6.850   0.728
  446SOL    HW1 2237   6.769   6.836   0.799
  446SOL    HW2 2238   6.714   6.939   0.684
  447SOL     OW 2239   5.937   3.553   6.968
  447SOL    HW1 2240   5.945   3.617   6.892
  447SOL    HW2 2241   5.953   3.460   6.935
  448SOL     OW 2242   3.378   6.343   3.974
  448SOL    HW1 2243   3.415   6.434   3.991
  448SOL    HW2 2244   3.433   6.275   4.022
  449SOL     OW 2245   0.655   4.069   4.700
  449SOL    HW1 2246   0.716   3.990   4.690
  449SOL    HW2 2247   0.635   4.083   4.797
  450SOL     OW 2248   6.605   3.522   2.889
  450SOL    HW1 2249   6.701   3.501   2.870
  450SOL    HW2 2250   6.600   3.580   2.971
  451SOL     OW 2251   2.243   1.929   0.147
  451SOL    HW1 2252   2.309   1.979   0.204
  451SOL    HW2 2253   2.227   1.980   0.063
  452SOL     OW 2254   4.021   5.608   1.597
  452SOL    HW1 2255   3.930   5.630   1.633
  452SOL    HW2 2256   4.091   5.646   1.657
  453SOL     OW 2257   4.640   0.768   6.957
  453SOL    HW1 2258   4.601   0.714   6.883
  453SOL    HW2 2259   4.567   0.795   0.004
  454SOL     OW 2260   6.951   3.008   3.883
  454SOL    HW1 2261   6.851   3.000   3.877
  454SOL    HW2 2262   6.984   3.070   3.812
  455SOL     OW 2263   5.622   5.167   0.241
  455SOL    HW1 2264   5.562   5.234   0.197
  455SOL    HW2 2265   5.591   5.150   0.334
  456SOL     OW 2266   1.988   0.569   3.019
  456SOL    HW1 2267   1.893   0.540   3.014
  456SOL    HW2 2268   1.995   0.652   3.074
  457SOL     OW 2269   3.096   5.784   0.182
  457SOL    HW1 2270   3.139   5.783   0.273
  457SOL    HW2 2271   3.089   5.690   0.148
  458SOL     OW 2272   3.091   1.163   3.790
  458SOL    HW1 2273   3.008   1.109   3.788
  458SOL    HW2 2274   3.104   1.200   3.882
  459SOL     OW 2275   2.794   1.012   3.411
  459SOL    HW1 2276   2.801   0.912   3.410
  459SOL    HW2 2277   2.875   1.052   3.369
  460SOL     OW 2278   0.976   1.694   6.833
  460SOL    HW1 2279   0.946   1.765   6.897
  460SOL    HW2 2280   0.948   1.719   6.740
  461SOL     OW 2281   1.378   6.797   5.259
  461SOL    HW1 2282   1.451   6.845   5.210
  461SOL    HW2 2283   1.376   6.829   5.354
  462SOL     OW 2284   3.700   4.124   5.043
  462SOL    HW1 2285   3.645   4.152   4.964
  462SOL    HW2 2286   3.650   4.058   5.098
  463SOL     OW 2287   5.178   6.479   2.720
  463SOL    HW1 2288   5.195   6.435   2.808
  463SOL    HW2 2289   5.080   6.486   2.704
  464SOL     OW 2290   4.419   6.188   4.938
  464SOL    HW1 2291   4.438   6.266   4.879
  464SOL    HW2 2292   4.428   6.217   5.034
  465SOL     OW 2293   0.149   5.086   0.587
  465SOL    HW1 2294   0.111   5.050   0.673
  465SOL    HW2 2295   0.189   5.010   0.535
  466SOL     OW 2296   3.703   4.984   4.231
  466SOL    HW1 2297   3.697   5.079   4.198
  466SOL    HW2 2298   3.790   4.944   4.202
  467SOL     OW 2299   6.548   6.777   1.763
  467SOL    HW1 2300   6.498   6.696   1.793
  467SOL    HW2 2301   6.541   6.785   1.663
  468SOL     OW 2302   2.675   6.029   6.371
  468SOL    HW1 2303   2.748   6.084   6.331
  468SOL    HW2 2304   2.668   6.048   6.469
  469SOL     OW 2305   3.468   4.645   5.274
  469SOL    HW1 2306   3.387   4.588   5.291
  469SOL    HW2 2307   3.476   4.714   5.346
  470SOL     OW 2308   2.137   5.081   2.028
  470SOL    HW1 2309   2.190   4.997   2.016
  470SOL    HW2 2310   2.039   5.060   2.018
  471SOL     OW 2311   1.272   1.711   4.179
  471SOL    HW1 2312   1.301   1.795   4.223
  471SOL    HW2 2313   1.193   1.729   4.121
  472SOL     OW 2314   5.191   4.228   5.921
  472SOL    HW1 2315   5.105   4.239   5.873
  472SOL    HW2 2316   5.176   4.175   6.004
  473SOL     OW 2317   5.351   3.122   1.806
  473SOL    HW1 2318   5.261   3.137   1.846
  473SOL    HW2 2319   5.342   3.067   1.723
  474SOL     OW 2320   4.979   5.449   3.422
  474SOL    HW1 2321   4.976   5.432   3.520
  474SOL    HW2 2322   4.958   5.545   3.404
  475SOL     OW 2323   4.617   1.415   0.258
  475SOL    HW1 2324   4.656   1.327   0.231
  475SOL    HW2 2325   4.646   1.486   0.194
  476SOL     OW 2326   1.032   2.936   0.401
  476SOL    HW1 2327   0.981   3.016   0.369
  476SOL    HW2 2328   1.041   2.870   0.326
  477SOL     OW 2329   6.502   5.717   3.111
  477SOL    HW1 2330   6.429   5.653   3.087
  477SOL    HW2 2331   6.479   5.763   3.197
  478SOL     OW 2332   6.243   5.370   2.610
  478SOL    HW1 2333   6.213   5.373   2.514
  478SOL    HW2 2334   6.315   5.302   2.621
  479SOL     OW 2335   3.557   3.791   2.676
  479SOL    HW1 2336   3.617   3.746   2.742
  479SOL    HW2 2337   3.491   3.848   2.725
  480SOL     OW 2338   0.462   0.856   1.650
  480SOL    HW1 2339   0.501   0.781   1.703
  480SOL    HW2 2340   0.431   0.822   1.561
  481SOL     OW 2341   6.144   6.058   0.830
  481SOL    HW1 2342   6.090   6.084   0.910
  481SOL    HW2 2343   6.174   5.963   0.840
  482SOL     OW 2344   3.929   4.925   2.437
  482SOL    HW1 2345   3.950   4.911   2.340
  482SOL    HW2 2346   3.930   5.023   2.457
  483SOL     OW 2347   6.474   0.900   4.440
  483SOL    HW1 2348   6.441   0.910   4.534
  483SOL    HW2 2349   6.531   0.978   4.415
  484SOL     OW 2350   2.251   4.730   3.330
  484SOL    HW1 2351   2.265   4.821   3.290
  484SOL    HW2 2352   2.328   4.671   3.307
  485SOL     OW 2353   4.698   2.681   0.915
  485SOL    HW1 2354   4.664   2.703   0.824
  485SOL    HW2 2355   4.745   2.593   0.913
  486SOL     OW 2356   6.019   6.183   5.368
  486SOL    HW1 2357   5.964   6.105   5.397
  486SOL    HW2 2358   5.985   6.217   5.280
  487SOL     OW 2359   0.008   0.601   6.811
  487SOL    HW1 2360   7.009   0.640   6.902
  487SOL    HW2 2361   0.059   0.515   6.819
  488SOL     OW 2362   1.772   5.976   3.310
  488SOL    HW1 2363   1.693   6.033   3.334
  488SOL    HW2 2364   1.779   5.900   3.375
  489SOL     OW 2365   2.749   4.621   5.398
  489SOL    HW1 2366   2.799   4.671   5.468
  489SOL    HW2 2367   2.813   4.578   5.334
  490SOL     OW 2368   1.318   3.204   5.404
  490SOL    HW1 2369   1.308   3.295   5.444
  490SOL    HW2 2370   1.378   3.209   5.324
  491SOL     OW 2371   5.984   3.728   1.119
  491SOL    HW1 2372   5.927   3.645   1.124
  491SOL    HW2 2373   6.075   3.707   1.155
  492SOL     OW 2374   1.401   2.598   5.853
  492SOL    HW1 2375   1.308   2.634   5.850
  492SOL    HW2 2376   1.465   2.669   5.823
  493SOL     OW 2377   1.348   5.749   3.842
  493SOL    HW1 2378   1.401   5.812   3.899
  493SOL    HW2 2379   1.314   5.798   3.761
  494SOL     OW 2380   2.791   0.742   3.493
  494SOL    HW1 2381   2.695   0.767   3.507
  494SOL    HW2 2382   2.818   0.676   3.563
  495SOL     OW 2383   4.027   4.803   7.012
  495SOL    HW1 2384   3.934   4.802   0.030
  495SOL    HW2 2385   4.089   4.764   0.064
  496SOL     OW 2386   5.010   1.040   3.152
  496SOL    HW1 2387   4.926   1.092   3.136
  496SOL    HW2 2388   5.082   1.073   3.091
  497SOL     OW 2389   4.697   2.916   1.059
  497SOL    HW1 2390   4.674   2.837   1.002
  497SOL    HW2 2391   4.613   2.953   1.100
  498SOL     OW 2392   0.686   0.204   1.330
  498SOL    HW1 2393   0.653   0.132   1.270
  498SOL    HW2 2394   0.774   0.238   1.296
  499SOL     OW 2395   2.835   6.824   6.700
  499SOL    HW1 2396   2.887   6.860   6.623
  499SOL    HW2 2397   2.769   6.756   6.667
  500SOL     OW 2398   6.225   1.985   6.530
  500SOL    HW1 2399   6.190   1.981   6.624
  500SOL    HW2 2400   6.251   1.893   6.501
  501SOL     OW 2401   1.525   2.429   4.719
  501SOL    HW1 2402   1.605   2.370   4.708
  501SOL    HW2 2403   1.508   2.444   4.816
  502SOL     OW 2404   2.187   2.972   6.721
  502SOL    HW1 2405   2.088   2.972   6.707
  502SOL    HW2 2406   2.221   2.878   6.715
  503SOL     OW 2407   4.230   4.892   1.253
  503SOL    HW1 2408   4.271   4.891   1.161
  503SOL    HW2 2409   4.135   4.923   1.246
  504SOL     OW 2410   6.286   0.299   0.090
  504SOL    HW1 2411   6.250   0.332   0.177
  504SOL    HW2 2412   6.312   0.203   0.099
  505SOL     OW 2413   6.281   3.576   5.490
  505SOL    HW1 2414   6.361   3.629   5.464
  505SOL    HW2 2415   6.201   3.609   5.439
  506SOL     OW 2416   2.277   5.668   1.953
  506SOL    HW1 2417   2.206   5.602   1.978
  506SOL    HW2 2418   2.305   5.719   2.035
  507SOL     OW 2419   3.021   6.834   3.365
  507SOL    HW1 2420   3.109   6.871   3.336
  507SOL    HW2 2421   2.948   6.872   3.308
  508SOL     OW 2422   0.442   5.164   3.324
  508SOL    HW1 2423   0.395   5.132   3.242
  508SOL    HW2 2424   0.517   5.102   3.346
  509SOL     OW 2425   4.479   0.068   6.093
  509SOL    HW1 2426   4.455   0.120   6.011
  509SOL    HW2 2427   4.440   0.113   6.173
  510SOL     OW 2428   6.782   4.393   0.030
  510SOL    HW1 2429   6.804   4.314   0.088
  510SOL    HW2 2430   6.789   4.476   0.084
  511SOL     OW 2431   0.802   1.570   0.403
  511SOL    HW1 2432   0.733   1.548   0.473
  511SOL    HW2 2433   0.756   1.584   0.315
  512SOL     OW 2434   1.065   1.887   4.430
  512SOL    HW1 2435   1.104   1.979   4.425
  512SOL    HW2 2436   0.974   1.887   4.388
  513SOL     OW 2437   5.557   5.881   2.755
  513SOL    HW1 2438   5.542   5.931   2.840
  513SOL    HW2 2439   5.590   5.943   2.684
  514SOL     OW 2440   4.647   1.440   4.464
  514SOL    HW1 2441   4.678   1.420   4.557
  514SOL    HW2 2442   4.563   1.389   4.446
  515SOL     OW 2443   3.275   0.853   6.972
  515SOL    HW1 2444   3.359   0.845   0.009
  515SOL    HW2 2445   3.283   0.799   6.888
  516SOL     OW 2446   0.501   5.793   2.346
  516SOL    HW1 2447   0.587   5.778   2.395
  516SOL    HW2 2448   0.502   5.884   2.304
  517SOL     OW 2449   3.432   4.785   1.120
  517SOL    HW1 2450   3.353   4.826   1.076
  517SOL    HW2 2451   3.420   4.786   1.219
  518SOL     OW 2452   2.507   6.850   3.650
  518SOL    HW1 2453   2.466   6.804   3.571
  518SOL    HW2 2454   2.492   6.948   3.643
  519SOL     OW 2455   6.690   0.448   2.606
  519SOL    HW1 2456   6.737   0.361   2.597
  519SOL    HW2 2457   6.595   0.439   2.576
  520SOL     OW 2458   3.110   5.406   0.799
  520SOL    HW1 2459   3.092   5.375   0.705
  520SOL    HW2 2460   3.028   5.448   0.836
  521SOL     OW 2461   6.857   6.440   5.127
  521SOL    HW1 2462   6.946   6.398   5.145
  521SOL    HW2 2463   6.851   6.527   5.177
  522SOL     OW 2464   3.888   4.880   6.535
  522SOL    HW1 2465   3.946   4.841   6.606
  522SOL    HW2 2466   3.799   4.904   6.574
  523SOL     OW 2467   2.152   6.716   5.609
  523SOL    HW1 2468   2.214   6.640   5.629
  523SOL    HW2 2469   2.162   6.744   5.514
  524SOL     OW 2470   6.790   1.021   0.816
  524SOL    HW1 2471   6.818   1.015   0.912
  524SOL    HW2 2472   6.870   1.042   0.760
  525SOL     OW 2473   1.234   3.269   3.802
  525SOL    HW1 2474   1.141   3.295   3.828
  525SOL    HW2 2475   1.297   3.342   3.829
  526SOL     OW 2476   3.883   6.420   4.553
  526SOL    HW1 2477   3.954   6.446   4.619
  526SOL    HW2 2478   3.807   6.485   4.560
  527SOL     OW 2479   0.029   1.027   0.671
  527SOL    HW1 2480   0.016   0.988   0.579
  527SOL    HW2 2481   0.069   0.958   0.731
  528SOL     OW 2482   6.787   1.396   4.441
  528SOL    HW1 2483   6.704   1.366   4.489
  528SOL    HW2 2484   6.863   1.401   4.506
  529SOL     OW 2485   1.263   1.430   5.866
  529SOL    HW1 2486   1.193   1.387   5.809
  529SOL    HW2 2487   1.332   1.363   5.890
  530SOL     OW 2488   3.223   4.549   1.606
  530SOL    HW1 2489   3.275   4.516   1.527
  530SOL    HW2 2490   3.270   4.628   1.646
  531SOL     OW 2491   0.293   1.186   6.307
  531SOL    HW1 2492   0.327   1.260   6.365
  531SOL    HW2 2493   0.341   1.189   6.219
  532SOL     OW 2494   3.674   1.045   0.038
  532SOL    HW1 2495   3.578   1.051   0.011
  532SOL    HW2 2496   3.682   0.997   0.125
  533SOL     OW 2497   4.179   6.880   4.636
  533SOL    HW1 2498   4.264   6.882   4.689
  533SOL    HW2 2499   4.141   6.972   4.631
  534SOL     OW 2500   2.036   3.987   1.533
  534SOL    HW1 2501   2.098   3.975   1.611
  534SOL    HW2 2502   2.035   4.083   1.506
  535SOL     OW 2503   4.450   4.693   4.093
  535SOL    HW1 2504   4.356   4.721   4.075
  535SOL    HW2 2505   4.507   4.715   4.014
  536SOL     OW 2506   6.263   6.320   1.054
  536SOL    HW1 2507   6.317   6.365   0.982
  536SOL    HW2 2508   6.170   6.303   1.020
  537SOL     OW 2509   3.325   1.421   2.723
  537SOL    HW1 2510   3.308   1.447   2.818
  537SOL    HW2 2511   3.274   1.482   2.662
  538SOL     OW 2512   4.035   5.012   5.316
  538SOL    HW1 2513   4.125   4.968   5.319
  538SOL    HW2 2514   4.045   5.104   5.279
  539SOL     OW 2515   2.363   0.643   6.919
  539SOL    HW1 2516   2.367   0.617   6.822
  539SOL    HW2 2517   2.268   0.645   6.949
  540SOL     OW 2518   2.594   1.520   5.278
  540SOL    HW1 2519   2.693   1.518   5.295
  540SOL    HW2 2520   2.577   1.554   5.186
  541SOL     OW 2521   5.002   6.057   3.046
  541SOL    HW1 2522   5.074   6.050   3.115
  541SOL    HW2 2523   4.964   6.150   3.046
  542SOL     OW 2524   3.822   5.971   5.908
  542SOL    HW1 2525   3.878   6.018   5.976
  542SOL    HW2 2526   3.847   6.002   5.817
  543SOL     OW 2527   6.403   2.389   5.018
  543SOL    HW1 2528   6.322   2.331   5.002
  543SOL    HW2 2529   6.374   2.484   5.029
  544SOL     OW 2530   0.842   2.926   1.159
  544SOL    HW1 2531   0.905   2.998   1.187
  544SOL    HW2 2532   0.816   2.940   1.063
  545SOL     OW 2533   6.765   5.084   0.548
  545SOL    HW1 2534   6.729   5.014   0.610
  545SOL    HW2 2535   6.828   5.042   0.483
  546SOL     OW 2536   6.993   5.403   2.819
  546SOL    HW1 2537   6.995   5.359   2.909
  546SOL    HW2 2538   6.898   5.419   2.792
  547SOL     OW 2539   4.325   6.613   6.543
  547SOL    HW1 2540   4.397   6.679   6.521
  547SOL    HW2 2541   4.348   6.566   6.628
  548SOL     OW 2542   4.077   2.334   0.130
  548SOL    HW1 2543   4.024   2.342   0.215
  548SOL    HW2 2544   4.059   2.413   0.071
  549SOL     OW 2545   5.412   2.492   3.880
  549SOL    HW1 2546   5.446   2.403   3.911
  549SOL    HW2 2547   5.376   2.484   3.787
  550SOL     OW 2548   0.246   5.757   3.596
  550SOL    HW1 2549   0.295   5.669   3.599
  550SOL    HW2 2550   0.256   5.803   3.684
  551SOL     OW 2551   5.430   0.760   0.556
  551SOL    HW1 2552   5.380   0.845   0.569
  551SOL    HW2 2553   5.486   0.741   0.637
  552SOL     OW 2554   0.391   0.334   4.664
  552SOL    HW1 2555   0.355   0.279   4.588
  552SOL    HW2 2556   0.315   0.377   4.713
  553SOL     OW 2557   3.816   2.278   5.237
  553SOL    HW1 2558   3.878   2.316   5.305
  553SOL    HW2 2559   3.868   2.236   5.163
  554SOL     OW 2560   0.011   5.302   0.197
  554SOL    HW1 2561   6.989   5.365   0.264
  554SOL    HW2 2562   6.974   5.218   0.195
  555SOL     OW 2563   3.085   4.130   5.827
  555SOL    HW1 2564   3.087   4.149   5.728
  555SOL    HW2 2565   3.122   4.209   5.876
  556SOL     OW 2566   5.875   6.299   2.173
  556SOL    HW1 2567   5.878   6.395   2.200
  556SOL    HW2 2568   5.842   6.292   2.079
  557SOL     OW 2569   6.040   3.677   6.732
  557SOL    HW1 2570   5.962   3.739   6.729
  557SOL    HW2 2571   6.124   3.728   6.712
  558SOL     OW 2572   3.467   3.893   2.040
  558SOL    HW1 2573   3.540   3.830   2.066
  558SOL    HW2 2574   3.407   3.907   2.119
  559SOL     OW 2575   5.981   1.067   6.584
  559SOL    HW1 2576   5.991   1.050   6.682
  559SOL    HW2 2577   6.072   1.071   6.541
  560SOL     OW 2578   0.585   2.161   3.523
  560SOL    HW1 2579   0.651   2.170   3.448
  560SOL    HW2 2580   0.493   2.155   3.486
  561SOL     OW 2581   0.428   3.867   6.764
  561SOL    HW1 2582   0.395   3.911   6.847
  561SOL    HW2 2583   0.413   3.926   6.686
  562SOL     OW 2584   4.041   6.344   3.599
  562SOL    HW1 2585   4.091   6.398   3.667
  562SOL    HW2 2586   4.098   6.267   3.570
  563SOL     OW 2587   0.679   0.770   4.480
  563SOL    HW1 2588   0.694   0.805   4.387
  563SOL    HW2 2589   0.629   0.684   4.475
  564SOL     OW 2590   5.587   1.490   5.439
  564SOL    HW1 2591   5.573   1.477   5.341
  564SOL    HW2 2592   5.660   1.429   5.470
  565SOL     OW 2593   3.224   3.674   4.039
  565SOL    HW1 2594   3.242   3.745   3.970
  565SOL    HW2 2595   3.129   3.680   4.069
  566SOL     OW 2596   1.771   2.819   3.766
  566SOL    HW1 2597   1.774   2.918   3.781
  566SOL    HW2 2598   1.863   2.787   3.741
  567SOL     OW 2599   1.411   3.004   5.576
  567SOL    HW1 2600   1.348   2.927   5.561
  567SOL    HW2 2601   1.395   3.074   5.506
  568SOL     OW 2602   1.188   0.268   6.885
  568SOL    HW1 2603   1.288   0.276   6.884
  568SOL    HW2 2604   1.161   0.207   6.959
  569SOL     OW 2605   5.246   3.629   5.206
  569SOL    HW1 2606   5.214   3.711   5.254
  569SOL    HW2 2607   5.196   3.618   5.121
  570SOL     OW 2608   3.402   0.899   6.119
  570SOL    HW1 2609   3.395   0.848   6.205
  570SOL    HW2 2610   3.406   0.997   6.138
  571SOL     OW 2611   2.441   4.423   1.694
  571SOL    HW1 2612   2.540   4.416   1.685
  571SOL    HW2 2613   2.418   4.456   1.786
  572SOL     OW 2614   3.102   1.336   4.510
  572SOL    HW1 2615   3.157   1.286   4.443
  572SOL    HW2 2616   3.071   1.274   4.581
  573SOL     OW 2617   0.566   0.544   5.627
  573SOL    HW1 2618   0.648   0.521   5.575
  573SOL    HW2 2619   0.590   0.553   5.724
  574SOL     OW 2620   2.481   1.157   6.094
  574SOL    HW1 2621   2.475   1.070   6.045
  574SOL    HW2 2622   2.424   1.224   6.048
  575SOL     OW 2623   3.904   3.606   0.284
  575SOL    HW1 2624   3.826   3.606   0.347
  575SOL    HW2 2625   3.887   3.541   0.210
  576SOL     OW 2626   0.419   1.076   2.622
  576SOL    HW1 2627   0.340   1.060   2.681
  576SOL    HW2 2628   0.495   1.112   2.677
  577SOL     OW 2629   0.362   0.027   2.274
  577SOL    HW1 2630   0.412   0.060   2.194
  577SOL    HW2 2631   0.302   6.968   2.247
  578SOL     OW 2632   4.048   0.154   0.492
  578SOL    HW1 2633   3.979   0.093   0.452
  578SOL    HW2 2634   4.114   0.180   0.421
  579SOL     OW 2635   0.997   3.843   1.709
  579SOL    HW1 2636   1.061   3.771   1.738
  579SOL    HW2 2637   1.008   3.923   1.768
  580SOL     OW 2638   4.817   5.058   4.638
  580SOL    HW1 2639   4.884   5.062   4.564
  580SOL    HW2 2640   4.729   5.093   4.605
  581SOL     OW 2641   1.956   2.363   3.975
  581SOL    HW1 2642   1.971   2.419   4.056
  581SOL    HW2 2643   1.916   2.275   4.002
  582SOL     OW 2644   5.512   4.415   4.649
  582SOL    HW1 2645   5.462   4.502   4.653
  582SOL    HW2 2646   5.596   4.428   4.597
  583SOL     OW 2647   2.919   6.342   5.524
  583SOL    HW1 2648   2.946   6.253   5.563
  583SOL    HW2 2649   2.998   6.402   5.519
  584SOL     OW 2650   4.158   1.134   5.269
  584SOL    HW1 2651   4.190   1.225   5.296
  584SOL    HW2 2652   4.194   1.112   5.178
  585SOL     OW 2653   3.597   6.422   1.337
  585SOL    HW1 2654   3.529   6.437   1.409
  585SOL    HW2 2655   3.672   6.487   1.347
  586SOL     OW 2656   3.638   6.889   0.841
  586SOL    HW1 2657   3.724   6.850   0.808
  586SOL    HW2 2658   3.576   6.903   0.764
  587SOL     OW 2659   4.986   1.622   2.594
  587SOL    HW1 2660   5.013   1.562   2.519
  587SOL    HW2 2661   4.955   1.567   2.672
  588SOL     OW 2662   2.189   4.015   2.925
  588SOL    HW1 2663   2.163   3.934   2.873
  588SOL    HW2 2664   2.240   4.078   2.867
  589SOL     OW 2665   3.633   5.032   6.758
  589SOL    HW1 2666   3.656   5.006   6.664
  589SOL    HW2 2667   3.534   5.043   6.766
  590SOL     OW 2668   2.851   1.909   6.225
  590SOL    HW1 2669   2.827   1.852   6.147
  590SOL    HW2 2670   2.929   1.967   6.202
  591SOL     OW 2671   2.677   0.048   3.992
  591SOL    HW1 2672   2.734   0.067   3.912
  591SOL    HW2 2673   2.705   6.977   4.032
  592SOL     OW 2674   4.917   2.546   4.844
  592SOL    HW1 2675   4.855   2.551   4.765
  592SOL    HW2 2676   5.003   2.591   4.821
  593SOL     OW 2677   1.790   0.507   6.902
  593SOL    HW1 2678   1.780   0.549   6.992
  593SOL    HW2 2679   1.887   0.487   6.885
  594SOL     OW 2680   3.602   1.017   4.860
  594SOL    HW1 2681   3.606   1.007   4.959
  594SOL    HW2 2682   3.642   1.106   4.834
  595SOL     OW 2683   5.996   4.156   2.232
  595SOL    HW1 2684   6.061   4.100   2.283
  595SOL    HW2 2685   6.041   4.238   2.198
  596SOL     OW 2686   5.833   5.334   4.373
  596SOL    HW1 2687   5.759   5.267   4.371
  596SOL    HW2 2688   5.814   5.403   4.444
  597SOL     OW 2689   3.510   1.685   6.580
  597SOL    HW1 2690   3.463   1.746   6.517
  597SOL    HW2 2691   3.443   1.644   6.642
  598SOL     OW 2692   2.961   3.801   3.131
  598SOL    HW1 2693   2.969   3.747   3.047
  598SOL    HW2 2694   3.012   3.756   3.204
  599SOL     OW 2695   2.154   4.480   1.294
  599SOL    HW1 2696   2.189   4.464   1.386
  599SOL    HW2 2697   2.151   4.578   1.276
  600SOL     OW 2698   0.199   3.289   5.283
  600SOL    HW1 2699   0.284   3.284   5.335
  600SOL    HW2 2700   0.121   3.283   5.346
  601SOL     OW 2701   0.013   6.993   5.754
  601SOL    HW1 2702   6.963   6.973   5.826
  601SOL    HW2 2703   0.060   0.062   5.776
  602SOL     OW 2704   1.309   0.850   3.474
  602SOL    HW1 2705   1.382   0.909   3.439
  602SOL    HW2 2706   1.243   0.831   3.402
  603SOL     OW 2707   1.460   1.437   4.037
  603SOL    HW1 2708   1.515   1.520   4.024
  603SOL    HW2 2709   1.433   1.429   4.133
  604SOL     OW 2710   5.216   2.766   1.344
  604SOL    HW1 2711   5.175   2.840   1.397
  604SOL    HW2 2712   5.236   2.799   1.252
  605SOL     OW 2713   5.647   6.376   1.237
  605SOL    HW1 2714   5.724   6.440   1.233
  605SOL    HW2 2715   5.584   6.396   1.162
  606SOL     OW 2716   3.108   6.632   5.099
  606SOL    HW1 2717   3.139   6.673   5.185
  606SOL    HW2 2718   3.076   6.539   5.115
  607SOL     OW 2719   1.345   3.252   6.370
  607SOL    HW1 2720   1.253   3.212   6.361
  607SOL    HW2 2721   1.409   3.199   6.315
  608SOL     OW 2722   3.272   1.743   0.237
  608SOL    HW1 2723   3.208   1.808   0.197
  608SOL    HW2 2724   3.366   1.775   0.221
  609SOL     OW 2725   3.520   3.170   2.459
  609SOL    HW1 2726   3.538   3.100   2.390
  609SOL    HW2 2727   3.515   3.260   2.415
  610SOL     OW 2728   4.939   3.039   1.833
  610SOL    HW1 2729   4.859   3.041   1.893
  610SOL    HW2 2730   4.974   2.945   1.827
  611SOL     OW 2731   3.565   1.740   2.201
  611SOL    HW1 2732   3.477   1.697   2.219
  611SOL    HW2 2733   3.558   1.798   2.120
  612SOL     OW 2734   4.733   4.959   4.345
  612SOL    HW1 2735   4.746   4.860   4.349
  612SOL    HW2 2736   4.821   5.005   4.349
  613SOL     OW 2737   3.903   5.140   6.461
  613SOL    HW1 2738   3.951   5.167   6.545
  613SOL    HW2 2739   3.887   5.041   6.463
  614SOL     OW 2740   3.242   6.381   6.348
  614SOL    HW1 2741   3.172   6.321   6.387
  614SOL    HW2 2742   3.302   6.415   6.421
  615SOL     OW 2743   6.668   4.909   3.475
  615SOL    HW1 2744   6.768   4.917   3.481
  615SOL    HW2 2745   6.629   4.924   3.566
  616SOL     OW 2746   6.194   2.446   3.951
  616SOL    HW1 2747   6.108   2.498   3.955
  616SOL    HW2 2748   6.177   2.352   3.982
  617SOL     OW 2749   2.650   0.438   6.137
  617SOL    HW1 2750   2.721   0.391   6.189
  617SOL    HW2 2751   2.605   0.506   6.195
  618SOL     OW 2752   2.556   0.857   3.598
  618SOL    HW1 2753   2.546   0.957   3.604
  618SOL    HW2 2754   2.468   0.816   3.575
  619SOL     OW 2755   0.972   2.583   6.800
  619SOL    HW1 2756   1.010   2.629   6.880
  619SOL    HW2 2757   0.924   2.500   6.829
  620SOL     OW 2758   4.443   3.503   0.357
  620SOL    HW1 2759   4.345   3.512   0.341
  620SOL    HW2 2760   4.477   3.584   0.404
  621SOL     OW 2761   0.253   5.788   1.364
  621SOL    HW1 2762   0.164   5.791   1.410
  621SOL    HW2 2763   0.245   5.833   1.275
  622SOL     OW 2764   0.204   1.260   0.255
  622SOL    HW1 2765   0.145   1.315   0.315
  622SOL    HW2 2766   0.292   1.306   0.242
  623SOL     OW 2767   6.809   5.349   5.353
  623SOL    HW1 2768   6.862   5.313   5.430
  623SOL    HW2 2769   6.712   5.337   5.372
  624SOL     OW 2770   0.711   1.692   1.542
  624SOL    HW1 2771   0.643   1.735   1.602
  624SOL    HW2 2772   0.801   1.733   1.559
  625SOL     OW 2773   1.370   1.270   2.503
  625SOL    HW1 2774   1.375   1.172   2.523
  625SOL    HW2 2775   1.454   1.315   2.533
  626SOL     OW 2776   3.256   5.670   4.730
  626SOL    HW1 2777   3.203   5.593   4.695
  626SOL    HW2 2778   3.212   5.756   4.703
  627SOL     OW 2779   4.612   6.325   6.993
  627SOL    HW1 2780   4.645   6.277   6.912
  627SOL    HW2 2781   4.583   6.259   0.045
  628SOL     OW 2782   5.552   4.082   2.991
  628SOL    HW1 2783   5.455   4.105   2.990
  628SOL    HW2 2784   5.579   4.049   3.082
  629SOL     OW 2785   2.017   0.097   1.117
  629SOL    HW1 2786   2.082   0.027   1.088
  629SOL    HW2 2787   2.020   0.107   1.216
  630SOL     OW 2788   2.548   1.316   2.287
  630SOL    HW1 2789   2.615   1.309   2.213
  630SOL    HW2 2790   2.457   1.298   2.251
  631SOL     OW 2791   2.529   1.081   4.498
  631SOL    HW1 2792   2.558   0.988   4.473
  631SOL    HW2 2793   2.568   1.147   4.435
  632SOL     OW 2794   2.787   0.672   1.067
  632SOL    HW1 2795   2.727   0.642   1.141
  632SOL    HW2 2796   2.861   0.605   1.056
  633SOL     OW 2797   2.036   0.507   4.862
  633SOL    HW1 2798   2.038   0.540   4.957
  633SOL    HW2 2799   1.942   0.487   4.836
  634SOL     OW 2800   2.790   5.750   1.710
  634SOL    HW1 2801   2.747   5.839   1.725
  634SOL    HW2 2802   2.882   5.764   1.673
  635SOL     OW 2803   3.424   0.031   2.629
  635SOL    HW1 2804   3.360   7.009   2.562
  635SOL    HW2 2805   3.406   0.129   2.640
  636SOL     OW 2806   4.715   5.013   6.255
  636SOL    HW1 2807   4.775   4.940   6.221
  636SOL    HW2 2808   4.628   4.973   6.284
  637SOL     OW 2809   5.697   5.320   6.230
  637SOL    HW1 2810   5.706   5.256   6.307
  637SOL    HW2 2811   5.619   5.293   6.174
  638SOL     OW 2812   5.265   1.601   3.225
  638SOL    HW1 2813   5.284   1.698   3.242
  638SOL    HW2 2814   5.226   1.589   3.134
  639SOL     OW 2815   4.335   3.809   1.742
  639SOL    HW1 2816   4.280   3.725   1.745
  639SOL    HW2 2817   4.327   3.858   1.828
  640SOL     OW 2818   2.668   2.871   5.446
  640SOL    HW1 2819   2.648   2.786   5.397
  640SOL    HW2 2820   2.624   2.870   5.535
  641SOL     OW 2821   6.945   6.133   4.303
  641SOL    HW1 2822   0.018   6.086   4.308
  641SOL    HW2 2823   6.955   6.216   4.250
  642SOL     OW 2824   1.098   4.314   5.925
  642SOL    HW1 2825   1.175   4.318   5.989
  642SOL    HW2 2826   1.072   4.218   5.911
  643SOL     OW 2827   5.621   6.423   5.351
  643SOL    HW1 2828   5.541   6.482   5.366
  643SOL    HW2 2829   5.655   6.438   5.258
  644SOL     OW 2830   2.877   6.147   1.372
  644SOL    HW1 2831   2.840   6.117   1.460
  644SOL    HW2 2832   2.909   6.068   1.320
  645SOL     OW 2833   0.628   2.929   2.954
  645SOL    HW1 2834   0.588   3.004   3.007
  645SOL    HW2 2835   0.580   2.921   2.866
  646SOL     OW 2836   1.495   3.031   4.557
  646SOL    HW1 2837   1.525   3.034   4.462
  646SOL    HW2 2838   1.485   2.936   4.586
  647SOL     OW 2839   5.650   3.663   0.253
  647SOL    HW1 2840   5.743   3.643   0.221
  647SOL    HW2 2841   5.615   3.585   0.305
  648SOL     OW 2842   4.269   2.263   4.377
  648SOL    HW1 2843   4.292   2.180   4.428
  648SOL    HW2 2844   4.243   2.238   4.283
  649SOL     OW 2845   4.580   4.471   1.518
  649SOL    HW1 2846   4.503   4.535   1.518
  649SOL    HW2 2847   4.666   4.521   1.505
  650SOL     OW 2848   5.182   5.045   0.584
  650SOL    HW1 2849   5.109   5.034   0.652
  650SOL    HW2 2850   5.217   4.954   0.560
  651SOL     OW 2851   1.881   5.778   6.702
  651SOL    HW1 2852   1.805   5.814   6.757
  651SOL    HW2 2853   1.918   5.696   6.746
  652SOL     OW 2854   4.954   2.358   1.833
  652SOL    HW1 2855   4.923   2.404   1.917
  652SOL    HW2 2856   4.875   2.327   1.781
  653SOL     OW 2857   3.231   4.910   2.541
  653SOL    HW1 2858   3.145   4.919   2.591
  653SOL    HW2 2859   3.213   4.896   2.444
  654SOL     OW 2860   7.003   5.324   6.659
  654SOL    HW1 2861   0.002   5.234   6.617
  654SOL    HW2 2862   6.922   5.366   6.619
  655SOL     OW 2863   1.456   1.605   0.264
  655SOL    HW1 2864   1.506   1.654   0.193
  655SOL    HW2 2865   1.402   1.532   0.221
  656SOL     OW 2866   1.860   6.379   1.463
  656SOL    HW1 2867   1.766   6.394   1.435
  656SOL    HW2 2868   1.863   6.356   1.560
  657SOL     OW 2869   4.185   0.825   7.005
  657SOL    HW1 2870   4.161   0.753   0.054
  657SOL    HW2 2871   4.121   0.824   6.929
  658SOL     OW 2872   3.873   5.616   6.806
  658SOL    HW1 2873   3.779   5.635   6.833
  658SOL    HW2 2874   3.886   5.638   6.710
  659SOL     OW 2875   4.038   0.665   6.100
  659SOL    HW1 2876   4.112   0.707   6.047
  659SOL    HW2 2877   4.016   0.724   6.178
  660SOL     OW 2878   3.752   6.610   3.175
  660SOL    HW1 2879   3.815   6.681   3.144
  660SOL    HW2 2880   3.801   6.544   3.232
  661SOL     OW 2881   5.755   5.124   2.564
  661SOL    HW1 2882   5.720   5.089   2.478
  661SOL    HW2 2883   5.828   5.191   2.546
  662SOL     OW 2884   4.431   1.803   6.657
  662SOL    HW1 2885   4.370   1.866   6.610
  662SOL    HW2 2886   4.502   1.771   6.593
  663SOL     OW 2887   1.300   4.121   4.581
  663SOL    HW1 2888   1.362   4.050   4.613
  663SOL    HW2 2889   1.353   4.200   4.551
  664SOL     OW 2890   5.831   0.257   6.704
  664SOL    HW1 2891   5.816   0.228   6.798
  664SOL    HW2 2892   5.798   0.186   6.641
  665SOL     OW 2893   0.921   4.045   1.506
  665SOL    HW1 2894   0.934   4.134   1.550
  665SOL    HW2 2895   0.920   3.974   1.575
  666SOL     OW 2896   4.284   1.053   1.944
  666SOL    HW1 2897   4.205   1.017   1.993
  666SOL    HW2 2898   4.261   1.067   1.848
  667SOL     OW 2899   0.414   0.392   1.666
  667SOL    HW1 2900   0.442   0.487   1.671
  667SOL    HW2 2901   0.494   0.333   1.665
  668SOL     OW 2902   5.929   2.976   6.794
  668SOL    HW1 2903   5.899   3.071   6.799
  668SOL    HW2 2904   6.013   2.970   6.740
  669SOL     OW 2905   5.147   1.598   2.977
  669SOL    HW1 2906   5.102   1.686   2.985
  669SOL    HW2 2907   5.113   1.550   2.896
  670SOL     OW 2908   3.888   2.095   2.354
  670SOL    HW1 2909   3.802   2.144   2.369
  670SOL    HW2 2910   3.879   2.033   2.277
  671SOL     OW 2911   1.388   5.780   1.688
  671SOL    HW1 2912   1.487   5.777   1.677
  671SOL    HW2 2913   1.356   5.694   1.728
  672SOL     OW 2914   0.709   6.989   1.686
  672SOL    HW1 2915   0.633   6.936   1.723
  672SOL    HW2 2916   0.749   6.940   1.609
  673SOL     OW 2917   6.170   6.747   6.333
  673SOL    HW1 2918   6.140   6.757   6.428
  673SOL    HW2 2919   6.090   6.735   6.274
  674SOL     OW 2920   5.404   0.385   4.214
  674SOL    HW1 2921   5.326   0.441   4.189
  674SOL    HW2 2922   5.433   0.330   4.135
  675SOL     OW 2923   0.356   4.187   2.082
  675SOL    HW1 2924   0.330   4.230   2.169
  675SOL    HW2 2925   0.452   4.159   2.086
  676SOL     OW 2926   2.643   6.068   6.721
  676SOL    HW1 2927   2.654   6.109   6.811
  676SOL    HW2 2928   2.605   6.136   6.658
  677SOL     OW 2929   5.671   0.961   1.393
  677SOL    HW1 2930   5.586   0.965   1.340
  677SOL    HW2 2931   5.661   1.017   1.475
  678SOL     OW 2932   0.980   5.151   4.247
  678SOL    HW1 2933   0.907   5.207   4.284
  678SOL    HW2 2934   1.003   5.079   4.313
  679SOL     OW 2935   4.753   1.534   5.660
  679SOL    HW1 2936   4.774   1.606   5.593
  679SOL    HW2 2937   4.707   1.574   5.739
  680SOL     OW 2938   5.924   6.477   3.924
  680SOL    HW1 2939   5.904   6.531   3.842
  680SOL    HW2 2940   5.950   6.539   3.998
  681SOL     OW 2941   4.244   4.847   2.683
  681SOL    HW1 2942   4.147   4.850   2.710
  681SOL    HW2 2943   4.297   4.906   2.743
  682SOL     OW 2944   6.843   1.413   3.236
  682SOL    HW1 2945   6.755   1.454   3.260
  682SOL    HW2 2946   6.837   1.314   3.242
  683SOL     OW 2947   3.133   4.397   0.673
  683SOL    HW1 2948   3.193   4.461   0.624
  683SOL    HW2 2949   3.187   4.348   0.741
  684SOL     OW 2950   6.484   1.357   6.254
  684SOL    HW1 2951   6.486   1.371   6.155
  684SOL    HW2 2952   6.556   1.293   6.281
  685SOL     OW 2953   3.263   6.443   3.508
  685SOL    HW1 2954   3.341   6.500   3.535
  685SOL    HW2 2955   3.183   6.501   3.493
  686SOL     OW 2956   3.650   0.271   5.477
  686SOL    HW1 2957   3.703   0.235   5.553
  686SOL    HW2 2958   3.633   0.197   5.411
  687SOL     OW 2959   0.171   0.678   4.544
  687SOL    HW1 2960   0.236   0.602   4.539
  687SOL    HW2 2961   0.196   0.748   4.478
  688SOL     OW 2962   5.452   2.981   7.000
  688SOL    HW1 2963   5.511   2.968   0.064
  688SOL    HW2 2964   5.381   3.049   0.006
  689SOL     OW 2965   2.626   5.532   0.391
  689SOL    HW1 2966   2.578   5.598   0.333
  689SOL    HW2 2967   2.713   5.571   0.421
  690SOL     OW 2968   6.005   3.405   4.065
  690SOL    HW1 2969   5.950   3.323   4.076
  690SOL    HW2 2970   6.082   3.386   4.004
  691SOL     OW 2971   5.824   1.253   2.215
  691SOL    HW1 2972   5.813   1.185   2.288
  691SOL    HW2 2973   5.910   1.238   2.168
  692SOL     OW 2974   1.195   0.285   3.569
  692SOL    HW1 2975   1.097   0.308   3.574
  692SOL    HW2 2976   1.217   0.254   3.477
  693SOL     OW 2977   5.565   4.625   2.752
  693SOL    HW1 2978   5.470   4.634   2.780
  693SOL    HW2 2979   5.595   4.709   2.707
  694SOL     OW 2980   4.254   5.218   4.084
  694SOL    HW1 2981   4.221   5.312   4.090
  694SOL    HW2 2982   4.179   5.158   4.057
  695SOL     OW 2983   4.567   6.683   3.649
  695SOL    HW1 2984   4.624   6.760   3.680
  695SOL    HW2 2985   4.562   6.615   3.722
  696SOL     OW 2986   5.840   4.027   1.973
  696SOL    HW1 2987   5.780   3.948   1.987
  696SOL    HW2 2988   5.899   4.038   2.053
  697SOL     OW 2989   0.516   6.479   2.439
  697SOL    HW1 2990   0.521   6.409   2.367
  697SOL    HW2 2991   0.604   6.526   2.446
  698SOL     OW 2992   5.635   6.416   6.152
  698SOL    HW1 2993   5.717   6.408   6.095
  698SOL    HW2 2994   5.624   6.333   6.207
  699SOL     OW 2995   3.681   3.524   0.836
  699SOL    HW1 2996   3.696   3.618   0.865
  699SOL    HW2 2997   3.768   3.473   0.842
  700SOL     OW 2998   3.572   6.890   5.507
  700SOL    HW1 2999   3.635   6.863   5.580
  700SOL    HW2 3000   3.492   6.934   5.547
  701SOL     OW 3001   4.609   4.646   2.070
  701SOL    HW1 3002   4.697   4.658   2.117
  701SOL    HW2 3003   4.544   4.602   2.132
  702SOL     OW 3004   4.172   0.144   4.609
  702SOL    HW1 3005   4.123   0.168   4.525
  702SOL    HW2 3006   4.268   0.171   4.600
  703SOL     OW 3007   3.535   3.214   0.399
  703SOL    HW1 3008   3.563   3.239   0.492
  703SOL    HW2 3009   3.480   3.131   0.401
  704SOL     OW 3010   4.013   1.176   6.751
  704SOL    HW1 3011   4.048   1.239   6.681
  704SOL    HW2 3012   4.082   1.106   6.769
  705SOL     OW 3013   6.989   6.102   5.734
  705SOL    HW1 3014   0.040   6.057   5.677
  705SOL    HW2 3015   6.924   6.152   5.676
  706SOL     OW 3016   3.990   0.284   4.972
  706SOL    HW1 3017   3.958   0.231   4.893
  706SOL    HW2 3018   3.943   0.253   5.054
  707SOL     OW 3019   3.153   5.136   4.634
  707SOL    HW1 3020   3.088   5.099   4.701
  707SOL    HW2 3021   3.104   5.176   4.558
  708SOL     OW 3022   3.488   5.960   3.440
  708SOL    HW1 3023   3.399   5.915   3.439
  708SOL    HW2 3024   3.476   6.058   3.458
  709SOL     OW 3025   2.131   0.263   2.047
  709SOL    HW1 3026   2.154   0.354   2.012
  709SOL    HW2 3027   2.079   0.273   2.132
  710SOL     OW 3028   4.908   3.513   2.978
  710SOL    HW1 3029   4.944   3.596   2.935
  710SOL    HW2 3030   4.879   3.449   2.907
  711SOL     OW 3031   0.072   1.298   1.148
  711SOL    HW1 3032   0.130   1.268   1.223
  711SOL    HW2 3033   0.128   1.327   1.071
  712SOL     OW 3034   5.278   3.892   0.146
  712SOL    HW1 3035   5.182   3.920   0.148
  712SOL    HW2 3036   5.316   3.907   0.055
  713SOL     OW 3037   4.260   3.250   6.310
  713SOL    HW1 3038   4.338   3.266   6.370
  713SOL    HW2 3039   4.193   3.324   6.322
  714SOL     OW 3040   4.477   6.515   3.004
  714SOL    HW1 3041   4.565   6.519   3.050
  714SOL    HW2 3042   4.488   6.539   2.908
  715SOL     OW 3043   6.456   4.601   5.349
  715SOL    HW1 3044   6.357   4.613   5.336
  715SOL    HW2 3045   6.475   4.582   5.445
  716SOL     OW 3046   3.294   1.697   3.709
  716SOL    HW1 3047   3.288   1.750   3.625
  716SOL    HW2 3048   3.357   1.621   3.697
  717SOL     OW 3049   4.827   5.107   3.726
  717SOL    HW1 3050   4.915   5.060   3.719
  717SOL    HW2 3051   4.757   5.055   3.677
  718SOL     OW 3052   6.056   2.326   5.333
  718SOL    HW1 3053   6.016   2.355   5.420
  718SOL    HW2 3054   6.152   2.302   5.347
  719SOL     OW 3055   4.692   5.717   2.864
  719SOL    HW1 3056   4.608   5.763   2.894
  719SOL    HW2 3057   4.762   5.727   2.934
  720SOL     OW 3058   2.822   1.347   1.769
  720SOL    HW1 3059   2.758   1.418   1.800
  720SOL    HW2 3060   2.774   1.286   1.706
  721SOL     OW 3061   0.159   3.132   2.046
  721SOL    HW1 3062   0.240   3.080   2.018
  721SOL    HW2 3063   0.091   3.131   1.973
  722SOL     OW 3064   5.514   6.232   1.478
  722SOL    HW1 3065   5.595   6.281   1.446
  722SOL    HW2 3066   5.438   6.295   1.487
  723SOL     OW 3067   1.993   0.689   4.137
  723SOL    HW1 3068   1.932   0.708   4.214
  723SOL    HW2 3069   1.960   0.737   4.055
  724SOL     OW 3070   1.411   2.138   4.418
  724SOL    HW1 3071   1.505   2.114   4.442
  724SOL    HW2 3072   1.409   2.225   4.370
  725SOL     OW 3073   1.698   4.451   3.046
  725SOL    HW1 3074   1.637   4.527   3.068
  725SOL    HW2 3075   1.648   4.382   2.993
  726SOL     OW 3076   2.159   3.620   0.618
  726SOL    HW1 3077   2.231   3.608   0.550
  726SOL    HW2 3078   2.189   3.583   0.706
  727SOL     OW 3079   4.025   5.140   4.385
  727SOL    HW1 3080   3.992   5.098   4.469
  727SOL    HW2 3081   3.989   5.090   4.306
  728SOL     OW 3082   6.117   2.999   3.821
  728SOL    HW1 3083   6.128   2.943   3.739
  728SOL    HW2 3084   6.202   3.049   3.838
  729SOL     OW 3085   0.910   4.886   0.279
  729SOL    HW1 3086   1.000   4.892   0.236
  729SOL    HW2 3087   0.841   4.863   0.211
  730SOL     OW 3088   4.160   1.670   3.219
  730SOL    HW1 3089   4.251   1.682   3.258
  730SOL    HW2 3090   4.130   1.755   3.177
  731SOL     OW 3091   4.850   4.947   5.120
  731SOL    HW1 3092   4.797   4.989   5.193
  731SOL    HW2 3093   4.838   5.000   5.035
  732SOL     OW 3094   4.518   0.789   4.196
  732SOL    HW1 3095   4.543   0.737   4.278
  732SOL    HW2 3096   4.577   0.869   4.189
  733SOL     OW 3097   0.028   5.012   4.224
  733SOL    HW1 3098   6.968   5.044   4.280
  733SOL    HW2 3099   0.003   5.016   4.127
  734SOL     OW 3100   6.137   6.140   3.115
  734SOL    HW1 3101   6.086   6.054   3.124
  734SOL    HW2 3102   6.072   6.215   3.103
  735SOL     OW 3103   4.209   0.261   2.527
  735SOL    HW1 3104   4.281   0.317   2.486
  735SOL    HW2 3105   4.188   0.185   2.466
  736SOL     OW 3106   1.687   2.133   3.804
  736SOL    HW1 3107   1.735   2.218   3.781
  736SOL    HW2 3108   1.610   2.153   3.865
  737SOL     OW 3109   3.378   1.169   6.148
  737SOL    HW1 3110   3.439   1.237   6.188
  737SOL    HW2 3111   3.287   1.177   6.189
  738SOL     OW 3112   1.615   5.186   0.269
  738SOL    HW1 3113   1.570   5.229   0.348
  738SOL    HW2 3114   1.673   5.110   0.301
  739SOL     OW 3115   1.568   0.471   3.547
  739SOL    HW1 3116   1.504   0.522   3.489
  739SOL    HW2 3117   1.629   0.416   3.489
  740SOL     OW 3118   5.264   2.980   3.148
  740SOL    HW1 3119   5.218   3.016   3.067
  740SOL    HW2 3120   5.269   2.881   3.142
  741SOL     OW 3121   2.971   1.510   3.062
  741SOL    HW1 3122   2.898   1.442   3.049
  741SOL    HW2 3123   2.930   1.599   3.080
  742SOL     OW 3124   1.818   0.185   2.613
  742SOL    HW1 3125   1.757   0.142   2.546
  742SOL    HW2 3126   1.791   0.280   2.626
  743SOL     OW 3127   0.279   6.583   2.891
  743SOL    HW1 3128   0.347   6.526   2.846
  743SOL    HW2 3129   0.227   6.633   2.821
  744SOL     OW 3130   4.861   1.981   0.988
  744SOL    HW1 3131   4.909   1.926   0.920
  744SOL    HW2 3132   4.763   1.986   0.965
  745SOL     OW 3133   2.048   6.632   5.148
  745SOL    HW1 3134   2.070   6.706   5.084
  745SOL    HW2 3135   1.952   6.636   5.173
  746SOL     OW 3136   6.475   5.577   5.051
  746SOL    HW1 3137   6.505   5.520   4.974
  746SOL    HW2 3138   6.422   5.654   5.015
  747SOL     OW 3139   4.149   5.225   2.710
  747SOL    HW1 3140   4.164   5.250   2.805
  747SOL    HW2 3141   4.217   5.157   2.682
  748SOL     OW 3142   6.152   4.185   1.362
  748SOL    HW1 3143   6.157   4.202   1.264
  748SOL    HW2 3144   6.073   4.234   1.400
  749SOL     OW 3145   4.668   4.375   4.707
  749SOL    HW1 3146   4.689   4.312   4.633
  749SOL    HW2 3147   4.650   4.323   4.791
  750SOL     OW 3148   2.486   2.110   3.480
  750SOL    HW1 3149   2.503   2.121   3.382
  750SOL    HW2 3150   2.470   2.200   3.521
  751SOL     OW 3151   4.334   0.639   0.496
  751SOL    HW1 3152   4.295   0.561   0.545
  751SOL    HW2 3153   4.383   0.697   0.561
  752SOL     OW 3154   3.361   2.931   4.256
  752SOL    HW1 3155   3.329   2.982   4.176
  752SOL    HW2 3156   3.294   2.938   4.330
  753SOL     OW 3157   3.639   4.000   3.375
  753SOL    HW1 3158   3.549   3.956   3.374
  753SOL    HW2 3159   3.694   3.960   3.449
  754SOL     OW 3160   5.013   0.088   6.892
  754SOL    HW1 3161   4.931   0.111   6.840
  754SOL    HW2 3162   5.052   0.171   6.931
  755SOL     OW 3163   4.878   4.592   5.120
  755SOL    HW1 3164   4.882   4.526   5.045
  755SOL    HW2 3165   4.928   4.555   5.199
  756SOL     OW 3166   3.591   5.733   5.691
  756SOL    HW1 3167   3.546   5.817   5.659
  756SOL    HW2 3168   3.686   5.732   5.661
  757SOL     OW 3169   1.446   0.067   1.818
  757SOL    HW1 3170   1.432   0.144   1.880
  757SOL    HW2 3171   1.451   0.099   1.724
  758SOL     OW 3172   4.042   1.297   4.491
  758SOL    HW1 3173   4.069   1.233   4.418
  758SOL    HW2 3174   4.117   1.361   4.508
  759SOL     OW 3175   0.017   3.189   3.692
  759SOL    HW1 3176   0.010   3.281   3.655
  759SOL    HW2 3177   0.106   3.150   3.667
  760SOL     OW 3178   6.776   5.440   3.904
  760SOL    HW1 3179   6.766   5.501   3.983
  760SOL    HW2 3180   6.844   5.478   3.841
  761SOL     OW 3181   4.374   5.008   5.919
  761SOL    HW1 3182   4.369   5.072   5.996
  761SOL    HW2 3183   4.294   4.949   5.919
  762SOL     OW 3184   3.845   5.614   3.467
  762SOL    HW1 3185   3.934   5.601   3.512
  762SOL    HW2 3186   3.843   5.562   3.382
  763SOL     OW 3187   5.459   1.140   0.837
  763SOL    HW1 3188   5.392   1.203   0.877
  763SOL    HW2 3189   5.414   1.081   0.770
  764SOL     OW 3190   5.032   6.644   5.071
  764SOL    HW1 3191   4.960   6.689   5.018
  764SOL    HW2 3192   5.007   6.644   5.168
  765SOL     OW 3193   5.717   6.164   0.579
  765SOL    HW1 3194   5.802   6.132   0.621
  765SOL    HW2 3195   5.724   6.158   0.480
  766SOL     OW 3196   2.476   2.076   4.228
  766SOL    HW1 3197   2.573   2.083   4.206
  766SOL    HW2 3198   2.442   2.164   4.262
  767SOL     OW 3199   6.973   6.217   3.522
  767SOL    HW1 3200   6.925   6.281   3.582
  767SOL    HW2 3201   0.030   6.172   3.573
  768SOL     OW 3202   2.308   5.740   2.213
  768SOL    HW1 3203   2.284   5.646   2.236
  768SOL    HW2 3204   2.406   5.753   2.222
  769SOL     OW 3205   3.743   1.388   5.528
  769SOL    HW1 3206   3.769   1.292   5.523
  769SOL    HW2 3207   3.803   1.443   5.470
  770SOL     OW 3208   0.766   4.803   5.626
  770SOL    HW1 3209   0.788   4.878   5.690
  770SOL    HW2 3210   0.790   4.831   5.533
  771SOL     OW 3211   1.579   4.877   2.684
  771SOL    HW1 3212   1.559   4.903   2.590
  771SOL    HW2 3213   1.518   4.927   2.746
  772SOL     OW 3214   5.625   5.149   0.517
  772SOL    HW1 3215   5.671   5.231   0.553
  772SOL    HW2 3216   5.633   5.075   0.584
  773SOL     OW 3217   1.966   4.802   4.196
  773SOL    HW1 3218   1.929   4.710   4.188
  773SOL    HW2 3219   1.984   4.839   4.105
  774SOL     OW 3220   1.971   2.039   3.809
  774SOL    HW1 3221   2.008   2.056   3.718
  774SOL    HW2 3222   1.874   2.063   3.811
  775SOL     OW 3223   1.214   4.318   2.685
  775SOL    HW1 3224   1.115   4.329   2.680
  775SOL    HW2 3225   1.253   4.396   2.734
  776SOL     OW 3226   3.404   5.707   6.352
  776SOL    HW1 3227   3.373   5.614   6.371
  776SOL    HW2 3228   3.331   5.771   6.374
  777SOL     OW 3229   1.939   3.613   6.702
  777SOL    HW1 3230   1.981   3.651   6.784
  777SOL    HW2 3231   1.842   3.638   6.699
  778SOL     OW 3232   3.621   5.665   6.881
  778SOL    HW1 3233   3.610   5.762   6.863
  778SOL    HW2 3234   3.551   5.635   6.946
  779SOL     OW 3235   5.662   1.865   3.410
  779SOL    HW1 3236   5.675   1.962   3.390
  779SOL    HW2 3237   5.739   1.813   3.373
  780SOL     OW 3238   6.467   1.603   4.202
  780SOL    HW1 3239   6.504   1.605   4.295
  780SOL    HW2 3240   6.370   1.625   4.205
  781SOL     OW 3241   0.736   4.810   6.494
  781SOL    HW1 3242   0.672   4.734   6.484
  781SOL    HW2 3243   0.711   4.883   6.430
  782SOL     OW 3244   2.327   4.247   5.485
  782SOL    HW1 3245   2.283   4.282   5.568
  782SOL    HW2 3246   2.265   4.259   5.408
  783SOL     OW 3247   6.722   4.634   6.415
  783SOL    HW1 3248   6.647   4.657   6.353
  783SOL    HW2 3249   6.691   4.645   6.509
  784SOL     OW 3250   2.177   5.460   6.772
  784SOL    HW1 3251   2.231   5.404   6.835
  784SOL    HW2 3252   2.236   5.532   6.734
  785SOL     OW 3253   0.653   0.389   4.007
  785SOL    HW1 3254   0.698   0.469   4.048
  785SOL    HW2 3255   0.563   0.377   4.048
  786SOL     OW 3256   5.850   0.734   4.787
  786SOL    HW1 3257   5.878   0.639   4.784
  786SOL    HW2 3258   5.765   0.745   4.735
  787SOL     OW 3259   1.915   6.669   1.113
  787SOL    HW1 3260   1.832   6.615   1.124
  787SOL    HW2 3261   1.925   6.732   1.190
  788SOL     OW 3262   2.261   2.538   2.417
  788SOL    HW1 3263   2.263   2.610   2.348
  788SOL    HW2 3264   2.351   2.528   2.459
  789SOL     OW 3265   4.021   5.247   2.326
  789SOL    HW1 3266   3.977   5.231   2.414
  789SOL    HW2 3267   4.002   5.171   2.265
  790SOL     OW 3268   6.958   3.608   2.156
  790SOL    HW1 3269   6.919   3.581   2.244
  790SOL    HW2 3270   7.013   3.532   2.119
  791SOL     OW 3271   3.320   1.061   3.666
  791SOL    HW1 3272   3.334   0.990   3.735
  791SOL    HW2 3273   3.262   1.133   3.703
  792SOL     OW 3274   2.321   0.405   0.951
  792SOL    HW1 3275   2.243   0.456   0.913
  792SOL    HW2 3276   2.405   0.435   0.905
  793SOL     OW 3277   1.823   5.299   5.107
  793SOL    HW1 3278   1.919   5.315   5.085
  793SOL    HW2 3279   1.783   5.237   5.040
  794SOL     OW 3280   3.721   3.764   2.196
  794SOL    HW1 3281   3.703   3.760   2.294
  794SOL    HW2 3282   3.756   3.675   2.165
  795SOL     OW 3283   4.609   0.169   5.284
  795SOL    HW1 3284   4.654   0.151   5.371
  795SOL    HW2 3285   4.511   0.150   5.292
  796SOL     OW 3286   1.124   2.403   6.643
  796SOL    HW1 3287   1.083   2.462   6.712
  796SOL    HW2 3288   1.054   2.344   6.602
  797SOL     OW 3289   3.469   6.955   1.291
  797SOL    HW1 3290   3.503   0.028   1.262
  797SOL    HW2 3291   3.458   6.896   1.212
  798SOL     OW 3292   4.966   4.336   1.417
  798SOL    HW1 3293   4.917   4.274   1.479
  798SOL    HW2 3294   4.986   4.288   1.331
  799SOL     OW 3295   3.419   2.695   5.839
  799SOL    HW1 3296   3.479   2.766   5.875
  799SOL    HW2 3297   3.326   2.711   5.871
  800SOL     OW 3298   5.425   3.088   2.716
  800SOL    HW1 3299   5.452   3.032   2.638
  800SOL    HW2 3300   5.333   3.123   2.701
  801SOL     OW 3301   1.934   5.558   6.835
  801SOL    HW1 3302   2.022   5.512   6.826
  801SOL    HW2 3303   1.908   5.563   6.932
  802SOL     OW 3304   4.441   2.508   6.447
  802SOL    HW1 3305   4.421   2.459   6.532
  802SOL    HW2 3306   4.369   2.489   6.380
  803SOL     OW 3307   2.568   2.512   3.348
  803SOL    HW1 3308   2.666   2.495   3.335
  803SOL    HW2 3309   2.517   2.467   3.275
  804SOL     OW 3310   5.158   0.186   2.804
  804SOL    HW1 3311   5.109   0.202   2.890
  804SOL    HW2 3312   5.105   0.224   2.729
  805SOL     OW 3313   3.401   1.320   3.872
  805SOL    HW1 3314   3.412   1.347   3.776
  805SOL    HW2 3315   3.459   1.377   3.930
  806SOL     OW 3316   3.808   6.296   6.195
  806SOL    HW1 3317   3.830   6.334   6.285
  806SOL    HW2 3318   3.729   6.234   6.203
  807SOL     OW 3319   1.668   5.916   6.563
  807SOL    HW1 3320   1.632   5.825   6.542
  807SOL    HW2 3321   1.618   5.984   6.509
  808SOL     OW 3322   5.325   2.387   5.777
  808SOL    HW1 3323   5.314   2.290   5.753
  808SOL    HW2 3324   5.241   2.437   5.754
  809SOL     OW 3325   3.447   6.728   6.226
  809SOL    HW1 3326   3.503   6.700   6.149
  809SOL    HW2 3327   3.350   6.730   6.199
  810SOL     OW 3328   3.977   3.872   0.206
  810SOL    HW1 3329   3.945   3.896   0.114
  810SOL    HW2 3330   3.935   3.786   0.234
  811SOL     OW 3331   5.452   6.047   4.243
  811SOL    HW1 3332   5.489   6.107   4.171
  811SOL    HW2 3333   5.478   6.083   4.333
  812SOL     OW 3334   1.195   3.347   1.132
  812SOL    HW1 3335   1.265   3.348   1.060
  812SOL    HW2 3336   1.238   3.368   1.220
  813SOL     OW 3337   3.244   1.863   4.988
  813SOL    HW1 3338   3.177   1.924   5.029
  813SOL    HW2 3339   3.302   1.824   5.059
  814SOL     OW 3340   0.314   4.966   1.491
  814SOL    HW1 3341   0.254   5.039   1.523
  814SOL    HW2 3342   0.289   4.880   1.536
  815SOL     OW 3343   4.654   1.206   3.960
  815SOL    HW1 3344   4.591   1.196   3.884
  815SOL    HW2 3345   4.604   1.199   4.047
  816SOL     OW 3346   5.131   3.827   6.355
  816SOL    HW1 3347   5.034   3.826   6.334
  816SOL    HW2 3348   5.167   3.733   6.352
  817SOL     OW 3349   6.853   5.141   6.285
  817SOL    HW1 3350   6.893   5.145   6.377
  817SOL    HW2 3351   6.902   5.203   6.225
  818SOL     OW 3352   6.889   1.342   5.439
  818SOL    HW1 3353   6.834   1.352   5.522
  818SOL    HW2 3354   6.871   1.252   5.399
  819SOL     OW 3355   5.552   3.395   1.711
  819SOL    HW1 3356   5.502   3.311   1.733
  819SOL    HW2 3357   5.647   3.372   1.690
  820SOL     OW 3358   2.543   1.908   5.654
  820SOL    HW1 3359   2.491   1.825   5.675
  820SOL    HW2 3360   2.577   1.903   5.560
  821SOL     OW 3361   4.873   3.536   6.347
  821SOL    HW1 3362   4.897   3.597   6.271
  821SOL    HW2 3363   4.845   3.447   6.310
  822SOL     OW 3364   6.974   4.832   3.235
  822SOL    HW1 3365   0.009   4.786   3.307
  822SOL    HW2 3366   6.878   4.803   3.238
  823SOL     OW 3367   2.387   2.800   4.467
  823SOL    HW1 3368   2.293   2.833   4.469
  823SOL    HW2 3369   2.427   2.806   4.558
  824SOL     OW 3370   5.336   0.421   6.363
  824SOL    HW1 3371   5.280   0.463   6.435
  824SOL    HW2 3372   5.417   0.380   6.403
  825SOL     OW 3373   5.897   5.493   0.811
  825SOL    HW1 3374   5.863   5.415   0.863
  825SOL    HW2 3375   5.845   5.575   0.836
  826SOL     OW 3376   3.952   2.022   0.381
  826SOL    HW1 3377   4.028   2.040   0.319
  826SOL    HW2 3378   3.881   2.091   0.369
  827SOL     OW 3379   3.696   3.374   4.999
  827SOL    HW1 3380   3.728   3.418   4.915
  827SOL    HW2 3381   3.636   3.297   4.975
  828SOL     OW 3382   0.896   6.446   6.091
  828SOL    HW1 3383   0.929   6.457   5.997
  828SOL    HW2 3384   0.941   6.512   6.150
  829SOL     OW 3385   3.850   3.302   1.749
  829SOL    HW1 3386   3.872   3.346   1.836
  829SOL    HW2 3387   3.755   3.324   1.724
  830SOL     OW 3388   6.904   3.998   5.540
  830SOL    HW1 3389   7.000   3.999   5.567
  830SOL    HW2 3390   6.850   4.049   5.607
  831SOL     OW 3391   5.896   1.221   3.191
  831SOL    HW1 3392   5.822   1.190   3.132
  831SOL    HW2 3393   5.859   1.276   3.267
  832SOL     OW 3394   3.041   2.176   4.758
  832SOL    HW1 3395   3.083   2.231   4.830
  832SOL    HW2 3396   2.961   2.223   4.722
  833SOL     OW 3397   4.285   2.808   0.052
  833SOL    HW1 3398   4.383   2.828   0.059
  833SOL    HW2 3399   4.234   2.873   0.107
  834SOL     OW 3400   5.902   3.074   0.490
  834SOL    HW1 3401   5.814   3.116   0.468
  834SOL    HW2 3402   5.976   3.130   0.454
  835SOL     OW 3403   6.896   6.621   5.319
  835SOL    HW1 3404   6.919   6.684   5.393
  835SOL    HW2 3405   6.964   6.549   5.314
  836SOL     OW 3406   5.909   0.408   3.734
  836SOL    HW1 3407   5.872   0.342   3.669
  836SOL    HW2 3408   5.878   0.383   3.826
  837SOL     OW 3409   1.335   0.580   6.452
  837SOL    HW1 3410   1.260   0.556   6.514
  837SOL    HW2 3411   1.346   0.679   6.449
  838SOL     OW 3412   1.454   5.711   3.181
  838SOL    HW1 3413   1.515   5.708   3.102
  838SOL    HW2 3414   1.483   5.644   3.248
  839SOL     OW 3415   1.365   2.274   0.208
  839SOL    HW1 3416   1.281   2.328   0.215
  839SOL    HW2 3417   1.430   2.323   0.149
  840SOL     OW 3418   4.602   5.222   0.423
  840SOL    HW1 3419   4.560   5.312   0.434
  840SOL    HW2 3420   4.654   5.220   0.337
  841SOL     OW 3421   2.820   5.160   6.412
  841SOL    HW1 3422   2.748   5.090   6.410
  841SOL    HW2 3423   2.779   5.250   6.404
  842SOL     OW 3424   4.439   6.638   0.595
  842SOL    HW1 3425   4.400   6.629   0.503
  842SOL    HW2 3426   4.431   6.551   0.644
  843SOL     OW 3427   1.411   0.730   1.969
  843SOL    HW1 3428   1.362   0.815   1.953
  843SOL    HW2 3429   1.463   0.736   2.054
  844SOL     OW 3430   6.561   6.716   1.471
  844SOL    HW1 3431   6.574   6.620   1.446
  844SOL    HW2 3432   6.650   6.760   1.481
  845SOL     OW 3433   3.877   1.372   1.875
  845SOL    HW1 3434   3.787   1.406   1.900
  845SOL    HW2 3435   3.929   1.352   1.958
  846SOL     OW 3436   1.710   1.491   1.293
  846SOL    HW1 3437   1.613   1.479   1.311
  846SOL    HW2 3438   1.750   1.403   1.264
  847SOL     OW 3439   2.493   3.321   1.154
  847SOL    HW1 3440   2.558   3.326   1.230
  847SOL    HW2 3441   2.421   3.388   1.168
  848SOL     OW 3442   6.627   6.158   0.694
  848SOL    HW1 3443   6.655   6.245   0.653
  848SOL    HW2 3444   6.578   6.104   0.625
  849SOL     OW 3445   5.386   3.032   6.277
  849SOL    HW1 3446   5.440   3.068   6.201
  849SOL    HW2 3447   5.420   3.070   6.363
  850SOL     OW 3448   1.716   1.367   4.471
  850SOL    HW1 3449   1.658   1.316   4.408
  850SOL    HW2 3450   1.779   1.425   4.419
  851SOL     OW 3451   5.115   2.512   6.001
  851SOL    HW1 3452   5.158   2.560   5.924
  851SOL    HW2 3453   5.028   2.472   5.971
  852SOL     OW 3454   6.568   5.313   2.124
  852SOL    HW1 3455   6.619   5.347   2.203
  852SOL    HW2 3456   6.557   5.387   2.058
  853SOL     OW 3457   3.253   3.140   0.627
  853SOL    HW1 3458   3.213   3.180   0.545
  853SOL    HW2 3459   3.322   3.072   0.601
  854SOL     OW 3460   0.345   0.002   5.846
  854SOL    HW1 3461   0.309   0.082   5.893
  854SOL    HW2 3462   0.360   0.023   5.749
  855SOL     OW 3463   4.849   2.083   0.180
  855SOL    HW1 3464   4.898   2.168   0.162
  855SOL    HW2 3465   4.878   2.045   0.267
  856SOL     OW 3466   2.033   5.633   1.501
  856SOL    HW1 3467   2.129   5.607   1.510
  856SOL    HW2 3468   2.015   5.713   1.558
  857SOL     OW 3469   6.921   5.958   5.192
  857SOL    HW1 3470   7.001   5.906   5.161
  857SOL    HW2 3471   6.846   5.945   5.127
  858SOL     OW 3472   3.459   3.887   0.049
  858SOL    HW1 3473   3.500   3.798   0.068
  858SOL    HW2 3474   3.460   3.904   6.967
  859SOL     OW 3475   4.650   5.518   5.399
  859SOL    HW1 3476   4.717   5.445   5.386
  859SOL    HW2 3477   4.560   5.478   5.413
  860SOL     OW 3478   4.302   2.728   6.051
  860SOL    HW1 3479   4.298   2.698   5.956
  860SOL    HW2 3480   4.383   2.784   6.065
  861SOL     OW 3481   1.000   5.752   2.573
  861SOL    HW1 3482   0.987   5.752   2.474
  861SOL    HW2 3483   1.063   5.679   2.599
  862SOL     OW 3484   1.021   4.311   4.009
  862SOL    HW1 3485   0.945   4.248   4.026
  862SOL    HW2 3486   1.088   4.304   4.083
  863SOL     OW 3487   5.497   1.066   1.632
  863SOL    HW1 3488   5.534   0.982   1.673
  863SOL    HW2 3489   5.470   1.048   1.537
  864SOL     OW 3490   5.641   5.650   2.947
  864SOL    HW1 3491   5.628   5.717   2.874
  864SOL    HW2 3492   5.599   5.563   2.920
  865SOL     OW 3493   1.260   5.107   4.736
  865SOL    HW1 3494   1.314   5.054   4.672
  865SOL    HW2 3495   1.166   5.071   4.739
  866SOL     OW 3496   3.702   6.857   1.389
  866SOL    HW1 3497   3.722   6.926   1.458
  866SOL    HW2 3498   3.605   6.863   1.363
  867SOL     OW 3499   6.199   3.274   5.441
  867SOL    HW1 3500   6.106   3.258   5.475
  867SOL    HW2 3501   6.198   3.348   5.374
  868SOL     OW 3502   0.859   1.989   2.385
  868SOL    HW1 3503   0.933   2.037   2.337
  868SOL    HW2 3504   0.782   2.052   2.397
  869SOL     OW 3505   0.092   2.968   2.516
  869SOL    HW1 3506   0.187   2.993   2.497
  869SOL    HW2 3507   0.047   2.941   2.431
  870SOL     OW 3508   3.762   4.865   2.194
  870SOL    HW1 3509   3.677   4.863   2.247
  870SOL    HW2 3510   3.742   4.836   2.100
  871SOL     OW 3511   4.487   1.776   3.622
  871SOL    HW1 3512   4.398   1.821   3.613
  871SOL    HW2 3513   4.551   1.837   3.668
  872SOL     OW 3514   1.330   2.207   4.888
  872SOL    HW1 3515   1.281   2.184   4.804
  872SOL    HW2 3516   1.353   2.304   4.888
  873SOL     OW 3517   4.125   6.892   6.450
  873SOL    HW1 3518   4.161   6.977   6.412
  873SOL    HW2 3519   4.029   6.881   6.422
  874SOL     OW 3520   6.043   3.769   1.787
  874SOL    HW1 3521   6.062   3.848   1.728
  874SOL    HW2 3522   6.124   3.711   1.792
  875SOL     OW 3523   5.246   5.951   2.428
  875SOL    HW1 3524   5.151   5.928   2.451
  875SOL    HW2 3525   5.274   6.031   2.480
  876SOL     OW 3526   6.229   1.108   6.476
  876SOL    HW1 3527   6.218   1.050   6.396
  876SOL    HW2 3528   6.322   1.099   6.512
  877SOL     OW 3529   1.248   3.313   6.831
  877SOL    HW1 3530   1.291   3.311   6.741
  877SOL    HW2 3531   1.296   3.379   6.889
  878SOL     OW 3532   3.734   6.621   4.219
  878SOL    HW1 3533   3.810   6.686   4.222
  878SOL    HW2 3534   3.769   6.528   4.230
  879SOL     OW 3535   5.739   0.161   6.319
  879SOL    HW1 3536   5.718   0.065   6.338
  879SOL    HW2 3537   5.749   0.175   6.221
  880SOL     OW 3538   3.367   3.367   3.000
  880SOL    HW1 3539   3.450   3.411   3.035
  880SOL    HW2 3540   3.291   3.433   3.002
  881SOL     OW 3541   4.151   2.082   0.211
  881SOL    HW1 3542   4.161   2.180   0.191
  881SOL    HW2 3543   4.241   2.038   0.206
  882SOL     OW 3544   2.001   3.144   3.161
  882SOL    HW1 3545   1.991   3.055   3.206
  882SOL    HW2 3546   1.990   3.217   3.228
  883SOL     OW 3547   2.549   6.295   3.047
  883SOL    HW1 3548   2.558   6.394   3.037
  883SOL    HW2 3549   2.625   6.250   3.001
  884SOL     OW 3550   2.696   3.379   6.258
  884SOL    HW1 3551   2.765   3.349   6.192
  884SOL    HW2 3552   2.674   3.303   6.319
  885SOL     OW 3553   4.249   2.990   6.382
  885SOL    HW1 3554   4.331   2.969   6.328
  885SOL    HW2 3555   4.217   3.082   6.360
  886SOL     OW 3556   3.757   1.026   6.797
  886SOL    HW1 3557   3.761   1.014   6.896
  886SOL    HW2 3558   3.822   1.097   6.770
  887SOL     OW 3559   4.666   1.073   5.394
  887SOL    HW1 3560   4.707   1.155   5.433
  887SOL    HW2 3561   4.568   1.070   5.417
  888SOL     OW 3562   0.214   6.534   1.540
  888SOL    HW1 3563   0.252   6.460   1.484
  888SOL    HW2 3564   0.232   6.622   1.497
  889SOL     OW 3565   0.152   3.834   0.528
  889SOL    HW1 3566   0.100   3.781   0.462
  889SOL    HW2 3567   0.090   3.886   0.587
  890SOL     OW 3568   2.339   6.260   4.559
  890SOL    HW1 3569   2.295   6.239   4.471
  890SOL    HW2 3570   2.279   6.320   4.612
  891SOL     OW 3571   5.029   4.750   2.455
  891SOL    HW1 3572   4.975   4.723   2.375
  891SOL    HW2 3573   5.005   4.692   2.532
  892SOL     OW 3574   2.540   4.387   0.636
  892SOL    HW1 3575   2.614   4.385   0.569
  892SOL    HW2 3576   2.489   4.301   0.631
  893SOL     OW 3577   1.345   5.303   2.930
  893SOL    HW1 3578   1.334   5.401   2.944
  893SOL    HW2 3579   1.302   5.253   3.006
  894SOL     OW 3580   0.875   4.380   0.940
  894SOL    HW1 3581   0.936   4.458   0.950
  894SOL    HW2 3582   0.805   4.384   1.011
  895SOL     OW 3583   6.984   4.998   3.946
  895SOL    HW1 3584   6.972   5.079   3.890
  895SOL    HW2 3585   0.060   4.961   3.933
  896SOL     OW 3586   0.416   1.019   6.540
  896SOL    HW1 3587   0.395   0.935   6.590
  896SOL    HW2 3588   0.405   1.003   6.442
  897SOL     OW 3589   5.215   1.212   0.725
  897SOL    HW1 3590   5.248   1.306   0.728
  897SOL    HW2 3591   5.117   1.210   0.746
  898SOL     OW 3592   3.760   0.540   2.620
  898SOL    HW1 3593   3.680   0.482   2.606
  898SOL    HW2 3594   3.843   0.488   2.601
  899SOL     OW 3595   6.694   5.935   6.989
  899SOL    HW1 3596   6.710   5.892   6.901
  899SOL    HW2 3597   6.650   5.869   0.034
  900SOL     OW 3598   5.070   5.340   0.517
  900SOL    HW1 3599   5.140   5.412   0.524
  900SOL    HW2 3600   5.106   5.255   0.556
  901SOL     OW 3601   1.093   0.497   3.340
  901SOL    HW1 3602   1.026   0.535   3.403
  901SOL    HW2 3603   1.185   0.526   3.368
  902SOL     OW 3604   6.719   2.995   1.456
  902SOL    HW1 3605   6.804   3.043   1.434
  902SOL    HW2 3606   6.646   3.061   1.470
  903SOL     OW 3607   0.234   1.313   1.401
  903SOL    HW1 3608   0.150   1.332   1.452
  903SOL    HW2 3609   0.302   1.383   1.421
  904SOL     OW 3610   2.669   1.042   3.019
  904SOL    HW1 3611   2.631   1.040   3.112
  904SOL    HW2 3612   2.621   1.110   2.965
  905SOL     OW 3613   6.342   1.863   6.216
  905SOL    HW1 3614   6.330   1.790   6.283
  905SOL    HW2 3615   6.366   1.824   6.127
  906SOL     OW 3616   5.086   2.744   0.604
  906SOL    HW1 3617   4.988   2.737   0.619
  906SOL    HW2 3618   5.109   2.702   0.516
  907SOL     OW 3619   5.328   4.351   6.224
  907SOL    HW1 3620   5.315   4.371   6.127
  907SOL    HW2 3621   5.425   4.345   6.245
  908SOL     OW 3622   0.778   4.173   3.509
  908SOL    HW1 3623   0.794   4.148   3.605
  908SOL    HW2 3624   0.858   4.222   3.474
  909SOL     OW 3625   5.383   5.871   5.961
  909SOL    HW1 3626   5.476   5.847   5.935
  909SOL    HW2 3627   5.325   5.789   5.957
  910SOL     OW 3628   3.315   4.561   0.529
  910SOL    HW1 3629   3.273   4.506   0.457
  910SOL    HW2 3630   3.324   4.656   0.498
  911SOL     OW 3631   1.059   4.409   5.339
  911SOL    HW1 3632   1.053   4.345   5.416
  911SOL    HW2 3633   1.146   4.458   5.344
  912SOL     OW 3634   4.891   1.629   4.692
  912SOL    HW1 3635   4.911   1.545   4.741
  912SOL    HW2 3636   4.798   1.659   4.714
  913SOL     OW 3637   4.785   6.710   2.792
  913SOL    HW1 3638   4.739   6.774   2.854
  913SOL    HW2 3639   4.867   6.753   2.755
  914SOL     OW 3640   3.258   6.521   6.100
  914SOL    HW1 3641   3.249   6.485   6.193
  914SOL    HW2 3642   3.353   6.515   6.071
  915SOL     OW 3643   5.423   5.677   1.380
  915SOL    HW1 3644   5.348   5.684   1.314
  915SOL    HW2 3645   5.414   5.593   1.433
  916SOL     OW 3646   1.057   3.122   2.925
  916SOL    HW1 3647   1.032   3.202   2.869
  916SOL    HW2 3648   1.156   3.118   2.935
  917SOL     OW 3649   0.621   6.816   6.747
  917SOL    HW1 3650   0.602   6.736   6.690
  917SOL    HW2 3651   0.654   6.891   6.689
  918SOL     OW 3652   3.486   6.433   0.019
  918SOL    HW1 3653   3.570   6.463   0.063
  918SOL    HW2 3654   3.430   6.513   7.013
  919SOL     OW 3655   4.701   0.800   5.993
  919SOL    HW1 3656   4.734   0.891   6.019
  919SOL    HW2 3657   4.765   0.759   5.928
  920SOL     OW 3658   3.015   5.027   1.627
  920SOL    HW1 3659   2.919   5.049   1.610
  920SOL    HW2 3660   3.030   4.929   1.611
  921SOL     OW 3661   4.762   5.769   4.927
  921SOL    HW1 3662   4.669   5.779   4.893
  921SOL    HW2 3663   4.765   5.791   5.025
  922SOL     OW 3664   3.329   3.634   3.362
  922SOL    HW1 3665   3.339   3.535   3.374
  922SOL    HW2 3666   3.246   3.664   3.409
  923SOL     OW 3667   2.477   3.338   5.691
  923SOL    HW1 3668   2.401   3.287   5.732
  923SOL    HW2 3669   2.484   3.314   5.594
  924SOL     OW 3670   0.419   3.197   0.920
  924SOL    HW1 3671   0.474   3.217   1.000
  924SOL    HW2 3672   0.477   3.196   0.838
  925SOL     OW 3673   0.636   1.040   6.854
  925SOL    HW1 3674   0.640   1.101   6.776
  925SOL    HW2 3675   0.726   1.036   6.898
  926SOL     OW 3676   1.922   1.882   1.558
  926SOL    HW1 3677   1.877   1.817   1.497
  926SOL    HW2 3678   1.896   1.863   1.652
  927SOL     OW 3679   6.759   3.482   4.575
  927SOL    HW1 3680   6.819   3.485   4.495
  927SOL    HW2 3681   6.675   3.433   4.552
  928SOL     OW 3682   3.045   5.071   5.677
  928SOL    HW1 3683   2.969   5.120   5.719
  928SOL    HW2 3684   3.025   5.057   5.580
  929SOL     OW 3685   0.777   1.837   4.430
  929SOL    HW1 3686   0.758   1.845   4.332
  929SOL    HW2 3687   0.740   1.916   4.477
  930SOL     OW 3688   5.854   5.503   4.618
  930SOL    HW1 3689   5.889   5.562   4.545
  930SOL    HW2 3690   5.763   5.534   4.645
  931SOL     OW 3691   6.020   0.653   3.679
  931SOL    HW1 3692   6.002   0.568   3.729
  931SOL    HW2 3693   5.984   0.646   3.586
  932SOL     OW 3694   3.621   0.561   3.506
  932SOL    HW1 3695   3.693   0.612   3.458
  932SOL    HW2 3696   3.582   0.619   3.578
  933SOL     OW 3697   0.923   5.455   1.659
  933SOL    HW1 3698   0.923   5.545   1.702
  933SOL    HW2 3699   0.910   5.464   1.561
  934SOL     OW 3700   1.862   2.721   0.232
  934SOL    HW1 3701   1.803   2.700   0.310
  934SOL    HW2 3702   1.957   2.715   0.261
  935SOL     OW 3703   5.851   2.688   5.780
  935SOL    HW1 3704   5.811   2.617   5.838
  935SOL    HW2 3705   5.875   2.768   5.835
  936SOL     OW 3706   2.035   0.671   5.959
  936SOL    HW1 3707   1.987   0.585   5.978
  936SOL    HW2 3708   2.124   0.670   6.005
  937SOL     OW 3709   3.135   2.576   6.167
  937SOL    HW1 3710   3.220   2.602   6.213
  937SOL    HW2 3711   3.145   2.589   6.068
  938SOL     OW 3712   5.170   6.486   4.861
  938SOL    HW1 3713   5.219   6.424   4.922
  938SOL    HW2 3714   5.100   6.535   4.913
  939SOL     OW 3715   1.497   0.335   5.364
  939SOL    HW1 3716   1.559   0.266   5.327
  939SOL    HW2 3717   1.493   0.327   5.464
  940SOL     OW 3718   1.763   5.709   0.669
  940SOL    HW1 3719   1.712   5.781   0.716
  940SOL    HW2 3720   1.816   5.657   0.737
  941SOL     OW 3721   3.892   6.629   1.159
  941SOL    HW1 3722   3.875   6.728   1.158
  941SOL    HW2 3723   3.984   6.612   1.194
  942SOL     OW 3724   6.766   5.122   0.176
  942SOL    HW1 3725   6.692   5.080   0.124
  942SOL    HW2 3726   6.813   5.053   0.230
  943SOL     OW 3727   3.405   5.812   1.189
  943SOL    HW1 3728   3.362   5.723   1.202
  943SOL    HW2 3729   3.463   5.810   1.108
  944SOL     OW 3730   6.753   6.053   3.152
  944SOL    HW1 3731   6.722   6.127   3.212
  944SOL    HW2 3732   6.831   6.007   3.194
  945SOL     OW 3733   0.853   5.858   6.722
  945SOL    HW1 3734   0.943   5.814   6.728
  945SOL    HW2 3735   0.860   5.942   6.669
  946SOL     OW 3736   5.679   2.038   4.003
  946SOL    HW1 3737   5.612   2.026   4.076
  946SOL    HW2 3738   5.769   2.012   4.037
  947SOL     OW 3739   3.948   3.895   2.790
  947SOL    HW1 3740   3.974   3.857   2.701
  947SOL    HW2 3741   4.026   3.891   2.853
  948SOL     OW 3742   3.541   1.076   3.938
  948SOL    HW1 3743   3.470   1.146   3.935
  948SOL    HW2 3744   3.609   1.101   4.006
  949SOL     OW 3745   2.965   0.244   5.825
  949SOL    HW1 3746   3.026   0.323   5.836
  949SOL    HW2 3747   2.883   0.258   5.881
  950SOL     OW 3748   6.899   0.020   1.820
  950SOL    HW1 3749   6.972   6.987   1.773
  950SOL    HW2 3750   6.833   6.970   1.856
  951SOL     OW 3751   1.156   0.160   3.024
  951SOL    HW1 3752   1.225   0.107   2.975
  951SOL    HW2 3753   1.069   0.110   3.023
  952SOL     OW 3754   3.635   1.657   3.251
  952SOL    HW1 3755   3.650   1.677   3.348
  952SOL    HW2 3756   3.723   1.646   3.205
  953SOL     OW 3757   0.978   5.351   5.885
  953SOL    HW1 3758   0.923   5.429   5.917
  953SOL    HW2 3759   1.075   5.374   5.893
  954SOL     OW 3760   4.403   6.370   2.593
  954SOL    HW1 3761   4.432   6.295   2.651
  954SOL    HW2 3762   4.472   6.443   2.596
  955SOL     OW 3763   2.373   4.849   0.874
  955SOL    HW1 3764   2.456   4.825   0.924
  955SOL    HW2 3765   2.379   4.813   0.781
  956SOL     OW 3766   3.665   0.429   1.034
  956SOL    HW1 3767   3.719   0.368   0.976
  956SOL    HW2 3768   3.598   0.478   0.979
  957SOL     OW 3769   5.901   6.533   3.341
  957SOL    HW1 3770   5.830   6.586   3.294
  957SOL    HW2 3771   5.911   6.566   3.435
  958SOL     OW 3772   5.512   6.209   2.125
  958SOL    HW1 3773   5.426   6.219   2.176
  958SOL    HW2 3774   5.583   6.177   2.187
  959SOL     OW 3775   4.925   0.428   3.130
  959SOL    HW1 3776   4.869   0.419   3.047
  959SOL    HW2 3777   5.021   0.410   3.108
  960SOL     OW 3778   1.863   6.150   5.988
  960SOL    HW1 3779   1.901   6.142   5.896
  960SOL    HW2 3780   1.936   6.172   6.053
  961SOL     OW 3781   4.272   1.188   3.608
  961SOL    HW1 3782   4.204   1.116   3.621
  961SOL    HW2 3783   4.352   1.169   3.664
  962SOL     OW 3784   0.235   6.975   4.263
  962SOL    HW1 3785   0.151   6.941   4.222
  962SOL    HW2 3786   0.305   6.903   4.260
  963SOL     OW 3787   5.746   3.067   1.711
  963SOL    HW1 3788   5.734   3.097   1.617
  963SOL    HW2 3789   5.842   3.047   1.728
  964SOL     OW 3790   3.540   6.701   5.004
  964SOL    HW1 3791   3.559   6.696   5.102
  964SOL    HW2 3792   3.452   6.746   4.989
  965SOL     OW 3793   4.799   2.096   4.085
  965SOL    HW1 3794   4.849   2.182   4.089
  965SOL    HW2 3795   4.863   2.020   4.075
  966SOL     OW 3796   5.274   1.121   3.683
  966SOL    HW1 3797   5.197   1.104   3.622
  966SOL    HW2 3798   5.323   1.203   3.653
  967SOL     OW 3799   4.091   5.115   5.921
  967SOL    HW1 3800   3.997   5.100   5.889
  967SOL    HW2 3801   4.115   5.211   5.909
  968SOL     OW 3802   3.500   0.536   1.215
  968SOL    HW1 3803   3.568   0.473   1.178
  968SOL    HW2 3804   3.508   0.624   1.168
  969SOL     OW 3805   2.582   3.731   6.627
  969SOL    HW1 3806   2.582   3.831   6.629
  969SOL    HW2 3807   2.616   3.699   6.539
  970SOL     OW 3808   4.482   6.727   5.333
  970SOL    HW1 3809   4.533   6.793   5.388
  970SOL    HW2 3810   4.389   6.760   5.317
  971SOL     OW 3811   5.286   3.246   3.715
  971SOL    HW1 3812   5.365   3.300   3.685
  971SOL    HW2 3813   5.203   3.301   3.706
  972SOL     OW 3814   0.742   2.220   0.810
  972SOL    HW1 3815   0.684   2.145   0.776
  972SOL    HW2 3816   0.785   2.191   0.896
  973SOL     OW 3817   6.802   2.741   4.654
  973SOL    HW1 3818   6.730   2.809   4.643
  973SOL    HW2 3819   6.858   2.763   4.733
  974SOL     OW 3820   0.496   3.282   2.006
  974SOL    HW1 3821   0.529   3.194   2.039
  974SOL    HW2 3822   0.472   3.274   1.909
  975SOL     OW 3823   2.758   0.462   2.188
  975SOL    HW1 3824   2.679   0.461   2.127
  975SOL    HW2 3825   2.833   0.512   2.143
  976SOL     OW 3826   0.283   2.717   3.828
  976SOL    HW1 3827   0.381   2.723   3.843
  976SOL    HW2 3828   0.235   2.728   3.915
  977SOL     OW 3829   6.098   1.228   2.200
  977SOL    HW1 3830   6.092   1.232   2.100
  977SOL    HW2 3831   6.125   1.318   2.235
  978SOL     OW 3832   4.768   3.005   0.625
  978SOL    HW1 3833   4.724   3.089   0.594
  978SOL    HW2 3834   4.821   3.023   0.708
  979SOL     OW 3835   0.460   4.828   6.340
  979SOL    HW1 3836   0.455   4.877   6.253
  979SOL    HW2 3837   0.448   4.892   6.416
  980SOL     OW 3838   4.439   1.324   4.670
  980SOL    HW1 3839   4.410   1.337   4.765
  980SOL    HW2 3840   4.368   1.357   4.608
  981SOL     OW 3841   0.746   5.958   5.450
  981SOL    HW1 3842   0.752   6.000   5.359
  981SOL    HW2 3843   0.658   5.911   5.459
  982SOL     OW 3844   0.301   0.815   6.695
  982SOL    HW1 3845   0.293   0.769   6.784
  982SOL    HW2 3846   0.321   0.747   6.625
  983SOL     OW 3847   0.303   3.657   2.922
  983SOL    HW1 3848   0.259   3.605   2.849
  983SOL    HW2 3849   0.402   3.645   2.916
  984SOL     OW 3850   0.665   3.431   3.794
  984SOL    HW1 3851   0.586   3.479   3.831
  984SOL    HW2 3852   0.644   3.334   3.784
  985SOL     OW 3853   5.787   5.806   4.962
  985SOL    HW1 3854   5.760   5.794   4.866
  985SOL    HW2 3855   5.724   5.756   5.021
  986SOL     OW 3856   3.796   5.806   1.761
  986SOL    HW1 3857   3.763   5.889   1.717
  986SOL    HW2 3858   3.810   5.823   1.859
  987SOL     OW 3859   4.703   4.643   4.642
  987SOL    HW1 3860   4.679   4.631   4.546
  987SOL    HW2 3861   4.715   4.553   4.685
  988SOL     OW 3862   2.918   4.828   1.904
  988SOL    HW1 3863   3.018   4.828   1.910
  988SOL    HW2 3864   2.884   4.735   1.918
  989SOL     OW 3865   0.335   2.683   0.984
  989SOL    HW1 3866   0.327   2.589   0.953
  989SOL    HW2 3867   0.430   2.701   1.011
  990SOL     OW 3868   3.663   0.437   5.123
  990SOL    HW1 3869   3.597   0.469   5.191
  990SOL    HW2 3870   3.699   0.348   5.151
  991SOL     OW 3871   1.125   5.942   3.949
  991SOL    HW1 3872   1.123   6.036   3.914
  991SOL    HW2 3873   1.063   5.886   3.895
  992SOL     OW 3874   6.519   2.573   0.135
  992SOL    HW1 3875   6.508   2.672   0.148
  992SOL    HW2 3876   6.556   2.533   0.218
  993SOL     OW 3877   2.085   4.810   6.582
  993SOL    HW1 3878   1.995   4.819   6.539
  993SOL    HW2 3879   2.122   4.901   6.602
  994SOL     OW 3880   2.715   0.099   1.591
  994SOL    HW1 3881   2.708   0.034   1.667
  994SOL    HW2 3882   2.695   0.191   1.625
  995SOL     OW 3883   5.823   4.019   5.353
  995SOL    HW1 3884   5.883   4.098   5.345
  995SOL    HW2 3885   5.757   4.020   5.278
  996SOL     OW 3886   4.146   6.419   5.195
  996SOL    HW1 3887   4.149   6.465   5.284
  996SOL    HW2 3888   4.051   6.394   5.174
  997SOL     OW 3889   1.463   6.387   3.411
  997SOL    HW1 3890   1.558   6.382   3.442
  997SOL    HW2 3891   1.402   6.389   3.490
  998SOL     OW 3892   4.549   6.887   0.355
  998SOL    HW1 3893   4.612   6.834   0.413
  998SOL    HW2 3894   4.457   6.881   0.393
  999SOL     OW 3895   5.355   3.019   2.172
  999SOL    HW1 3896   5.315   2.949   2.231
  999SOL    HW2 3897   5.441   3.050   2.212
 1000SOL     OW 3898   5.185   1.774   2.295
 1000SOL    HW1 3899   5.260   1.763   2.360
 1000SOL    HW2 3900   5.109   1.823   2.339
 1001SOL     OW 3901   2.828   6.590   2.796
 1001SOL    HW1 3902   2.921   6.603   2.762
 1001SOL    HW2 3903   2.808   6.658   2.866
 1002SOL     OW 3904   3.978   2.367   0.393
 1002SOL    HW1 3905   3.907   2.437   0.387
 1002SOL    HW2 3906   3.988   2.337   0.488
 1003SOL     OW 3907   0.719   0.806   3.313
 1003SOL    HW1 3908   0.733   0.845   3.404
 1003SOL    HW2 3909   0.763   0.716   3.309
 1004SOL     OW 3910   5.164   1.690   4.176
 1004SOL    HW1 3911   5.125   1.599   4.189
 1004SOL    HW2 3912   5.092   1.754   4.149
 1005SOL     OW 3913   0.484   5.387   1.738
 1005SOL    HW1 3914   0.505   5.348   1.648
 1005SOL    HW2 3915   0.566   5.383   1.795
 1006SOL     OW 3916   1.989   4.353   1.773
 1006SOL    HW1 3917   2.044   4.270   1.787
 1006SOL    HW2 3918   1.899   4.328   1.739
 1007SOL     OW 3919   4.861   0.964   6.394
 1007SOL    HW1 3920   4.896   1.040   6.339
 1007SOL    HW2 3921   4.878   0.878   6.347
 1008SOL     OW 3922   0.206   4.850   4.777
 1008SOL    HW1 3923   0.199   4.809   4.686
 1008SOL    HW2 3924   0.274   4.800   4.831
 1009SOL     OW 3925   6.419   5.837   6.707
 1009SOL    HW1 3926   6.460   5.749   6.683
 1009SOL    HW2 3927   6.321   5.834   6.687
 1010SOL     OW 3928   2.814   3.475   0.622
 1010SOL    HW1 3929   2.907   3.494   0.652
 1010SOL    HW2 3930   2.758   3.558   0.630
 1011SOL     OW 3931   6.709   4.955   2.307
 1011SOL    HW1 3932   6.698   4.962   2.208
 1011SOL    HW2 3933   6.742   5.041   2.343
 1012SOL     OW 3934   5.516   6.245   2.662
 1012SOL    HW1 3935   5.577   6.189   2.606
 1012SOL    HW2 3936   5.554   6.337   2.673
 1013SOL     OW 3937   0.993   0.494   5.979
 1013SOL    HW1 3938   0.905   0.537   5.961
 1013SOL    HW2 3939   1.060   0.564   6.002
 1014SOL     OW 3940   1.222   4.758   4.250
 1014SOL    HW1 3941   1.223   4.671   4.298
 1014SOL    HW2 3942   1.312   4.776   4.210
 1015SOL     OW 3943   2.294   6.231   6.944
 1015SOL    HW1 3944   2.240   6.315   6.941
 1015SOL    HW2 3945   2.365   6.239   7.014
 1016SOL     OW 3946   6.863   4.373   0.943
 1016SOL    HW1 3947   6.808   4.360   1.025
 1016SOL    HW2 3948   6.830   4.455   0.895
 1017SOL     OW 3949   2.138   1.027   2.659
 1017SOL    HW1 3950   2.179   1.044   2.749
 1017SOL    HW2 3951   2.061   0.964   2.669
 1018SOL     OW 3952   6.160   6.510   4.955
 1018SOL    HW1 3953   6.242   6.524   5.011
 1018SOL    HW2 3954   6.114   6.598   4.943
 1019SOL     OW 3955   6.270   3.966   1.263
 1019SOL    HW1 3956   6.317   3.919   1.338
 1019SOL    HW2 3957   6.208   4.035   1.300
 1020SOL     OW 3958   5.118   1.561   1.396
 1020SOL    HW1 3959   5.024   1.593   1.382
 1020SOL    HW2 3960   5.175   1.638   1.428
 1021SOL     OW 3961   1.327   6.855   0.841
 1021SOL    HW1 3962   1.228   6.852   0.855
 1021SOL    HW2 3963   1.367   6.928   0.896
 1022SOL     OW 3964   2.345   4.918   6.395
 1022SOL    HW1 3965   2.278   4.932   6.322
 1022SOL    HW2 3966   2.366   4.820   6.402
 1023SOL     OW 3967   0.599   1.815   2.014
 1023SOL    HW1 3968   0.685   1.768   1.996
 1023SOL    HW2 3969   0.617   1.911   2.036
 1024SOL     OW 3970   1.901   2.144   4.489
 1024SOL    HW1 3971   1.952   2.228   4.469
 1024SOL    HW2 3972   1.954   2.065   4.457
 1025SOL     OW 3973   4.562   4.297   1.068
 1025SOL    HW1 3974   4.526   4.304   1.161
 1025SOL    HW2 3975   4.567   4.201   1.041
 1026SOL     OW 3976   3.235   2.929   2.195
 1026SOL    HW1 3977   3.154   2.945   2.251
 1026SOL    HW2 3978   3.310   2.897   2.253
 1027SOL     OW 3979   6.564   6.772   0.035
 1027SOL    HW1 3980   6.602   6.692   0.082
 1027SOL    HW2 3981   6.571   6.852   0.095
 1028SOL     OW 3982   1.110   4.677   2.833
 1028SOL    HW1 3983   1.067   4.617   2.900
 1028SOL    HW2 3984   1.193   4.634   2.798
 1029SOL     OW 3985   0.985   0.670   5.140
 1029SOL    HW1 3986   0.948   0.759   5.114
 1029SOL    HW2 3987   0.928   0.630   5.211
 1030SOL     OW 3988   3.941   3.428   0.856
 1030SOL    HW1 3989   4.010   3.411   0.786
 1030SOL    HW2 3990   3.970   3.504   0.914
 1031SOL     OW 3991   4.327   3.064   0.401
 1031SOL    HW1 3992   4.323   3.109   0.490
 1031SOL    HW2 3993   4.422   3.058   0.371
 1032SOL     OW 3994   1.552   1.204   1.048
 1032SOL    HW1 3995   1.602   1.278   1.003
 1032SOL    HW2 3996   1.546   1.125   0.986
 1033SOL     OW 3997   6.500   0.039   2.105
 1033SOL    HW1 3998   6.551   6.972   2.123
 1033SOL    HW2 3999   6.512   0.103   2.181
 1034SOL     OW 4000   2.546   0.919   5.273
 1034SOL    HW1 4001   2.512   0.951   5.362
 1034SOL    HW2 4002   2.615   0.983   5.239
 1035SOL     OW 4003   1.580   0.572   0.276
 1035SOL    HW1 4004   1.612   0.663   0.302
 1035SOL    HW2 4005   1.634   0.503   0.324
 1036SOL     OW 4006   4.722   1.374   1.998
 1036SOL    HW1 4007   4.749   1.372   2.094
 1036SOL    HW2 4008   4.789   1.425   1.945
 1037SOL     OW 4009   1.709   3.715   3.021
 1037SOL    HW1 4010   1.750   3.789   2.967
 1037SOL    HW2 4011   1.628   3.749   3.069
 1038SOL     OW 4012   1.899   6.112   0.012
 1038SOL    HW1 4013   1.931   6.051   0.084
 1038SOL    HW2 4014   1.930   6.077   6.939
 1039SOL     OW 4015   3.128   4.048   2.949
 1039SOL    HW1 4016   3.177   4.048   3.036
 1039SOL    HW2 4017   3.034   4.018   2.963
 1040SOL     OW 4018   3.835   1.477   2.914
 1040SOL    HW1 4019   3.891   1.512   2.839
 1040SOL    HW2 4020   3.867   1.517   3.000
 1041SOL     OW 4021   6.660   6.565   6.389
 1041SOL    HW1 4022   6.703   6.539   6.303
 1041SOL    HW2 4023   6.571   6.606   6.370
 1042SOL     OW 4024   5.542   3.676   3.862
 1042SOL    HW1 4025   5.498   3.587   3.873
 1042SOL    HW2 4026   5.636   3.672   3.896
 1043SOL     OW 4027   2.657   1.931   3.931
 1043SOL    HW1 4028   2.672   2.025   3.962
 1043SOL    HW2 4029   2.594   1.931   3.854
 1044SOL     OW 4030   5.683   4.420   2.093
 1044SOL    HW1 4031   5.601   4.399   2.146
 1044SOL    HW2 4032   5.744   4.479   2.146
 1045SOL     OW 4033   2.297   0.326   2.690
 1045SOL    HW1 4034   2.360   0.348   2.616
 1045SOL    HW2 4035   2.206   0.361   2.668
 1046SOL     OW 4036   2.937   2.500   0.880
 1046SOL    HW1 4037   3.025   2.461   0.853
 1046SOL    HW2 4038   2.952   2.578   0.941
 1047SOL     OW 4039   3.746   0.804   3.389
 1047SOL    HW1 4040   3.661   0.845   3.422
 1047SOL    HW2 4041   3.771   0.847   3.302
 1048SOL     OW 4042   0.937   0.108   1.812
 1048SOL    HW1 4043   1.011   0.084   1.749
 1048SOL    HW2 4044   0.851   0.068   1.780
 1049SOL     OW 4045   3.674   6.785   0.394
 1049SOL    HW1 4046   3.607   6.762   0.323
 1049SOL    HW2 4047   3.627   6.825   0.472
 1050SOL     OW 4048   2.187   1.427   4.720
 1050SOL    HW1 4049   2.149   1.509   4.679
 1050SOL    HW2 4050   2.268   1.398   4.668
 1051SOL     OW 4051   1.859   2.047   5.360
 1051SOL    HW1 4052   1.900   2.080   5.275
 1051SOL    HW2 4053   1.868   1.947   5.364
 1052SOL     OW 4054   4.183   2.003   6.877
 1052SOL    HW1 4055   4.146   2.028   6.966
 1052SOL    HW2 4056   4.280   2.030   6.872
 1053SOL     OW 4057   4.972   2.677   4.238
 1053SOL    HW1 4058   5.028   2.703   4.160
 1053SOL    HW2 4059   4.884   2.726   4.233
 1054SOL     OW 4060   4.572   5.551   6.488
 1054SOL    HW1 4061   4.617   5.465   6.466
 1054SOL    HW2 4062   4.473   5.540   6.480
 1055SOL     OW 4063   5.240   5.709   6.640
 1055SOL    HW1 4064   5.258   5.806   6.655
 1055SOL    HW2 4065   5.322   5.665   6.605
 1056SOL     OW 4066   3.723   4.034   0.447
 1056SOL    HW1 4067   3.797   4.096   0.421
 1056SOL    HW2 4068   3.718   3.959   0.381
 1057SOL     OW 4069   3.154   3.400   6.454
 1057SOL    HW1 4070   3.067   3.409   6.501
 1057SOL    HW2 4071   3.140   3.407   6.355
 1058SOL     OW 4072   3.080   2.149   2.137
 1058SOL    HW1 4073   3.006   2.213   2.116
 1058SOL    HW2 4074   3.153   2.160   2.069
 1059SOL     OW 4075   2.247   6.084   2.357
 1059SOL    HW1 4076   2.186   6.163   2.365
 1059SOL    HW2 4077   2.324   6.108   2.297
 1060SOL     OW 4078   6.005   0.424   5.378
 1060SOL    HW1 4079   5.997   0.353   5.448
 1060SOL    HW2 4080   5.987   0.513   5.420
 1061SOL     OW 4081   0.040   3.830   6.528
 1061SOL    HW1 4082   0.113   3.886   6.566
 1061SOL    HW2 4083   0.015   3.758   6.594
 1062SOL     OW 4084   2.963   5.023   5.426
 1062SOL    HW1 4085   2.870   4.989   5.439
 1062SOL    HW2 4086   3.014   4.960   5.367
 1063SOL     OW 4087   2.943   6.312   3.892
 1063SOL    HW1 4088   2.848   6.336   3.872
 1063SOL    HW2 4089   2.958   6.215   3.870
 1064SOL     OW 4090   0.800   3.670   0.565
 1064SOL    HW1 4091   0.885   3.692   0.614
 1064SOL    HW2 4092   0.788   3.735   0.489
 1065SOL     OW 4093   6.292   1.054   4.916
 1065SOL    HW1 4094   6.229   1.097   4.980
 1065SOL    HW2 4095   6.361   1.002   4.966
 1066SOL     OW 4096   4.749   6.077   0.939
 1066SOL    HW1 4097   4.685   6.000   0.939
 1066SOL    HW2 4098   4.815   6.066   0.865
 1067SOL     OW 4099   3.065   1.227   0.198
 1067SOL    HW1 4100   3.065   1.150   0.134
 1067SOL    HW2 4101   3.144   1.285   0.179
 1068SOL     OW 4102   6.030   2.639   2.017
 1068SOL    HW1 4103   6.115   2.664   2.063
 1068SOL    HW2 4104   5.954   2.693   2.054
 1069SOL     OW 4105   6.781   2.725   2.409
 1069SOL    HW1 4106   6.831   2.695   2.490
 1069SOL    HW2 4107   6.710   2.790   2.436
 1070SOL     OW 4108   0.918   0.629   2.450
 1070SOL    HW1 4109   0.982   0.586   2.514
 1070SOL    HW2 4110   0.967   0.661   2.369
 1071SOL     OW 4111   0.709   2.633   6.230
 1071SOL    HW1 4112   0.672   2.720   6.196
 1071SOL    HW2 4113   0.756   2.649   6.317
 1072SOL     OW 4114   2.260   1.316   2.148
 1072SOL    HW1 4115   2.255   1.410   2.115
 1072SOL    HW2 4116   2.180   1.266   2.116
 1073SOL     OW 4117   5.675   2.391   3.000
 1073SOL    HW1 4118   5.669   2.396   2.901
 1073SOL    HW2 4119   5.667   2.296   3.029
 1074SOL     OW 4120   3.228   5.219   1.539
 1074SOL    HW1 4121   3.283   5.278   1.479
 1074SOL    HW2 4122   3.289   5.171   1.603
 1075SOL     OW 4123   6.181   4.006   4.949
 1075SOL    HW1 4124   6.176   3.910   4.921
 1075SOL    HW2 4125   6.272   4.042   4.929
 1076SOL     OW 4126   2.121   4.111   5.152
 1076SOL    HW1 4127   2.202   4.074   5.105
 1076SOL    HW2 4128   2.082   4.041   5.211
 1077SOL     OW 4129   6.926   6.306   0.394
 1077SOL    HW1 4130   6.948   6.344   0.304
 1077SOL    HW2 4131   6.997   6.240   0.420
 1078SOL     OW 4132   6.036   6.067   4.463
 1078SOL    HW1 4133   6.003   6.152   4.421
 1078SOL    HW2 4134   6.076   6.087   4.553
 1079SOL     OW 4135   0.908   6.587   1.066
 1079SOL    HW1 4136   0.852   6.558   0.988
 1079SOL    HW2 4137   0.947   6.507   1.111
 1080SOL     OW 4138   4.483   5.870   0.416
 1080SOL    HW1 4139   4.548   5.833   0.350
 1080SOL    HW2 4140   4.512   5.846   0.508
 1081SOL     OW 4141   0.084   6.362   3.342
 1081SOL    HW1 4142   0.039   6.428   3.282
 1081SOL    HW2 4143   0.017   6.325   3.407
 1082SOL     OW 4144   4.442   6.892   6.954
 1082SOL    HW1 4145   4.358   6.855   6.991
 1082SOL    HW2 4146   4.487   6.949   0.007
 1083SOL     OW 4147   5.705   4.234   2.326
 1083SOL    HW1 4148   5.790   4.209   2.280
 1083SOL    HW2 4149   5.703   4.333   2.343
 1084SOL     OW 4150   5.093   0.718   5.322
 1084SOL    HW1 4151   5.036   0.790   5.283
 1084SOL    HW2 4152   5.037   0.637   5.340
 1085SOL     OW 4153   1.524   3.128   5.183
 1085SOL    HW1 4154   1.539   3.124   5.084
 1085SOL    HW2 4155   1.556   3.216   5.218
 1086SOL     OW 4156   5.869   5.026   1.929
 1086SOL    HW1 4157   5.816   5.090   1.984
 1086SOL    HW2 4158   5.828   4.935   1.936
 1087SOL     OW 4159   3.853   0.459   6.034
 1087SOL    HW1 4160   3.795   0.448   6.114
 1087SOL    HW2 4161   3.935   0.512   6.058
 1088SOL     OW 4162   6.818   5.257   4.529
 1088SOL    HW1 4163   6.740   5.214   4.574
 1088SOL    HW2 4164   6.821   5.229   4.433
 1089SOL     OW 4165   5.787   5.379   3.925
 1089SOL    HW1 4166   5.872   5.328   3.935
 1089SOL    HW2 4167   5.709   5.320   3.947
 1090SOL     OW 4168   5.675   2.714   5.171
 1090SOL    HW1 4169   5.699   2.786   5.236
 1090SOL    HW2 4170   5.616   2.647   5.216
 1091SOL     OW 4171   2.112   3.543   2.896
 1091SOL    HW1 4172   2.079   3.625   2.850
 1091SOL    HW2 4173   2.136   3.565   2.991
 1092SOL     OW 4174   0.976   6.226   0.653
 1092SOL    HW1 4175   1.026   6.184   0.729
 1092SOL    HW2 4176   0.984   6.325   0.658
 1093SOL     OW 4177   1.457   0.506   3.076
 1093SOL    HW1 4178   1.520   0.535   3.149
 1093SOL    HW2 4179   1.363   0.518   3.107
 1094SOL     OW 4180   0.341   6.908   2.973
 1094SOL    HW1 4181   0.243   6.895   2.991
 1094SOL    HW2 4182   0.372   6.840   2.908
 1095SOL     OW 4183   6.052   3.811   0.469
 1095SOL    HW1 4184   6.104   3.777   0.391
 1095SOL    HW2 4185   6.096   3.781   0.554
 1096SOL     OW 4186   2.035   6.105   2.105
 1096SOL    HW1 4187   1.950   6.059   2.078
 1096SOL    HW2 4188   2.103   6.095   2.032
 1097SOL     OW 4189   2.944   6.326   4.432
 1097SOL    HW1 4190   2.936   6.233   4.398
 1097SOL    HW2 4191   3.013   6.375   4.379
 1098SOL     OW 4192   6.944   3.660   0.031
 1098SOL    HW1 4193   6.867   3.640   0.092
 1098SOL    HW2 4194   0.010   3.613   0.064
 1099SOL     OW 4195   5.491   0.710   6.204
 1099SOL    HW1 4196   5.400   0.704   6.243
 1099SOL    HW2 4197   5.485   0.699   6.104
 1100SOL     OW 4198   4.615   1.702   4.828
 1100SOL    HW1 4199   4.620   1.607   4.858
 1100SOL    HW2 4200   4.538   1.714   4.766
 1101SOL     OW 4201   5.067   2.521   6.422
 1101SOL    HW1 4202   5.153   2.559   6.388
 1101SOL    HW2 4203   5.034   2.577   6.498
 1102SOL     OW 4204   2.948   0.620   3.912
 1102SOL    HW1 4205   2.965   0.522   3.908
 1102SOL    HW2 4206   2.863   0.642   3.864
 1103SOL     OW 4207   3.340   6.063   1.053
 1103SOL    HW1 4208   3.348   5.987   1.118
 1103SOL    HW2 4209   3.392   6.043   0.970
 1104SOL     OW 4210   6.722   2.149   3.922
 1104SOL    HW1 4211   6.698   2.223   3.985
 1104SOL    HW2 4212   6.821   2.135   3.922
 1105SOL     OW 4213   4.910   0.686   6.563
 1105SOL    HW1 4214   4.888   0.687   6.465
 1105SOL    HW2 4215   4.996   0.638   6.577
 1106SOL     OW 4216   6.199   1.768   1.426
 1106SOL    HW1 4217   6.198   1.671   1.452
 1106SOL    HW2 4218   6.129   1.816   1.478
 1107SOL     OW 4219   1.078   1.628   0.363
 1107SOL    HW1 4220   1.126   1.666   0.284
 1107SOL    HW2 4221   0.985   1.663   0.366
 1108SOL     OW 4222   2.551   1.702   3.542
 1108SOL    HW1 4223   2.467   1.745   3.509
 1108SOL    HW2 4224   2.534   1.660   3.631
 1109SOL     OW 4225   5.095   1.554   5.253
 1109SOL    HW1 4226   5.170   1.488   5.253
 1109SOL    HW2 4227   5.099   1.609   5.170
 1110SOL     OW 4228   1.388   1.011   2.538
 1110SOL    HW1 4229   1.484   0.994   2.562
 1110SOL    HW2 4230   1.331   1.001   2.620
 1111SOL     OW 4231   5.740   3.250   6.387
 1111SOL    HW1 4232   5.640   3.247   6.391
 1111SOL    HW2 4233   5.777   3.159   6.407
 1112SOL     OW 4234   6.008   0.609   2.833
 1112SOL    HW1 4235   5.920   0.572   2.863
 1112SOL    HW2 4236   5.998   0.707   2.815
 1113SOL     OW 4237   6.412   2.814   3.140
 1113SOL    HW1 4238   6.478   2.889   3.141
 1113SOL    HW2 4239   6.438   2.746   3.071
 1114SOL     OW 4240   3.601   3.308   4.463
 1114SOL    HW1 4241   3.616   3.233   4.528
 1114SOL    HW2 4242   3.559   3.385   4.511
 1115SOL     OW 4243   1.735   4.979   5.817
 1115SOL    HW1 4244   1.791   5.046   5.769
 1115SOL    HW2 4245   1.641   4.984   5.784
 1116SOL     OW 4246   4.228   0.257   0.294
 1116SOL    HW1 4247   4.304   0.318   0.316
 1116SOL    HW2 4248   4.240   0.222   0.201
 1117SOL     OW 4249   1.864   2.446   2.000
 1117SOL    HW1 4250   1.949   2.395   2.004
 1117SOL    HW2 4251   1.883   2.543   1.983
 1118SOL     OW 4252   4.765   6.731   0.461
 1118SOL    HW1 4253   4.804   6.694   0.545
 1118SOL    HW2 4254   4.724   6.657   0.407
 1119SOL     OW 4255   3.156   5.349   3.858
 1119SOL    HW1 4256   3.226   5.380   3.922
 1119SOL    HW2 4257   3.177   5.255   3.829
 1120SOL     OW 4258   6.788   3.524   1.298
 1120SOL    HW1 4259   6.694   3.546   1.273
 1120SOL    HW2 4260   6.789   3.471   1.383
 1121SOL     OW 4261   6.288   4.496   5.761
 1121SOL    HW1 4262   6.225   4.419   5.746
 1121SOL    HW2 4263   6.371   4.482   5.706
 1122SOL     OW 4264   5.891   1.483   1.930
 1122SOL    HW1 4265   5.931   1.411   1.873
 1122SOL    HW2 4266   5.791   1.483   1.918
 1123SOL     OW 4267   4.042   1.910   4.742
 1123SOL    HW1 4268   4.057   1.873   4.650
 1123SOL    HW2 4269   4.015   2.005   4.735
 1124SOL     OW 4270   2.314   2.768   3.610
 1124SOL    HW1 4271   2.332   2.684   3.660
 1124SOL    HW2 4272   2.291   2.841   3.674
 1125SOL     OW 4273   1.335   3.019   3.800
 1125SOL    HW1 4274   1.266   2.951   3.776
 1125SOL    HW2 4275   1.303   3.110   3.774
 1126SOL     OW 4276   4.196   4.722   4.001
 1126SOL    HW1 4277   4.166   4.726   3.906
 1126SOL    HW2 4278   4.116   4.720   4.061
 1127SOL     OW 4279   6.176   6.729   1.158
 1127SOL    HW1 4280   6.203   6.668   1.233
 1127SOL    HW2 4281   6.210   6.693   1.071
 1128SOL     OW 4282   4.353   1.413   4.906
 1128SOL    HW1 4283   4.258   1.439   4.922
 1128SOL    HW2 4284   4.384   1.352   4.979
 1129SOL     OW 4285   1.201   0.826   0.333
 1129SOL    HW1 4286   1.295   0.806   0.362
 1129SOL    HW2 4287   1.149   0.862   0.410
 1130SOL     OW 4288   1.874   5.351   2.062
 1130SOL    HW1 4289   1.810   5.315   1.994
 1130SOL    HW2 4290   1.966   5.355   2.022
 1131SOL     OW 4291   1.705   5.475   3.797
 1131SOL    HW1 4292   1.746   5.561   3.765
 1131SOL    HW2 4293   1.611   5.470   3.763
 1132SOL     OW 4294   1.051   1.787   2.719
 1132SOL    HW1 4295   1.075   1.834   2.634
 1132SOL    HW2 4296   1.099   1.830   2.795
 1133SOL     OW 4297   1.166   6.436   6.712
 1133SOL    HW1 4298   1.133   6.505   6.777
 1133SOL    HW2 4299   1.266   6.436   6.711
 1134SOL     OW 4300   4.616   5.796   0.668
 1134SOL    HW1 4301   4.709   5.830   0.683
 1134SOL    HW2 4302   4.614   5.696   0.678
 1135SOL     OW 4303   1.644   0.071   2.973
 1135SOL    HW1 4304   1.583   0.136   3.017
 1135SOL    HW2 4305   1.739   0.100   2.987
 1136SOL     OW 4306   1.710   5.162   2.197
 1136SOL    HW1 4307   1.760   5.241   2.162
 1136SOL    HW2 4308   1.690   5.175   2.294
 1137SOL     OW 4309   0.945   5.667   4.310
 1137SOL    HW1 4310   0.885   5.624   4.243
 1137SOL    HW2 4311   0.988   5.597   4.367
 1138SOL     OW 4312   1.622   3.727   5.284
 1138SOL    HW1 4313   1.707   3.674   5.284
 1138SOL    HW2 4314   1.581   3.724   5.193
 1139SOL     OW 4315   2.471   5.489   5.225
 1139SOL    HW1 4316   2.550   5.430   5.241
 1139SOL    HW2 4317   2.496   5.584   5.242
 1140SOL     OW 4318   2.079   2.376   1.647
 1140SOL    HW1 4319   2.133   2.292   1.645
 1140SOL    HW2 4320   2.108   2.432   1.725
 1141SOL     OW 4321   6.349   5.064   5.478
 1141SOL    HW1 4322   6.277   5.022   5.424
 1141SOL    HW2 4323   6.370   5.007   5.557
 1142SOL     OW 4324   1.203   5.563   2.631
 1142SOL    HW1 4325   1.216   5.464   2.638
 1142SOL    HW2 4326   1.275   5.602   2.574
 1143SOL     OW 4327   6.856   4.151   2.100
 1143SOL    HW1 4328   6.880   4.058   2.130
 1143SOL    HW2 4329   6.937   4.194   2.061
 1144SOL     OW 4330   4.785   4.234   0.601
 1144SOL    HW1 4331   4.754   4.194   0.687
 1144SOL    HW2 4332   4.885   4.236   0.600
 1145SOL     OW 4333   6.282   0.368   0.379
 1145SOL    HW1 4334   6.271   0.443   0.444
 1145SOL    HW2 4335   6.202   0.308   0.385
 1146SOL     OW 4336   1.409   1.168   1.282
 1146SOL    HW1 4337   1.475   1.179   1.209
 1146SOL    HW2 4338   1.454   1.181   1.371
 1147SOL     OW 4339   2.028   6.357   1.232
 1147SOL    HW1 4340   1.975   6.369   1.317
 1147SOL    HW2 4341   1.985   6.286   1.176
 1148SOL     OW 4342   3.850   6.083   2.205
 1148SOL    HW1 4343   3.766   6.041   2.242
 1148SOL    HW2 4344   3.923   6.076   2.273
 1149SOL     OW 4345   5.014   2.778   1.734
 1149SOL    HW1 4346   5.081   2.712   1.767
 1149SOL    HW2 4347   4.922   2.740   1.742
 1150SOL     OW 4348   1.142   2.788   1.041
 1150SOL    HW1 4349   1.098   2.744   0.963
 1150SOL    HW2 4350   1.186   2.873   1.011
 1151SOL     OW 4351   5.474   5.296   4.467
 1151SOL    HW1 4352   5.544   5.225   4.480
 1151SOL    HW2 4353   5.483   5.335   4.375
 1152SOL     OW 4354   3.562   6.623   5.990
 1152SOL    HW1 4355   3.536   6.526   5.988
 1152SOL    HW2 4356   3.642   6.638   5.932
 1153SOL     OW 4357   5.913   6.832   1.207
 1153SOL    HW1 4358   5.844   6.821   1.136
 1153SOL    HW2 4359   6.004   6.810   1.170
 1154SOL     OW 4360   1.711   3.108   0.801
 1154SOL    HW1 4361   1.755   3.111   0.711
 1154SOL    HW2 4362   1.628   3.053   0.795
 1155SOL     OW 4363   3.810   5.895   3.388
 1155SOL    HW1 4364   3.850   5.876   3.298
 1155SOL    HW2 4365   3.798   5.809   3.437
 1156SOL     OW 4366   2.639   1.172   1.991
 1156SOL    HW1 4367   2.647   1.102   2.061
 1156SOL    HW2 4368   2.716   1.235   1.998
 1157SOL     OW 4369   2.505   2.090   0.769
 1157SOL    HW1 4370   2.432   2.059   0.830
 1157SOL    HW2 4371   2.594   2.080   0.815
 1158SOL     OW 4372   5.538   4.794   3.811
 1158SOL    HW1 4373   5.522   4.704   3.772
 1158SOL    HW2 4374   5.509   4.864   3.746
 1159SOL     OW 4375   5.942   4.280   0.531
 1159SOL    HW1 4376   5.953   4.209   0.462
 1159SOL    HW2 4377   5.856   4.329   0.515
 1160SOL     OW 4378   4.582   2.190   0.130
 1160SOL    HW1 4379   4.682   2.199   0.126
 1160SOL    HW2 4380   4.540   2.262   0.075
 1161SOL     OW 4381   6.421   5.200   1.117
 1161SOL    HW1 4382   6.323   5.209   1.138
 1161SOL    HW2 4383   6.433   5.153   1.030
 1162SOL     OW 4384   2.812   2.301   4.631
 1162SOL    HW1 4385   2.853   2.239   4.564
 1162SOL    HW2 4386   2.739   2.354   4.587
 1163SOL     OW 4387   5.427   2.271   1.790
 1163SOL    HW1 4388   5.416   2.346   1.725
 1163SOL    HW2 4389   5.520   2.271   1.826
 1164SOL     OW 4390   4.542   2.156   5.467
 1164SOL    HW1 4391   4.462   2.216   5.474
 1164SOL    HW2 4392   4.600   2.189   5.392
 1165SOL     OW 4393   4.681   6.911   3.318
 1165SOL    HW1 4394   4.731   6.915   3.404
 1165SOL    HW2 4395   4.616   6.835   3.321
 1166SOL     OW 4396   3.395   4.412   6.301
 1166SOL    HW1 4397   3.461   4.483   6.326
 1166SOL    HW2 4398   3.304   4.439   6.333
 1167SOL     OW 4399   4.907   4.299   3.232
 1167SOL    HW1 4400   4.849   4.335   3.305
 1167SOL    HW2 4401   4.989   4.355   3.225
 1168SOL     OW 4402   0.688   0.277   1.606
 1168SOL    HW1 4403   0.758   0.225   1.655
 1168SOL    HW2 4404   0.677   0.240   1.514
 1169SOL     OW 4405   4.847   1.793   5.523
 1169SOL    HW1 4406   4.876   1.774   5.429
 1169SOL    HW2 4407   4.926   1.824   5.577
 1170SOL     OW 4408   4.965   5.056   2.847
 1170SOL    HW1 4409   4.962   5.144   2.798
 1170SOL    HW2 4410   4.903   4.991   2.803
 1171SOL     OW 4411   0.117   6.164   0.926
 1171SOL    HW1 4412   0.106   6.097   0.999
 1171SOL    HW2 4413   0.030   6.179   0.880
 1172SOL     OW 4414   6.136   3.139   6.578
 1172SOL    HW1 4415   6.161   3.088   6.496
 1172SOL    HW2 4416   6.215   3.144   6.640
 1173SOL     OW 4417   3.667   2.707   0.710
 1173SOL    HW1 4418   3.617   2.772   0.767
 1173SOL    HW2 4419   3.603   2.646   0.664
 1174SOL     OW 4420   2.556   4.914   0.225
 1174SOL    HW1 4421   2.581   4.969   0.304
 1174SOL    HW2 4422   2.461   4.883   0.234
 1175SOL     OW 4423   2.947   3.219   4.153
 1175SOL    HW1 4424   2.893   3.135   4.148
 1175SOL    HW2 4425   2.956   3.258   4.061
 1176SOL     OW 4426   5.505   3.091   6.522
 1176SOL    HW1 4427   5.554   3.148   6.587
 1176SOL    HW2 4428   5.416   3.064   6.560
 1177SOL     OW 4429   1.164   1.886   5.062
 1177SOL    HW1 4430   1.100   1.825   5.107
 1177SOL    HW2 4431   1.154   1.878   4.962
 1178SOL     OW 4432   4.474   6.610   0.220
 1178SOL    HW1 4433   4.480   6.710   0.221
 1178SOL    HW2 4434   4.558   6.571   0.258
 1179SOL     OW 4435   0.314   6.006   0.331
 1179SOL    HW1 4436   0.411   6.027   0.347
 1179SOL    HW2 4437   0.297   5.910   0.353
 1180SOL     OW 4438   3.712   6.176   0.719
 1180SOL    HW1 4439   3.784   6.184   0.650
 1180SOL    HW2 4440   3.652   6.099   0.695
 1181SOL     OW 4441   6.998   6.561   6.495
 1181SOL    HW1 4442   6.935   6.581   6.420
 1181SOL    HW2 4443   6.945   6.540   6.578
 1182SOL     OW 4444   4.823   3.841   2.720
 1182SOL    HW1 4445   4.741   3.894   2.741
 1182SOL    HW2 4446   4.903   3.900   2.726
 1183SOL     OW 4447   1.769   4.261   6.859
 1183SOL    HW1 4448   1.723   4.332   6.913
 1183SOL    HW2 4449   1.747   4.171   6.896
 1184SOL     OW 4450   6.879   0.575   5.592
 1184SOL    HW1 4451   6.930   0.627   5.524
 1184SOL    HW2 4452   6.814   0.515   5.546
 1185SOL     OW 4453   6.117   1.319   6.993
 1185SOL    HW1 4454   6.212   1.339   6.966
 1185SOL    HW2 4455   6.062   1.402   6.984
 1186SOL     OW 4456   5.439   6.949   4.860
 1186SOL    HW1 4457   5.418   0.030   4.869
 1186SOL    HW2 4458   5.423   6.904   4.948
 1187SOL     OW 4459   6.359   1.626   5.761
 1187SOL    HW1 4460   6.323   1.600   5.851
 1187SOL    HW2 4461   6.377   1.543   5.708
 1188SOL     OW 4462   3.330   1.523   6.748
 1188SOL    HW1 4463   3.259   1.528   6.818
 1188SOL    HW2 4464   3.299   1.571   6.666
 1189SOL     OW 4465   5.501   3.439   3.642
 1189SOL    HW1 4466   5.539   3.524   3.604
 1189SOL    HW2 4467   5.569   3.395   3.701
 1190SOL     OW 4468   3.025   0.033   3.553
 1190SOL    HW1 4469   2.978   0.091   3.487
 1190SOL    HW2 4470   3.033   6.956   3.517
 1191SOL     OW 4471   3.837   6.476   2.918
 1191SOL    HW1 4472   3.793   6.533   2.988
 1191SOL    HW2 4473   3.842   6.382   2.950
 1192SOL     OW 4474   6.055   5.842   3.551
 1192SOL    HW1 4475   6.091   5.827   3.643
 1192SOL    HW2 4476   5.978   5.905   3.555
 1193SOL     OW 4477   6.897   5.807   4.564
 1193SOL    HW1 4478   6.864   5.901   4.557
 1193SOL    HW2 4479   6.910   5.784   4.660
 1194SOL     OW 4480   3.654   0.031   1.077
 1194SOL    HW1 4481   3.580   0.097   1.060
 1194SOL    HW2 4482   3.639   6.966   1.021
 1195SOL     OW 4483   5.023   2.479   3.220
 1195SOL    HW1 4484   5.119   2.487   3.247
 1195SOL    HW2 4485   4.986   2.570   3.201
 1196SOL     OW 4486   0.179   6.854   5.129
 1196SOL    HW1 4487   0.124   6.828   5.050
 1196SOL    HW2 4488   0.199   6.952   5.125
 1197SOL     OW 4489   1.885   6.148   0.451
 1197SOL    HW1 4490   1.961   6.173   0.510
 1197SOL    HW2 4491   1.920   6.119   0.361
 1198SOL     OW 4492   1.632   2.602   6.965
 1198SOL    HW1 4493   1.596   2.685   6.923
 1198SOL    HW2 4494   1.732   2.601   6.956
 1199SOL     OW 4495   6.097   3.711   2.089
 1199SOL    HW1 4496   6.128   3.629   2.040
 1199SOL    HW2 4497   6.034   3.762   2.031
 1200SOL     OW 4498   3.469   4.017   2.809
 1200SOL    HW1 4499   3.536   4.083   2.775
 1200SOL    HW2 4500   3.385   4.025   2.755
 1201SOL     OW 4501   1.217   2.117   4.659
 1201SOL    HW1 4502   1.143   2.166   4.613
 1201SOL    HW2 4503   1.271   2.068   4.591
 1202SOL     OW 4504   1.173   5.411   5.008
 1202SOL    HW1 4505   1.118   5.391   4.927
 1202SOL    HW2 4506   1.270   5.406   4.985
 1203SOL     OW 4507   3.636   6.061   5.572
 1203SOL    HW1 4508   3.546   6.053   5.528
 1203SOL    HW2 4509   3.708   6.043   5.504
 1204SOL     OW 4510   1.903   6.905   2.911
 1204SOL    HW1 4511   1.827   6.876   2.853
 1204SOL    HW2 4512   1.967   6.961   2.858
 1205SOL     OW 4513   5.729   3.811   2.065
 1205SOL    HW1 4514   5.764   3.806   2.158
 1205SOL    HW2 4515   5.634   3.843   2.067
 1206SOL     OW 4516   3.480   3.507   4.601
 1206SOL    HW1 4517   3.423   3.492   4.681
 1206SOL    HW2 4518   3.478   3.604   4.577
 1207SOL     OW 4519   1.230   6.143   2.815
 1207SOL    HW1 4520   1.196   6.058   2.776
 1207SOL    HW2 4521   1.308   6.124   2.875
 1208SOL     OW 4522   3.216   3.696   6.401
 1208SOL    HW1 4523   3.159   3.751   6.340
 1208SOL    HW2 4524   3.233   3.607   6.358
 1209SOL     OW 4525   3.789   6.384   5.356
 1209SOL    HW1 4526   3.819   6.465   5.407
 1209SOL    HW2 4527   3.693   6.396   5.329
 1210SOL     OW 4528   3.658   1.220   2.809
 1210SOL    HW1 4529   3.598   1.242   2.731
 1210SOL    HW2 4530   3.751   1.251   2.788
 1211SOL     OW 4531   0.648   2.812   0.420
 1211SOL    HW1 4532   0.573   2.854   0.369
 1211SOL    HW2 4533   0.696   2.747   0.362
 1212SOL     OW 4534   1.266   0.446   0.349
 1212SOL    HW1 4535   1.214   0.374   0.304
 1212SOL    HW2 4536   1.345   0.471   0.293
 1213SOL     OW 4537   5.493   3.201   1.398
 1213SOL    HW1 4538   5.411   3.258   1.397
 1213SOL    HW2 4539   5.467   3.105   1.382
 1214SOL     OW 4540   0.126   2.748   2.177
 1214SOL    HW1 4541   0.063   2.817   2.213
 1214SOL    HW2 4542   0.077   2.661   2.165
 1215SOL     OW 4543   1.815   6.054   2.847
 1215SOL    HW1 4544   1.794   5.960   2.875
 1215SOL    HW2 4545   1.914   6.065   2.840
 1216SOL     OW 4546   3.857   6.871   1.749
 1216SOL    HW1 4547   3.836   6.939   1.678
 1216SOL    HW2 4548   3.883   6.785   1.705
 1217SOL     OW 4549   2.867   4.451   6.797
 1217SOL    HW1 4550   2.910   4.438   6.887
 1217SOL    HW2 4551   2.790   4.388   6.788
 1218SOL     OW 4552   2.566   4.936   3.372
 1218SOL    HW1 4553   2.526   4.847   3.349
 1218SOL    HW2 4554   2.496   5.007   3.361
 1219SOL     OW 4555   3.612   5.838   2.011
 1219SOL    HW1 4556   3.618   5.915   1.947
 1219SOL    HW2 4557   3.615   5.874   2.105
 1220SOL     OW 4558   0.731   4.497   2.088
 1220SOL    HW1 4559   0.756   4.429   2.157
 1220SOL    HW2 4560   0.633   4.516   2.095
 1221SOL     OW 4561   4.674   4.532   6.169
 1221SOL    HW1 4562   4.716   4.442   6.155
 1221SOL    HW2 4563   4.627   4.560   6.085
 1222SOL     OW 4564   6.618   0.703   6.254
 1222SOL    HW1 4565   6.614   0.636   6.180
 1222SOL    HW2 4566   6.618   0.795   6.215
 1223SOL     OW 4567   3.687   6.478   1.044
 1223SOL    HW1 4568   3.767   6.528   1.076
 1223SOL    HW2 4569   3.635   6.444   1.123
 1224SOL     OW 4570   3.232   0.966   1.826
 1224SOL    HW1 4571   3.294   0.896   1.791
 1224SOL    HW2 4572   3.280   1.053   1.832
 1225SOL     OW 4573   2.810   3.690   5.900
 1225SOL    HW1 4574   2.711   3.679   5.916
 1225SOL    HW2 4575   2.831   3.786   5.887
 1226SOL     OW 4576   2.074   5.138   0.180
 1226SOL    HW1 4577   2.072   5.040   0.200
 1226SOL    HW2 4578   2.009   5.159   0.107
 1227SOL     OW 4579   0.827   3.526   5.916
 1227SOL    HW1 4580   0.917   3.541   5.957
 1227SOL    HW2 4581   0.797   3.433   5.935
 1228SOL     OW 4582   3.790   1.822   0.139
 1228SOL    HW1 4583   3.849   1.900   0.158
 1228SOL    HW2 4584   3.738   1.840   0.055
 1229SOL     OW 4585   3.011   4.245   6.242
 1229SOL    HW1 4586   2.912   4.241   6.230
 1229SOL    HW2 4587   3.053   4.167   6.195
 1230SOL     OW 4588   4.610   0.544   3.786
 1230SOL    HW1 4589   4.705   0.551   3.817
 1230SOL    HW2 4590   4.551   0.594   3.849
 1231SOL     OW 4591   1.249   3.638   4.273
 1231SOL    HW1 4592   1.178   3.643   4.203
 1231SOL    HW2 4593   1.215   3.587   4.352
 1232SOL     OW 4594   2.225   3.030   3.001
 1232SOL    HW1 4595   2.225   3.038   2.901
 1232SOL    HW2 4596   2.159   3.095   3.039
 1233SOL     OW 4597   1.105   2.661   4.224
 1233SOL    HW1 4598   1.009   2.634   4.213
 1233SOL    HW2 4599   1.109   2.756   4.255
 1234SOL     OW 4600   6.474   4.586   4.237
 1234SOL    HW1 4601   6.501   4.666   4.183
 1234SOL    HW2 4602   6.554   4.531   4.258
 1235SOL     OW 4603   6.826   5.700   3.776
 1235SOL    HW1 4604   6.834   5.757   3.857
 1235SOL    HW2 4605   6.748   5.731   3.721
 1236SOL     OW 4606   5.702   0.862   6.284
 1236SOL    HW1 4607   5.612   0.826   6.261
 1236SOL    HW2 4608   5.735   0.920   6.210
 1237SOL     OW 4609   1.869   4.728   5.930
 1237SOL    HW1 4610   1.820   4.801   5.882
 1237SOL    HW2 4611   1.807   4.652   5.947
 1238SOL     OW 4612   1.608   1.410   0.866
 1238SOL    HW1 4613   1.704   1.430   0.846
 1238SOL    HW2 4614   1.551   1.433   0.787
 1239SOL     OW 4615   1.155   0.321   5.855
 1239SOL    HW1 4616   1.091   0.385   5.897
 1239SOL    HW2 4617   1.108   0.268   5.784
 1240SOL     OW 4618   4.643   5.532   1.332
 1240SOL    HW1 4619   4.635   5.450   1.276
 1240SOL    HW2 4620   4.739   5.563   1.333
 1241SOL     OW 4621   0.119   1.879   4.365
 1241SOL    HW1 4622   0.024   1.892   4.391
 1241SOL    HW2 4623   0.175   1.952   4.406
 1242SOL     OW 4624   2.191   2.433   6.583
 1242SOL    HW1 4625   2.111   2.425   6.523
 1242SOL    HW2 4626   2.275   2.429   6.529
 1243SOL     OW 4627   2.469   4.966   5.016
 1243SOL    HW1 4628   2.536   5.039   5.009
 1243SOL    HW2 4629   2.497   4.901   5.087
 1244SOL     OW 4630   0.017   1.878   2.722
 1244SOL    HW1 4631   0.072   1.961   2.713
 1244SOL    HW2 4632   0.074   1.805   2.760
 1245SOL     OW 4633   2.929   3.144   5.511
 1245SOL    HW1 4634   2.981   3.216   5.466
 1245SOL    HW2 4635   2.847   3.123   5.457
 1246SOL     OW 4636   1.370   6.933   1.489
 1246SOL    HW1 4637   1.452   6.900   1.442
 1246SOL    HW2 4638   1.313   6.855   1.516
 1247SOL     OW 4639   1.150   6.772   6.331
 1247SOL    HW1 4640   1.107   6.748   6.244
 1247SOL    HW2 4641   1.226   6.835   6.314
 1248SOL     OW 4642   2.323   6.619   3.650
 1248SOL    HW1 4643   2.304   6.522   3.667
 1248SOL    HW2 4644   2.351   6.631   3.555
 1249SOL     OW 4645   5.707   2.703   2.922
 1249SOL    HW1 4646   5.768   2.754   2.861
 1249SOL    HW2 4647   5.743   2.708   3.016
 1250SOL     OW 4648   0.171   3.795   4.103
 1250SOL    HW1 4649   0.103   3.773   4.174
 1250SOL    HW2 4650   0.124   3.806   4.015
 1251SOL     OW 4651   3.582   0.717   6.379
 1251SOL    HW1 4652   3.503   0.672   6.421
 1251SOL    HW2 4653   3.586   0.812   6.409
 1252SOL     OW 4654   3.186   3.827   0.104
 1252SOL    HW1 4655   3.191   3.850   0.201
 1252SOL    HW2 4656   3.276   3.838   0.062
 1253SOL     OW 4657   4.513   0.676   2.724
 1253SOL    HW1 4658   4.477   0.770   2.722
 1253SOL    HW2 4659   4.524   0.647   2.819
 1254SOL     OW 4660   5.425   1.345   3.380
 1254SOL    HW1 4661   5.395   1.278   3.312
 1254SOL    HW2 4662   5.396   1.437   3.351
 1255SOL     OW 4663   6.181   0.437   1.180
 1255SOL    HW1 4664   6.247   0.512   1.176
 1255SOL    HW2 4665   6.225   0.353   1.148
 1256SOL     OW 4666   4.867   2.611   3.810
 1256SOL    HW1 4667   4.820   2.541   3.756
 1256SOL    HW2 4668   4.800   2.662   3.863
 1257SOL     OW 4669   6.075   0.879   4.224
 1257SOL    HW1 4670   6.007   0.918   4.286
 1257SOL    HW2 4671   6.106   0.948   4.159
 1258SOL     OW 4672   0.068   5.514   3.390
 1258SOL    HW1 4673   0.056   5.436   3.327
 1258SOL    HW2 4674   0.126   5.486   3.466
 1259SOL     OW 4675   5.164   2.133   4.875
 1259SOL    HW1 4676   5.085   2.178   4.916
 1259SOL    HW2 4677   5.170   2.157   4.779
 1260SOL     OW 4678   0.215   1.386   5.049
 1260SOL    HW1 4679   0.120   1.386   5.078
 1260SOL    HW2 4680   0.232   1.305   4.993
 1261SOL     OW 4681   6.508   3.743   0.787
 1261SOL    HW1 4682   6.516   3.645   0.767
 1261SOL    HW2 4683   6.555   3.762   0.874
 1262SOL     OW 4684   5.078   6.370   2.244
 1262SOL    HW1 4685   5.058   6.458   2.287
 1262SOL    HW2 4686   5.046   6.296   2.304
 1263SOL     OW 4687   0.113   2.331   3.471
 1263SOL    HW1 4688   0.126   2.376   3.382
 1263SOL    HW2 4689   0.182   2.364   3.535
 1264SOL     OW 4690   0.930   2.444   5.262
 1264SOL    HW1 4691   0.980   2.447   5.348
 1264SOL    HW2 4692   0.958   2.362   5.211
 1265SOL     OW 4693   5.741   0.189   5.497
 1265SOL    HW1 4694   5.839   0.196   5.518
 1265SOL    HW2 4695   5.695   0.273   5.526
 1266SOL     OW 4696   2.955   1.703   5.014
 1266SOL    HW1 4697   3.003   1.621   4.984
 1266SOL    HW2 4698   2.996   1.736   5.099
 1267SOL     OW 4699   3.257   6.869   2.480
 1267SOL    HW1 4700   3.233   6.787   2.531
 1267SOL    HW2 4701   3.229   6.858   2.384
 1268SOL     OW 4702   4.040   2.331   5.448
 1268SOL    HW1 4703   3.977   2.260   5.480
 1268SOL    HW2 4704   4.033   2.411   5.508
 1269SOL     OW 4705   5.336   1.936   3.738
 1269SOL    HW1 4706   5.295   1.856   3.781
 1269SOL    HW2 4707   5.435   1.922   3.729
 1270SOL     OW 4708   6.392   5.304   3.423
 1270SOL    HW1 4709   6.394   5.205   3.409
 1270SOL    HW2 4710   6.297   5.335   3.428
 1271SOL     OW 4711   1.672   1.024   1.824
 1271SOL    HW1 4712   1.693   1.112   1.781
 1271SOL    HW2 4713   1.603   1.037   1.896
 1272SOL     OW 4714   6.079   2.739   0.800
 1272SOL    HW1 4715   6.170   2.700   0.814
 1272SOL    HW2 4716   6.020   2.717   0.878
 1273SOL     OW 4717   1.952   4.379   5.812
 1273SOL    HW1 4718   1.869   4.410   5.860
 1273SOL    HW2 4719   1.927   4.346   5.722
 1274SOL     OW 4720   0.081   4.307   4.226
 1274SOL    HW1 4721   0.152   4.363   4.183
 1274SOL    HW2 4722   7.015   4.310   4.171
 1275SOL     OW 4723   1.944   1.608   3.107
 1275SOL    HW1 4724   1.919   1.686   3.050
 1275SOL    HW2 4725   1.862   1.554   3.127
 1276SOL     OW 4726   5.474   4.081   3.910
 1276SOL    HW1 4727   5.550   4.088   3.974
 1276SOL    HW2 4728   5.505   4.039   3.825
 1277SOL     OW 4729   1.243   5.610   6.546
 1277SOL    HW1 4730   1.195   5.694   6.521
 1277SOL    HW2 4731   1.186   5.557   6.610
 1278SOL     OW 4732   0.414   6.052   2.553
 1278SOL    HW1 4733   0.422   6.104   2.638
 1278SOL    HW2 4734   0.389   5.957   2.575
 1279SOL     OW 4735   2.705   3.186   0.792
 1279SOL    HW1 4736   2.801   3.176   0.766
 1279SOL    HW2 4737   2.652   3.213   0.712
 1280SOL     OW 4738   2.532   2.359   3.936
 1280SOL    HW1 4739   2.552   2.309   4.020
 1280SOL    HW2 4740   2.594   2.330   3.863
 1281SOL     OW 4741   5.225   6.051   5.269
 1281SOL    HW1 4742   5.322   6.034   5.281
 1281SOL    HW2 4743   5.201   6.043   5.172
 1282SOL     OW 4744   0.477   3.026   1.328
 1282SOL    HW1 4745   0.492   2.927   1.327
 1282SOL    HW2 4746   0.540   3.069   1.263
 1283SOL     OW 4747   0.259   1.190   4.461
 1283SOL    HW1 4748   0.293   1.099   4.440
 1283SOL    HW2 4749   0.257   1.245   4.378
 1284SOL     OW 4750   3.670   1.819   1.702
 1284SOL    HW1 4751   3.692   1.917   1.703
 1284SOL    HW2 4752   3.571   1.807   1.704
 1285SOL     OW 4753   4.252   1.466   4.471
 1285SOL    HW1 4754   4.175   1.530   4.463
 1285SOL    HW2 4755   4.298   1.459   4.382
 1286SOL     OW 4756   4.702   1.079   1.960
 1286SOL    HW1 4757   4.732   1.174   1.956
 1286SOL    HW2 4758   4.782   1.020   1.969
 1287SOL     OW 4759   4.882   4.829   6.103
 1287SOL    HW1 4760   4.958   4.890   6.080
 1287SOL    HW2 4761   4.800   4.857   6.052
 1288SOL     OW 4762   4.449   4.474   6.504
 1288SOL    HW1 4763   4.475   4.403   6.570
 1288SOL    HW2 4764   4.523   4.540   6.495
 1289SOL     OW 4765   0.422   6.857   0.509
 1289SOL    HW1 4766   0.401   6.774   0.457
 1289SOL    HW2 4767   0.440   6.933   0.446
 1290SOL     OW 4768   1.352   6.416   5.345
 1290SOL    HW1 4769   1.449   6.429   5.364
 1290SOL    HW2 4770   1.325   6.477   5.270
 1291SOL     OW 4771   5.376   5.428   3.512
 1291SOL    HW1 4772   5.438   5.440   3.590
 1291SOL    HW2 4773   5.429   5.433   3.427
 1292SOL     OW 4774   0.465   6.781   2.753
 1292SOL    HW1 4775   0.559   6.770   2.721
 1292SOL    HW2 4776   0.402   6.752   2.680
 1293SOL     OW 4777   5.022   0.387   1.317
 1293SOL    HW1 4778   4.999   0.470   1.265
 1293SOL    HW2 4779   4.971   0.309   1.279
 1294SOL     OW 4780   2.088   4.298   5.360
 1294SOL    HW1 4781   2.114   4.234   5.288
 1294SOL    HW2 4782   2.061   4.385   5.318
 1295SOL     OW 4783   6.836   4.602   0.227
 1295SOL    HW1 4784   6.798   4.641   0.311
 1295SOL    HW2 4785   6.928   4.568   0.244
 1296SOL     OW 4786   4.673   0.494   5.885
 1296SOL    HW1 4787   4.631   0.579   5.853
 1296SOL    HW2 4788   4.772   0.504   5.886
 1297SOL     OW 4789   6.384   6.756   6.736
 1297SOL    HW1 4790   6.341   6.845   6.754
 1297SOL    HW2 4791   6.390   6.704   6.821
 1298SOL     OW 4792   5.317   0.158   3.391
 1298SOL    HW1 4793   5.359   0.144   3.301
 1298SOL    HW2 4794   5.290   0.253   3.400
 1299SOL     OW 4795   1.120   3.892   4.574
 1299SOL    HW1 4796   1.060   3.885   4.495
 1299SOL    HW2 4797   1.160   3.984   4.578
 1300SOL     OW 4798   1.368   5.812   0.243
 1300SOL    HW1 4799   1.349   5.884   0.175
 1300SOL    HW2 4800   1.282   5.776   0.278
 1301SOL     OW 4801   6.269   0.959   0.253
 1301SOL    HW1 4802   6.347   0.918   0.300
 1301SOL    HW2 4803   6.288   1.056   0.237
 1302SOL     OW 4804   6.634   6.782   5.167
 1302SOL    HW1 4805   6.693   6.762   5.089
 1302SOL    HW2 4806   6.668   6.734   5.248
 1303SOL     OW 4807   3.190   6.624   1.636
 1303SOL    HW1 4808   3.123   6.656   1.569
 1303SOL    HW2 4809   3.255   6.697   1.656
 1304SOL     OW 4810   0.267   0.481   0.418
 1304SOL    HW1 4811   0.221   0.522   0.498
 1304SOL    HW2 4812   0.260   0.543   0.340
 1305SOL     OW 4813   4.250   4.097   6.171
 1305SOL    HW1 4814   4.167   4.149   6.193
 1305SOL    HW2 4815   4.242   4.058   6.080
 1306SOL     OW 4816   2.941   6.648   4.135
 1306SOL    HW1 4817   2.990   6.586   4.074
 1306SOL    HW2 4818   3.005   6.717   4.171
 1307SOL     OW 4819   2.231   3.135   4.190
 1307SOL    HW1 4820   2.187   3.222   4.170
 1307SOL    HW2 4821   2.234   3.121   4.289
 1308SOL     OW 4822   6.844   3.441   5.917
 1308SOL    HW1 4823   6.855   3.532   5.957
 1308SOL    HW2 4824   6.769   3.442   5.851
 1309SOL     OW 4825   5.631   4.007   6.534
 1309SOL    HW1 4826   5.561   4.051   6.591
 1309SOL    HW2 4827   5.721   4.045   6.556
 1310SOL     OW 4828   2.161   3.581   3.173
 1310SOL    HW1 4829   2.118   3.515   3.235
 1310SOL    HW2 4830   2.259   3.584   3.190
 1311SOL     OW 4831   5.345   5.215   0.448
 1311SOL    HW1 4832   5.434   5.184   0.481
 1311SOL    HW2 4833   5.273   5.182   0.510
 1312SOL     OW 4834   2.415   1.177   6.490
 1312SOL    HW1 4835   2.486   1.215   6.550
 1312SOL    HW2 4836   2.414   1.229   6.404
 1313SOL     OW 4837   5.595   5.055   1.733
 1313SOL    HW1 4838   5.619   5.144   1.773
 1313SOL    HW2 4839   5.496   5.043   1.734
 1314SOL     OW 4840   2.142   1.151   3.436
 1314SOL    HW1 4841   2.064   1.105   3.477
 1314SOL    HW2 4842   2.148   1.245   3.472
 1315SOL     OW 4843   6.404   0.536   3.386
 1315SOL    HW1 4844   6.439   0.464   3.446
 1315SOL    HW2 4845   6.476   0.565   3.323
 1316SOL     OW 4846   5.196   6.777   6.065
 1316SOL    HW1 4847   5.162   6.692   6.104
 1316SOL    HW2 4848   5.247   6.758   5.982
 1317SOL     OW 4849   3.847   3.014   4.816
 1317SOL    HW1 4850   3.820   3.068   4.897
 1317SOL    HW2 4851   3.912   2.943   4.844
 1318SOL     OW 4852   1.854   1.909   6.254
 1318SOL    HW1 4853   1.817   2.001   6.267
 1318SOL    HW2 4854   1.778   1.844   6.250
 1319SOL     OW 4855   6.880   1.204   0.353
 1319SOL    HW1 4856   6.822   1.196   0.435
 1319SOL    HW2 4857   6.941   1.126   0.348
 1320SOL     OW 4858   2.879   3.310   6.031
 1320SOL    HW1 4859   2.935   3.228   6.038
 1320SOL    HW2 4860   2.847   3.320   5.937
 1321SOL     OW 4861   6.951   2.455   1.101
 1321SOL    HW1 4862   6.920   2.412   1.017
 1321SOL    HW2 4863   0.018   2.509   1.083
 1322SOL     OW 4864   2.948   2.663   0.054
 1322SOL    HW1 4865   2.966   2.667   6.972
 1322SOL    HW2 4866   2.907   2.749   0.084
 1323SOL     OW 4867   3.935   0.219   1.437
 1323SOL    HW1 4868   4.014   0.280   1.446
 1323SOL    HW2 4869   3.852   0.269   1.461
 1324SOL     OW 4870   2.284   4.033   5.813
 1324SOL    HW1 4871   2.337   3.950   5.832
 1324SOL    HW2 4872   2.193   4.007   5.780
 1325SOL     OW 4873   3.775   6.328   4.892
 1325SOL    HW1 4874   3.678   6.307   4.903
 1325SOL    HW2 4875   3.802   6.308   4.798
 1326SOL     OW 4876   5.023   1.110   4.741
 1326SOL    HW1 4877   4.962   1.172   4.693
 1326SOL    HW2 4878   5.084   1.162   4.801
 1327SOL     OW 4879   4.992   5.881   2.448
 1327SOL    HW1 4880   4.929   5.816   2.406
 1327SOL    HW2 4881   4.957   5.908   2.538
 1328SOL     OW 4882   2.436   1.832   6.039
 1328SOL    HW1 4883   2.406   1.747   6.083
 1328SOL    HW2 4884   2.366   1.902   6.053
 1329SOL     OW 4885   1.572   3.070   3.926
 1329SOL    HW1 4886   1.579   2.976   3.959
 1329SOL    HW2 4887   1.479   3.088   3.893
 1330SOL     OW 4888   6.317   3.147   3.023
 1330SOL    HW1 4889   6.399   3.203   3.009
 1330SOL    HW2 4890   6.242   3.185   2.969
 1331SOL     OW 4891   4.464   2.414   3.468
 1331SOL    HW1 4892   4.422   2.463   3.546
 1331SOL    HW2 4893   4.505   2.481   3.406
 1332SOL     OW 4894   2.322   5.673   0.021
 1332SOL    HW1 4895   2.260   5.634   6.969
 1332SOL    HW2 4896   2.290   5.764   0.048
 1333SOL     OW 4897   3.393   3.486   2.728
 1333SOL    HW1 4898   3.341   3.570   2.713
 1333SOL    HW2 4899   3.373   3.450   2.819
 1334SOL     OW 4900   6.797   4.029   1.619
 1334SOL    HW1 4901   6.856   4.109   1.607
 1334SOL    HW2 4902   6.747   4.012   1.534
 1335SOL     OW 4903   6.876   3.509   2.844
 1335SOL    HW1 4904   6.865   3.607   2.857
 1335SOL    HW2 4905   6.916   3.469   2.927
 1336SOL     OW 4906   2.052   6.923   5.399
 1336SOL    HW1 4907   2.140   6.885   5.371
 1336SOL    HW2 4908   1.992   6.932   5.320
 1337SOL     OW 4909   0.481   0.103   2.020
 1337SOL    HW1 4910   0.401   0.077   1.967
 1337SOL    HW2 4911   0.500   0.200   2.007
 1338SOL     OW 4912   0.023   4.056   4.687
 1338SOL    HW1 4913   0.044   4.018   4.597
 1338SOL    HW2 4914   0.086   4.019   4.755
 1339SOL     OW 4915   5.565   1.407   6.559
 1339SOL    HW1 4916   5.598   1.399   6.653
 1339SOL    HW2 4917   5.511   1.326   6.535
 1340SOL     OW 4918   3.189   2.856   1.390
 1340SOL    HW1 4919   3.205   2.763   1.357
 1340SOL    HW2 4920   3.270   2.888   1.438
 1341SOL     OW 4921   5.451   5.519   6.255
 1341SOL    HW1 4922   5.481   5.515   6.160
 1341SOL    HW2 4923   5.450   5.615   6.285
 1342SOL     OW 4924   1.752   5.799   1.344
 1342SOL    HW1 4925   1.801   5.714   1.325
 1342SOL    HW2 4926   1.818   5.871   1.365
 1343SOL     OW 4927   4.936   6.019   2.685
 1343SOL    HW1 4928   4.858   6.081   2.696
 1343SOL    HW2 4929   4.987   6.014   2.772
 1344SOL     OW 4930   0.952   0.643   4.522
 1344SOL    HW1 4931   0.958   0.554   4.476
 1344SOL    HW2 4932   0.876   0.641   4.587
 1345SOL     OW 4933   1.997   6.822   6.007
 1345SOL    HW1 4934   1.973   6.911   5.970
 1345SOL    HW2 4935   1.919   6.760   6.000
 1346SOL     OW 4936   2.988   5.285   4.464
 1346SOL    HW1 4937   2.895   5.314   4.484
 1346SOL    HW2 4938   2.993   5.246   4.372
 1347SOL     OW 4939   1.805   0.472   6.288
 1347SOL    HW1 4940   1.860   0.513   6.361
 1347SOL    HW2 4941   1.711   0.457   6.321
 1348SOL     OW 4942   1.286   6.573   5.146
 1348SOL    HW1 4943   1.348   6.541   5.075
 1348SOL    HW2 4944   1.332   6.645   5.200
 1349SOL     OW 4945   5.269   3.998   4.159
 1349SOL    HW1 4946   5.359   4.021   4.121
 1349SOL    HW2 4947   5.231   4.079   4.204
 1350SOL     OW 4948   4.635   4.695   6.499
 1350SOL    HW1 4949   4.662   4.702   6.595
 1350SOL    HW2 4950   4.713   4.716   6.441
 1351SOL     OW 4951   0.174   1.870   6.192
 1351SOL    HW1 4952   0.203   1.905   6.102
 1351SOL    HW2 4953   0.203   1.934   6.263
 1352SOL     OW 4954   0.200   0.942   2.401
 1352SOL    HW1 4955   0.268   0.902   2.339
 1352SOL    HW2 4956   0.247   0.985   2.478
 1353SOL     OW 4957   6.270   1.562   6.769
 1353SOL    HW1 4958   6.331   1.640   6.781
 1353SOL    HW2 4959   6.176   1.593   6.761
 1354SOL     OW 4960   5.001   4.956   3.167
 1354SOL    HW1 4961   5.028   5.016   3.092
 1354SOL    HW2 4962   4.957   5.010   3.239
 1355SOL     OW 4963   4.271   3.491   5.288
 1355SOL    HW1 4964   4.239   3.532   5.202
 1355SOL    HW2 4965   4.318   3.405   5.269
 1356SOL     OW 4966   2.845   3.213   6.683
 1356SOL    HW1 4967   2.806   3.216   6.775
 1356SOL    HW2 4968   2.861   3.118   6.656
 1357SOL     OW 4969   1.127   2.491   5.493
 1357SOL    HW1 4970   1.196   2.490   5.420
 1357SOL    HW2 4971   1.120   2.399   5.533
 1358SOL     OW 4972   2.807   0.107   6.480
 1358SOL    HW1 4973   2.899   0.080   6.508
 1358SOL    HW2 4974   2.747   0.027   6.483
 1359SOL     OW 4975   6.139   4.619   0.311
 1359SOL    HW1 4976   6.087   4.648   0.391
 1359SOL    HW2 4977   6.158   4.521   0.317
 1360SOL     OW 4978   2.542   1.990   0.131
 1360SOL    HW1 4979   2.616   1.926   0.149
 1360SOL    HW2 4980   2.527   1.997   0.032
 1361SOL     OW 4981   6.596   5.115   5.262
 1361SOL    HW1 4982   6.629   5.169   5.339
 1361SOL    HW2 4983   6.496   5.110   5.265
 1362SOL     OW 4984   3.263   4.092   4.169
 1362SOL    HW1 4985   3.330   4.162   4.145
 1362SOL    HW2 4986   3.300   4.002   4.147
 1363SOL     OW 4987   0.578   6.521   3.161
 1363SOL    HW1 4988   0.596   6.446   3.225
 1363SOL    HW2 4989   0.612   6.607   3.200
 1364SOL     OW 4990   4.050   4.269   0.174
 1364SOL    HW1 4991   3.955   4.299   0.163
 1364SOL    HW2 4992   4.097   4.275   0.087
 1365SOL     OW 4993   6.190   2.541   6.492
 1365SOL    HW1 4994   6.121   2.596   6.444
 1365SOL    HW2 4995   6.230   2.475   6.429
 1366SOL     OW 4996   2.025   0.125   5.549
 1366SOL    HW1 4997   2.068   0.200   5.498
 1366SOL    HW2 4998   2.040   0.039   5.501
 1367SOL     OW 4999   2.754   1.758   2.628
 1367SOL    HW1 5000   2.836   1.730   2.677
 1367SOL    HW2 5001   2.681   1.693   2.645
 1368SOL     OW 5002   7.011   0.468   2.920
 1368SOL    HW1 5003   0.040   0.540   2.972
 1368SOL    HW2 5004   6.913   0.487   2.914
 1369SOL     OW 5005   0.318   0.542   2.130
 1369SOL    HW1 5006   0.299   0.571   2.224
 1369SOL    HW2 5007   0.233   0.547   2.076
 1370SOL     OW 5008   1.903   0.825   2.474
 1370SOL    HW1 5009   1.885   0.751   2.408
 1370SOL    HW2 5010   1.919   0.785   2.564
 1371SOL     OW 5011   3.031   0.558   6.675
 1371SOL    HW1 5012   3.012   0.466   6.710
 1371SOL    HW2 5013   3.021   0.559   6.576
 1372SOL     OW 5014   2.359   1.924   1.696
 1372SOL    HW1 5015   2.304   1.842   1.712
 1372SOL    HW2 5016   2.358   1.981   1.777
 1373SOL     OW 5017   1.578   6.150   0.092
 1373SOL    HW1 5018   1.652   6.204   0.132
 1373SOL    HW2 5019   1.576   6.162   7.009
 1374SOL     OW 5020   4.819   4.017   5.772
 1374SOL    HW1 5021   4.781   3.930   5.806
 1374SOL    HW2 5022   4.850   4.006   5.678
 1375SOL     OW 5023   0.671   3.965   4.307
 1375SOL    HW1 5024   0.613   4.035   4.349
 1375SOL    HW2 5025   0.636   3.944   4.216
 1376SOL     OW 5026   5.213   0.822   2.007
 1376SOL    HW1 5027   5.299   0.820   2.059
 1376SOL    HW2 5028   5.137   0.800   2.068
 1377SOL     OW 5029   0.648   4.467   4.775
 1377SOL    HW1 5030   0.660   4.479   4.874
 1377SOL    HW2 5031   0.620   4.554   4.734
 1378SOL     OW 5032   2.068   2.358   0.352
 1378SOL    HW1 5033   2.015   2.301   0.288
 1378SOL    HW2 5034   2.039   2.340   0.445
 1379SOL     OW 5035   4.140   5.976   1.600
 1379SOL    HW1 5036   4.108   5.934   1.516
 1379SOL    HW2 5037   4.222   5.928   1.632
 1380SOL     OW 5038   6.017   4.630   2.729
 1380SOL    HW1 5039   5.990   4.670   2.817
 1380SOL    HW2 5040   5.951   4.560   2.702
 1381SOL     OW 5041   4.629   6.892   2.592
 1381SOL    HW1 5042   4.595   6.985   2.581
 1381SOL    HW2 5043   4.727   6.894   2.613
 1382SOL     OW 5044   0.480   4.141   0.309
 1382SOL    HW1 5045   0.573   4.123   0.340
 1382SOL    HW2 5046   0.438   4.055   0.279
 1383SOL     OW 5047   2.817   0.079   0.861
 1383SOL    HW1 5048   2.853   0.026   0.784
 1383SOL    HW2 5049   2.817   0.176   0.837
 1384SOL     OW 5050   1.516   1.976   2.172
 1384SOL    HW1 5051   1.604   1.968   2.219
 1384SOL    HW2 5052   1.479   1.885   2.155
 1385SOL     OW 5053   4.958   3.608   4.174
 1385SOL    HW1 5054   4.907   3.590   4.258
 1385SOL    HW2 5055   5.012   3.691   4.185
 1386SOL     OW 5056   2.693   2.323   3.681
 1386SOL    HW1 5057   2.740   2.288   3.762
 1386SOL    HW2 5058   2.756   2.320   3.603
 1387SOL     OW 5059   3.494   0.676   3.716
 1387SOL    HW1 5060   3.426   0.730   3.766
 1387SOL    HW2 5061   3.531   0.605   3.776
 1388SOL     OW 5062   4.925   1.982   3.824
 1388SOL    HW1 5063   4.984   2.050   3.780
 1388SOL    HW2 5064   4.981   1.906   3.858
 1389SOL     OW 5065   0.260   0.457   3.545
 1389SOL    HW1 5066   0.358   0.461   3.563
 1389SOL    HW2 5067   0.241   0.380   3.484
 1390SOL     OW 5068   5.213   2.185   2.690
 1390SOL    HW1 5069   5.175   2.172   2.598
 1390SOL    HW2 5070   5.138   2.192   2.756
 1391SOL     OW 5071   5.793   1.099   5.124
 1391SOL    HW1 5072   5.842   1.049   5.052
 1391SOL    HW2 5073   5.856   1.124   5.197
 1392SOL     OW 5074   3.540   6.714   5.286
 1392SOL    HW1 5075   3.522   6.791   5.347
 1392SOL    HW2 5076   3.599   6.648   5.332
 1393SOL     OW 5077   5.362   0.531   0.088
 1393SOL    HW1 5078   5.336   0.615   0.041
 1393SOL    HW2 5079   5.315   0.526   0.176
 1394SOL     OW 5080   4.236   0.886   4.228
 1394SOL    HW1 5081   4.187   0.811   4.183
 1394SOL    HW2 5082   4.334   0.872   4.219
 1395SOL     OW 5083   0.666   5.041   2.595
 1395SOL    HW1 5084   0.588   4.994   2.554
 1395SOL    HW2 5085   0.688   5.122   2.541
 1396SOL     OW 5086   1.447   1.420   3.557
 1396SOL    HW1 5087   1.391   1.418   3.640
 1396SOL    HW2 5088   1.460   1.515   3.528
 1397SOL     OW 5089   2.262   4.521   5.542
 1397SOL    HW1 5090   2.342   4.480   5.584
 1397SOL    HW2 5091   2.254   4.489   5.447
 1398SOL     OW 5092   3.033   6.980   6.546
 1398SOL    HW1 5093   3.050   6.917   6.471
 1398SOL    HW2 5094   3.120   7.015   6.581
 1399SOL     OW 5095   3.795   0.063   0.198
 1399SOL    HW1 5096   3.823   0.062   0.102
 1399SOL    HW2 5097   3.842   7.006   0.247
 1400SOL     OW 5098   0.611   1.068   5.788
 1400SOL    HW1 5099   0.574   0.992   5.736
 1400SOL    HW2 5100   0.709   1.076   5.771
 1401SOL     OW 5101   5.005   0.258   1.942
 1401SOL    HW1 5102   4.925   0.218   1.987
 1401SOL    HW2 5103   5.078   0.189   1.937
 1402SOL     OW 5104   5.408   4.737   1.777
 1402SOL    HW1 5105   5.333   4.728   1.711
 1402SOL    HW2 5106   5.430   4.833   1.789
 1403SOL     OW 5107   3.047   3.266   0.014
 1403SOL    HW1 5108   3.063   3.351   0.064
 1403SOL    HW2 5109   3.132   3.237   6.987
 1404SOL     OW 5110   3.733   6.142   0.268
 1404SOL    HW1 5111   3.801   6.146   0.195
 1404SOL    HW2 5112   3.713   6.046   0.289
 1405SOL     OW 5113   0.969   3.689   6.848
 1405SOL    HW1 5114   1.000   3.603   6.890
 1405SOL    HW2 5115   0.990   3.765   6.910
 1406SOL     OW 5116   2.240   2.698   6.680
 1406SOL    HW1 5117   2.339   2.686   6.693
 1406SOL    HW2 5118   2.202   2.617   6.637
 1407SOL     OW 5119   6.849   2.460   1.862
 1407SOL    HW1 5120   6.856   2.403   1.943
 1407SOL    HW2 5121   6.841   2.556   1.889
 1408SOL     OW 5122   5.907   6.499   0.544
 1408SOL    HW1 5123   5.977   6.520   0.476
 1408SOL    HW2 5124   5.861   6.413   0.519
 1409SOL     OW 5125   6.053   2.272   5.791
 1409SOL    HW1 5126   6.106   2.234   5.866
 1409SOL    HW2 5127   6.015   2.198   5.735
 1410SOL     OW 5128   3.079   0.707   0.611
 1410SOL    HW1 5129   3.042   0.617   0.630
 1410SOL    HW2 5130   3.144   0.701   0.535
 1411SOL     OW 5131   3.895   6.138   0.048
 1411SOL    HW1 5132   3.883   6.194   6.983
 1411SOL    HW2 5133   3.982   6.089   0.042
 1412SOL     OW 5134   2.438   1.555   0.250
 1412SOL    HW1 5135   2.500   1.597   0.316
 1412SOL    HW2 5136   2.364   1.618   0.228
 1413SOL     OW 5137   2.204   1.551   4.988
 1413SOL    HW1 5138   2.196   1.478   4.920
 1413SOL    HW2 5139   2.296   1.548   5.028
 1414SOL     OW 5140   0.487   4.638   1.686
 1414SOL    HW1 5141   0.508   4.736   1.683
 1414SOL    HW2 5142   0.388   4.626   1.691
 1415SOL     OW 5143   3.986   1.962   5.479
 1415SOL    HW1 5144   3.976   1.972   5.380
 1415SOL    HW2 5145   3.927   2.028   5.526
 1416SOL     OW 5146   4.863   0.568   4.989
 1416SOL    HW1 5147   4.914   0.648   4.955
 1416SOL    HW2 5148   4.905   0.485   4.954
 1417SOL     OW 5149   3.750   3.701   4.265
 1417SOL    HW1 5150   3.841   3.743   4.257
 1417SOL    HW2 5151   3.680   3.773   4.261
 1418SOL     OW 5152   3.284   3.685   5.583
 1418SOL    HW1 5153   3.339   3.731   5.513
 1418SOL    HW2 5154   3.251   3.752   5.649
 1419SOL     OW 5155   0.060   5.227   2.017
 1419SOL    HW1 5156   0.121   5.223   1.937
 1419SOL    HW2 5157   0.111   5.203   2.099
 1420SOL     OW 5158   3.001   6.302   3.413
 1420SOL    HW1 5159   2.974   6.236   3.484
 1420SOL    HW2 5160   3.093   6.335   3.432
 1421SOL     OW 5161   1.653   5.438   0.631
 1421SOL    HW1 5162   1.665   5.339   0.634
 1421SOL    HW2 5163   1.734   5.483   0.669
 1422SOL     OW 5164   1.544   3.723   6.940
 1422SOL    HW1 5165   1.514   3.759   6.851
 1422SOL    HW2 5166   1.638   3.752   6.958
 1423SOL     OW 5167   4.843   0.993   4.984
 1423SOL    HW1 5168   4.884   1.012   4.895
 1423SOL    HW2 5169   4.756   1.041   4.992
 1424SOL     OW 5170   6.294   2.817   1.196
 1424SOL    HW1 5171   6.305   2.880   1.273
 1424SOL    HW2 5172   6.210   2.764   1.207
 1425SOL     OW 5173   6.141   6.552   3.114
 1425SOL    HW1 5174   6.078   6.477   3.133
 1425SOL    HW2 5175   6.119   6.630   3.172
 1426SOL     OW 5176   3.608   1.379   0.614
 1426SOL    HW1 5177   3.682   1.419   0.560
 1426SOL    HW2 5178   3.610   1.280   0.604
 1427SOL     OW 5179   1.124   0.764   3.674
 1427SOL    HW1 5180   1.197   0.815   3.628
 1427SOL    HW2 5181   1.139   0.767   3.773
 1428SOL     OW 5182   1.891   3.794   3.893
 1428SOL    HW1 5183   1.860   3.883   3.860
 1428SOL    HW2 5184   1.984   3.803   3.929
 1429SOL     OW 5185   6.448   0.474   1.457
 1429SOL    HW1 5186   6.431   0.420   1.540
 1429SOL    HW2 5187   6.499   0.557   1.481
 1430SOL     OW 5188   2.105   4.015   4.603
 1430SOL    HW1 5189   2.181   4.036   4.540
 1430SOL    HW2 5190   2.063   3.928   4.576
 1431SOL     OW 5191   3.484   2.255   0.740
 1431SOL    HW1 5192   3.526   2.172   0.775
 1431SOL    HW2 5193   3.466   2.245   0.642
 1432SOL     OW 5194   3.864   0.267   2.884
 1432SOL    HW1 5195   3.774   0.258   2.927
 1432SOL    HW2 5196   3.886   0.363   2.871
 1433SOL     OW 5197   2.993   2.075   4.395
 1433SOL    HW1 5198   3.062   2.005   4.416
 1433SOL    HW2 5199   3.014   2.115   4.306
 1434SOL     OW 5200   5.334   3.673   0.492
 1434SOL    HW1 5201   5.380   3.584   0.494
 1434SOL    HW2 5202   5.400   3.744   0.468
 1435SOL     OW 5203   0.259   5.934   3.824
 1435SOL    HW1 5204   0.190   5.936   3.897
 1435SOL    HW2 5205   0.253   6.018   3.771
 1436SOL     OW 5206   5.429   1.114   0.278
 1436SOL    HW1 5207   5.439   1.015   0.288
 1436SOL    HW2 5208   5.465   1.160   0.360
 1437SOL     OW 5209   4.472   1.333   0.876
 1437SOL    HW1 5210   4.397   1.314   0.812
 1437SOL    HW2 5211   4.471   1.429   0.902
 1438SOL     OW 5212   2.289   6.809   2.830
 1438SOL    HW1 5213   2.312   6.903   2.805
 1438SOL    HW2 5214   2.242   6.809   2.919
 1439SOL     OW 5215   0.392   5.357   4.766
 1439SOL    HW1 5216   0.295   5.332   4.767
 1439SOL    HW2 5217   0.416   5.399   4.854
 1440SOL     OW 5218   3.310   3.440   2.310
 1440SOL    HW1 5219   3.238   3.481   2.365
 1440SOL    HW2 5220   3.271   3.369   2.251
 1441SOL     OW 5221   0.457   1.836   5.787
 1441SOL    HW1 5222   0.367   1.821   5.745
 1441SOL    HW2 5223   0.453   1.915   5.847
 1442SOL     OW 5224   5.550   5.827   0.146
 1442SOL    HW1 5225   5.505   5.829   0.057
 1442SOL    HW2 5226   5.627   5.763   0.144
 1443SOL     OW 5227   1.427   3.260   4.283
 1443SOL    HW1 5228   1.503   3.265   4.219
 1443SOL    HW2 5229   1.444   3.319   4.361
 1444SOL     OW 5230   5.279   6.900   4.298
 1444SOL    HW1 5231   5.290   6.820   4.357
 1444SOL    HW2 5232   5.326   6.884   4.211
 1445SOL     OW 5233   6.955   2.275   0.439
 1445SOL    HW1 5234   6.974   2.355   0.497
 1445SOL    HW2 5235   6.921   2.306   0.350
 1446SOL     OW 5236   2.920   5.725   2.182
 1446SOL    HW1 5237   2.882   5.660   2.247
 1446SOL    HW2 5238   2.932   5.681   2.093
 1447SOL     OW 5239   6.695   0.732   4.501
 1447SOL    HW1 5240   6.760   0.808   4.506
 1447SOL    HW2 5241   6.602   0.768   4.488
 1448SOL     OW 5242   5.553   0.752   0.801
 1448SOL    HW1 5243   5.601   0.838   0.815
 1448SOL    HW2 5244   5.460   0.760   0.837
 1449SOL     OW 5245   4.713   5.517   0.345
 1449SOL    HW1 5246   4.698   5.445   0.277
 1449SOL    HW2 5247   4.715   5.606   0.299
 1450SOL     OW 5248   5.368   1.374   3.941
 1450SOL    HW1 5249   5.357   1.371   3.842
 1450SOL    HW2 5250   5.357   1.468   3.973
 1451SOL     OW 5251   1.134   6.896   1.768
 1451SOL    HW1 5252   1.053   6.867   1.819
 1451SOL    HW2 5253   1.216   6.880   1.823
 1452SOL     OW 5254   2.430   7.014   6.183
 1452SOL    HW1 5255   2.508   0.012   6.121
 1452SOL    HW2 5256   2.406   0.085   6.227
 1453SOL     OW 5257   5.896   4.577   4.254
 1453SOL    HW1 5258   5.836   4.637   4.201
 1453SOL    HW2 5259   5.970   4.544   4.196
 1454SOL     OW 5260   5.745   3.575   1.001
 1454SOL    HW1 5261   5.716   3.671   1.006
 1454SOL    HW2 5262   5.758   3.549   0.906
 1455SOL     OW 5263   1.936   2.028   2.005
 1455SOL    HW1 5264   1.856   2.032   1.945
 1455SOL    HW2 5265   1.913   2.068   2.094
 1456SOL     OW 5266   5.426   5.359   5.148
 1456SOL    HW1 5267   5.488   5.335   5.223
 1456SOL    HW2 5268   5.338   5.314   5.162
 1457SOL     OW 5269   1.939   0.988   4.415
 1457SOL    HW1 5270   1.893   1.009   4.329
 1457SOL    HW2 5271   1.949   1.072   4.469
 1458SOL     OW 5272   0.114   5.300   6.962
 1458SOL    HW1 5273   0.150   5.209   6.941
 1458SOL    HW2 5274   0.067   5.297   0.034
 1459SOL     OW 5275   2.744   6.966   1.812
 1459SOL    HW1 5276   2.683   6.892   1.783
 1459SOL    HW2 5277   2.826   6.927   1.854
 1460SOL     OW 5278   0.368   0.303   6.870
 1460SOL    HW1 5279   0.381   0.241   6.793
 1460SOL    HW2 5280   0.341   0.393   6.836
 1461SOL     OW 5281   5.063   4.337   2.729
 1461SOL    HW1 5282   5.098   4.360   2.639
 1461SOL    HW2 5283   5.034   4.241   2.731
 1462SOL     OW 5284   5.572   0.485   4.977
 1462SOL    HW1 5285   5.648   0.427   5.004
 1462SOL    HW2 5286   5.584   0.513   4.881
 1463SOL     OW 5287   0.954   2.173   5.166
 1463SOL    HW1 5288   1.021   2.128   5.224
 1463SOL    HW2 5289   0.868   2.183   5.216
 1464SOL     OW 5290   0.843   1.037   1.001
 1464SOL    HW1 5291   0.767   1.038   0.936
 1464SOL    HW2 5292   0.928   1.055   0.952
 1465SOL     OW 5293   1.816   1.186   3.347
 1465SOL    HW1 5294   1.841   1.279   3.375
 1465SOL    HW2 5295   1.778   1.189   3.254
 1466SOL     OW 5296   5.887   5.619   3.996
 1466SOL    HW1 5297   5.861   5.525   3.974
 1466SOL    HW2 5298   5.827   5.682   3.946
 1467SOL     OW 5299   0.150   4.027   4.327
 1467SOL    HW1 5300   0.105   3.943   4.297
 1467SOL    HW2 5301   0.126   4.102   4.265
 1468SOL     OW 5302   4.662   0.096   2.849
 1468SOL    HW1 5303   4.620   0.151   2.921
 1468SOL    HW2 5304   4.675   0.003   2.883
 1469SOL     OW 5305   0.401   0.920   2.215
 1469SOL    HW1 5306   0.445   0.854   2.154
 1469SOL    HW2 5307   0.471   0.973   2.263
 1470SOL     OW 5308   0.298   6.993   2.676
 1470SOL    HW1 5309   0.348   0.051   2.631
 1470SOL    HW2 5310   0.361   6.941   2.734
 1471SOL     OW 5311   6.150   1.029   1.094
 1471SOL    HW1 5312   6.223   1.093   1.114
 1471SOL    HW2 5313   6.068   1.053   1.147
 1472SOL     OW 5314   4.891   5.331   5.230
 1472SOL    HW1 5315   4.880   5.248   5.284
 1472SOL    HW2 5316   4.809   5.346   5.174
 1473SOL     OW 5317   6.982   3.360   4.045
 1473SOL    HW1 5318   6.992   3.282   4.107
 1473SOL    HW2 5319   0.020   3.344   3.962
 1474SOL     OW 5320   4.360   5.832   2.843
 1474SOL    HW1 5321   4.328   5.924   2.819
 1474SOL    HW2 5322   4.401   5.834   2.934
 1475SOL     OW 5323   6.214   6.706   2.594
 1475SOL    HW1 5324   6.300   6.734   2.552
 1475SOL    HW2 5325   6.228   6.687   2.691
 1476SOL     OW 5326   0.771   2.397   1.541
 1476SOL    HW1 5327   0.773   2.359   1.633
 1476SOL    HW2 5328   0.858   2.441   1.521
 1477SOL     OW 5329   2.823   6.604   4.677
 1477SOL    HW1 5330   2.861   6.687   4.718
 1477SOL    HW2 5331   2.734   6.584   4.717
 1478SOL     OW 5332   0.169   3.462   1.296
 1478SOL    HW1 5333   0.181   3.380   1.240
 1478SOL    HW2 5334   0.258   3.492   1.331
 1479SOL     OW 5335   1.567   5.467   0.148
 1479SOL    HW1 5336   1.550   5.388   0.207
 1479SOL    HW2 5337   1.662   5.465   0.115
 1480SOL     OW 5338   3.330   0.944   0.522
 1480SOL    HW1 5339   3.322   0.858   0.472
 1480SOL    HW2 5340   3.255   1.005   0.495
 1481SOL     OW 5341   6.692   3.341   0.229
 1481SOL    HW1 5342   6.691   3.438   0.203
 1481SOL    HW2 5343   6.772   3.297   0.188
 1482SOL     OW 5344   5.939   0.517   6.292
 1482SOL    HW1 5345   5.851   0.501   6.337
 1482SOL    HW2 5346   6.006   0.547   6.360
 1483SOL     OW 5347   6.890   2.579   6.989
 1483SOL    HW1 5348   6.864   2.515   6.917
 1483SOL    HW2 5349   6.873   2.538   0.063
 1484SOL     OW 5350   6.075   6.713   3.557
 1484SOL    HW1 5351   6.020   6.796   3.553
 1484SOL    HW2 5352   6.158   6.726   3.503
 1485SOL     OW 5353   5.394   3.347   4.280
 1485SOL    HW1 5354   5.374   3.445   4.281
 1485SOL    HW2 5355   5.483   3.330   4.322
 1486SOL     OW 5356   5.347   2.860   1.122
 1486SOL    HW1 5357   5.291   2.874   1.040
 1486SOL    HW2 5358   5.442   2.846   1.095
 1487SOL     OW 5359   0.572   0.081   5.460
 1487SOL    HW1 5360   0.645   0.072   5.392
 1487SOL    HW2 5361   0.521   0.165   5.445
 1488SOL     OW 5362   5.139   2.241   4.634
 1488SOL    HW1 5363   5.053   2.273   4.673
 1488SOL    HW2 5364   5.142   2.263   4.536
 1489SOL     OW 5365   3.203   5.011   5.033
 1489SOL    HW1 5366   3.224   5.095   4.983
 1489SOL    HW2 5367   3.125   4.965   4.990
 1490SOL     OW 5368   2.454   2.895   0.617
 1490SOL    HW1 5369   2.454   2.855   0.709
 1490SOL    HW2 5370   2.547   2.892   0.579
 1491SOL     OW 5371   0.305   2.017   4.549
 1491SOL    HW1 5372   0.375   2.074   4.506
 1491SOL    HW2 5373   0.252   2.071   4.614
 1492SOL     OW 5374   0.404   2.227   1.673
 1492SOL    HW1 5375   0.481   2.242   1.736
 1492SOL    HW2 5376   0.343   2.158   1.711
 1493SOL     OW 5377   6.347   2.978   4.744
 1493SOL    HW1 5378   6.420   3.023   4.795
 1493SOL    HW2 5379   6.286   3.047   4.705
 1494SOL     OW 5380   5.331   1.649   3.933
 1494SOL    HW1 5381   5.424   1.685   3.929
 1494SOL    HW2 5382   5.286   1.681   4.016
 1495SOL     OW 5383   1.368   3.931   2.151
 1495SOL    HW1 5384   1.376   3.832   2.153
 1495SOL    HW2 5385   1.356   3.965   2.245
 1496SOL     OW 5386   1.113   0.508   2.194
 1496SOL    HW1 5387   1.152   0.497   2.103
 1496SOL    HW2 5388   1.096   0.605   2.212
 1497SOL     OW 5389   5.902   5.184   5.977
 1497SOL    HW1 5390   5.974   5.224   5.920
 1497SOL    HW2 5391   5.813   5.196   5.932
 1498SOL     OW 5392   3.126   5.470   0.146
 1498SOL    HW1 5393   3.040   5.423   0.164
 1498SOL    HW2 5394   3.203   5.415   0.178
 1499SOL     OW 5395   0.555   4.206   4.463
 1499SOL    HW1 5396   0.639   4.241   4.422
 1499SOL    HW2 5397   0.579   4.147   4.540
 1500SOL     OW 5398   3.685   6.880   5.772
 1500SOL    HW1 5399   3.637   6.905   5.855
 1500SOL    HW2 5400   3.711   6.783   5.776
 1501SOL     OW 5401   3.816   0.192   0.894
 1501SOL    HW1 5402   3.884   0.153   0.832
 1501SOL    HW2 5403   3.785   0.122   0.958
 1502SOL     OW 5404   0.582   0.507   6.166
 1502SOL    HW1 5405   0.648   0.433   6.179
 1502SOL    HW2 5406   0.632   0.592   6.149
 1503SOL     OW 5407   3.577   3.905   5.106
 1503SOL    HW1 5408   3.640   3.828   5.097
 1503SOL    HW2 5409   3.484   3.873   5.088
 1504SOL     OW 5410   2.733   6.951   3.411
 1504SOL    HW1 5411   2.716   0.008   3.477
 1504SOL    HW2 5412   2.645   6.918   3.376
 1505SOL     OW 5413   5.480   6.643   2.949
 1505SOL    HW1 5414   5.578   6.663   2.938
 1505SOL    HW2 5415   5.466   6.544   2.950
 1506SOL     OW 5416   0.583   6.043   3.603
 1506SOL    HW1 5417   0.580   6.137   3.637
 1506SOL    HW2 5418   0.492   6.017   3.569
 1507SOL     OW 5419   1.934   1.565   0.187
 1507SOL    HW1 5420   1.931   1.665   0.193
 1507SOL    HW2 5421   2.021   1.538   0.146
 1508SOL     OW 5422   4.929   6.143   1.158
 1508SOL    HW1 5423   4.871   6.167   1.080
 1508SOL    HW2 5424   4.877   6.155   1.243
 1509SOL     OW 5425   5.629   1.675   6.517
 1509SOL    HW1 5426   5.726   1.684   6.497
 1509SOL    HW2 5427   5.607   1.580   6.537
 1510SOL     OW 5428   6.403   1.523   2.427
 1510SOL    HW1 5429   6.466   1.466   2.481
 1510SOL    HW2 5430   6.309   1.492   2.444
 1511SOL     OW 5431   0.153   2.928   0.099
 1511SOL    HW1 5432   0.053   2.920   0.104
 1511SOL    HW2 5433   0.188   2.859   0.035
 1512SOL     OW 5434   6.080   0.961   2.219
 1512SOL    HW1 5435   6.151   0.926   2.159
 1512SOL    HW2 5436   6.090   1.061   2.228
 1513SOL     OW 5437   2.393   0.769   2.839
 1513SOL    HW1 5438   2.376   0.866   2.856
 1513SOL    HW2 5439   2.484   0.758   2.799
 1514SOL     OW 5440   4.508   1.232   5.799
 1514SOL    HW1 5441   4.460   1.147   5.775
 1514SOL    HW2 5442   4.457   1.310   5.762
 1515SOL     OW 5443   5.739   5.410   5.810
 1515SOL    HW1 5444   5.831   5.447   5.798
 1515SOL    HW2 5445   5.729   5.327   5.756
 1516SOL     OW 5446   6.503   1.546   1.825
 1516SOL    HW1 5447   6.436   1.493   1.877
 1516SOL    HW2 5448   6.464   1.635   1.800
 1517SOL     OW 5449   3.444   5.300   2.463
 1517SOL    HW1 5450   3.497   5.233   2.410
 1517SOL    HW2 5451   3.487   5.390   2.456
 1518SOL     OW 5452   0.408   4.792   1.210
 1518SOL    HW1 5453   0.380   4.767   1.118
 1518SOL    HW2 5454   0.404   4.891   1.221
 1519SOL     OW 5455   0.324   3.987   0.897
 1519SOL    HW1 5456   0.343   3.995   0.995
 1519SOL    HW2 5457   0.398   3.936   0.853
 1520SOL     OW 5458   1.363   3.794   2.554
 1520SOL    HW1 5459   1.367   3.888   2.588
 1520SOL    HW2 5460   1.271   3.758   2.568
 1521SOL     OW 5461   2.233   5.388   5.341
 1521SOL    HW1 5462   2.302   5.444   5.296
 1521SOL    HW2 5463   2.277   5.310   5.385
 1522SOL     OW 5464   1.685   2.184   6.266
 1522SOL    HW1 5465   1.726   2.242   6.337
 1522SOL    HW2 5466   1.590   2.165   6.289
 1523SOL     OW 5467   5.805   0.732   1.322
 1523SOL    HW1 5468   5.902   0.726   1.300
 1523SOL    HW2 5469   5.784   0.823   1.356
 1524SOL     OW 5470   0.488   1.738   0.930
 1524SOL    HW1 5471   0.557   1.791   0.882
 1524SOL    HW2 5472   0.532   1.682   1.000
 1525SOL     OW 5473   5.277   1.347   5.271
 1525SOL    HW1 5474   5.300   1.299   5.357
 1525SOL    HW2 5475   5.309   1.293   5.194
 1526SOL     OW 5476   5.830   2.117   0.027
 1526SOL    HW1 5477   5.820   2.144   0.123
 1526SOL    HW2 5478   5.830   2.198   6.986
 1527SOL     OW 5479   2.857   1.077   5.672
 1527SOL    HW1 5480   2.842   1.048   5.767
 1527SOL    HW2 5481   2.853   0.997   5.612
 1528SOL     OW 5482   5.019   5.790   3.664
 1528SOL    HW1 5483   5.069   5.722   3.719
 1528SOL    HW2 5484   5.058   5.793   3.572
 1529SOL     OW 5485   1.911   6.973   5.168
 1529SOL    HW1 5486   1.940   0.052   5.176
 1529SOL    HW2 5487   1.899   6.950   5.071
 1530SOL     OW 5488   3.041   6.362   1.424
 1530SOL    HW1 5489   2.986   6.439   1.393
 1530SOL    HW2 5490   2.994   6.276   1.402
 1531SOL     OW 5491   5.878   1.290   6.478
 1531SOL    HW1 5492   5.801   1.249   6.430
 1531SOL    HW2 5493   5.927   1.220   6.530
 1532SOL     OW 5494   3.087   1.783   5.250
 1532SOL    HW1 5495   3.069   1.869   5.298
 1532SOL    HW2 5496   3.186   1.772   5.238
 1533SOL     OW 5497   4.638   2.998   0.340
 1533SOL    HW1 5498   4.628   3.095   0.364
 1533SOL    HW2 5499   4.734   2.971   0.348
 1534SOL     OW 5500   0.145   6.941   0.221
 1534SOL    HW1 5501   0.131   6.999   0.301
 1534SOL    HW2 5502   0.224   6.975   0.170
 1535SOL     OW 5503   5.136   4.866   4.357
 1535SOL    HW1 5504   5.116   4.771   4.332
 1535SOL    HW2 5505   5.208   4.868   4.426
 1536SOL     OW 5506   3.490   5.996   3.084
 1536SOL    HW1 5507   3.537   5.965   3.001
 1536SOL    HW2 5508   3.394   6.014   3.063
 1537SOL     OW 5509   2.445   6.038   4.249
 1537SOL    HW1 5510   2.382   6.009   4.177
 1537SOL    HW2 5511   2.453   5.965   4.317
 1538SOL     OW 5512   3.507   6.340   0.438
 1538SOL    HW1 5513   3.575   6.409   0.463
 1538SOL    HW2 5514   3.516   6.261   0.499
 1539SOL     OW 5515   2.407   6.617   2.330
 1539SOL    HW1 5516   2.485   6.600   2.271
 1539SOL    HW2 5517   2.434   6.609   2.426
 1540SOL     OW 5518   6.007   0.384   4.990
 1540SOL    HW1 5519   6.094   0.411   5.032
 1540SOL    HW2 5520   5.931   0.426   5.040
 1541SOL     OW 5521   5.398   1.846   2.156
 1541SOL    HW1 5522   5.423   1.776   2.090
 1541SOL    HW2 5523   5.301   1.838   2.179
 1542SOL     OW 5524   6.783   5.700   1.358
 1542SOL    HW1 5525   6.856   5.708   1.426
 1542SOL    HW2 5526   6.742   5.790   1.344
 1543SOL     OW 5527   3.287   3.357   3.407
 1543SOL    HW1 5528   3.335   3.296   3.345
 1543SOL    HW2 5529   3.330   3.353   3.497
 1544SOL     OW 5530   3.546   3.365   1.730
 1544SOL    HW1 5531   3.520   3.299   1.659
 1544SOL    HW2 5532   3.513   3.456   1.705
 1545SOL     OW 5533   0.639   6.640   5.439
 1545SOL    HW1 5534   0.685   6.596   5.516
 1545SOL    HW2 5535   0.681   6.729   5.421
 1546SOL     OW 5536   0.024   6.486   6.810
 1546SOL    HW1 5537   6.952   6.463   6.851
 1546SOL    HW2 5538   0.042   6.584   6.819
 1547SOL     OW 5539   3.120   6.069   0.163
 1547SOL    HW1 5540   3.214   6.081   0.195
 1547SOL    HW2 5541   3.099   5.971   0.158
 1548SOL     OW 5542   6.611   3.963   3.368
 1548SOL    HW1 5543   6.530   3.945   3.313
 1548SOL    HW2 5544   6.692   3.929   3.320
 1549SOL     OW 5545   6.452   2.149   0.868
 1549SOL    HW1 5546   6.497   2.142   0.957
 1549SOL    HW2 5547   6.488   2.078   0.807
 1550SOL     OW 5548   2.388   5.044   2.364
 1550SOL    HW1 5549   2.440   5.006   2.287
 1550SOL    HW2 5550   2.291   5.040   2.343
 1551SOL     OW 5551   0.702   2.888   1.597
 1551SOL    HW1 5552   0.690   2.871   1.499
 1551SOL    HW2 5553   0.786   2.844   1.629
 1552SOL     OW 5554   1.754   6.749   2.060
 1552SOL    HW1 5555   1.832   6.797   2.099
 1552SOL    HW2 5556   1.670   6.785   2.101
 1553SOL     OW 5557   6.010   1.618   5.530
 1553SOL    HW1 5558   5.979   1.540   5.585
 1553SOL    HW2 5559   6.026   1.697   5.591
 1554SOL     OW 5560   2.652   2.772   0.960
 1554SOL    HW1 5561   2.718   2.774   0.886
 1554SOL    HW2 5562   2.561   2.793   0.925
 1555SOL     OW 5563   4.515   1.197   1.107
 1555SOL    HW1 5564   4.495   1.262   1.034
 1555SOL    HW2 5565   4.482   1.234   1.194
 1556SOL     OW 5566   3.552   2.585   0.464
 1556SOL    HW1 5567   3.513   2.633   0.386
 1556SOL    HW2 5568   3.500   2.501   0.481
 1557SOL     OW 5569   1.831   2.894   1.256
 1557SOL    HW1 5570   1.833   2.935   1.165
 1557SOL    HW2 5571   1.767   2.816   1.256
 1558SOL     OW 5572   4.944   2.748   6.608
 1558SOL    HW1 5573   5.030   2.766   6.655
 1558SOL    HW2 5574   4.867   2.763   6.671
 1559SOL     OW 5575   2.680   6.162   3.374
 1559SOL    HW1 5576   2.651   6.106   3.297
 1559SOL    HW2 5577   2.699   6.255   3.342
 1560SOL     OW 5578   4.362   3.035   1.413
 1560SOL    HW1 5579   4.366   3.044   1.512
 1560SOL    HW2 5580   4.330   2.944   1.388
 1561SOL     OW 5581   6.288   6.316   0.287
 1561SOL    HW1 5582   6.362   6.334   0.222
 1561SOL    HW2 5583   6.208   6.281   0.237
 1562SOL     OW 5584   3.047   6.915   2.804
 1562SOL    HW1 5585   3.012   6.962   2.722
 1562SOL    HW2 5586   3.065   6.819   2.782
 1563SOL     OW 5587   2.213   3.913   3.870
 1563SOL    HW1 5588   2.255   3.998   3.903
 1563SOL    HW2 5589   2.205   3.848   3.946
 1564SOL     OW 5590   1.187   1.785   3.007
 1564SOL    HW1 5591   1.236   1.832   3.080
 1564SOL    HW2 5592   1.127   1.715   3.045
 1565SOL     OW 5593   5.127   1.779   5.494
 1565SOL    HW1 5594   5.186   1.788   5.413
 1565SOL    HW2 5595   5.130   1.686   5.528
 1566SOL     OW 5596   0.962   3.333   3.858
 1566SOL    HW1 5597   0.909   3.251   3.879
 1566SOL    HW2 5598   0.901   3.402   3.819
 1567SOL     OW 5599   5.337   0.493   4.702
 1567SOL    HW1 5600   5.358   0.572   4.645
 1567SOL    HW2 5601   5.240   0.473   4.697
 1568SOL     OW 5602   2.350   4.207   0.634
 1568SOL    HW1 5603   2.250   4.214   0.633
 1568SOL    HW2 5604   2.376   4.110   0.629
 1569SOL     OW 5605   2.263   0.988   2.222
 1569SOL    HW1 5606   2.300   0.897   2.240
 1569SOL    HW2 5607   2.287   1.049   2.298
 1570SOL     OW 5608   3.057   6.195   6.460
 1570SOL    HW1 5609   3.010   6.201   6.372
 1570SOL    HW2 5610   2.990   6.197   6.534
 1571SOL     OW 5611   0.236   1.274   4.720
 1571SOL    HW1 5612   0.257   1.251   4.625
 1571SOL    HW2 5613   0.172   1.351   4.722
 1572SOL     OW 5614   1.723   6.427   3.497
 1572SOL    HW1 5615   1.736   6.513   3.546
 1572SOL    HW2 5616   1.758   6.352   3.552
 1573SOL     OW 5617   5.394   6.255   0.497
 1573SOL    HW1 5618   5.458   6.195   0.546
 1573SOL    HW2 5619   5.424   6.265   0.402
 1574SOL     OW 5620   0.092   3.868   3.333
 1574SOL    HW1 5621   0.188   3.897   3.335
 1574SOL    HW2 5622   0.077   3.808   3.254
 1575SOL     OW 5623   6.904   2.501   0.239
 1575SOL    HW1 5624   6.878   2.576   0.301
 1575SOL    HW2 5625   6.998   2.514   0.209
 1576SOL     OW 5626   1.914   6.054   2.359
 1576SOL    HW1 5627   1.974   5.983   2.397
 1576SOL    HW2 5628   1.962   6.103   2.287
 1577SOL     OW 5629   4.120   5.752   4.161
 1577SOL    HW1 5630   4.058   5.812   4.110
 1577SOL    HW2 5631   4.112   5.771   4.259
 1578SOL     OW 5632   5.290   2.017   1.594
 1578SOL    HW1 5633   5.386   2.042   1.581
 1578SOL    HW2 5634   5.232   2.097   1.582
 1579SOL     OW 5635   1.241   3.218   2.166
 1579SOL    HW1 5636   1.165   3.185   2.110
 1579SOL    HW2 5637   1.304   3.270   2.109
 1580SOL     OW 5638   3.496   4.080   3.706
 1580SOL    HW1 5639   3.453   4.111   3.621
 1580SOL    HW2 5640   3.594   4.100   3.703
 1581SOL     OW 5641   4.960   4.753   5.457
 1581SOL    HW1 5642   4.917   4.676   5.410
 1581SOL    HW2 5643   4.995   4.723   5.545
 1582SOL     OW 5644   4.046   6.316   4.379
 1582SOL    HW1 5645   3.995   6.361   4.452
 1582SOL    HW2 5646   3.983   6.288   4.306
 1583SOL     OW 5647   0.860   5.199   4.829
 1583SOL    HW1 5648   0.818   5.261   4.763
 1583SOL    HW2 5649   0.800   5.190   4.909
 1584SOL     OW 5650   6.937   3.933   6.912
 1584SOL    HW1 5651   6.851   3.924   6.862
 1584SOL    HW2 5652   6.970   3.843   6.939
 1585SOL     OW 5653   5.061   6.545   4.340
 1585SOL    HW1 5654   5.012   6.527   4.426
 1585SOL    HW2 5655   5.024   6.626   4.296
 1586SOL     OW 5656   2.259   5.867   3.642
 1586SOL    HW1 5657   2.206   5.951   3.656
 1586SOL    HW2 5658   2.326   5.858   3.716
 1587SOL     OW 5659   3.831   6.408   0.304
 1587SOL    HW1 5660   3.779   6.457   0.374
 1587SOL    HW2 5661   3.786   6.320   0.285
 1588SOL     OW 5662   6.266   2.250   3.687
 1588SOL    HW1 5663   6.294   2.182   3.619
 1588SOL    HW2 5664   6.264   2.208   3.778
 1589SOL     OW 5665   0.026   1.550   4.082
 1589SOL    HW1 5666   7.000   1.497   4.009
 1589SOL    HW2 5667   6.976   1.566   4.155
 1590SOL     OW 5668   5.489   0.620   3.902
 1590SOL    HW1 5669   5.579   0.643   3.940
 1590SOL    HW2 5670   5.451   0.699   3.855
 1591SOL     OW 5671   0.276   5.701   0.308
 1591SOL    HW1 5672   0.293   5.676   0.213
 1591SOL    HW2 5673   0.361   5.693   0.361
 1592SOL     OW 5674   6.830   3.958   4.830
 1592SOL    HW1 5675   6.875   3.997   4.751
 1592SOL    HW2 5676   6.740   3.923   4.804
 1593SOL     OW 5677   3.410   5.840   1.573
 1593SOL    HW1 5678   3.326   5.894   1.574
 1593SOL    HW2 5679   3.467   5.865   1.652
 1594SOL     OW 5680   5.350   1.235   2.590
 1594SOL    HW1 5681   5.335   1.328   2.558
 1594SOL    HW2 5682   5.302   1.171   2.530
 1595SOL     OW 5683   0.252   3.631   6.680
 1595SOL    HW1 5684   0.244   3.728   6.656
 1595SOL    HW2 5685   0.346   3.610   6.705
 1596SOL     OW 5686   5.137   4.585   4.249
 1596SOL    HW1 5687   5.134   4.527   4.167
 1596SOL    HW2 5688   5.208   4.551   4.310
 1597SOL     OW 5689   4.158   6.606   1.239
 1597SOL    HW1 5690   4.248   6.562   1.245
 1597SOL    HW2 5691   4.124   6.624   1.331
 1598SOL     OW 5692   1.041   4.778   5.873
 1598SOL    HW1 5693   1.020   4.801   5.778
 1598SOL    HW2 5694   1.008   4.686   5.894
 1599SOL     OW 5695   4.950   5.352   3.679
 1599SOL    HW1 5696   4.920   5.257   3.691
 1599SOL    HW2 5697   4.967   5.393   3.768
 1600SOL     OW 5698   4.250   0.706   1.562
 1600SOL    HW1 5699   4.211   0.630   1.613
 1600SOL    HW2 5700   4.341   0.728   1.598
 1601SOL     OW 5701   6.340   0.489   4.704
 1601SOL    HW1 5702   6.372   0.557   4.638
 1601SOL    HW2 5703   6.287   0.534   4.776
 1602SOL     OW 5704   4.175   5.571   2.846
 1602SOL    HW1 5705   4.204   5.555   2.941
 1602SOL    HW2 5706   4.255   5.571   2.786
 1603SOL     OW 5707   3.201   4.854   1.876
 1603SOL    HW1 5708   3.278   4.849   1.940
 1603SOL    HW2 5709   3.228   4.816   1.787
 1604SOL     OW 5710   4.293   5.268   2.231
 1604SOL    HW1 5711   4.203   5.266   2.274
 1604SOL    HW2 5712   4.288   5.323   2.147
 1605SOL     OW 5713   5.008   4.682   0.533
 1605SOL    HW1 5714   5.041   4.750   0.468
 1605SOL    HW2 5715   5.079   4.615   0.552
 1606SOL     OW 5716   4.035   5.940   5.232
 1606SOL    HW1 5717   4.065   6.025   5.275
 1606SOL    HW2 5718   4.072   5.935   5.139
 1607SOL     OW 5719   4.860   3.573   3.899
 1607SOL    HW1 5720   4.819   3.482   3.903
 1607SOL    HW2 5721   4.892   3.599   3.990
 1608SOL     OW 5722   6.221   3.087   3.517
 1608SOL    HW1 5723   6.197   2.996   3.550
 1608SOL    HW2 5724   6.224   3.087   3.417
 1609SOL     OW 5725   2.029   0.242   0.859
 1609SOL    HW1 5726   1.937   0.272   0.884
 1609SOL    HW2 5727   2.093   0.263   0.933
 1610SOL     OW 5728   5.768   6.187   1.017
 1610SOL    HW1 5729   5.757   6.142   1.106
 1610SOL    HW2 5730   5.687   6.169   0.961
 1611SOL     OW 5731   0.537   4.266   6.738
 1611SOL    HW1 5732   0.560   4.179   6.695
 1611SOL    HW2 5733   0.551   4.259   6.837
 1612SOL     OW 5734   5.245   1.209   1.585
 1612SOL    HW1 5735   5.331   1.223   1.536
 1612SOL    HW2 5736   5.241   1.116   1.620
 1613SOL     OW 5737   0.086   6.332   2.471
 1613SOL    HW1 5738   0.094   6.256   2.535
 1613SOL    HW2 5739   0.165   6.332   2.409
 1614SOL     OW 5740   5.945   1.755   5.283
 1614SOL    HW1 5741   5.919   1.840   5.329
 1614SOL    HW2 5742   6.004   1.701   5.343
 1615SOL     OW 5743   6.860   3.204   5.127
 1615SOL    HW1 5744   6.847   3.278   5.062
 1615SOL    HW2 5745   6.875   3.241   5.218
 1616SOL     OW 5746   0.623   1.549   3.102
 1616SOL    HW1 5747   0.639   1.577   3.196
 1616SOL    HW2 5748   0.555   1.475   3.100
 1617SOL     OW 5749   6.713   5.592   4.147
 1617SOL    HW1 5750   6.743   5.614   4.240
 1617SOL    HW2 5751   6.621   5.628   4.132
 1618SOL     OW 5752   3.171   5.461   3.030
 1618SOL    HW1 5753   3.100   5.394   3.007
 1618SOL    HW2 5754   3.130   5.542   3.071
 1619SOL     OW 5755   0.710   3.292   6.396
 1619SOL    HW1 5756   0.698   3.256   6.488
 1619SOL    HW2 5757   0.808   3.295   6.374
 1620SOL     OW 5758   2.817   6.872   4.739
 1620SOL    HW1 5759   2.813   6.971   4.745
 1620SOL    HW2 5760   2.732   6.837   4.699
 1621SOL     OW 5761   5.405   4.682   1.040
 1621SOL    HW1 5762   5.473   4.753   1.057
 1621SOL    HW2 5763   5.366   4.651   1.127
 1622SOL     OW 5764   6.662   3.062   3.162
 1622SOL    HW1 5765   6.671   2.964   3.145
 1622SOL    HW2 5766   6.636   3.109   3.077
 1623SOL     OW 5767   0.781   2.506   3.910
 1623SOL    HW1 5768   0.693   2.504   3.861
 1623SOL    HW2 5769   0.809   2.413   3.933
 1624SOL     OW 5770   4.397   2.782   0.474
 1624SOL    HW1 5771   4.426   2.747   0.385
 1624SOL    HW2 5772   4.361   2.875   0.463
 1625SOL     OW 5773   0.908   6.157   0.368
 1625SOL    HW1 5774   0.910   6.248   0.409
 1625SOL    HW2 5775   0.817   6.139   0.330
 1626SOL     OW 5776   2.555   1.864   2.485
 1626SOL    HW1 5777   2.543   1.778   2.436
 1626SOL    HW2 5778   2.602   1.846   2.572
 1627SOL     OW 5779   4.522   1.510   6.065
 1627SOL    HW1 5780   4.573   1.570   6.004
 1627SOL    HW2 5781   4.580   1.484   6.142
 1628SOL     OW 5782   5.244   5.965   1.246
 1628SOL    HW1 5783   5.144   5.964   1.243
 1628SOL    HW2 5784   5.280   5.923   1.163
 1629SOL     OW 5785   1.634   6.820   3.371
 1629SOL    HW1 5786   1.570   6.883   3.417
 1629SOL    HW2 5787   1.594   6.789   3.285
 1630SOL     OW 5788   0.306   4.589   6.350
 1630SOL    HW1 5789   0.314   4.535   6.433
 1630SOL    HW2 5790   0.361   4.672   6.358
 1631SOL     OW 5791   5.008   3.923   0.174
 1631SOL    HW1 5792   4.962   3.900   0.088
 1631SOL    HW2 5793   4.947   3.979   0.230
 1632SOL     OW 5794   6.184   6.437   2.165
 1632SOL    HW1 5795   6.188   6.338   2.177
 1632SOL    HW2 5796   6.140   6.478   2.245
 1633SOL     OW 5797   6.395   4.011   4.548
 1633SOL    HW1 5798   6.351   3.923   4.567
 1633SOL    HW2 5799   6.324   4.079   4.530
 1634SOL     OW 5800   1.445   3.920   6.471
 1634SOL    HW1 5801   1.415   3.864   6.549
 1634SOL    HW2 5802   1.455   3.861   6.390
 1635SOL     OW 5803   2.933   0.322   3.972
 1635SOL    HW1 5804   2.891   0.372   4.047
 1635SOL    HW2 5805   2.894   0.230   3.967
 1636SOL     OW 5806   0.439   6.171   1.553
 1636SOL    HW1 5807   0.371   6.185   1.481
 1636SOL    HW2 5808   0.432   6.243   1.621
 1637SOL     OW 5809   1.274   1.599   1.966
 1637SOL    HW1 5810   1.182   1.581   1.931
 1637SOL    HW2 5811   1.332   1.519   1.949
 1638SOL     OW 5812   5.452   2.237   3.390
 1638SOL    HW1 5813   5.392   2.168   3.430
 1638SOL    HW2 5814   5.547   2.212   3.409
 1639SOL     OW 5815   4.762   2.349   1.191
 1639SOL    HW1 5816   4.720   2.297   1.265
 1639SOL    HW2 5817   4.721   2.440   1.186
 1640SOL     OW 5818   6.450   0.853   7.006
 1640SOL    HW1 5819   6.405   0.767   6.982
 1640SOL    HW2 5820   6.382   0.917   0.027
 1641SOL     OW 5821   5.456   1.008   2.929
 1641SOL    HW1 5822   5.424   1.083   2.986
 1641SOL    HW2 5823   5.491   0.934   2.988
 1642SOL     OW 5824   0.023   3.236   5.502
 1642SOL    HW1 5825   0.044   3.277   5.591
 1642SOL    HW2 5826   6.946   3.200   5.504
 1643SOL     OW 5827   2.223   5.291   3.936
 1643SOL    HW1 5828   2.192   5.357   4.005
 1643SOL    HW2 5829   2.174   5.205   3.948
 1644SOL     OW 5830   5.999   1.912   1.589
 1644SOL    HW1 5831   5.916   1.883   1.543
 1644SOL    HW2 5832   6.022   1.845   1.661
 1645SOL     OW 5833   2.430   0.761   4.787
 1645SOL    HW1 5834   2.417   0.762   4.887
 1645SOL    HW2 5835   2.351   0.804   4.743
 1646SOL     OW 5836   0.295   5.238   1.854
 1646SOL    HW1 5837   0.348   5.297   1.793
 1646SOL    HW2 5838   0.342   5.230   1.942
 1647SOL     OW 5839   6.141   3.146   4.670
 1647SOL    HW1 5840   6.079   3.196   4.731
 1647SOL    HW2 5841   6.147   3.194   4.582
 1648SOL     OW 5842   5.305   6.337   1.860
 1648SOL    HW1 5843   5.382   6.299   1.910
 1648SOL    HW2 5844   5.231   6.270   1.855
 1649SOL     OW 5845   3.890   0.921   2.742
 1649SOL    HW1 5846   3.820   0.936   2.811
 1649SOL    HW2 5847   3.927   0.829   2.752
 1650SOL     OW 5848   2.548   2.478   4.931
 1650SOL    HW1 5849   2.513   2.455   4.840
 1650SOL    HW2 5850   2.502   2.559   4.966
 1651SOL     OW 5851   1.204   2.065   3.941
 1651SOL    HW1 5852   1.179   2.065   4.037
 1651SOL    HW2 5853   1.169   1.982   3.897
 1652SOL     OW 5854   6.686   3.954   1.854
 1652SOL    HW1 5855   6.678   4.030   1.919
 1652SOL    HW2 5856   6.720   3.989   1.767
 1653SOL     OW 5857   6.625   4.545   2.047
 1653SOL    HW1 5858   6.679   4.589   1.975
 1653SOL    HW2 5859   6.625   4.446   2.034
 1654SOL     OW 5860   0.363   3.758   1.977
 1654SOL    HW1 5861   0.324   3.770   2.068
 1654SOL    HW2 5862   0.318   3.820   1.913
 1655SOL     OW 5863   0.108   0.808   6.173
 1655SOL    HW1 5864   0.202   0.778   6.155
 1655SOL    HW2 5865   0.058   0.814   6.086
 1656SOL     OW 5866   2.224   3.983   2.516
 1656SOL    HW1 5867   2.232   4.046   2.439
 1656SOL    HW2 5868   2.284   4.014   2.591
 1657SOL     OW 5869   0.501   0.946   6.229
 1657SOL    HW1 5870   0.599   0.929   6.224
 1657SOL    HW2 5871   0.479   1.027   6.173
 1658SOL     OW 5872   5.299   6.739   5.821
 1658SOL    HW1 5873   5.244   6.768   5.743
 1658SOL    HW2 5874   5.337   6.648   5.803
 1659SOL     OW 5875   3.751   0.503   6.342
 1659SOL    HW1 5876   3.688   0.437   6.383
 1659SOL    HW2 5877   3.726   0.595   6.371
 1660SOL     OW 5878   2.577   0.830   2.050
 1660SOL    HW1 5879   2.523   0.798   2.127
 1660SOL    HW2 5880   2.663   0.868   2.083
 1661SOL     OW 5881   4.703   4.615   3.538
 1661SOL    HW1 5882   4.785   4.560   3.522
 1661SOL    HW2 5883   4.624   4.555   3.551
 1662SOL     OW 5884   0.032   1.783   3.538
 1662SOL    HW1 5885   6.986   1.806   3.612
 1662SOL    HW2 5886   7.013   1.704   3.488
 1663SOL     OW 5887   5.667   3.840   1.016
 1663SOL    HW1 5888   5.604   3.844   0.939
 1663SOL    HW2 5889   5.692   3.933   1.043
 1664SOL     OW 5890   1.368   1.838   6.026
 1664SOL    HW1 5891   1.396   1.861   5.933
 1664SOL    HW2 5892   1.420   1.892   6.092
 1665SOL     OW 5893   2.191   3.845   6.621
 1665SOL    HW1 5894   2.127   3.787   6.570
 1665SOL    HW2 5895   2.254   3.889   6.557
 1666SOL     OW 5896   5.474   6.249   5.773
 1666SOL    HW1 5897   5.407   6.175   5.765
 1666SOL    HW2 5898   5.559   6.212   5.812
 1667SOL     OW 5899   6.711   5.191   1.029
 1667SOL    HW1 5900   6.638   5.196   1.097
 1667SOL    HW2 5901   6.789   5.245   1.059
 1668SOL     OW 5902   6.180   3.499   1.927
 1668SOL    HW1 5903   6.229   3.563   1.867
 1668SOL    HW2 5904   6.102   3.460   1.878
 1669SOL     OW 5905   6.358   2.924   5.373
 1669SOL    HW1 5906   6.265   2.890   5.389
 1669SOL    HW2 5907   6.373   2.933   5.274
 1670SOL     OW 5908   2.926   4.349   5.363
 1670SOL    HW1 5909   2.924   4.413   5.286
 1670SOL    HW2 5910   3.001   4.284   5.349
 1671SOL     OW 5911   5.577   2.105   0.661
 1671SOL    HW1 5912   5.587   2.202   0.685
 1671SOL    HW2 5913   5.611   2.090   0.568
 1672SOL     OW 5914   0.302   2.167   1.434
 1672SOL    HW1 5915   0.333   2.193   1.525
 1672SOL    HW2 5916   0.286   2.068   1.431
 1673SOL     OW 5917   1.729   0.578   4.960
 1673SOL    HW1 5918   1.638   0.538   4.963
 1673SOL    HW2 5919   1.743   0.637   5.040
 1674SOL     OW 5920   5.029   2.304   3.568
 1674SOL    HW1 5921   5.059   2.380   3.511
 1674SOL    HW2 5922   4.960   2.336   3.633
 1675SOL     OW 5923   5.427   0.786   2.167
 1675SOL    HW1 5924   5.393   0.778   2.261
 1675SOL    HW2 5925   5.480   0.870   2.158
 1676SOL     OW 5926   1.190   2.354   4.105
 1676SOL    HW1 5927   1.199   2.410   4.022
 1676SOL    HW2 5928   1.145   2.408   4.176
 1677SOL     OW 5929   3.388   4.081   2.394
 1677SOL    HW1 5930   3.487   4.089   2.405
 1677SOL    HW2 5931   3.342   4.118   2.475
 1678SOL     OW 5932   6.772   6.576   6.670
 1678SOL    HW1 5933   6.750   6.664   6.711
 1678SOL    HW2 5934   6.737   6.573   6.576
 1679SOL     OW 5935   6.125   1.529   0.546
 1679SOL    HW1 5936   6.074   1.505   0.464
 1679SOL    HW2 5937   6.173   1.616   0.532
 1680SOL     OW 5938   6.128   2.614   2.959
 1680SOL    HW1 5939   6.150   2.702   2.915
 1680SOL    HW2 5940   6.158   2.539   2.900
 1681SOL     OW 5941   3.457   6.281   4.708
 1681SOL    HW1 5942   3.513   6.235   4.639
 1681SOL    HW2 5943   3.385   6.333   4.662
 1682SOL     OW 5944   3.978   1.094   4.960
 1682SOL    HW1 5945   3.942   1.048   5.042
 1682SOL    HW2 5946   3.904   1.143   4.915
 1683SOL     OW 5947   1.128   2.595   2.901
 1683SOL    HW1 5948   1.144   2.525   2.831
 1683SOL    HW2 5949   1.202   2.663   2.897
 1684SOL     OW 5950   2.701   5.010   1.336
 1684SOL    HW1 5951   2.757   4.968   1.265
 1684SOL    HW2 5952   2.759   5.061   1.399
 1685SOL     OW 5953   0.178   1.613   5.605
 1685SOL    HW1 5954   0.096   1.658   5.571
 1685SOL    HW2 5955   0.255   1.632   5.543
 1686SOL     OW 5956   3.446   5.185   1.724
 1686SOL    HW1 5957   3.501   5.267   1.738
 1686SOL    HW2 5958   3.488   5.107   1.771
 1687SOL     OW 5959   4.574   4.326   0.465
 1687SOL    HW1 5960   4.670   4.324   0.490
 1687SOL    HW2 5961   4.521   4.275   0.532
 1688SOL     OW 5962   3.080   0.518   3.067
 1688SOL    HW1 5963   3.155   0.571   3.105
 1688SOL    HW2 5964   2.995   0.542   3.113
 1689SOL     OW 5965   3.895   0.190   1.854
 1689SOL    HW1 5966   3.872   0.287   1.846
 1689SOL    HW2 5967   3.812   0.135   1.850
 1690SOL     OW 5968   6.825   5.197   4.257
 1690SOL    HW1 5969   6.747   5.153   4.212
 1690SOL    HW2 5970   6.816   5.297   4.249
 1691SOL     OW 5971   4.000   2.651   5.369
 1691SOL    HW1 5972   4.028   2.746   5.382
 1691SOL    HW2 5973   4.047   2.613   5.290
 1692SOL     OW 5974   6.084   5.393   2.837
 1692SOL    HW1 5975   6.132   5.376   2.751
 1692SOL    HW2 5976   6.060   5.305   2.879
 1693SOL     OW 5977   5.610   6.817   5.389
 1693SOL    HW1 5978   5.705   6.841   5.369
 1693SOL    HW2 5979   5.605   6.772   5.479
 1694SOL     OW 5980   4.816   1.143   6.616
 1694SOL    HW1 5981   4.736   1.107   6.665
 1694SOL    HW2 5982   4.844   1.078   6.546
 1695SOL     OW 5983   4.668   0.115   4.813
 1695SOL    HW1 5984   4.753   0.143   4.768
 1695SOL    HW2 5985   4.639   0.185   4.878
 1696SOL     OW 5986   5.193   6.901   1.103
 1696SOL    HW1 5987   5.170   6.881   1.008
 1696SOL    HW2 5988   5.284   6.943   1.107
 1697SOL     OW 5989   4.436   3.163   1.682
 1697SOL    HW1 5990   4.469   3.079   1.724
 1697SOL    HW2 5991   4.513   3.224   1.664
 1698SOL     OW 5992   4.280   1.340   1.773
 1698SOL    HW1 5993   4.379   1.338   1.790
 1698SOL    HW2 5994   4.232   1.360   1.859
 1699SOL     OW 5995   1.819   0.645   1.171
 1699SOL    HW1 5996   1.831   0.744   1.174
 1699SOL    HW2 5997   1.908   0.600   1.164
 1700SOL     OW 5998   5.215   3.281   2.655
 1700SOL    HW1 5999   5.128   3.288   2.605
 1700SOL    HW2 6000   5.285   3.333   2.607
 1701SOL     OW 6001   0.852   5.536   5.542
 1701SOL    HW1 6002   0.774   5.599   5.546
 1701SOL    HW2 6003   0.889   5.535   5.450
 1702SOL     OW 6004   1.848   2.674   6.700
 1702SOL    HW1 6005   1.873   2.612   6.774
 1702SOL    HW2 6006   1.793   2.625   6.632
 1703SOL     OW 6007   1.482   2.088   2.428
 1703SOL    HW1 6008   1.542   2.028   2.376
 1703SOL    HW2 6009   1.387   2.071   2.403
 1704SOL     OW 6010   3.155   3.200   6.663
 1704SOL    HW1 6011   3.180   3.280   6.609
 1704SOL    HW2 6012   3.056   3.186   6.659
 1705SOL     OW 6013   5.037   3.325   0.440
 1705SOL    HW1 6014   5.111   3.290   0.497
 1705SOL    HW2 6015   5.020   3.421   0.462
 1706SOL     OW 6016   5.560   0.668   5.905
 1706SOL    HW1 6017   5.512   0.607   5.842
 1706SOL    HW2 6018   5.641   0.621   5.941
 1707SOL     OW 6019   3.723   1.489   2.220
 1707SOL    HW1 6020   3.691   1.406   2.175
 1707SOL    HW2 6021   3.673   1.568   2.183
 1708SOL     OW 6022   2.503   4.540   1.947
 1708SOL    HW1 6023   2.597   4.556   1.975
 1708SOL    HW2 6024   2.464   4.624   1.909
 1709SOL     OW 6025   5.309   4.277   1.507
 1709SOL    HW1 6026   5.243   4.348   1.530
 1709SOL    HW2 6027   5.301   4.252   1.411
 1710SOL     OW 6028   4.781   2.784   2.329
 1710SOL    HW1 6029   4.852   2.853   2.314
 1710SOL    HW2 6030   4.721   2.779   2.249
 1711SOL     OW 6031   4.351   5.747   6.994
 1711SOL    HW1 6032   4.254   5.771   6.989
 1711SOL    HW2 6033   4.360   5.651   0.007
 1712SOL     OW 6034   0.515   2.015   2.323
 1712SOL    HW1 6035   0.422   2.044   2.302
 1712SOL    HW2 6036   0.551   1.960   2.248
 1713SOL     OW 6037   2.833   1.573   2.160
 1713SOL    HW1 6038   2.842   1.476   2.182
 1713SOL    HW2 6039   2.924   1.610   2.138
 1714SOL     OW 6040   2.794   4.222   1.292
 1714SOL    HW1 6041   2.870   4.236   1.356
 1714SOL    HW2 6042   2.712   4.195   1.343
 1715SOL     OW 6043   1.468   6.232   1.198
 1715SOL    HW1 6044   1.459   6.322   1.241
 1715SOL    HW2 6045   1.565   6.207   1.194
 1716SOL     OW 6046   4.926   1.467   2.818
 1716SOL    HW1 6047   4.933   1.369   2.800
 1716SOL    HW2 6048   4.835   1.499   2.794
 1717SOL     OW 6049   3.637   6.121   3.767
 1717SOL    HW1 6050   3.724   6.081   3.796
 1717SOL    HW2 6051   3.606   6.075   3.684
 1718SOL     OW 6052   1.771   3.193   1.848
 1718SOL    HW1 6053   1.828   3.111   1.844
 1718SOL    HW2 6054   1.828   3.274   1.829
 1719SOL     OW 6055   1.032   4.920   3.574
 1719SOL    HW1 6056   1.006   4.824   3.569
 1719SOL    HW2 6057   1.099   4.933   3.648
 1720SOL     OW 6058   1.195   2.804   5.282
 1720SOL    HW1 6059   1.096   2.798   5.271
 1720SOL    HW2 6060   1.230   2.884   5.232
 1721SOL     OW 6061   2.258   2.767   0.405
 1721SOL    HW1 6062   2.167   2.730   0.422
 1721SOL    HW2 6063   2.295   2.806   0.489
 1722SOL     OW 6064   3.075   2.095   3.585
 1722SOL    HW1 6065   3.038   2.012   3.543
 1722SOL    HW2 6066   3.104   2.158   3.514
 1723SOL     OW 6067   6.447   4.648   1.318
 1723SOL    HW1 6068   6.391   4.704   1.378
 1723SOL    HW2 6069   6.396   4.567   1.289
 1724SOL     OW 6070   5.905   3.341   0.743
 1724SOL    HW1 6071   5.871   3.435   0.745
 1724SOL    HW2 6072   6.002   3.342   0.719
 1725SOL     OW 6073   1.834   6.585   6.253
 1725SOL    HW1 6074   1.820   6.668   6.200
 1725SOL    HW2 6075   1.799   6.507   6.201
 1726SOL     OW 6076   5.063   4.982   3.713
 1726SOL    HW1 6077   5.117   5.012   3.793
 1726SOL    HW2 6078   5.124   4.971   3.635
 1727SOL     OW 6079   2.955   3.218   3.482
 1727SOL    HW1 6080   2.978   3.308   3.519
 1727SOL    HW2 6081   2.912   3.229   3.393
 1728SOL     OW 6082   5.263   2.009   4.502
 1728SOL    HW1 6083   5.277   1.924   4.553
 1728SOL    HW2 6084   5.245   2.084   4.567
 1729SOL     OW 6085   1.736   3.273   2.859
 1729SOL    HW1 6086   1.811   3.284   2.794
 1729SOL    HW2 6087   1.736   3.179   2.895
 1730SOL     OW 6088   2.595   0.603   4.649
 1730SOL    HW1 6089   2.538   0.675   4.686
 1730SOL    HW2 6090   2.590   0.522   4.708
 1731SOL     OW 6091   5.443   4.366   3.665
 1731SOL    HW1 6092   5.436   4.466   3.655
 1731SOL    HW2 6093   5.393   4.322   3.591
 1732SOL     OW 6094   4.117   3.599   5.072
 1732SOL    HW1 6095   4.108   3.548   4.987
 1732SOL    HW2 6096   4.032   3.646   5.092
 1733SOL     OW 6097   1.509   2.141   6.919
 1733SOL    HW1 6098   1.581   2.071   6.910
 1733SOL    HW2 6099   1.422   2.103   6.886
 1734SOL     OW 6100   0.792   4.061   1.824
 1734SOL    HW1 6101   0.697   4.057   1.795
 1734SOL    HW2 6102   0.808   4.143   1.879
 1735SOL     OW 6103   3.360   5.656   5.813
 1735SOL    HW1 6104   3.452   5.675   5.779
 1735SOL    HW2 6105   3.339   5.716   5.889
 1736SOL     OW 6106   4.793   1.874   5.881
 1736SOL    HW1 6107   4.870   1.864   5.818
 1736SOL    HW2 6108   4.731   1.945   5.848
 1737SOL     OW 6109   2.857   1.272   6.459
 1737SOL    HW1 6110   2.823   1.235   6.545
 1737SOL    HW2 6111   2.815   1.361   6.441
 1738SOL     OW 6112   1.075   3.926   2.112
 1738SOL    HW1 6113   1.168   3.957   2.133
 1738SOL    HW2 6114   1.056   3.938   2.015
 1739SOL     OW 6115   4.511   5.107   2.380
 1739SOL    HW1 6116   4.510   5.138   2.285
 1739SOL    HW2 6117   4.591   5.047   2.394
 1740SOL     OW 6118   6.941   2.046   4.634
 1740SOL    HW1 6119   0.004   2.107   4.641
 1740SOL    HW2 6120   6.903   2.030   4.725
 1741SOL     OW 6121   1.233   3.169   4.601
 1741SOL    HW1 6122   1.218   3.134   4.693
 1741SOL    HW2 6123   1.317   3.128   4.564
 1742SOL     OW 6124   5.800   0.139   6.981
 1742SOL    HW1 6125   5.715   0.121   0.014
 1742SOL    HW2 6126   5.858   0.201   0.018
 1743SOL     OW 6127   1.180   2.285   1.412
 1743SOL    HW1 6128   1.149   2.380   1.408
 1743SOL    HW2 6129   1.165   2.249   1.504
 1744SOL     OW 6130   3.358   1.811   5.233
 1744SOL    HW1 6131   3.411   1.779   5.312
 1744SOL    HW2 6132   3.335   1.908   5.246
 1745SOL     OW 6133   6.420   6.423   0.851
 1745SOL    HW1 6134   6.491   6.476   0.805
 1745SOL    HW2 6135   6.371   6.369   0.783
 1746SOL     OW 6136   2.346   5.254   2.630
 1746SOL    HW1 6137   2.407   5.220   2.560
 1746SOL    HW2 6138   2.254   5.267   2.592
 1747SOL     OW 6139   2.798   7.015   2.320
 1747SOL    HW1 6140   2.844   0.080   2.286
 1747SOL    HW2 6141   2.796   6.945   2.248
 1748SOL     OW 6142   6.655   1.615   3.845
 1748SOL    HW1 6143   6.748   1.579   3.831
 1748SOL    HW2 6144   6.607   1.617   3.757
 1749SOL     OW 6145   6.393   5.199   2.768
 1749SOL    HW1 6146   6.489   5.177   2.749
 1749SOL    HW2 6147   6.359   5.141   2.841
 1750SOL     OW 6148   3.134   1.093   0.912
 1750SOL    HW1 6149   3.187   1.171   0.878
 1750SOL    HW2 6150   3.151   1.082   1.010
 1751SOL     OW 6151   6.506   4.323   4.905
 1751SOL    HW1 6152   6.511   4.360   4.998
 1751SOL    HW2 6153   6.512   4.398   4.839
 1752SOL     OW 6154   6.160   0.889   2.577
 1752SOL    HW1 6155   6.133   0.813   2.517
 1752SOL    HW2 6156   6.107   0.884   2.662
 1753SOL     OW 6157   6.380   1.457   1.450
 1753SOL    HW1 6158   6.370   1.442   1.352
 1753SOL    HW2 6159   6.455   1.521   1.467
 1754SOL     OW 6160   2.622   5.275   3.338
 1754SOL    HW1 6161   2.720   5.264   3.323
 1754SOL    HW2 6162   2.606   5.347   3.405
 1755SOL     OW 6163   6.320   6.069   5.515
 1755SOL    HW1 6164   6.250   6.088   5.447
 1755SOL    HW2 6165   6.388   6.006   5.476
 1756SOL     OW 6166   4.615   6.382   1.615
 1756SOL    HW1 6167   4.611   6.435   1.530
 1756SOL    HW2 6168   4.707   6.389   1.654
 1757SOL     OW 6169   2.877   5.293   4.900
 1757SOL    HW1 6170   2.864   5.360   4.827
 1757SOL    HW2 6171   2.880   5.339   4.988
 1758SOL     OW 6172   0.557   6.087   4.139
 1758SOL    HW1 6173   0.608   6.042   4.213
 1758SOL    HW2 6174   0.546   6.023   4.063
 1759SOL     OW 6175   1.690   5.282   6.327
 1759SOL    HW1 6176   1.720   5.237   6.243
 1759SOL    HW2 6177   1.640   5.216   6.383
 1760SOL     OW 6178   5.907   1.754   3.738
 1760SOL    HW1 6179   5.827   1.801   3.703
 1760SOL    HW2 6180   5.975   1.821   3.767
 1761SOL     OW 6181   5.664   2.281   3.681
 1761SOL    HW1 6182   5.584   2.264   3.740
 1761SOL    HW2 6183   5.735   2.326   3.734
 1762SOL     OW 6184   0.672   1.637   5.768
 1762SOL    HW1 6185   0.591   1.694   5.780
 1762SOL    HW2 6186   0.651   1.542   5.792
 1763SOL     OW 6187   1.485   4.802   3.836
 1763SOL    HW1 6188   1.553   4.774   3.769
 1763SOL    HW2 6189   1.528   4.810   3.926
 1764SOL     OW 6190   1.023   5.742   3.433
 1764SOL    HW1 6191   1.106   5.770   3.385
 1764SOL    HW2 6192   0.954   5.715   3.367
 1765SOL     OW 6193   5.549   3.975   1.817
 1765SOL    HW1 6194   5.588   3.903   1.759
 1765SOL    HW2 6195   5.535   4.058   1.763
 1766SOL     OW 6196   4.112   5.031   3.911
 1766SOL    HW1 6197   4.114   4.945   3.860
 1766SOL    HW2 6198   4.116   5.108   3.848
 1767SOL     OW 6199   1.352   4.164   1.313
 1767SOL    HW1 6200   1.406   4.158   1.230
 1767SOL    HW2 6201   1.281   4.234   1.302
 1768SOL     OW 6202   3.673   4.858   2.839
 1768SOL    HW1 6203   3.586   4.864   2.790
 1768SOL    HW2 6204   3.656   4.854   2.938
 1769SOL     OW 6205   5.515   0.223   1.048
 1769SOL    HW1 6206   5.449   0.298   1.058
 1769SOL    HW2 6207   5.555   0.202   1.136
 1770SOL     OW 6208   2.237   4.668   0.492
 1770SOL    HW1 6209   2.177   4.723   0.550
 1770SOL    HW2 6210   2.326   4.657   0.537
 1771SOL     OW 6211   0.873   2.843   5.928
 1771SOL    HW1 6212   0.888   2.940   5.911
 1771SOL    HW2 6213   0.786   2.831   5.977
 1772SOL     OW 6214   2.585   4.640   2.615
 1772SOL    HW1 6215   2.579   4.615   2.518
 1772SOL    HW2 6216   2.611   4.736   2.623
 1773SOL     OW 6217   2.341   6.858   5.032
 1773SOL    HW1 6218   2.428   6.885   4.990
 1773SOL    HW2 6219   2.266   6.892   4.976
 1774SOL     OW 6220   5.537   5.703   2.074
 1774SOL    HW1 6221   5.558   5.792   2.034
 1774SOL    HW2 6222   5.618   5.644   2.069
 1775SOL     OW 6223   1.488   6.637   0.934
 1775SOL    HW1 6224   1.579   6.627   0.892
 1775SOL    HW2 6225   1.448   6.724   0.904
 1776SOL     OW 6226   4.841   3.020   5.935
 1776SOL    HW1 6227   4.876   3.091   5.997
 1776SOL    HW2 6228   4.762   2.975   5.977
 1777SOL     OW 6229   4.895   5.664   6.988
 1777SOL    HW1 6230   4.842   5.585   6.956
 1777SOL    HW2 6231   4.936   5.642   0.060
 1778SOL     OW 6232   7.005   0.352   2.683
 1778SOL    HW1 6233   7.012   0.393   2.774
 1778SOL    HW2 6234   6.933   0.282   2.683
 1779SOL     OW 6235   0.014   0.121   4.644
 1779SOL    HW1 6236   0.027   0.108   4.742
 1779SOL    HW2 6237   6.974   0.046   4.608
 1780SOL     OW 6238   3.178   6.968   4.480
 1780SOL    HW1 6239   3.099   6.986   4.538
 1780SOL    HW2 6240   3.244   0.026   4.489
 1781SOL     OW 6241   5.075   1.473   6.212
 1781SOL    HW1 6242   5.167   1.508   6.232
 1781SOL    HW2 6243   5.055   1.486   6.116
 1782SOL     OW 6244   4.933   0.509   2.444
 1782SOL    HW1 6245   4.929   0.486   2.347
 1782SOL    HW2 6246   4.994   0.587   2.457
 1783SOL     OW 6247   1.681   3.370   0.204
 1783SOL    HW1 6248   1.588   3.389   0.235
 1783SOL    HW2 6249   1.739   3.350   0.282
 1784SOL     OW 6250   2.146   6.064   1.511
 1784SOL    HW1 6251   2.214   6.002   1.472
 1784SOL    HW2 6252   2.178   6.158   1.501
 1785SOL     OW 6253   1.875   5.580   4.294
 1785SOL    HW1 6254   1.852   5.637   4.214
 1785SOL    HW2 6255   1.793   5.566   4.349
 1786SOL     OW 6256   0.359   5.802   1.889
 1786SOL    HW1 6257   0.406   5.763   1.810
 1786SOL    HW2 6258   0.399   5.891   1.912
 1787SOL     OW 6259   2.535   2.741   6.127
 1787SOL    HW1 6260   2.528   2.690   6.212
 1787SOL    HW2 6261   2.548   2.838   6.147
 1788SOL     OW 6262   3.530   4.338   0.657
 1788SOL    HW1 6263   3.557   4.248   0.623
 1788SOL    HW2 6264   3.438   4.332   0.697
 1789SOL     OW 6265   5.754   2.081   2.280
 1789SOL    HW1 6266   5.816   2.145   2.235
 1789SOL    HW2 6267   5.789   1.988   2.268
 1790SOL     OW 6268   2.361   1.801   4.854
 1790SOL    HW1 6269   2.297   1.819   4.780
 1790SOL    HW2 6270   2.342   1.711   4.893
 1791SOL     OW 6271   6.486   0.479   3.817
 1791SOL    HW1 6272   6.556   0.550   3.812
 1791SOL    HW2 6273   6.463   0.462   3.913
 1792SOL     OW 6274   6.647   2.638   6.068
 1792SOL    HW1 6275   6.735   2.596   6.047
 1792SOL    HW2 6276   6.635   2.720   6.013
 1793SOL     OW 6277   0.462   1.214   4.861
 1793SOL    HW1 6278   0.557   1.218   4.832
 1793SOL    HW2 6279   0.402   1.222   4.782
 1794SOL     OW 6280   6.776   1.886   6.744
 1794SOL    HW1 6281   6.857   1.838   6.712
 1794SOL    HW2 6282   6.795   1.926   6.834
 1795SOL     OW 6283   5.263   4.574   0.601
 1795SOL    HW1 6284   5.303   4.648   0.546
 1795SOL    HW2 6285   5.264   4.489   0.548
 1796SOL     OW 6286   6.226   6.971   6.798
 1796SOL    HW1 6287   6.285   0.031   6.824
 1796SOL    HW2 6288   6.132   6.991   6.828
 1797SOL     OW 6289   3.103   6.334   5.140
 1797SOL    HW1 6290   3.007   6.363   5.135
 1797SOL    HW2 6291   3.116   6.252   5.084
 1798SOL     OW 6292   2.342   3.685   6.231
 1798SOL    HW1 6293   2.400   3.765   6.219
 1798SOL    HW2 6294   2.341   3.658   6.327
 1799SOL     OW 6295   3.294   1.662   2.209
 1799SOL    HW1 6296   3.239   1.742   2.185
 1799SOL    HW2 6297   3.265   1.584   2.152
 1800SOL     OW 6298   5.998   2.437   5.575
 1800SOL    HW1 6299   5.929   2.508   5.563
 1800SOL    HW2 6300   6.001   2.409   5.671
 1801SOL     OW 6301   0.310   1.666   2.376
 1801SOL    HW1 6302   0.405   1.697   2.382
 1801SOL    HW2 6303   0.261   1.690   2.460
 1802SOL     OW 6304   6.710   4.576   4.512
 1802SOL    HW1 6305   6.685   4.655   4.455
 1802SOL    HW2 6306   6.757   4.508   4.457
 1803SOL     OW 6307   6.993   6.236   3.882
 1803SOL    HW1 6308   6.963   6.315   3.827
 1803SOL    HW2 6309   0.047   6.186   3.832
 1804SOL     OW 6310   0.764   2.858   6.428
 1804SOL    HW1 6311   0.683   2.916   6.420
 1804SOL    HW2 6312   0.779   2.835   6.524
 1805SOL     OW 6313   6.567   4.848   5.963
 1805SOL    HW1 6314   6.502   4.924   5.952
 1805SOL    HW2 6315   6.638   4.854   5.894
 1806SOL     OW 6316   0.498   1.712   1.758
 1806SOL    HW1 6317   0.531   1.748   1.845
 1806SOL    HW2 6318   0.398   1.708   1.759
 1807SOL     OW 6319   6.481   2.207   1.974
 1807SOL    HW1 6320   6.489   2.260   1.889
 1807SOL    HW2 6321   6.539   2.248   2.044
 1808SOL     OW 6322   6.413   0.763   6.442
 1808SOL    HW1 6323   6.436   0.727   6.532
 1808SOL    HW2 6324   6.475   0.724   6.373
 1809SOL     OW 6325   4.951   0.448   5.236
 1809SOL    HW1 6326   4.946   0.515   5.162
 1809SOL    HW2 6327   4.928   0.358   5.201
 1810SOL     OW 6328   1.014   1.374   4.928
 1810SOL    HW1 6329   0.997   1.472   4.923
 1810SOL    HW2 6330   1.105   1.353   4.893
 1811SOL     OW 6331   3.282   5.684   1.811
 1811SOL    HW1 6332   3.282   5.778   1.844
 1811SOL    HW2 6333   3.369   5.641   1.833
 1812SOL     OW 6334   4.357   0.714   6.474
 1812SOL    HW1 6335   4.429   0.719   6.544
 1812SOL    HW2 6336   4.384   0.769   6.395
 1813SOL     OW 6337   5.578   3.313   2.210
 1813SOL    HW1 6338   5.627   3.395   2.240
 1813SOL    HW2 6339   5.630   3.267   2.138
 1814SOL     OW 6340   6.401   5.605   0.659
 1814SOL    HW1 6341   6.500   5.618   0.657
 1814SOL    HW2 6342   6.381   5.510   0.683
 1815SOL     OW 6343   5.968   5.384   1.208
 1815SOL    HW1 6344   6.014   5.471   1.192
 1815SOL    HW2 6345   5.870   5.394   1.189
 1816SOL     OW 6346   3.626   5.018   4.636
 1816SOL    HW1 6347   3.570   5.099   4.619
 1816SOL    HW2 6348   3.584   4.938   4.594
 1817SOL     OW 6349   6.723   2.790   3.578
 1817SOL    HW1 6350   6.725   2.692   3.562
 1817SOL    HW2 6351   6.812   2.830   3.555
 1818SOL     OW 6352   2.260   1.557   0.922
 1818SOL    HW1 6353   2.263   1.457   0.929
 1818SOL    HW2 6354   2.237   1.596   1.012
 1819SOL     OW 6355   1.088   3.585   1.081
 1819SOL    HW1 6356   1.121   3.629   1.164
 1819SOL    HW2 6357   1.126   3.492   1.074
 1820SOL     OW 6358   3.968   6.729   5.186
 1820SOL    HW1 6359   4.047   6.771   5.141
 1820SOL    HW2 6360   3.902   6.698   5.118
 1821SOL     OW 6361   4.232   1.110   2.692
 1821SOL    HW1 6362   4.235   1.118   2.792
 1821SOL    HW2 6363   4.273   1.192   2.652
 1822SOL     OW 6364   1.943   3.789   4.543
 1822SOL    HW1 6365   1.859   3.830   4.579
 1822SOL    HW2 6366   1.927   3.692   4.523
 1823SOL     OW 6367   3.755   0.020   3.865
 1823SOL    HW1 6368   3.717   0.113   3.863
 1823SOL    HW2 6369   3.855   0.025   3.872
 1824SOL     OW 6370   4.772   2.768   1.930
 1824SOL    HW1 6371   4.780   2.860   1.969
 1824SOL    HW2 6372   4.676   2.749   1.908
 1825SOL     OW 6373   1.094   3.778   0.332
 1825SOL    HW1 6374   1.116   3.684   0.358
 1825SOL    HW2 6375   1.082   3.783   0.233
 1826SOL     OW 6376   3.586   3.444   0.283
 1826SOL    HW1 6377   3.559   3.360   0.329
 1826SOL    HW2 6378   3.664   3.426   0.224
 1827SOL     OW 6379   5.241   4.755   0.831
 1827SOL    HW1 6380   5.293   4.712   0.905
 1827SOL    HW2 6381   5.234   4.691   0.754
 1828SOL     OW 6382   2.645   5.171   4.971
 1828SOL    HW1 6383   2.729   5.220   4.949
 1828SOL    HW2 6384   2.571   5.236   4.987
 1829SOL     OW 6385   2.114   6.355   2.122
 1829SOL    HW1 6386   2.156   6.373   2.211
 1829SOL    HW2 6387   2.079   6.261   2.120
 1830SOL     OW 6388   4.449   1.575   6.479
 1830SOL    HW1 6389   4.374   1.622   6.524
 1830SOL    HW2 6390   4.452   1.479   6.508
 1831SOL     OW 6391   3.454   4.691   0.028
 1831SOL    HW1 6392   3.371   4.669   0.079
 1831SOL    HW2 6393   3.512   4.751   0.083
 1832SOL     OW 6394   1.726   3.042   5.864
 1832SOL    HW1 6395   1.807   3.014   5.916
 1832SOL    HW2 6396   1.722   3.142   5.861
 1833SOL     OW 6397   5.903   1.159   0.656
 1833SOL    HW1 6398   5.864   1.246   0.625
 1833SOL    HW2 6399   5.964   1.123   0.586
 1834SOL     OW 6400   2.056   4.154   6.363
 1834SOL    HW1 6401   2.144   4.113   6.387
 1834SOL    HW2 6402   2.037   4.139   6.266
 1835SOL     OW 6403   6.636   0.000   0.157
 1835SOL    HW1 6404   6.583   0.003   0.242
 1835SOL    HW2 6405   6.670   0.092   0.136
 1836SOL     OW 6406   5.922   1.529   3.931
 1836SOL    HW1 6407   5.907   1.444   3.880
 1836SOL    HW2 6408   5.895   1.607   3.873
 1837SOL     OW 6409   1.093   1.918   0.321
 1837SOL    HW1 6410   1.113   1.921   0.418
 1837SOL    HW2 6411   1.166   1.963   0.270
 1838SOL     OW 6412   5.199   0.550   1.006
 1838SOL    HW1 6413   5.162   0.527   1.096
 1838SOL    HW2 6414   5.131   0.528   0.936
 1839SOL     OW 6415   6.875   1.562   6.375
 1839SOL    HW1 6416   6.835   1.638   6.323
 1839SOL    HW2 6417   6.814   1.483   6.372
 1840SOL     OW 6418   3.110   0.522   5.150
 1840SOL    HW1 6419   3.129   0.527   5.052
 1840SOL    HW2 6420   3.029   0.577   5.171
 1841SOL     OW 6421   2.329   0.181   1.879
 1841SOL    HW1 6422   2.254   0.198   1.943
 1841SOL    HW2 6423   2.412   0.159   1.929
 1842SOL     OW 6424   0.026   4.710   1.509
 1842SOL    HW1 6425   0.027   4.767   1.427
 1842SOL    HW2 6426   0.068   4.622   1.489
 1843SOL     OW 6427   3.206   1.212   6.823
 1843SOL    HW1 6428   3.306   1.219   6.823
 1843SOL    HW2 6429   3.176   1.153   6.898
 1844SOL     OW 6430   4.895   3.578   0.450
 1844SOL    HW1 6431   4.906   3.648   0.380
 1844SOL    HW2 6432   4.799   3.570   0.476
 1845SOL     OW 6433   0.919   2.752   4.700
 1845SOL    HW1 6434   0.915   2.722   4.795
 1845SOL    HW2 6435   1.006   2.724   4.659
 1846SOL     OW 6436   3.643   1.642   2.488
 1846SOL    HW1 6437   3.651   1.563   2.549
 1846SOL    HW2 6438   3.644   1.612   2.393
 1847SOL     OW 6439   3.181   5.990   6.814
 1847SOL    HW1 6440   3.163   6.082   6.846
 1847SOL    HW2 6441   3.223   5.993   6.724
 1848SOL     OW 6442   2.983   6.208   4.705
 1848SOL    HW1 6443   3.077   6.199   4.671
 1848SOL    HW2 6444   2.929   6.260   4.638
 1849SOL     OW 6445   4.856   2.929   2.653
 1849SOL    HW1 6446   4.892   2.965   2.567
 1849SOL    HW2 6447   4.763   2.895   2.640
 1850SOL     OW 6448   4.643   1.919   0.842
 1850SOL    HW1 6449   4.563   1.900   0.785
 1850SOL    HW2 6450   4.726   1.893   0.793
 1851SOL     OW 6451   0.975   4.847   4.179
 1851SOL    HW1 6452   0.987   4.927   4.120
 1851SOL    HW2 6453   1.064   4.811   4.206
 1852SOL     OW 6454   0.771   0.118   3.382
 1852SOL    HW1 6455   0.796   0.178   3.306
 1852SOL    HW2 6456   0.835   0.041   3.386
 1853SOL     OW 6457   0.820   1.840   5.404
 1853SOL    HW1 6458   0.908   1.870   5.438
 1853SOL    HW2 6459   0.747   1.889   5.452
 1854SOL     OW 6460   0.359   0.144   4.094
 1854SOL    HW1 6461   0.297   0.088   4.149
 1854SOL    HW2 6462   0.453   0.129   4.126
 1855SOL     OW 6463   6.602   1.260   5.149
 1855SOL    HW1 6464   6.641   1.342   5.190
 1855SOL    HW2 6465   6.545   1.285   5.070
 1856SOL     OW 6466   5.114   4.222   6.629
 1856SOL    HW1 6467   5.120   4.240   6.531
 1856SOL    HW2 6468   5.160   4.136   6.650
 1857SOL     OW 6469   4.830   0.840   6.771
 1857SOL    HW1 6470   4.757   0.807   6.831
 1857SOL    HW2 6471   4.871   0.763   6.722
 1858SOL     OW 6472   5.549   2.066   4.536
 1858SOL    HW1 6473   5.492   2.120   4.598
 1858SOL    HW2 6474   5.495   2.040   4.456
 1859SOL     OW 6475   6.454   6.241   2.570
 1859SOL    HW1 6476   6.457   6.291   2.483
 1859SOL    HW2 6477   6.468   6.144   2.554
 1860SOL     OW 6478   2.194   0.969   6.893
 1860SOL    HW1 6479   2.288   0.940   6.911
 1860SOL    HW2 6480   2.131   0.893   6.909
 1861SOL     OW 6481   6.530   6.321   5.455
 1861SOL    HW1 6482   6.434   6.326   5.427
 1861SOL    HW2 6483   6.535   6.300   5.553
 1862SOL     OW 6484   3.965   5.531   5.755
 1862SOL    HW1 6485   4.050   5.492   5.719
 1862SOL    HW2 6486   3.969   5.631   5.748
 1863SOL     OW 6487   6.757   1.264   1.444
 1863SOL    HW1 6488   6.711   1.332   1.387
 1863SOL    HW2 6489   6.710   1.256   1.532
 1864SOL     OW 6490   2.088   6.095   2.906
 1864SOL    HW1 6491   2.110   6.090   2.809
 1864SOL    HW2 6492   2.161   6.143   2.954
 1865SOL     OW 6493   6.731   2.539   5.524
 1865SOL    HW1 6494   6.743   2.440   5.517
 1865SOL    HW2 6495   6.640   2.560   5.559
 1866SOL     OW 6496   0.316   3.874   5.132
 1866SOL    HW1 6497   0.366   3.805   5.080
 1866SOL    HW2 6498   0.218   3.857   5.125
 1867SOL     OW 6499   1.059   1.040   1.498
 1867SOL    HW1 6500   1.091   1.001   1.411
 1867SOL    HW2 6501   0.963   1.016   1.512
 1868SOL     OW 6502   5.435   3.662   5.868
 1868SOL    HW1 6503   5.476   3.744   5.907
 1868SOL    HW2 6504   5.336   3.663   5.883
 1869SOL     OW 6505   5.154   0.606   5.672
 1869SOL    HW1 6506   5.224   0.636   5.607
 1869SOL    HW2 6507   5.105   0.527   5.636
 1870SOL     OW 6508   5.763   0.755   5.560
 1870SOL    HW1 6509   5.840   0.715   5.511
 1870SOL    HW2 6510   5.779   0.748   5.659
 1871SOL     OW 6511   2.556   4.926   6.829
 1871SOL    HW1 6512   2.561   4.826   6.827
 1871SOL    HW2 6513   2.642   4.965   6.797
 1872SOL     OW 6514   2.481   3.384   0.882
 1872SOL    HW1 6515   2.498   3.349   0.974
 1872SOL    HW2 6516   2.544   3.341   0.818
 1873SOL     OW 6517   6.069   1.739   2.359
 1873SOL    HW1 6518   6.014   1.808   2.311
 1873SOL    HW2 6519   6.062   1.753   2.458
 1874SOL     OW 6520   2.252   5.295   6.568
 1874SOL    HW1 6521   2.198   5.356   6.627
 1874SOL    HW2 6522   2.249   5.202   6.605
 1875SOL     OW 6523   1.346   6.415   2.188
 1875SOL    HW1 6524   1.310   6.488   2.245
 1875SOL    HW2 6525   1.438   6.389   2.220
 1876SOL     OW 6526   0.967   4.666   6.516
 1876SOL    HW1 6527   0.951   4.585   6.460
 1876SOL    HW2 6528   0.883   4.719   6.523
 1877SOL     OW 6529   0.858   0.984   2.819
 1877SOL    HW1 6530   0.891   0.895   2.851
 1877SOL    HW2 6531   0.809   1.030   2.893
 1878SOL     OW 6532   6.060   4.155   4.112
 1878SOL    HW1 6533   6.127   4.228   4.131
 1878SOL    HW2 6534   6.055   4.093   4.190
 1879SOL     OW 6535   4.045   6.400   5.565
 1879SOL    HW1 6536   4.115   6.423   5.497
 1879SOL    HW2 6537   3.987   6.480   5.581
 1880SOL     OW 6538   1.898   3.208   4.589
 1880SOL    HW1 6539   1.887   3.138   4.518
 1880SOL    HW2 6540   1.981   3.261   4.570
 1881SOL     OW 6541   1.881   1.670   3.615
 1881SOL    HW1 6542   1.980   1.671   3.628
 1881SOL    HW2 6543   1.855   1.745   3.554
 1882SOL     OW 6544   3.957   6.383   0.786
 1882SOL    HW1 6545   3.934   6.333   0.702
 1882SOL    HW2 6546   4.018   6.459   0.765
 1883SOL     OW 6547   2.092   3.190   2.279
 1883SOL    HW1 6548   2.117   3.118   2.215
 1883SOL    HW2 6549   2.059   3.270   2.229
 1884SOL     OW 6550   5.182   0.734   0.031
 1884SOL    HW1 6551   5.097   0.683   0.041
 1884SOL    HW2 6552   5.167   0.830   0.053
 1885SOL     OW 6553   0.207   1.382   0.884
 1885SOL    HW1 6554   0.143   1.341   0.819
 1885SOL    HW2 6555   0.218   1.479   0.864
 1886SOL     OW 6556   3.427   2.902   5.015
 1886SOL    HW1 6557   3.396   2.830   4.954
 1886SOL    HW2 6558   3.354   2.926   5.079
 1887SOL     OW 6559   0.962   6.177   5.094
 1887SOL    HW1 6560   0.866   6.201   5.080
 1887SOL    HW2 6561   1.017   6.260   5.100
 1888SOL     OW 6562   2.295   1.583   6.156
 1888SOL    HW1 6563   2.322   1.545   6.245
 1888SOL    HW2 6564   2.201   1.617   6.161
 1889SOL     OW 6565   3.658   3.660   6.983
 1889SOL    HW1 6566   3.579   3.605   7.009
 1889SOL    HW2 6567   3.668   3.661   6.884
 1890SOL     OW 6568   6.163   5.836   6.622
 1890SOL    HW1 6569   6.175   5.898   6.544
 1890SOL    HW2 6570   6.075   5.791   6.615
 1891SOL     OW 6571   5.249   3.512   6.301
 1891SOL    HW1 6572   5.234   3.462   6.216
 1891SOL    HW2 6573   5.205   3.464   6.377
 1892SOL     OW 6574   4.252   0.509   3.279
 1892SOL    HW1 6575   4.239   0.570   3.357
 1892SOL    HW2 6576   4.196   0.541   3.203
 1893SOL     OW 6577   3.146   1.684   6.933
 1893SOL    HW1 6578   3.183   1.776   6.947
 1893SOL    HW2 6579   3.069   1.689   6.869
 1894SOL     OW 6580   4.785   3.278   0.573
 1894SOL    HW1 6581   4.815   3.300   0.666
 1894SOL    HW2 6582   4.863   3.285   0.510
 1895SOL     OW 6583   4.937   5.732   3.283
 1895SOL    HW1 6584   4.941   5.751   3.184
 1895SOL    HW2 6585   4.845   5.750   3.316
 1896SOL     OW 6586   6.446   1.296   4.920
 1896SOL    HW1 6587   6.414   1.374   4.866
 1896SOL    HW2 6588   6.389   1.216   4.901
 1897SOL     OW 6589   5.178   5.718   2.930
 1897SOL    HW1 6590   5.200   5.647   2.998
 1897SOL    HW2 6591   5.229   5.700   2.846
 1898SOL     OW 6592   5.742   6.401   0.094
 1898SOL    HW1 6593   5.773   6.367   0.005
 1898SOL    HW2 6594   5.816   6.454   0.136
 1899SOL     OW 6595   2.051   2.899   3.321
 1899SOL    HW1 6596   2.136   2.859   3.286
 1899SOL    HW2 6597   1.980   2.828   3.323
 1900SOL     OW 6598   2.791   5.361   1.477
 1900SOL    HW1 6599   2.811   5.284   1.417
 1900SOL    HW2 6600   2.874   5.387   1.527
 1901SOL     OW 6601   0.905   1.149   6.039
 1901SOL    HW1 6602   0.899   1.137   5.940
 1901SOL    HW2 6603   1.001   1.161   6.065
 1902SOL     OW 6604   1.703   2.403   4.396
 1902SOL    HW1 6605   1.745   2.493   4.409
 1902SOL    HW2 6606   1.676   2.366   4.485
 1903SOL     OW 6607   6.470   5.802   3.845
 1903SOL    HW1 6608   6.542   5.867   3.818
 1903SOL    HW2 6609   6.390   5.853   3.876
 1904SOL     OW 6610   0.772   0.648   4.100
 1904SOL    HW1 6611   0.708   0.724   4.088
 1904SOL    HW2 6612   0.844   0.674   4.164
 1905SOL     OW 6613   5.789   3.065   5.781
 1905SOL    HW1 6614   5.764   2.994   5.846
 1905SOL    HW2 6615   5.884   3.091   5.795
 1906SOL     OW 6616   2.396   6.597   5.399
 1906SOL    HW1 6617   2.489   6.633   5.407
 1906SOL    HW2 6618   2.362   6.572   5.489
 1907SOL     OW 6619   4.476   6.769   3.193
 1907SOL    HW1 6620   4.418   6.850   3.202
 1907SOL    HW2 6621   4.425   6.695   3.151
 1908SOL     OW 6622   4.858   5.056   0.369
 1908SOL    HW1 6623   4.929   5.108   0.322
 1908SOL    HW2 6624   4.812   5.116   0.435
 1909SOL     OW 6625   5.291   5.688   3.581
 1909SOL    HW1 6626   5.307   5.590   3.567
 1909SOL    HW2 6627   5.342   5.719   3.661
 1910SOL     OW 6628   5.005   4.043   4.325
 1910SOL    HW1 6629   5.041   3.971   4.265
 1910SOL    HW2 6630   4.960   4.002   4.404
 1911SOL     OW 6631   1.030   2.218   5.576
 1911SOL    HW1 6632   1.122   2.183   5.556
 1911SOL    HW2 6633   1.020   2.234   5.674
 1912SOL     OW 6634   3.065   6.313   2.550
 1912SOL    HW1 6635   2.972   6.280   2.536
 1912SOL    HW2 6636   3.069   6.411   2.532
 1913SOL     OW 6637   2.721   4.093   0.026
 1913SOL    HW1 6638   2.783   4.027   0.069
 1913SOL    HW2 6639   2.772   4.146   6.975
 1914SOL     OW 6640   4.637   1.425   4.883
 1914SOL    HW1 6641   4.684   1.338   4.864
 1914SOL    HW2 6642   4.543   1.407   4.911
 1915SOL     OW 6643   2.658   6.638   5.518
 1915SOL    HW1 6644   2.740   6.691   5.496
 1915SOL    HW2 6645   2.651   6.629   5.618
 1916SOL     OW 6646   3.340   6.257   2.450
 1916SOL    HW1 6647   3.414   6.299   2.501
 1916SOL    HW2 6648   3.252   6.280   2.493
 1917SOL     OW 6649   3.783   4.082   3.736
 1917SOL    HW1 6650   3.809   4.015   3.666
 1917SOL    HW2 6651   3.800   4.043   3.827
 1918SOL     OW 6652   0.528   6.282   5.668
 1918SOL    HW1 6653   0.613   6.235   5.641
 1918SOL    HW2 6654   0.487   6.235   5.746
 1919SOL     OW 6655   5.904   0.734   2.281
 1919SOL    HW1 6656   5.948   0.821   2.257
 1919SOL    HW2 6657   5.854   0.699   2.201
 1920SOL     OW 6658   6.631   6.239   4.659
 1920SOL    HW1 6659   6.657   6.305   4.588
 1920SOL    HW2 6660   6.533   6.221   4.653
 1921SOL     OW 6661   2.389   6.404   0.376
 1921SOL    HW1 6662   2.299   6.444   0.392
 1921SOL    HW2 6663   2.414   6.414   0.280
 1922SOL     OW 6664   3.841   4.461   0.133
 1922SOL    HW1 6665   3.753   4.464   0.085
 1922SOL    HW2 6666   3.852   4.544   0.188
 1923SOL     OW 6667   1.860   3.031   1.024
 1923SOL    HW1 6668   1.906   2.948   0.993
 1923SOL    HW2 6669   1.805   3.069   0.950
 1924SOL     OW 6670   0.750   3.350   1.318
 1924SOL    HW1 6671   0.721   3.435   1.362
 1924SOL    HW2 6672   0.849   3.346   1.314
 1925SOL     OW 6673   3.049   4.151   0.606
 1925SOL    HW1 6674   3.087   4.241   0.629
 1925SOL    HW2 6675   3.123   4.090   0.576
 1926SOL     OW 6676   0.870   0.489   3.801
 1926SOL    HW1 6677   0.788   0.539   3.829
 1926SOL    HW2 6678   0.862   0.393   3.827
 1927SOL     OW 6679   5.267   3.339   1.475
 1927SOL    HW1 6680   5.177   3.320   1.437
 1927SOL    HW2 6681   5.259   3.350   1.574
 1928SOL     OW 6682   0.096   5.170   4.583
 1928SOL    HW1 6683   0.008   5.213   4.602
 1928SOL    HW2 6684   0.153   5.172   4.665
 1929SOL     OW 6685   0.787   4.989   3.066
 1929SOL    HW1 6686   0.786   5.087   3.084
 1929SOL    HW2 6687   0.880   4.953   3.080
 1930SOL     OW 6688   6.848   5.361   5.862
 1930SOL    HW1 6689   6.886   5.360   5.954
 1930SOL    HW2 6690   6.779   5.432   5.855
 1931SOL     OW 6691   1.872   2.194   4.198
 1931SOL    HW1 6692   1.828   2.240   4.275
 1931SOL    HW2 6693   1.907   2.105   4.229
 1932SOL     OW 6694   5.507   3.436   2.605
 1932SOL    HW1 6695   5.542   3.359   2.552
 1932SOL    HW2 6696   5.573   3.460   2.676
 1933SOL     OW 6697   3.387   4.961   0.281
 1933SOL    HW1 6698   3.436   5.010   0.210
 1933SOL    HW2 6699   3.288   4.972   0.267
 1934SOL     OW 6700   0.176   6.163   2.821
 1934SOL    HW1 6701   0.115   6.172   2.741
 1934SOL    HW2 6702   0.192   6.253   2.861
 1935SOL     OW 6703   1.063   0.915   3.087
 1935SOL    HW1 6704   1.020   0.846   3.029
 1935SOL    HW2 6705   1.006   0.997   3.088
 1936SOL     OW 6706   0.324   5.496   5.118
 1936SOL    HW1 6707   0.343   5.538   5.207
 1936SOL    HW2 6708   0.307   5.567   5.050
 1937SOL     OW 6709   4.295   1.709   2.887
 1937SOL    HW1 6710   4.215   1.713   2.948
 1937SOL    HW2 6711   4.359   1.781   2.913
 1938SOL     OW 6712   5.568   0.041   3.702
 1938SOL    HW1 6713   5.627   0.117   3.676
 1938SOL    HW2 6714   5.473   0.069   3.695
 1939SOL     OW 6715   2.728   0.131   4.682
 1939SOL    HW1 6716   2.772   0.220   4.692
 1939SOL    HW2 6717   2.631   0.139   4.705
 1940SOL     OW 6718   6.446   6.170   6.532
 1940SOL    HW1 6719   6.427   6.267   6.516
 1940SOL    HW2 6720   6.417   6.146   6.625
 1941SOL     OW 6721   4.682   4.710   2.469
 1941SOL    HW1 6722   4.757   4.657   2.432
 1941SOL    HW2 6723   4.659   4.784   2.405
 1942SOL     OW 6724   0.202   3.766   2.461
 1942SOL    HW1 6725   0.138   3.761   2.538
 1942SOL    HW2 6726   0.215   3.861   2.433
 1943SOL     OW 6727   3.360   5.347   3.245
 1943SOL    HW1 6728   3.389   5.406   3.320
 1943SOL    HW2 6729   3.263   5.362   3.225
 1944SOL     OW 6730   6.999   6.259   1.836
 1944SOL    HW1 6731   6.948   6.309   1.766
 1944SOL    HW2 6732   6.972   6.163   1.835
 1945SOL     OW 6733   2.958   4.804   2.708
 1945SOL    HW1 6734   2.906   4.828   2.789
 1945SOL    HW2 6735   2.896   4.785   2.632
 1946SOL     OW 6736   1.931   6.795   6.877
 1946SOL    HW1 6737   1.878   6.710   6.876
 1946SOL    HW2 6738   1.904   6.850   6.956
 1947SOL     OW 6739   4.573   0.496   3.347
 1947SOL    HW1 6740   4.504   0.561   3.379
 1947SOL    HW2 6741   4.585   0.424   3.416
 1948SOL     OW 6742   6.427   3.144   5.532
 1948SOL    HW1 6743   6.420   3.051   5.495
 1948SOL    HW2 6744   6.347   3.197   5.505
 1949SOL     OW 6745   4.680   3.688   6.517
 1949SOL    HW1 6746   4.617   3.735   6.455
 1949SOL    HW2 6747   4.746   3.635   6.464
 1950SOL     OW 6748   3.087   5.399   0.512
 1950SOL    HW1 6749   3.055   5.465   0.444
 1950SOL    HW2 6750   3.185   5.414   0.528
 1951SOL     OW 6751   5.968   2.738   0.176
 1951SOL    HW1 6752   5.920   2.739   0.264
 1951SOL    HW2 6753   5.904   2.766   0.104
 1952SOL     OW 6754   3.598   2.887   4.129
 1952SOL    HW1 6755   3.508   2.891   4.172
 1952SOL    HW2 6756   3.669   2.885   4.200
 1953SOL     OW 6757   0.562   2.376   4.178
 1953SOL    HW1 6758   0.546   2.475   4.171
 1953SOL    HW2 6759   0.505   2.328   4.113
 1954SOL     OW 6760   2.382   1.723   4.325
 1954SOL    HW1 6761   2.338   1.760   4.407
 1954SOL    HW2 6762   2.360   1.781   4.246
 1955SOL     OW 6763   6.113   5.481   2.337
 1955SOL    HW1 6764   6.161   5.569   2.328
 1955SOL    HW2 6765   6.135   5.423   2.259
 1956SOL     OW 6766   4.966   6.340   3.089
 1956SOL    HW1 6767   4.903   6.397   3.142
 1956SOL    HW2 6768   4.950   6.354   2.991
 1957SOL     OW 6769   2.450   6.101   5.064
 1957SOL    HW1 6770   2.438   6.005   5.088
 1957SOL    HW2 6771   2.451   6.156   5.147
 1958SOL     OW 6772   3.651   3.797   6.424
 1958SOL    HW1 6773   3.739   3.828   6.458
 1958SOL    HW2 6774   3.580   3.864   6.447
 1959SOL     OW 6775   2.558   0.374   0.750
 1959SOL    HW1 6776   2.655   0.358   0.767
 1959SOL    HW2 6777   2.521   0.301   0.693
 1960SOL     OW 6778   5.142   5.635   2.565
 1960SOL    HW1 6779   5.138   5.696   2.486
 1960SOL    HW2 6780   5.223   5.657   2.620
 1961SOL     OW 6781   5.168   4.989   5.614
 1961SOL    HW1 6782   5.163   4.943   5.703
 1961SOL    HW2 6783   5.202   5.082   5.628
 1962SOL     OW 6784   0.181   6.655   4.596
 1962SOL    HW1 6785   0.188   6.624   4.501
 1962SOL    HW2 6786   0.174   6.754   4.599
 1963SOL     OW 6787   2.685   1.101   3.672
 1963SOL    HW1 6788   2.680   1.200   3.677
 1963SOL    HW2 6789   2.723   1.073   3.583
 1964SOL     OW 6790   6.357   3.128   2.535
 1964SOL    HW1 6791   6.390   3.222   2.525
 1964SOL    HW2 6792   6.385   3.093   2.625
 1965SOL     OW 6793   2.225   6.396   3.332
 1965SOL    HW1 6794   2.236   6.429   3.426
 1965SOL    HW2 6795   2.223   6.296   3.332
 1966SOL     OW 6796   6.678   6.815   6.793
 1966SOL    HW1 6797   6.586   6.780   6.777
 1966SOL    HW2 6798   6.679   6.869   6.877
 1967SOL     OW 6799   5.796   2.924   5.304
 1967SOL    HW1 6800   5.891   2.895   5.297
 1967SOL    HW2 6801   5.774   2.986   5.228
 1968SOL     OW 6802   4.125   5.451   4.769
 1968SOL    HW1 6803   4.082   5.480   4.855
 1968SOL    HW2 6804   4.103   5.517   4.697
 1969SOL     OW 6805   6.617   1.356   1.675
 1969SOL    HW1 6806   6.575   1.436   1.716
 1969SOL    HW2 6807   6.546   1.297   1.636
 1970SOL     OW 6808   1.768   0.596   3.677
 1970SOL    HW1 6809   1.723   0.686   3.677
 1970SOL    HW2 6810   1.708   0.529   3.634
 1971SOL     OW 6811   6.870   1.273   6.290
 1971SOL    HW1 6812   6.869   1.265   6.390
 1971SOL    HW2 6813   6.932   1.205   6.252
 1972SOL     OW 6814   1.150   0.042   3.706
 1972SOL    HW1 6815   1.159   0.139   3.685
 1972SOL    HW2 6816   1.173   7.005   3.624
 1973SOL     OW 6817   2.535   3.266   0.590
 1973SOL    HW1 6818   2.454   3.207   0.590
 1973SOL    HW2 6819   2.510   3.356   0.554
 1974SOL     OW 6820   6.466   6.466   4.321
 1974SOL    HW1 6821   6.430   6.373   4.331
 1974SOL    HW2 6822   6.437   6.522   4.398
 1975SOL     OW 6823   2.884   7.014   3.174
 1975SOL    HW1 6824   2.929   0.084   3.197
 1975SOL    HW2 6825   2.797   7.007   3.223
 1976SOL     OW 6826   6.400   4.505   6.273
 1976SOL    HW1 6827   6.411   4.480   6.369
 1976SOL    HW2 6828   6.458   4.446   6.216
 1977SOL     OW 6829   3.290   2.066   5.224
 1977SOL    HW1 6830   3.218   2.100   5.163
 1977SOL    HW2 6831   3.365   2.132   5.226
 1978SOL     OW 6832   6.856   2.583   5.034
 1978SOL    HW1 6833   6.942   2.573   5.082
 1978SOL    HW2 6834   6.781   2.549   5.091
 1979SOL     OW 6835   6.696   3.727   2.442
 1979SOL    HW1 6836   6.682   3.785   2.523
 1979SOL    HW2 6837   6.608   3.697   2.407
 1980SOL     OW 6838   2.665   0.679   2.559
 1980SOL    HW1 6839   2.714   0.593   2.572
 1980SOL    HW2 6840   2.731   0.751   2.536
 1981SOL     OW 6841   5.299   3.286   2.189
 1981SOL    HW1 6842   5.391   3.323   2.186
 1981SOL    HW2 6843   5.303   3.186   2.196
 1982SOL     OW 6844   0.095   0.093   5.385
 1982SOL    HW1 6845   0.009   0.042   5.389
 1982SOL    HW2 6846   0.125   0.101   5.290
 1983SOL     OW 6847   0.905   4.692   1.335
 1983SOL    HW1 6848   1.003   4.701   1.316
 1983SOL    HW2 6849   0.866   4.783   1.349
 1984SOL     OW 6850   4.684   0.869   5.205
 1984SOL    HW1 6851   4.681   0.914   5.116
 1984SOL    HW2 6852   4.692   0.938   5.277
 1985SOL     OW 6853   1.651   5.734   1.657
 1985SOL    HW1 6854   1.624   5.720   1.561
 1985SOL    HW2 6855   1.747   5.764   1.660
 1986SOL     OW 6856   6.805   2.663   0.438
 1986SOL    HW1 6857   6.787   2.760   0.426
 1986SOL    HW2 6858   6.817   2.643   0.535
 1987SOL     OW 6859   2.492   3.582   6.828
 1987SOL    HW1 6860   2.534   3.650   6.889
 1987SOL    HW2 6861   2.506   3.610   6.733
 1988SOL     OW 6862   4.828   3.064   0.885
 1988SOL    HW1 6863   4.879   3.130   0.940
 1988SOL    HW2 6864   4.787   2.995   0.944
 1989SOL     OW 6865   1.833   2.341   3.689
 1989SOL    HW1 6866   1.776   2.423   3.685
 1989SOL    HW2 6867   1.925   2.366   3.718
 1990SOL     OW 6868   1.044   0.815   3.335
 1990SOL    HW1 6869   0.965   0.754   3.337
 1990SOL    HW2 6870   1.060   0.846   3.241
 1991SOL     OW 6871   4.498   6.218   2.801
 1991SOL    HW1 6872   4.550   6.167   2.870
 1991SOL    HW2 6873   4.403   6.188   2.801
 1992SOL     OW 6874   2.477   5.664   5.543
 1992SOL    HW1 6875   2.424   5.747   5.563
 1992SOL    HW2 6876   2.427   5.584   5.575
 1993SOL     OW 6877   2.994   3.318   3.888
 1993SOL    HW1 6878   2.980   3.408   3.845
 1993SOL    HW2 6879   3.035   3.256   3.821
 1994SOL     OW 6880   6.124   2.269   2.316
 1994SOL    HW1 6881   6.171   2.184   2.341
 1994SOL    HW2 6882   6.085   2.311   2.398
 1995SOL     OW 6883   3.685   2.206   1.432
 1995SOL    HW1 6884   3.642   2.295   1.416
 1995SOL    HW2 6885   3.675   2.181   1.529
 1996SOL     OW 6886   2.363   4.432   5.183
 1996SOL    HW1 6887   2.403   4.344   5.207
 1996SOL    HW2 6888   2.434   4.501   5.178
 1997SOL     OW 6889   5.792   5.942   4.079
 1997SOL    HW1 6890   5.836   6.030   4.098
 1997SOL    HW2 6891   5.800   5.921   3.982
 1998SOL     OW 6892   2.915   4.824   5.195
 1998SOL    HW1 6893   2.998   4.778   5.227
 1998SOL    HW2 6894   2.864   4.762   5.136
 1999SOL     OW 6895   2.155   1.618   2.229
 1999SOL    HW1 6896   2.084   1.680   2.196
 1999SOL    HW2 6897   2.226   1.609   2.160
 2000SOL     OW 6898   3.058   1.099   5.243
 2000SOL    HW1 6899   3.085   1.096   5.147
 2000SOL    HW2 6900   2.959   1.108   5.249
 2001SOL     OW 6901   2.535   2.790   6.799
 2001SOL    HW1 6902   2.519   2.860   6.869
 2001SOL    HW2 6903   2.539   2.832   6.709
 2002SOL     OW 6904   1.370   4.951   4.544
 2002SOL    HW1 6905   1.442   5.016   4.522
 2002SOL    HW2 6906   1.374   4.874   4.480
 2003SOL     OW 6907   6.496   4.175   3.555
 2003SOL    HW1 6908   6.560   4.251   3.551
 2003SOL    HW2 6909   6.525   4.103   3.492
 2004SOL     OW 6910   3.456   0.106   6.864
 2004SOL    HW1 6911   3.549   0.070   6.856
 2004SOL    HW2 6912   3.394   0.033   6.892
 2005SOL     OW 6913   2.850   6.370   5.077
 2005SOL    HW1 6914   2.796   6.355   5.160
 2005SOL    HW2 6915   2.798   6.341   4.997
 2006SOL     OW 6916   4.870   6.739   3.171
 2006SOL    HW1 6917   4.966   6.762   3.156
 2006SOL    HW2 6918   4.822   6.821   3.204
 2007SOL     OW 6919   6.497   5.414   0.007
 2007SOL    HW1 6920   6.420   5.461   0.049
 2007SOL    HW2 6921   6.573   5.409   0.072
 2008SOL     OW 6922   0.228   5.624   5.641
 2008SOL    HW1 6923   0.220   5.525   5.654
 2008SOL    HW2 6924   0.136   5.664   5.639
 2009SOL     OW 6925   0.984   0.450   0.028
 2009SOL    HW1 6926   1.022   0.437   6.953
 2009SOL    HW2 6927   1.022   0.533   0.068
 2010SOL     OW 6928   2.239   0.850   1.008
 2010SOL    HW1 6929   2.170   0.831   0.939
 2010SOL    HW2 6930   2.205   0.918   1.072
 2011SOL     OW 6931   6.794   1.941   4.879
 2011SOL    HW1 6932   6.774   1.993   4.962
 2011SOL    HW2 6933   6.719   1.876   4.862
 2012SOL     OW 6934   6.891   3.237   1.098
 2012SOL    HW1 6935   6.791   3.240   1.091
 2012SOL    HW2 6936   6.929   3.199   1.013
 2013SOL     OW 6937   4.158   1.843   1.587
 2013SOL    HW1 6938   4.234   1.809   1.531
 2013SOL    HW2 6939   4.173   1.818   1.683
 2014SOL     OW 6940   3.812   5.536   3.182
 2014SOL    HW1 6941   3.753   5.456   3.179
 2014SOL    HW2 6942   3.778   5.605   3.118
 2015SOL     OW 6943   3.361   5.894   0.435
 2015SOL    HW1 6944   3.358   5.969   0.368
 2015SOL    HW2 6945   3.393   5.811   0.391
 2016SOL     OW 6946   6.043   5.804   4.212
 2016SOL    HW1 6947   6.047   5.897   4.248
 2016SOL    HW2 6948   5.957   5.791   4.163
 2017SOL     OW 6949   2.094   5.370   2.578
 2017SOL    HW1 6950   2.032   5.293   2.597
 2017SOL    HW2 6951   2.042   5.455   2.573
 2018SOL     OW 6952   0.389   3.904   6.379
 2018SOL    HW1 6953   0.439   3.957   6.310
 2018SOL    HW2 6954   0.419   3.808   6.374
 2019SOL     OW 6955   5.590   1.144   2.720
 2019SOL    HW1 6956   5.513   1.203   2.695
 2019SOL    HW2 6957   5.560   1.078   2.789
 2020SOL     OW 6958   2.390   5.166   3.413
 2020SOL    HW1 6959   2.466   5.212   3.365
 2020SOL    HW2 6960   2.382   5.203   3.505
 2021SOL     OW 6961   2.091   6.182   1.741
 2021SOL    HW1 6962   2.087   6.130   1.656
 2021SOL    HW2 6963   2.163   6.143   1.800
 2022SOL     OW 6964   3.342   5.443   1.320
 2022SOL    HW1 6965   3.371   5.464   1.414
 2022SOL    HW2 6966   3.421   5.444   1.260
 2023SOL     OW 6967   6.511   2.152   5.782
 2023SOL    HW1 6968   6.504   2.128   5.879
 2023SOL    HW2 6969   6.421   2.174   5.747
 2024SOL     OW 6970   5.857   0.263   2.949
 2024SOL    HW1 6971   5.779   0.214   2.910
 2024SOL    HW2 6972   5.942   0.217   2.924
 2025SOL     OW 6973   6.209   0.812   0.953
 2025SOL    HW1 6974   6.174   0.886   1.010
 2025SOL    HW2 6975   6.145   0.794   0.879
 2026SOL     OW 6976   2.312   1.809   5.163
 2026SOL    HW1 6977   2.332   1.901   5.198
 2026SOL    HW2 6978   2.328   1.807   5.064
 2027SOL     OW 6979   6.710   0.234   2.032
 2027SOL    HW1 6980   6.621   0.189   2.027
 2027SOL    HW2 6981   6.751   0.236   1.941
 2028SOL     OW 6982   3.541   3.765   5.809
 2028SOL    HW1 6983   3.479   3.704   5.860
 2028SOL    HW2 6984   3.584   3.714   5.735
 2029SOL     OW 6985   2.068   0.855   0.428
 2029SOL    HW1 6986   1.976   0.882   0.456
 2029SOL    HW2 6987   2.123   0.937   0.410
 2030SOL     OW 6988   1.629   2.614   3.022
 2030SOL    HW1 6989   1.639   2.519   3.053
 2030SOL    HW2 6990   1.714   2.645   2.981
 2031SOL     OW 6991   6.338   0.024   2.812
 2031SOL    HW1 6992   6.314   6.962   2.869
 2031SOL    HW2 6993   6.256   0.078   2.794
 2032SOL     OW 6994   4.452   5.855   2.133
 2032SOL    HW1 6995   4.550   5.856   2.154
 2032SOL    HW2 6996   4.433   5.921   2.061
 2033SOL     OW 6997   0.254   5.157   6.429
 2033SOL    HW1 6998   0.289   5.240   6.472
 2033SOL    HW2 6999   0.284   5.154   6.333
 2034SOL     OW 7000   2.337   5.563   3.622
 2034SOL    HW1 7001   2.365   5.630   3.691
 2034SOL    HW2 7002   2.274   5.606   3.557
 2035SOL     OW 7003   0.606   2.146   2.998
 2035SOL    HW1 7004   0.690   2.126   2.948
 2035SOL    HW2 7005   0.596   2.245   3.010
 2036SOL     OW 7006   0.718   4.810   0.858
 2036SOL    HW1 7007   0.643   4.868   0.828
 2036SOL    HW2 7008   0.692   4.761   0.941
 2037SOL     OW 7009   0.159   2.005   6.859
 2037SOL    HW1 7010   0.077   2.009   6.916
 2037SOL    HW2 7011   0.170   1.912   6.822
 2038SOL     OW 7012   1.564   6.913   4.880
 2038SOL    HW1 7013   1.476   6.878   4.849
 2038SOL    HW2 7014   1.551   7.003   4.923
 2039SOL     OW 7015   0.808   5.013   1.602
 2039SOL    HW1 7016   0.714   4.978   1.600
 2039SOL    HW2 7017   0.807   5.110   1.624
 2040SOL     OW 7018   3.670   3.854   4.526
 2040SOL    HW1 7019   3.708   3.827   4.615
 2040SOL    HW2 7020   3.715   3.937   4.495
 2041SOL     OW 7021   5.116   2.979   6.550
 2041SOL    HW1 7022   5.039   2.921   6.579
 2041SOL    HW2 7023   5.164   3.014   6.630
 2042SOL     OW 7024   3.083   5.730   0.539
 2042SOL    HW1 7025   3.040   5.810   0.497
 2042SOL    HW2 7026   3.181   5.747   0.550
 2043SOL     OW 7027   4.534   5.407   2.306
 2043SOL    HW1 7028   4.598   5.340   2.267
 2043SOL    HW2 7029   4.440   5.376   2.289
 2044SOL     OW 7030   6.642   0.897   2.445
 2044SOL    HW1 7031   6.701   0.957   2.499
 2044SOL    HW2 7032   6.635   0.934   2.352
 2045SOL     OW 7033   3.349   6.428   6.595
 2045SOL    HW1 7034   3.382   6.380   6.676
 2045SOL    HW2 7035   3.426   6.469   6.546
 2046SOL     OW 7036   6.312   6.767   5.841
 2046SOL    HW1 7037   6.351   6.736   5.754
 2046SOL    HW2 7038   6.318   6.867   5.846
 2047SOL     OW 7039   4.992   2.780   0.217
 2047SOL    HW1 7040   4.952   2.827   0.296
 2047SOL    HW2 7041   4.920   2.737   0.164
 2048SOL     OW 7042   4.841   6.384   5.623
 2048SOL    HW1 7043   4.764   6.420   5.675
 2048SOL    HW2 7044   4.827   6.287   5.605
 2049SOL     OW 7045   4.836   5.395   6.809
 2049SOL    HW1 7046   4.888   5.450   6.744
 2049SOL    HW2 7047   4.755   5.357   6.764
 2050SOL     OW 7048   5.566   0.456   3.517
 2050SOL    HW1 7049   5.551   0.554   3.500
 2050SOL    HW2 7050   5.546   0.405   3.433
 2051SOL     OW 7051   3.334   5.344   0.939
 2051SOL    HW1 7052   3.241   5.365   0.909
 2051SOL    HW2 7053   3.372   5.272   0.880
 2052SOL     OW 7054   2.092   2.631   1.201
 2052SOL    HW1 7055   2.051   2.701   1.260
 2052SOL    HW2 7056   2.172   2.592   1.246
 2053SOL     OW 7057   4.782   1.316   0.975
 2053SOL    HW1 7058   4.711   1.272   0.920
 2053SOL    HW2 7059   4.746   1.338   1.066
 2054SOL     OW 7060   0.626   3.189   1.158
 2054SOL    HW1 7061   0.642   3.257   1.230
 2054SOL    HW2 7062   0.712   3.143   1.137
 2055SOL     OW 7063   6.411   1.452   3.973
 2055SOL    HW1 7064   6.486   1.439   3.909
 2055SOL    HW2 7065   6.447   1.487   4.060
 2056SOL     OW 7066   0.819   0.058   2.322
 2056SOL    HW1 7067   0.769   0.022   2.400
 2056SOL    HW2 7068   0.787   0.014   2.238
 2057SOL     OW 7069   5.683   2.887   4.470
 2057SOL    HW1 7070   5.729   2.838   4.544
 2057SOL    HW2 7071   5.619   2.826   4.424
 2058SOL     OW 7072   0.474   1.129   1.663
 2058SOL    HW1 7073   0.566   1.165   1.646
 2058SOL    HW2 7074   0.473   1.030   1.649
 2059SOL     OW 7075   1.364   0.873   6.700
 2059SOL    HW1 7076   1.338   0.873   6.603
 2059SOL    HW2 7077   1.459   0.841   6.709
 2060SOL     OW 7078   0.490   5.156   2.764
 2060SOL    HW1 7079   0.557   5.110   2.707
 2060SOL    HW2 7080   0.438   5.221   2.708
 2061SOL     OW 7081   1.376   0.910   1.019
 2061SOL    HW1 7082   1.372   0.969   0.938
 2061SOL    HW2 7083   1.453   0.847   1.011
 2062SOL     OW 7084   4.358   0.145   3.877
 2062SOL    HW1 7085   4.295   0.178   3.948
 2062SOL    HW2 7086   4.330   0.053   3.848
 2063SOL     OW 7087   2.225   2.230   1.184
 2063SOL    HW1 7088   2.174   2.154   1.225
 2063SOL    HW2 7089   2.319   2.202   1.168
 2064SOL     OW 7090   0.868   2.031   0.986
 2064SOL    HW1 7091   0.958   1.987   0.993
 2064SOL    HW2 7092   0.830   2.044   1.077
 2065SOL     OW 7093   0.033   3.361   2.368
 2065SOL    HW1 7094   0.127   3.375   2.400
 2065SOL    HW2 7095   6.990   3.431   2.407
 2066SOL     OW 7096   1.683   6.282   2.726
 2066SOL    HW1 7097   1.667   6.245   2.635
 2066SOL    HW2 7098   1.728   6.212   2.783
 2067SOL     OW 7099   0.614   0.127   0.077
 2067SOL    HW1 7100   0.566   0.152   0.161
 2067SOL    HW2 7101   0.679   0.054   0.096
 2068SOL     OW 7102   1.795   1.815   5.163
 2068SOL    HW1 7103   1.714   1.756   5.166
 2068SOL    HW2 7104   1.845   1.807   5.250
 2069SOL     OW 7105   1.109   2.154   1.641
 2069SOL    HW1 7106   1.157   2.204   1.714
 2069SOL    HW2 7107   1.014   2.137   1.669
 2070SOL     OW 7108   0.009   1.199   2.708
 2070SOL    HW1 7109   6.963   1.226   2.781
 2070SOL    HW2 7110   0.031   1.279   2.652
 2071SOL     OW 7111   2.404   6.274   5.592
 2071SOL    HW1 7112   2.455   6.256   5.507
 2071SOL    HW2 7113   2.417   6.197   5.655
 2072SOL     OW 7114   5.208   4.752   2.210
 2072SOL    HW1 7115   5.269   4.679   2.179
 2072SOL    HW2 7116   5.150   4.719   2.284
 2073SOL     OW 7117   3.157   0.027   5.378
 2073SOL    HW1 7118   3.109   0.106   5.418
 2073SOL    HW2 7119   3.235   0.060   5.324
 2074SOL     OW 7120   5.686   2.813   2.583
 2074SOL    HW1 7121   5.629   2.730   2.580
 2074SOL    HW2 7122   5.738   2.815   2.668
 2075SOL     OW 7123   3.679   3.129   6.059
 2075SOL    HW1 7124   3.634   3.058   6.004
 2075SOL    HW2 7125   3.761   3.161   6.012
 2076SOL     OW 7126   5.352   0.034   0.883
 2076SOL    HW1 7127   5.410   6.990   0.828
 2076SOL    HW2 7128   5.409   0.092   0.941
 2077SOL     OW 7129   4.294   1.087   4.008
 2077SOL    HW1 7130   4.333   1.083   3.916
 2077SOL    HW2 7131   4.365   1.115   4.073
 2078SOL     OW 7132   4.092   5.818   4.731
 2078SOL    HW1 7133   4.179   5.863   4.713
 2078SOL    HW2 7134   4.020   5.887   4.739
 2079SOL     OW 7135   6.298   6.736   4.036
 2079SOL    HW1 7136   6.242   6.660   4.070
 2079SOL    HW2 7137   6.315   6.800   4.111
 2080SOL     OW 7138   2.815   1.732   3.636
 2080SOL    HW1 7139   2.814   1.642   3.680
 2080SOL    HW2 7140   2.727   1.748   3.592
 2081SOL     OW 7141   1.280   6.260   4.105
 2081SOL    HW1 7142   1.370   6.223   4.086
 2081SOL    HW2 7143   1.240   6.214   4.184
 2082SOL     OW 7144   4.702   0.698   2.073
 2082SOL    HW1 7145   4.631   0.768   2.062
 2082SOL    HW2 7146   4.677   0.637   2.149
 2083SOL     OW 7147   4.003   4.268   6.052
 2083SOL    HW1 7148   3.991   4.319   5.967
 2083SOL    HW2 7149   3.953   4.313   6.126
 2084SOL     OW 7150   6.803   2.554   2.819
 2084SOL    HW1 7151   6.874   2.613   2.856
 2084SOL    HW2 7152   6.833   2.458   2.823
 2085SOL     OW 7153   6.138   6.603   6.676
 2085SOL    HW1 7154   6.141   6.693   6.634
 2085SOL    HW2 7155   6.229   6.577   6.707
 2086SOL     OW 7156   3.794   5.170   0.226
 2086SOL    HW1 7157   3.893   5.156   0.226
 2086SOL    HW2 7158   3.759   5.159   0.133
 2087SOL     OW 7159   5.859   6.204   3.366
 2087SOL    HW1 7160   5.881   6.123   3.421
 2087SOL    HW2 7161   5.815   6.272   3.424
 2088SOL     OW 7162   2.637   6.547   1.389
 2088SOL    HW1 7163   2.539   6.564   1.390
 2088SOL    HW2 7164   2.670   6.539   1.484
 2089SOL     OW 7165   2.209   1.070   0.385
 2089SOL    HW1 7166   2.258   1.111   0.462
 2089SOL    HW2 7167   2.276   1.036   0.318
 2090SOL     OW 7168   3.216   3.860   3.831
 2090SOL    HW1 7169   3.200   3.957   3.816
 2090SOL    HW2 7170   3.302   3.833   3.788
 2091SOL     OW 7171   2.624   4.511   0.878
 2091SOL    HW1 7172   2.605   4.452   0.800
 2091SOL    HW2 7173   2.662   4.457   0.953
 2092SOL     OW 7174   0.342   6.050   1.166
 2092SOL    HW1 7175   0.400   5.994   1.225
 2092SOL    HW2 7176   0.248   6.017   1.171
 2093SOL     OW 7177   1.353   2.518   1.581
 2093SOL    HW1 7178   1.388   2.458   1.509
 2093SOL    HW2 7179   1.303   2.594   1.540
 2094SOL     OW 7180   5.947   0.797   1.955
 2094SOL    HW1 7181   6.027   0.840   1.996
 2094SOL    HW2 7182   5.903   0.861   1.892
 2095SOL     OW 7183   6.472   4.829   5.146
 2095SOL    HW1 7184   6.572   4.839   5.145
 2095SOL    HW2 7185   6.448   4.752   5.205
 2096SOL     OW 7186   4.903   4.012   3.803
 2096SOL    HW1 7187   4.980   3.951   3.824
 2096SOL    HW2 7188   4.932   4.107   3.814
 2097SOL     OW 7189   6.526   3.946   5.799
 2097SOL    HW1 7190   6.440   3.997   5.801
 2097SOL    HW2 7191   6.516   3.862   5.852
 2098SOL     OW 7192   4.279   0.110   4.294
 2098SOL    HW1 7193   4.230   0.188   4.335
 2098SOL    HW2 7194   4.374   0.111   4.326
 2099SOL     OW 7195   2.851   1.969   3.266
 2099SOL    HW1 7196   2.895   2.049   3.225
 2099SOL    HW2 7197   2.895   1.949   3.354
 2100SOL     OW 7198   4.071   4.829   6.326
 2100SOL    HW1 7199   4.042   4.856   6.418
 2100SOL    HW2 7200   4.132   4.749   6.332
 2101SOL     OW 7201   6.332   0.180   1.919
 2101SOL    HW1 7202   6.387   0.130   1.986
 2101SOL    HW2 7203   6.392   0.236   1.862
 2102SOL     OW 7204   6.782   5.234   1.714
 2102SOL    HW1 7205   6.863   5.200   1.761
 2102SOL    HW2 7206   6.803   5.322   1.671
 2103SOL     OW 7207   3.551   3.548   6.309
 2103SOL    HW1 7208   3.579   3.627   6.363
 2103SOL    HW2 7209   3.534   3.470   6.369
 2104SOL     OW 7210   1.466   4.493   5.735
 2104SOL    HW1 7211   1.392   4.560   5.743
 2104SOL    HW2 7212   1.428   4.401   5.745
 2105SOL     OW 7213   5.566   6.456   1.989
 2105SOL    HW1 7214   5.593   6.521   2.060
 2105SOL    HW2 7215   5.546   6.367   2.032
 2106SOL     OW 7216   5.799   5.919   6.442
 2106SOL    HW1 7217   5.856   5.845   6.477
 2106SOL    HW2 7218   5.815   5.930   6.344
 2107SOL     OW 7219   2.676   5.041   0.463
 2107SOL    HW1 7220   2.752   5.010   0.406
 2107SOL    HW2 7221   2.698   5.132   0.500
 2108SOL     OW 7222   6.089   4.236   6.718
 2108SOL    HW1 7223   6.089   4.271   6.625
 2108SOL    HW2 7224   6.182   4.208   6.743
 2109SOL     OW 7225   5.475   5.814   2.397
 2109SOL    HW1 7226   5.398   5.873   2.420
 2109SOL    HW2 7227   5.479   5.801   2.298
 2110SOL     OW 7228   1.466   4.970   5.426
 2110SOL    HW1 7229   1.453   4.992   5.523
 2110SOL    HW2 7230   1.383   4.926   5.391
 2111SOL     OW 7231   1.931   2.202   0.201
 2111SOL    HW1 7232   1.834   2.222   0.187
 2111SOL    HW2 7233   1.940   2.130   0.269
 2112SOL     OW 7234   5.094   3.818   0.439
 2112SOL    HW1 7235   5.089   3.858   0.348
 2112SOL    HW2 7236   5.187   3.788   0.457
 2113SOL     OW 7237   6.605   2.070   3.075
 2113SOL    HW1 7238   6.651   2.042   3.159
 2113SOL    HW2 7239   6.551   1.994   3.039
 2114SOL     OW 7240   1.406   3.477   6.978
 2114SOL    HW1 7241   1.388   3.487   0.060
 2114SOL    HW2 7242   1.468   3.550   6.949
 2115SOL     OW 7243   3.605   5.419   1.726
 2115SOL    HW1 7244   3.562   5.474   1.798
 2115SOL    HW2 7245   3.700   5.400   1.751
 2116SOL     OW 7246   0.934   3.900   4.391
 2116SOL    HW1 7247   0.982   3.987   4.377
 2116SOL    HW2 7248   0.841   3.907   4.356
 2117SOL     OW 7249   6.827   5.634   6.224
 2117SOL    HW1 7250   6.738   5.680   6.221
 2117SOL    HW2 7251   6.878   5.666   6.304
 2118SOL     OW 7252   6.977   3.880   2.122
 2118SOL    HW1 7253   6.967   3.781   2.112
 2118SOL    HW2 7254   0.057   3.905   2.111
 2119SOL     OW 7255   4.202   6.291   0.646
 2119SOL    HW1 7256   4.273   6.343   0.694
 2119SOL    HW2 7257   4.210   6.194   0.670
 2120SOL     OW 7258   6.322   4.159   1.980
 2120SOL    HW1 7259   6.342   4.068   2.017
 2120SOL    HW2 7260   6.226   4.181   1.996
 2121SOL     OW 7261   0.451   3.678   4.995
 2121SOL    HW1 7262   0.433   3.695   4.898
 2121SOL    HW2 7263   0.402   3.596   5.024
 2122SOL     OW 7264   4.106   5.276   5.465
 2122SOL    HW1 7265   4.007   5.262   5.467
 2122SOL    HW2 7266   4.150   5.197   5.422
 2123SOL     OW 7267   4.505   4.993   3.371
 2123SOL    HW1 7268   4.578   4.972   3.305
 2123SOL    HW2 7269   4.418   4.998   3.323
 2124SOL     OW 7270   2.901   2.203   1.230
 2124SOL    HW1 7271   2.932   2.292   1.265
 2124SOL    HW2 7272   2.879   2.211   1.133
 2125SOL     OW 7273   5.102   5.700   0.775
 2125SOL    HW1 7274   5.135   5.773   0.715
 2125SOL    HW2 7275   5.003   5.702   0.779
 2126SOL     OW 7276   3.034   1.045   1.649
 2126SOL    HW1 7277   3.099   1.007   1.715
 2126SOL    HW2 7278   2.941   1.025   1.678
 2127SOL     OW 7279   5.659   2.785   4.802
 2127SOL    HW1 7280   5.729   2.854   4.782
 2127SOL    HW2 7281   5.603   2.816   4.879
 2128SOL     OW 7282   0.378   3.860   4.254
 2128SOL    HW1 7283   0.320   3.816   4.186
 2128SOL    HW2 7284   0.367   3.960   4.248
 2129SOL     OW 7285   4.432   2.400   5.097
 2129SOL    HW1 7286   4.360   2.349   5.049
 2129SOL    HW2 7287   4.432   2.495   5.066
 2130SOL     OW 7288   5.307   0.670   3.585
 2130SOL    HW1 7289   5.253   0.746   3.551
 2130SOL    HW2 7290   5.277   0.585   3.541
 2131SOL     OW 7291   5.308   1.871   6.727
 2131SOL    HW1 7292   5.355   1.791   6.763
 2131SOL    HW2 7293   5.214   1.845   6.702
 2132SOL     OW 7294   1.834   3.620   0.817
 2132SOL    HW1 7295   1.824   3.662   0.726
 2132SOL    HW2 7296   1.776   3.539   0.823
 2133SOL     OW 7297   2.452   4.310   6.395
 2133SOL    HW1 7298   2.396   4.321   6.313
 2133SOL    HW2 7299   2.536   4.362   6.385
 2134SOL     OW 7300   0.245   6.544   0.684
 2134SOL    HW1 7301   0.300   6.600   0.622
 2134SOL    HW2 7302   0.260   6.447   0.664
 2135SOL     OW 7303   6.608   4.903   5.440
 2135SOL    HW1 7304   6.679   4.833   5.436
 2135SOL    HW2 7305   6.607   4.954   5.354
 2136SOL     OW 7306   1.416   5.537   6.937
 2136SOL    HW1 7307   1.449   5.504   0.009
 2136SOL    HW2 7308   1.495   5.552   6.876
 2137SOL     OW 7309   1.221   6.865   3.508
 2137SOL    HW1 7310   1.225   6.866   3.408
 2137SOL    HW2 7311   1.168   6.786   3.539
 2138SOL     OW 7312   5.097   2.167   2.179
 2138SOL    HW1 7313   5.161   2.208   2.113
 2138SOL    HW2 7314   5.017   2.132   2.130
 2139SOL     OW 7315   2.917   6.482   5.792
 2139SOL    HW1 7316   2.964   6.447   5.711
 2139SOL    HW2 7317   2.844   6.545   5.763
 2140SOL     OW 7318   2.187   1.654   3.931
 2140SOL    HW1 7319   2.121   1.719   3.969
 2140SOL    HW2 7320   2.219   1.594   4.004
 2141SOL     OW 7321   6.641   3.341   3.246
 2141SOL    HW1 7322   6.719   3.350   3.307
 2141SOL    HW2 7323   6.645   3.252   3.200
 2142SOL     OW 7324   1.527   2.576   2.357
 2142SOL    HW1 7325   1.489   2.484   2.355
 2142SOL    HW2 7326   1.590   2.588   2.281
 2143SOL     OW 7327   0.159   5.335   5.647
 2143SOL    HW1 7328   0.158   5.253   5.703
 2143SOL    HW2 7329   0.066   5.362   5.624
 2144SOL     OW 7330   5.879   4.760   3.186
 2144SOL    HW1 7331   5.958   4.788   3.130
 2144SOL    HW2 7332   5.826   4.840   3.212
 2145SOL     OW 7333   4.050   1.540   2.732
 2145SOL    HW1 7334   4.030   1.636   2.755
 2145SOL    HW2 7335   4.145   1.533   2.703
 2146SOL     OW 7336   1.692   1.884   6.584
 2146SOL    HW1 7337   1.623   1.955   6.569
 2146SOL    HW2 7338   1.777   1.908   6.538
 2147SOL     OW 7339   5.811   6.461   5.033
 2147SOL    HW1 7340   5.800   6.550   5.079
 2147SOL    HW2 7341   5.850   6.476   4.942
 2148SOL     OW 7342   0.622   1.942   4.816
 2148SOL    HW1 7343   0.573   2.018   4.859
 2148SOL    HW2 7344   0.688   1.904   4.880
 2149SOL     OW 7345   0.664   6.230   0.039
 2149SOL    HW1 7346   0.720   6.302   7.015
 2149SOL    HW2 7347   0.665   6.150   6.995
 2150SOL     OW 7348   1.854   2.685   0.845
 2150SOL    HW1 7349   1.813   2.736   0.769
 2150SOL    HW2 7350   1.817   2.592   0.847
 2151SOL     OW 7351   0.455   4.884   6.854
 2151SOL    HW1 7352   0.426   4.975   6.824
 2151SOL    HW2 7353   0.553   4.873   6.836
 2152SOL     OW 7354   4.874   6.204   3.793
 2152SOL    HW1 7355   4.895   6.120   3.843
 2152SOL    HW2 7356   4.921   6.203   3.705
 2153SOL     OW 7357   5.079   0.031   3.796
 2153SOL    HW1 7358   5.012   0.105   3.807
 2153SOL    HW2 7359   5.128   0.018   3.882
 2154SOL     OW 7360   2.715   6.661   2.503
 2154SOL    HW1 7361   2.779   6.661   2.579
 2154SOL    HW2 7362   2.624   6.634   2.535
 2155SOL     OW 7363   4.337   0.967   1.106
 2155SOL    HW1 7364   4.277   0.965   1.027
 2155SOL    HW2 7365   4.361   1.062   1.127
 2156SOL     OW 7366   5.925   2.206   5.085
 2156SOL    HW1 7367   5.971   2.225   5.172
 2156SOL    HW2 7368   5.862   2.281   5.064
 2157SOL     OW 7369   4.197   6.388   4.122
 2157SOL    HW1 7370   4.174   6.369   4.217
 2157SOL    HW2 7371   4.261   6.318   4.089
 2158SOL     OW 7372   2.868   6.710   0.643
 2158SOL    HW1 7373   2.770   6.692   0.651
 2158SOL    HW2 7374   2.916   6.624   0.625
 2159SOL     OW 7375   0.426   1.140   6.052
 2159SOL    HW1 7376   0.523   1.152   6.032
 2159SOL    HW2 7377   0.372   1.181   5.978
 2160SOL     OW 7378   5.424   6.706   6.589
 2160SOL    HW1 7379   5.416   6.702   6.689
 2160SOL    HW2 7380   5.336   6.682   6.548
 2161SOL     OW 7381   1.616   3.988   0.518
 2161SOL    HW1 7382   1.526   4.025   0.497
 2161SOL    HW2 7383   1.631   3.991   0.616
 2162SOL     OW 7384   1.957   0.469   0.586
 2162SOL    HW1 7385   1.922   0.561   0.567
 2162SOL    HW2 7386   1.966   0.457   0.685
 2163SOL     OW 7387   1.167   2.850   3.682
 2163SOL    HW1 7388   1.152   2.827   3.586
 2163SOL    HW2 7389   1.121   2.784   3.740
 2164SOL     OW 7390   2.146   3.705   2.033
 2164SOL    HW1 7391   2.170   3.608   2.035
 2164SOL    HW2 7392   2.048   3.716   2.052
 2165SOL     OW 7393   5.905   1.477   5.145
 2165SOL    HW1 7394   5.861   1.557   5.185
 2165SOL    HW2 7395   5.840   1.430   5.085
 2166SOL     OW 7396   0.205   2.912   1.755
 2166SOL    HW1 7397   0.167   3.003   1.774
 2166SOL    HW2 7398   0.237   2.909   1.660
 2167SOL     OW 7399   1.249   2.417   3.143
 2167SOL    HW1 7400   1.174   2.478   3.118
 2167SOL    HW2 7401   1.238   2.387   3.238
 2168SOL     OW 7402   1.561   2.313   3.402
 2168SOL    HW1 7403   1.464   2.307   3.381
 2168SOL    HW2 7404   1.596   2.224   3.430
 2169SOL     OW 7405   6.765   0.210   0.877
 2169SOL    HW1 7406   6.762   0.293   0.933
 2169SOL    HW2 7407   6.859   0.190   0.851
 2170SOL     OW 7408   1.412   3.261   6.632
 2170SOL    HW1 7409   1.506   3.239   6.657
 2170SOL    HW2 7410   1.400   3.248   6.534
 2171SOL     OW 7411   6.919   6.105   1.400
 2171SOL    HW1 7412   6.846   6.062   1.453
 2171SOL    HW2 7413   6.890   6.197   1.373
 2172SOL     OW 7414   2.756   2.316   4.923
 2172SOL    HW1 7415   2.685   2.385   4.931
 2172SOL    HW2 7416   2.779   2.302   4.826
 2173SOL     OW 7417   4.697   0.801   4.824
 2173SOL    HW1 7418   4.636   0.744   4.878
 2173SOL    HW2 7419   4.741   0.869   4.883
 2174SOL     OW 7420   5.510   6.996   6.155
 2174SOL    HW1 7421   5.431   6.972   6.098
 2174SOL    HW2 7422   5.479   7.008   6.250
 2175SOL     OW 7423   3.270   3.398   5.967
 2175SOL    HW1 7424   3.230   3.407   5.876
 2175SOL    HW2 7425   3.348   3.459   5.975
 2176SOL     OW 7426   6.170   1.851   3.061
 2176SOL    HW1 7427   6.131   1.889   2.977
 2176SOL    HW2 7428   6.185   1.753   3.049
 2177SOL     OW 7429   0.829   0.914   5.103
 2177SOL    HW1 7430   0.856   0.942   5.011
 2177SOL    HW2 7431   0.788   0.992   5.150
 2178SOL     OW 7432   1.524   2.648   2.616
 2178SOL    HW1 7433   1.591   2.611   2.680
 2178SOL    HW2 7434   1.551   2.626   2.522
 2179SOL     OW 7435   1.022   4.141   0.132
 2179SOL    HW1 7436   1.062   4.207   0.195
 2179SOL    HW2 7437   0.923   4.152   0.130
 2180SOL     OW 7438   0.393   5.569   2.699
 2180SOL    HW1 7439   0.360   5.481   2.667
 2180SOL    HW2 7440   0.340   5.599   2.778
 2181SOL     OW 7441   4.033   4.802   4.340
 2181SOL    HW1 7442   4.096   4.735   4.379
 2181SOL    HW2 7443   3.977   4.842   4.413
 2182SOL     OW 7444   6.826   6.360   1.326
 2182SOL    HW1 7445   6.728   6.345   1.312
 2182SOL    HW2 7446   6.866   6.403   1.245
 2183SOL     OW 7447   3.310   3.249   6.942
 2183SOL    HW1 7448   3.284   3.305   6.864
 2183SOL    HW2 7449   3.365   3.172   6.910
 2184SOL     OW 7450   6.190   1.865   0.279
 2184SOL    HW1 7451   6.133   1.933   0.326
 2184SOL    HW2 7452   6.138   1.782   0.265
 2185SOL     OW 7453   0.795   1.740   6.021
 2185SOL    HW1 7454   0.892   1.758   6.007
 2185SOL    HW2 7455   0.759   1.690   5.942
 2186SOL     OW 7456   6.987   6.151   5.353
 2186SOL    HW1 7457   6.921   6.180   5.423
 2186SOL    HW2 7458   6.952   6.071   5.305
 2187SOL     OW 7459   5.690   4.656   1.252
 2187SOL    HW1 7460   5.708   4.733   1.190
 2187SOL    HW2 7461   5.691   4.689   1.347
 2188SOL     OW 7462   3.164   0.815   0.846
 2188SOL    HW1 7463   3.133   0.910   0.852
 2188SOL    HW2 7464   3.140   0.778   0.756
 2189SOL     OW 7465   1.829   0.543   2.465
 2189SOL    HW1 7466   1.929   0.549   2.462
 2189SOL    HW2 7467   1.800   0.520   2.557
 2190SOL     OW 7468   6.172   4.718   2.223
 2190SOL    HW1 7469   6.148   4.810   2.254
 2190SOL    HW2 7470   6.236   4.723   2.147
 2191SOL     OW 7471   3.796   6.987   6.571
 2191SOL    HW1 7472   3.812   0.067   6.588
 2191SOL    HW2 7473   3.759   6.975   6.479
 2192SOL     OW 7474   4.898   2.103   1.662
 2192SOL    HW1 7475   4.926   2.134   1.753
 2192SOL    HW2 7476   4.954   2.150   1.593
 2193SOL     OW 7477   1.961   0.506   4.523
 2193SOL    HW1 7478   1.988   0.431   4.463
 2193SOL    HW2 7479   1.895   0.474   4.591
 2194SOL     OW 7480   0.453   4.320   5.109
 2194SOL    HW1 7481   0.534   4.371   5.139
 2194SOL    HW2 7482   0.445   4.236   5.163
 2195SOL     OW 7483   0.068   3.668   4.820
 2195SOL    HW1 7484   7.006   3.689   4.877
 2195SOL    HW2 7485   0.144   3.728   4.845
 2196SOL     OW 7486   4.259   0.375   6.854
 2196SOL    HW1 7487   4.296   0.307   6.918
 2196SOL    HW2 7488   4.174   0.340   6.814
 2197SOL     OW 7489   3.565   5.397   6.762
 2197SOL    HW1 7490   3.604   5.481   6.800
 2197SOL    HW2 7491   3.608   5.377   6.674
 2198SOL     OW 7492   1.405   1.074   6.901
 2198SOL    HW1 7493   1.399   0.985   6.855
 2198SOL    HW2 7494   1.411   1.147   6.832
 2199SOL     OW 7495   3.896   6.742   3.784
 2199SOL    HW1 7496   3.821   6.807   3.771
 2199SOL    HW2 7497   3.950   6.768   3.863
 2200SOL     OW 7498   2.453   2.635   4.247
 2200SOL    HW1 7499   2.418   2.676   4.162
 2200SOL    HW2 7500   2.452   2.703   4.320
 2201SOL     OW 7501   5.519   3.955   4.831
 2201SOL    HW1 7502   5.613   3.937   4.800
 2201SOL    HW2 7503   5.460   3.878   4.804
 2202SOL     OW 7504   3.443   6.642   3.608
 2202SOL    HW1 7505   3.432   6.733   3.649
 2202SOL    HW2 7506   3.518   6.594   3.654
 2203SOL     OW 7507   2.271   5.237   1.296
 2203SOL    HW1 7508   2.265   5.183   1.212
 2203SOL    HW2 7509   2.185   5.231   1.347
 2204SOL     OW 7510   5.103   3.023   0.707
 2204SOL    HW1 7511   5.054   3.019   0.794
 2204SOL    HW2 7512   5.111   2.930   0.669
 2205SOL     OW 7513   5.862   5.902   0.903
 2205SOL    HW1 7514   5.787   5.961   0.872
 2205SOL    HW2 7515   5.919   5.951   0.969
 2206SOL     OW 7516   3.830   2.356   5.746
 2206SOL    HW1 7517   3.744   2.405   5.737
 2206SOL    HW2 7518   3.906   2.417   5.722
 2207SOL     OW 7519   4.550   5.649   1.714
 2207SOL    HW1 7520   4.575   5.622   1.807
 2207SOL    HW2 7521   4.589   5.583   1.649
 2208SOL     OW 7522   6.881   6.450   2.734
 2208SOL    HW1 7523   6.877   6.364   2.785
 2208SOL    HW2 7524   6.966   6.498   2.756
 2209SOL     OW 7525   2.932   5.247   3.347
 2209SOL    HW1 7526   2.986   5.250   3.263
 2209SOL    HW2 7527   2.917   5.340   3.380
 2210SOL     OW 7528   5.211   0.111   1.890
 2210SOL    HW1 7529   5.296   0.162   1.893
 2210SOL    HW2 7530   5.231   0.014   1.876
 2211SOL     OW 7531   1.222   1.827   1.332
 2211SOL    HW1 7532   1.144   1.765   1.330
 2211SOL    HW2 7533   1.192   1.919   1.357
 2212SOL     OW 7534   3.152   5.424   6.518
 2212SOL    HW1 7535   3.092   5.344   6.527
 2212SOL    HW2 7536   3.237   5.407   6.568
 2213SOL     OW 7537   3.468   1.584   4.578
 2213SOL    HW1 7538   3.460   1.495   4.622
 2213SOL    HW2 7539   3.406   1.649   4.623
 2214SOL     OW 7540   4.183   4.233   6.612
 2214SOL    HW1 7541   4.205   4.144   6.653
 2214SOL    HW2 7542   4.265   4.291   6.613
 2215SOL     OW 7543   5.340   5.588   0.224
 2215SOL    HW1 7544   5.303   5.658   0.163
 2215SOL    HW2 7545   5.440   5.592   0.224
 2216SOL     OW 7546   0.477   6.017   6.902
 2216SOL    HW1 7547   0.427   6.014   6.815
 2216SOL    HW2 7548   0.541   5.941   6.906
 2217SOL     OW 7549   4.080   1.393   3.576
 2217SOL    HW1 7550   4.162   1.337   3.586
 2217SOL    HW2 7551   4.009   1.339   3.531
 2218SOL     OW 7552   6.489   5.749   5.689
 2218SOL    HW1 7553   6.396   5.770   5.720
 2218SOL    HW2 7554   6.485   5.685   5.612
 2219SOL     OW 7555   5.130   2.009   0.399
 2219SOL    HW1 7556   5.134   2.048   0.491
 2219SOL    HW2 7557   5.039   1.971   0.383
 2220SOL     OW 7558   6.715   6.422   4.457
 2220SOL    HW1 7559   6.677   6.412   4.365
 2220SOL    HW2 7560   6.718   6.519   4.481
 2221SOL     OW 7561   5.655   0.820   4.601
 2221SOL    HW1 7562   5.560   0.818   4.569
 2221SOL    HW2 7563   5.700   0.903   4.568
 2222SOL     OW 7564   3.537   0.951   3.495
 2222SOL    HW1 7565   3.515   1.019   3.425
 2222SOL    HW2 7566   3.461   0.943   3.560
 2223SOL     OW 7567   1.001   0.231   5.425
 2223SOL    HW1 7568   0.909   0.208   5.391
 2223SOL    HW2 7569   1.069   0.184   5.369
 2224SOL     OW 7570   5.262   4.469   6.472
 2224SOL    HW1 7571   5.293   4.412   6.396
 2224SOL    HW2 7572   5.162   4.472   6.473
 2225SOL     OW 7573   6.471   6.563   1.108
 2225SOL    HW1 7574   6.399   6.529   1.169
 2225SOL    HW2 7575   6.458   6.524   1.017
 2226SOL     OW 7576   2.407   3.392   0.151
 2226SOL    HW1 7577   2.397   3.298   0.185
 2226SOL    HW2 7578   2.456   3.446   0.219
 2227SOL     OW 7579   3.875   2.038   2.003
 2227SOL    HW1 7580   3.788   2.087   2.004
 2227SOL    HW2 7581   3.912   2.040   1.910
 2228SOL     OW 7582   5.402   6.385   6.470
 2228SOL    HW1 7583   5.395   6.321   6.546
 2228SOL    HW2 7584   5.498   6.396   6.445
 2229SOL     OW 7585   2.872   3.378   4.339
 2229SOL    HW1 7586   2.824   3.324   4.408
 2229SOL    HW2 7587   2.908   3.317   4.268
 2230SOL     OW 7588   6.383   0.493   6.034
 2230SOL    HW1 7589   6.383   0.396   6.059
 2230SOL    HW2 7590   6.477   0.524   6.018
 2231SOL     OW 7591   1.548   0.220   6.171
 2231SOL    HW1 7592   1.528   0.124   6.193
 2231SOL    HW2 7593   1.634   0.225   6.120
 2232SOL     OW 7594   1.546   1.103   6.158
 2232SOL    HW1 7595   1.571   1.178   6.219
 2232SOL    HW2 7596   1.534   1.020   6.211
 2233SOL     OW 7597   3.124   4.750   0.944
 2233SOL    HW1 7598   3.158   4.843   0.950
 2233SOL    HW2 7599   3.035   4.749   0.899
 2234SOL     OW 7600   5.104   2.225   1.503
 2234SOL    HW1 7601   5.098   2.179   1.415
 2234SOL    HW2 7602   5.141   2.317   1.491
 2235SOL     OW 7603   0.674   2.141   2.625
 2235SOL    HW1 7604   0.728   2.187   2.695
 2235SOL    HW2 7605   0.651   2.049   2.656
 2236SOL     OW 7606   2.964   5.273   5.331
 2236SOL    HW1 7607   2.955   5.187   5.381
 2236SOL    HW2 7608   3.061   5.298   5.326
 2237SOL     OW 7609   6.329   6.409   6.371
 2237SOL    HW1 7610   6.397   6.398   6.298
 2237SOL    HW2 7611   6.338   6.501   6.410
 2238SOL     OW 7612   5.768   3.763   2.320
 2238SOL    HW1 7613   5.697   3.693   2.332
 2238SOL    HW2 7614   5.743   3.845   2.372
 2239SOL     OW 7615   4.047   0.085   2.790
 2239SOL    HW1 7616   4.072   0.028   2.868
 2239SOL    HW2 7617   3.976   0.150   2.818
 2240SOL     OW 7618   4.850   5.097   2.357
 2240SOL    HW1 7619   4.931   5.074   2.411
 2240SOL    HW2 7620   4.849   5.196   2.341
 2241SOL     OW 7621   0.723   1.761   2.978
 2241SOL    HW1 7622   0.744   1.729   2.885
 2241SOL    HW2 7623   0.666   1.694   3.025
 2242SOL     OW 7624   5.665   2.398   4.501
 2242SOL    HW1 7625   5.598   2.360   4.437
 2242SOL    HW2 7626   5.640   2.492   4.524
 2243SOL     OW 7627   2.561   0.192   0.500
 2243SOL    HW1 7628   2.543   0.093   0.503
 2243SOL    HW2 7629   2.511   0.232   0.422
 2244SOL     OW 7630   2.884   1.729   1.188
 2244SOL    HW1 7631   2.786   1.738   1.174
 2244SOL    HW2 7632   2.923   1.820   1.203
 2245SOL     OW 7633   0.332   0.701   6.938
 2245SOL    HW1 7634   0.426   0.677   6.915
 2245SOL    HW2 7635   0.291   0.627   6.991
 2246SOL     OW 7636   4.997   1.424   5.965
 2246SOL    HW1 7637   5.047   1.345   5.927
 2246SOL    HW2 7638   4.983   1.492   5.893
 2247SOL     OW 7639   2.783   3.395   1.988
 2247SOL    HW1 7640   2.696   3.349   2.005
 2247SOL    HW2 7641   2.793   3.413   1.890
 2248SOL     OW 7642   4.990   2.904   4.462
 2248SOL    HW1 7643   5.061   2.972   4.480
 2248SOL    HW2 7644   5.026   2.812   4.480
 2249SOL     OW 7645   2.523   5.936   3.890
 2249SOL    HW1 7646   2.540   5.996   3.811
 2249SOL    HW2 7647   2.584   5.858   3.886
 2250SOL     OW 7648   4.446   5.894   6.027
 2250SOL    HW1 7649   4.355   5.935   6.030
 2250SOL    HW2 7650   4.515   5.963   6.044
 2251SOL     OW 7651   4.176   6.892   5.044
 2251SOL    HW1 7652   4.211   6.979   5.080
 2251SOL    HW2 7653   4.249   6.845   4.995
 2252SOL     OW 7654   4.194   1.107   2.322
 2252SOL    HW1 7655   4.121   1.059   2.370
 2252SOL    HW2 7656   4.181   1.206   2.332
 2253SOL     OW 7657   0.632   3.831   2.022
 2253SOL    HW1 7658   0.551   3.778   1.999
 2253SOL    HW2 7659   0.714   3.774   2.011
 2254SOL     OW 7660   3.401   2.892   2.824
 2254SOL    HW1 7661   3.368   2.986   2.832
 2254SOL    HW2 7662   3.336   2.831   2.870
 2255SOL     OW 7663   1.307   2.577   6.547
 2255SOL    HW1 7664   1.251   2.660   6.540
 2255SOL    HW2 7665   1.259   2.509   6.601
 2256SOL     OW 7666   5.421   0.510   1.319
 2256SOL    HW1 7667   5.353   0.582   1.312
 2256SOL    HW2 7668   5.455   0.505   1.413
 2257SOL     OW 7669   0.401   0.311   5.542
 2257SOL    HW1 7670   0.435   0.394   5.585
 2257SOL    HW2 7671   0.304   0.299   5.563
 2258SOL     OW 7672   2.351   6.646   3.921
 2258SOL    HW1 7673   2.351   6.651   3.821
 2258SOL    HW2 7674   2.328   6.736   3.959
 2259SOL     OW 7675   5.914   0.425   4.506
 2259SOL    HW1 7676   5.998   0.411   4.455
 2259SOL    HW2 7677   5.920   0.377   4.594
 2260SOL     OW 7678   1.245   3.762   0.895
 2260SOL    HW1 7679   1.344   3.769   0.899
 2260SOL    HW2 7680   1.216   3.672   0.929
 2261SOL     OW 7681   4.994   4.485   6.040
 2261SOL    HW1 7682   4.945   4.571   6.054
 2261SOL    HW2 7683   5.085   4.504   6.002
 2262SOL     OW 7684   0.032   6.810   4.115
 2262SOL    HW1 7685   0.030   6.795   4.016
 2262SOL    HW2 7686   6.996   6.892   4.137
 2263SOL     OW 7687   2.047   4.347   6.828
 2263SOL    HW1 7688   1.954   4.312   6.838
 2263SOL    HW2 7689   2.079   4.329   6.735
 2264SOL     OW 7690   2.283   0.228   6.332
 2264SOL    HW1 7691   2.349   0.230   6.407
 2264SOL    HW2 7692   2.266   0.321   6.300
 2265SOL     OW 7693   6.959   6.722   3.882
 2265SOL    HW1 7694   6.863   6.714   3.909
 2265SOL    HW2 7695   6.992   6.633   3.850
 2266SOL     OW 7696   4.458   2.974   6.199
 2266SOL    HW1 7697   4.539   2.932   6.242
 2266SOL    HW2 7698   4.475   2.988   6.102
 2267SOL     OW 7699   5.825   2.997   4.787
 2267SOL    HW1 7700   5.921   2.977   4.811
 2267SOL    HW2 7701   5.823   3.050   4.702
 2268SOL     OW 7702   0.923   6.451   4.916
 2268SOL    HW1 7703   0.992   6.450   4.988
 2268SOL    HW2 7704   0.865   6.532   4.926
 2269SOL     OW 7705   1.981   2.565   5.802
 2269SOL    HW1 7706   2.056   2.501   5.818
 2269SOL    HW2 7707   1.962   2.615   5.887
 2270SOL     OW 7708   5.079   2.033   6.199
 2270SOL    HW1 7709   5.101   2.130   6.212
 2270SOL    HW2 7710   4.983   2.018   6.225
 2271SOL     OW 7711   4.194   5.915   5.745
 2271SOL    HW1 7712   4.230   5.837   5.695
 2271SOL    HW2 7713   4.147   5.884   5.827
 2272SOL     OW 7714   6.041   1.432   6.095
 2272SOL    HW1 7715   6.100   1.449   6.017
 2272SOL    HW2 7716   6.081   1.473   6.177
 2273SOL     OW 7717   0.956   2.722   3.875
 2273SOL    HW1 7718   0.890   2.649   3.894
 2273SOL    HW2 7719   0.937   2.800   3.935
 2274SOL     OW 7720   1.330   1.058   0.712
 2274SOL    HW1 7721   1.423   1.049   0.677
 2274SOL    HW2 7722   1.311   1.154   0.732
 2275SOL     OW 7723   5.743   3.754   3.259
 2275SOL    HW1 7724   5.832   3.796   3.275
 2275SOL    HW2 7725   5.750   3.655   3.267
 2276SOL     OW 7726   1.882   1.695   1.339
 2276SOL    HW1 7727   1.836   1.764   1.283
 2276SOL    HW2 7728   1.823   1.613   1.345
 2277SOL     OW 7729   3.829   2.989   3.403
 2277SOL    HW1 7730   3.759   3.060   3.392
 2277SOL    HW2 7731   3.892   3.016   3.476
 2278SOL     OW 7732   6.907   2.736   3.927
 2278SOL    HW1 7733   6.923   2.835   3.924
 2278SOL    HW2 7734   6.811   2.717   3.910
 2279SOL     OW 7735   1.311   4.785   5.767
 2279SOL    HW1 7736   1.249   4.793   5.845
 2279SOL    HW2 7737   1.263   4.812   5.683
 2280SOL     OW 7738   5.229   2.314   5.411
 2280SOL    HW1 7739   5.179   2.283   5.330
 2280SOL    HW2 7740   5.166   2.358   5.475
 2281SOL     OW 7741   5.187   0.056   2.412
 2281SOL    HW1 7742   5.243   0.023   2.336
 2281SOL    HW2 7743   5.224   0.022   2.499
 2282SOL     OW 7744   3.845   5.600   6.044
 2282SOL    HW1 7745   3.865   5.632   5.952
 2282SOL    HW2 7746   3.756   5.634   6.073
 2283SOL     OW 7747   7.000   0.726   4.729
 2283SOL    HW1 7748   0.050   0.693   4.662
 2283SOL    HW2 7749   6.921   0.664   4.732
 2284SOL     OW 7750   1.689   3.575   6.457
 2284SOL    HW1 7751   1.700   3.675   6.448
 2284SOL    HW2 7752   1.665   3.553   6.551
 2285SOL     OW 7753   1.424   4.362   6.880
 2285SOL    HW1 7754   1.369   4.396   6.956
 2285SOL    HW2 7755   1.483   4.436   6.847
 2286SOL     OW 7756   4.708   4.471   2.933
 2286SOL    HW1 7757   4.678   4.553   2.885
 2286SOL    HW2 7758   4.646   4.452   3.009
 2287SOL     OW 7759   1.117   1.314   4.373
 2287SOL    HW1 7760   1.116   1.251   4.295
 2287SOL    HW2 7761   1.069   1.398   4.349
 2288SOL     OW 7762   6.734   5.355   2.881
 2288SOL    HW1 7763   6.703   5.297   2.957
 2288SOL    HW2 7764   6.679   5.438   2.877
 2289SOL     OW 7765   0.473   5.356   0.435
 2289SOL    HW1 7766   0.391   5.319   0.390
 2289SOL    HW2 7767   0.487   5.310   0.522
 2290SOL     OW 7768   0.924   5.102   6.431
 2290SOL    HW1 7769   0.946   5.199   6.425
 2290SOL    HW2 7770   0.909   5.076   6.526
 2291SOL     OW 7771   2.198   1.716   0.295
 2291SOL    HW1 7772   2.207   1.727   0.394
 2291SOL    HW2 7773   2.223   1.802   0.249
 2292SOL     OW 7774   2.317   1.054   4.283
 2292SOL    HW1 7775   2.330   1.037   4.381
 2292SOL    HW2 7776   2.267   1.139   4.270
 2293SOL     OW 7777   5.667   3.903   2.532
 2293SOL    HW1 7778   5.629   3.990   2.502
 2293SOL    HW2 7779   5.611   3.867   2.607
 2294SOL     OW 7780   4.345   6.338   0.229
 2294SOL    HW1 7781   4.385   6.417   0.184
 2294SOL    HW2 7782   4.406   6.305   0.301
 2295SOL     OW 7783   0.864   1.414   2.036
 2295SOL    HW1 7784   0.805   1.398   1.956
 2295SOL    HW2 7785   0.955   1.376   2.018
 2296SOL     OW 7786   3.071   6.523   0.428
 2296SOL    HW1 7787   3.136   6.479   0.490
 2296SOL    HW2 7788   2.979   6.489   0.447
 2297SOL     OW 7789   4.308   6.614   6.967
 2297SOL    HW1 7790   4.352   6.616   0.040
 2297SOL    HW2 7791   4.377   6.605   6.895
 2298SOL     OW 7792   4.122   3.076   6.993
 2298SOL    HW1 7793   4.036   3.121   7.016
 2298SOL    HW2 7794   4.117   3.041   6.900
 2299SOL     OW 7795   4.398   0.133   0.503
 2299SOL    HW1 7796   4.323   0.154   0.566
 2299SOL    HW2 7797   4.385   0.182   0.417
 2300SOL     OW 7798   1.092   4.576   1.012
 2300SOL    HW1 7799   1.093   4.674   0.993
 2300SOL    HW2 7800   1.163   4.531   0.958
 2301SOL     OW 7801   3.952   3.750   1.795
 2301SOL    HW1 7802   3.993   3.822   1.851
 2301SOL    HW2 7803   3.861   3.728   1.828
 2302SOL     OW 7804   2.025   4.968   2.485
 2302SOL    HW1 7805   2.102   4.951   2.548
 2302SOL    HW2 7806   1.976   5.050   2.515
 2303SOL     OW 7807   0.008   2.791   5.854
 2303SOL    HW1 7808   6.981   2.782   5.764
 2303SOL    HW2 7809   0.079   2.862   5.850
 2304SOL     OW 7810   2.036   1.224   4.859
 2304SOL    HW1 7811   2.065   1.305   4.808
 2304SOL    HW2 7812   1.983   1.253   4.939
 2305SOL     OW 7813   4.215   4.553   1.683
 2305SOL    HW1 7814   4.259   4.521   1.767
 2305SOL    HW2 7815   4.178   4.475   1.632
 2306SOL     OW 7816   0.157   4.222   0.201
 2306SOL    HW1 7817   0.256   4.205   0.207
 2306SOL    HW2 7818   0.110   4.137   0.180
 2307SOL     OW 7819   0.692   1.715   2.709
 2307SOL    HW1 7820   0.644   1.794   2.671
 2307SOL    HW2 7821   0.629   1.638   2.718
 2308SOL     OW 7822   0.623   6.718   0.615
 2308SOL    HW1 7823   0.541   6.717   0.557
 2308SOL    HW2 7824   0.680   6.797   0.591
 2309SOL     OW 7825   2.810   5.024   5.953
 2309SOL    HW1 7826   2.874   4.957   5.916
 2309SOL    HW2 7827   2.859   5.087   6.014
 2310SOL     OW 7828   5.653   1.658   3.086
 2310SOL    HW1 7829   5.575   1.717   3.067
 2310SOL    HW2 7830   5.631   1.563   3.061
 2311SOL     OW 7831   2.438   0.477   2.482
 2311SOL    HW1 7832   2.498   0.557   2.489
 2311SOL    HW2 7833   2.443   0.439   2.390
 2312SOL     OW 7834   2.273   1.151   2.465
 2312SOL    HW1 7835   2.359   1.177   2.510
 2312SOL    HW2 7836   2.214   1.103   2.529
 2313SOL     OW 7837   5.180   4.015   1.684
 2313SOL    HW1 7838   5.246   3.954   1.726
 2313SOL    HW2 7839   5.196   4.109   1.715
 2314SOL     OW 7840   6.624   6.507   2.808
 2314SOL    HW1 7841   6.572   6.543   2.730
 2314SOL    HW2 7842   6.718   6.488   2.778
 2315SOL     OW 7843   4.316   5.997   4.720
 2315SOL    HW1 7844   4.333   6.080   4.667
 2315SOL    HW2 7845   4.301   6.021   4.816
 2316SOL     OW 7846   3.105   1.537   5.763
 2316SOL    HW1 7847   3.158   1.561   5.681
 2316SOL    HW2 7848   3.091   1.438   5.766
 2317SOL     OW 7849   0.283   5.182   2.960
 2317SOL    HW1 7850   0.367   5.200   2.908
 2317SOL    HW2 7851   0.213   5.144   2.900
 2318SOL     OW 7852   1.116   4.292   4.745
 2318SOL    HW1 7853   1.017   4.300   4.734
 2318SOL    HW2 7854   1.155   4.242   4.668
 2319SOL     OW 7855   1.801   5.384   3.435
 2319SOL    HW1 7856   1.893   5.406   3.401
 2319SOL    HW2 7857   1.771   5.296   3.397
 2320SOL     OW 7858   0.688   1.776   5.175
 2320SOL    HW1 7859   0.725   1.806   5.263
 2320SOL    HW2 7860   0.753   1.797   5.103
 2321SOL     OW 7861   1.713   4.379   5.357
 2321SOL    HW1 7862   1.646   4.453   5.366
 2321SOL    HW2 7863   1.766   4.393   5.273
 2322SOL     OW 7864   1.619   3.827   1.881
 2322SOL    HW1 7865   1.581   3.917   1.898
 2322SOL    HW2 7866   1.597   3.765   1.957
 2323SOL     OW 7867   2.582   5.204   0.703
 2323SOL    HW1 7868   2.640   5.284   0.720
 2323SOL    HW2 7869   2.526   5.221   0.622
 2324SOL     OW 7870   6.717   5.070   2.618
 2324SOL    HW1 7871   6.679   4.988   2.574
 2324SOL    HW2 7872   6.759   5.129   2.549
 2325SOL     OW 7873   6.168   5.306   2.155
 2325SOL    HW1 7874   6.184   5.343   2.064
 2325SOL    HW2 7875   6.221   5.221   2.167
 2326SOL     OW 7876   1.824   0.178   6.872
 2326SOL    HW1 7877   1.779   0.263   6.844
 2326SOL    HW2 7878   1.768   0.100   6.845
 2327SOL     OW 7879   0.171   6.805   2.130
 2327SOL    HW1 7880   0.139   6.732   2.190
 2327SOL    HW2 7881   0.258   6.778   2.087
 2328SOL     OW 7882   2.114   3.740   2.563
 2328SOL    HW1 7883   2.160   3.827   2.544
 2328SOL    HW2 7884   2.064   3.710   2.482
 2329SOL     OW 7885   0.347   4.953   3.104
 2329SOL    HW1 7886   0.314   4.880   3.045
 2329SOL    HW2 7887   0.338   5.041   3.056
 2330SOL     OW 7888   6.374   3.211   1.011
 2330SOL    HW1 7889   6.382   3.310   1.009
 2330SOL    HW2 7890   6.341   3.178   0.922
 2331SOL     OW 7891   5.134   5.574   1.367
 2331SOL    HW1 7892   5.113   5.612   1.457
 2331SOL    HW2 7893   5.181   5.486   1.378
 2332SOL     OW 7894   6.046   6.778   5.878
 2332SOL    HW1 7895   6.014   6.870   5.899
 2332SOL    HW2 7896   6.142   6.781   5.850
 2333SOL     OW 7897   0.295   4.276   2.378
 2333SOL    HW1 7898   0.255   4.334   2.450
 2333SOL    HW2 7899   0.266   4.182   2.393
 2334SOL     OW 7900   2.561   1.931   6.610
 2334SOL    HW1 7901   2.591   1.961   6.701
 2334SOL    HW2 7902   2.596   1.993   6.541
 2335SOL     OW 7903   6.969   1.453   3.552
 2335SOL    HW1 7904   6.977   1.354   3.557
 2335SOL    HW2 7905   6.922   1.486   3.634
 2336SOL     OW 7906   1.443   1.709   3.530
 2336SOL    HW1 7907   1.354   1.745   3.501
 2336SOL    HW2 7908   1.472   1.753   3.614
 2337SOL     OW 7909   4.176   1.483   1.519
 2337SOL    HW1 7910   4.253   1.475   1.582
 2337SOL    HW2 7911   4.092   1.501   1.570
 2338SOL     OW 7912   0.172   4.123   3.794
 2338SOL    HW1 7913   0.151   4.124   3.697
 2338SOL    HW2 7914   0.116   4.053   3.840
 2339SOL     OW 7915   2.901   3.262   3.235
 2339SOL    HW1 7916   2.942   3.205   3.164
 2339SOL    HW2 7917   2.951   3.349   3.241
 2340SOL     OW 7918   2.426   4.471   6.884
 2340SOL    HW1 7919   2.357   4.470   6.957
 2340SOL    HW2 7920   2.517   4.474   6.925
 2341SOL     OW 7921   2.375   4.430   3.989
 2341SOL    HW1 7922   2.431   4.507   3.956
 2341SOL    HW2 7923   2.345   4.449   4.082
 2342SOL     OW 7924   3.379   0.874   3.847
 2342SOL    HW1 7925   3.307   0.860   3.914
 2342SOL    HW2 7926   3.448   0.936   3.884
 2343SOL     OW 7927   1.017   0.009   1.513
 2343SOL    HW1 7928   1.075   6.985   1.584
 2343SOL    HW2 7929   0.932   6.972   1.506
 2344SOL     OW 7930   5.488   3.864   0.373
 2344SOL    HW1 7931   5.505   3.953   0.416
 2344SOL    HW2 7932   5.444   3.877   0.285
 2345SOL     OW 7933   3.416   6.057   4.872
 2345SOL    HW1 7934   3.434   6.068   4.970
 2345SOL    HW2 7935   3.408   6.148   4.830
 2346SOL     OW 7936   4.438   3.485   6.897
 2346SOL    HW1 7937   4.476   3.410   6.843
 2346SOL    HW2 7938   4.481   3.571   6.869
 2347SOL     OW 7939   1.523   2.262   1.669
 2347SOL    HW1 7940   1.435   2.259   1.622
 2347SOL    HW2 7941   1.596   2.280   1.602
 2348SOL     OW 7942   0.214   5.124   2.228
 2348SOL    HW1 7943   0.166   5.158   2.309
 2348SOL    HW2 7944   0.235   5.027   2.240
 2349SOL     OW 7945   0.921   4.175   5.240
 2349SOL    HW1 7946   0.869   4.172   5.325
 2349SOL    HW2 7947   0.957   4.267   5.226
 2350SOL     OW 7948   5.718   3.169   0.027
 2350SOL    HW1 7949   5.703   3.161   6.944
 2350SOL    HW2 7950   5.659   3.239   0.064
 2351SOL     OW 7951   2.741   5.580   2.330
 2351SOL    HW1 7952   2.691   5.607   2.412
 2351SOL    HW2 7953   2.714   5.488   2.302
 2352SOL     OW 7954   0.113   2.455   3.225
 2352SOL    HW1 7955   0.199   2.464   3.174
 2352SOL    HW2 7956   0.081   2.545   3.253
 2353SOL     OW 7957   3.421   5.225   4.616
 2353SOL    HW1 7958   3.444   5.322   4.622
 2353SOL    HW2 7959   3.339   5.206   4.670
 2354SOL     OW 7960   2.372   2.551   3.797
 2354SOL    HW1 7961   2.276   2.530   3.812
 2354SOL    HW2 7962   2.427   2.469   3.815
 2355SOL     OW 7963   2.543   6.139   4.699
 2355SOL    HW1 7964   2.538   6.041   4.682
 2355SOL    HW2 7965   2.470   6.185   4.648
 2356SOL     OW 7966   6.418   3.089   6.643
 2356SOL    HW1 7967   6.371   3.021   6.700
 2356SOL    HW2 7968   6.517   3.076   6.650
 2357SOL     OW 7969   2.468   6.583   2.610
 2357SOL    HW1 7970   2.381   6.536   2.624
 2357SOL    HW2 7971   2.465   6.674   2.651
 2358SOL     OW 7972   3.410   4.356   5.694
 2358SOL    HW1 7973   3.321   4.320   5.668
 2358SOL    HW2 7974   3.425   4.340   5.792
 2359SOL     OW 7975   1.850   6.920   4.909
 2359SOL    HW1 7976   1.759   6.919   4.867
 2359SOL    HW2 7977   1.910   6.858   4.860
 2360SOL     OW 7978   6.571   3.989   0.149
 2360SOL    HW1 7979   6.585   3.901   0.194
 2360SOL    HW2 7980   6.540   3.973   0.055
 2361SOL     OW 7981   3.490   1.474   0.309
 2361SOL    HW1 7982   3.460   1.479   0.404
 2361SOL    HW2 7983   3.551   1.395   0.299
 2362SOL     OW 7984   3.116   6.038   3.301
 2362SOL    HW1 7985   3.121   6.138   3.308
 2362SOL    HW2 7986   3.023   6.008   3.324
 2363SOL     OW 7987   3.828   0.333   4.230
 2363SOL    HW1 7988   3.749   0.382   4.192
 2363SOL    HW2 7989   3.877   0.394   4.293
 2364SOL     OW 7990   1.163   2.429   0.801
 2364SOL    HW1 7991   1.254   2.397   0.826
 2364SOL    HW2 7992   1.170   2.494   0.725
 2365SOL     OW 7993   5.189   2.595   6.777
 2365SOL    HW1 7994   5.145   2.521   6.829
 2365SOL    HW2 7995   5.228   2.661   6.841
 2366SOL     OW 7996   4.397   5.429   0.479
 2366SOL    HW1 7997   4.400   5.527   0.461
 2366SOL    HW2 7998   4.341   5.412   0.560
 2367SOL     OW 7999   2.348   3.274   6.125
 2367SOL    HW1 8000   2.401   3.345   6.079
 2367SOL    HW2 8001   2.407   3.194   6.140
 2368SOL     OW 8002   6.106   5.777   2.532
 2368SOL    HW1 8003   6.195   5.746   2.500
 2368SOL    HW2 8004   6.091   5.745   2.625
 2369SOL     OW 8005   2.561   1.079   3.281
 2369SOL    HW1 8006   2.500   1.140   3.333
 2369SOL    HW2 8007   2.634   1.046   3.340
 2370SOL     OW 8008   6.530   2.447   6.300
 2370SOL    HW1 8009   6.551   2.468   6.396
 2370SOL    HW2 8010   6.431   2.438   6.289
 2371SOL     OW 8011   2.695   6.544   1.666
 2371SOL    HW1 8012   2.649   6.482   1.730
 2371SOL    HW2 8013   2.783   6.573   1.706
 2372SOL     OW 8014   6.458   2.728   2.858
 2372SOL    HW1 8015   6.493   2.664   2.790
 2372SOL    HW2 8016   6.387   2.785   2.817
 2373SOL     OW 8017   2.549   3.425   6.553
 2373SOL    HW1 8018   2.607   3.498   6.518
 2373SOL    HW2 8019   2.467   3.417   6.496
 2374SOL     OW 8020   5.788   3.037   5.059
 2374SOL    HW1 8021   5.823   3.012   4.969
 2374SOL    HW2 8022   5.791   3.137   5.069
 2375SOL     OW 8023   2.833   6.659   5.001
 2375SOL    HW1 8024   2.933   6.661   5.009
 2375SOL    HW2 8025   2.802   6.564   4.994
 2376SOL     OW 8026   6.301   2.773   4.410
 2376SOL    HW1 8027   6.225   2.834   4.431
 2376SOL    HW2 8028   6.342   2.740   4.495
 2377SOL     OW 8029   3.712   3.082   3.720
 2377SOL    HW1 8030   3.673   3.090   3.812
 2377SOL    HW2 8031   3.640   3.052   3.657
 2378SOL     OW 8032   5.437   2.705   0.349
 2378SOL    HW1 8033   5.355   2.651   0.366
 2378SOL    HW2 8034   5.513   2.645   0.322
 2379SOL     OW 8035   0.098   6.919   6.292
 2379SOL    HW1 8036   0.162   6.854   6.252
 2379SOL    HW2 8037   0.123   6.937   6.387
 2380SOL     OW 8038   6.342   2.179   2.574
 2380SOL    HW1 8039   6.331   2.140   2.483
 2380SOL    HW2 8040   6.282   2.132   2.638
 2381SOL     OW 8041   1.721   6.646   3.032
 2381SOL    HW1 8042   1.709   6.652   2.933
 2381SOL    HW2 8043   1.741   6.551   3.057
 2382SOL     OW 8044   1.625   3.574   5.748
 2382SOL    HW1 8045   1.556   3.612   5.687
 2382SOL    HW2 8046   1.583   3.558   5.838
 2383SOL     OW 8047   5.795   6.177   1.852
 2383SOL    HW1 8048   5.709   6.137   1.819
 2383SOL    HW2 8049   5.805   6.269   1.816
 2384SOL     OW 8050   4.215   1.748   1.840
 2384SOL    HW1 8051   4.267   1.667   1.812
 2384SOL    HW2 8052   4.269   1.800   1.906
 2385SOL     OW 8053   0.608   2.304   6.977
 2385SOL    HW1 8054   0.672   2.259   0.022
 2385SOL    HW2 8055   0.522   2.252   6.974
 2386SOL     OW 8056   4.237   5.477   3.772
 2386SOL    HW1 8057   4.205   5.553   3.716
 2386SOL    HW2 8058   4.216   5.391   3.725
 2387SOL     OW 8059   1.625   1.343   2.572
 2387SOL    HW1 8060   1.676   1.282   2.633
 2387SOL    HW2 8061   1.654   1.327   2.477
 2388SOL     OW 8062   6.888   1.612   4.287
 2388SOL    HW1 8063   6.861   1.699   4.328
 2388SOL    HW2 8064   6.842   1.537   4.336
 2389SOL     OW 8065   3.677   6.293   2.333
 2389SOL    HW1 8066   3.660   6.225   2.261
 2389SOL    HW2 8067   3.772   6.288   2.362
 2390SOL     OW 8068   3.000   4.205   1.472
 2390SOL    HW1 8069   3.087   4.180   1.429
 2390SOL    HW2 8070   3.018   4.264   1.551
 2391SOL     OW 8071   3.623   5.514   5.511
 2391SOL    HW1 8072   3.659   5.503   5.418
 2391SOL    HW2 8073   3.699   5.515   5.576
 2392SOL     OW 8074   4.026   1.093   6.277
 2392SOL    HW1 8075   4.057   1.145   6.197
 2392SOL    HW2 8076   4.104   1.074   6.336
 2393SOL     OW 8077   3.216   5.329   5.315
 2393SOL    HW1 8078   3.275   5.250   5.299
 2393SOL    HW2 8079   3.199   5.340   5.413
 2394SOL     OW 8080   7.002   4.670   5.784
 2394SOL    HW1 8081   0.032   4.590   5.822
 2394SOL    HW2 8082   0.047   4.748   5.784
 2395SOL     OW 8083   4.417   6.874   6.396
 2395SOL    HW1 8084   4.324   6.838   6.398
 2395SOL    HW2 8085   4.415   6.973   6.379
 2396SOL     OW 8086   3.408   5.159   0.752
 2396SOL    HW1 8087   3.363   5.102   0.683
 2396SOL    HW2 8088   3.507   5.159   0.735
 2397SOL     OW 8089   0.061   3.834   3.853
 2397SOL    HW1 8090   0.094   3.747   3.815
 2397SOL    HW2 8091   6.989   3.819   3.897
 2398SOL     OW 8092   4.839   4.252   5.478
 2398SOL    HW1 8093   4.905   4.201   5.423
 2398SOL    HW2 8094   4.747   4.215   5.463
 2399SOL     OW 8095   4.018   2.035   1.735
 2399SOL    HW1 8096   4.098   2.094   1.729
 2399SOL    HW2 8097   4.024   1.963   1.665
 2400SOL     OW 8098   1.910   5.494   0.786
 2400SOL    HW1 8099   1.934   5.398   0.795
 2400SOL    HW2 8100   1.923   5.540   0.874
 2401SOL     OW 8101   0.576   6.117   6.210
 2401SOL    HW1 8102   0.554   6.026   6.245
 2401SOL    HW2 8103   0.514   6.185   6.250
 2402SOL     OW 8104   6.625   6.430   3.838
 2402SOL    HW1 8105   6.558   6.380   3.783
 2402SOL    HW2 8106   6.582   6.513   3.874
 2403SOL     OW 8107   0.019   1.142   5.003
 2403SOL    HW1 8108   0.022   1.074   4.929
 2403SOL    HW2 8109   0.056   1.101   5.087
 2404SOL     OW 8110   1.539   0.809   0.067
 2404SOL    HW1 8111   1.591   0.836   7.002
 2404SOL    HW2 8112   1.551   0.711   0.083
 2405SOL     OW 8113   3.258   3.698   1.528
 2405SOL    HW1 8114   3.223   3.682   1.436
 2405SOL    HW2 8115   3.268   3.796   1.544
 2406SOL     OW 8116   4.494   0.902   1.323
 2406SOL    HW1 8117   4.451   0.931   1.238
 2406SOL    HW2 8118   4.502   0.802   1.323
 2407SOL     OW 8119   5.532   0.367   3.778
 2407SOL    HW1 8120   5.549   0.397   3.685
 2407SOL    HW2 8121   5.504   0.445   3.834
 2408SOL     OW 8122   4.467   4.473   2.216
 2408SOL    HW1 8123   4.369   4.482   2.233
 2408SOL    HW2 8124   4.483   4.391   2.160
 2409SOL     OW 8125   1.020   4.586   0.206
 2409SOL    HW1 8126   0.932   4.564   0.165
 2409SOL    HW2 8127   1.065   4.657   0.153
 2410SOL     OW 8128   2.850   3.397   2.682
 2410SOL    HW1 8129   2.945   3.387   2.653
 2410SOL    HW2 8130   2.790   3.355   2.613
 2411SOL     OW 8131   4.534   0.095   4.429
 2411SOL    HW1 8132   4.603   0.144   4.376
 2411SOL    HW2 8133   4.494   0.157   4.497
 2412SOL     OW 8134   4.067   3.616   0.989
 2412SOL    HW1 8135   4.117   3.689   0.944
 2412SOL    HW2 8136   4.116   3.588   1.072
 2413SOL     OW 8137   4.313   0.126   2.771
 2413SOL    HW1 8138   4.215   0.105   2.769
 2413SOL    HW2 8139   4.356   0.078   2.847
 2414SOL     OW 8140   5.625   3.064   4.260
 2414SOL    HW1 8141   5.623   2.987   4.323
 2414SOL    HW2 8142   5.539   3.069   4.210
 2415SOL     OW 8143   4.350   0.935   3.258
 2415SOL    HW1 8144   4.444   0.900   3.251
 2415SOL    HW2 8145   4.306   0.932   3.168
 2416SOL     OW 8146   5.536   1.925   6.594
 2416SOL    HW1 8147   5.583   1.839   6.574
 2416SOL    HW2 8148   5.457   1.906   6.652
 2417SOL     OW 8149   3.119   4.155   5.346
 2417SOL    HW1 8150   3.193   4.162   5.280
 2417SOL    HW2 8151   3.108   4.060   5.375
 2418SOL     OW 8152   3.249   3.141   2.835
 2418SOL    HW1 8153   3.293   3.221   2.875
 2418SOL    HW2 8154   3.172   3.112   2.892
 2419SOL     OW 8155   0.325   0.284   2.904
 2419SOL    HW1 8156   0.382   0.336   2.840
 2419SOL    HW2 8157   0.229   0.295   2.880
 2420SOL     OW 8158   2.174   6.985   2.031
 2420SOL    HW1 8159   2.161   6.953   1.937
 2420SOL    HW2 8160   2.146   0.064   2.039
 2421SOL     OW 8161   3.411   1.461   3.171
 2421SOL    HW1 8162   3.327   1.469   3.225
 2421SOL    HW2 8163   3.485   1.509   3.218
 2422SOL     OW 8164   4.944   1.883   0.718
 2422SOL    HW1 8165   4.997   1.798   0.720
 2422SOL    HW2 8166   4.942   1.919   0.625
 2423SOL     OW 8167   1.903   5.178   2.611
 2423SOL    HW1 8168   1.814   5.188   2.567
 2423SOL    HW2 8169   1.890   5.149   2.706
 2424SOL     OW 8170   6.799   0.393   0.324
 2424SOL    HW1 8171   6.804   0.481   0.277
 2424SOL    HW2 8172   6.878   0.383   0.384
 2425SOL     OW 8173   6.790   6.691   4.451
 2425SOL    HW1 8174   6.868   6.635   4.424
 2425SOL    HW2 8175   6.728   6.703   4.373
 2426SOL     OW 8176   2.475   4.821   4.201
 2426SOL    HW1 8177   2.468   4.904   4.146
 2426SOL    HW2 8178   2.400   4.819   4.267
 2427SOL     OW 8179   6.216   0.058   5.816
 2427SOL    HW1 8180   6.162   0.133   5.854
 2427SOL    HW2 8181   6.166   0.015   5.741
 2428SOL     OW 8182   5.696   0.977   0.785
 2428SOL    HW1 8183   5.644   1.054   0.823
 2428SOL    HW2 8184   5.766   1.012   0.722
 2429SOL     OW 8185   5.112   5.001   2.479
 2429SOL    HW1 8186   5.199   5.020   2.526
 2429SOL    HW2 8187   5.094   4.903   2.482
 2430SOL     OW 8188   5.178   6.931   2.880
 2430SOL    HW1 8189   5.230   6.873   2.817
 2430SOL    HW2 8190   5.187   0.010   2.853
 2431SOL     OW 8191   4.495   6.643   2.522
 2431SOL    HW1 8192   4.530   6.735   2.541
 2431SOL    HW2 8193   4.564   6.591   2.472
 2432SOL     OW 8194   2.521   5.997   2.493
 2432SOL    HW1 8195   2.483   6.002   2.401
 2432SOL    HW2 8196   2.483   6.070   2.549
 2433SOL     OW 8197   4.569   0.633   1.045
 2433SOL    HW1 8198   4.666   0.629   1.024
 2433SOL    HW2 8199   4.520   0.678   0.970
 2434SOL     OW 8200   3.699   2.882   4.403
 2434SOL    HW1 8201   3.680   2.802   4.461
 2434SOL    HW2 8202   3.623   2.947   4.409
 2435SOL     OW 8203   6.157   5.993   6.033
 2435SOL    HW1 8204   6.171   5.979   5.935
 2435SOL    HW2 8205   6.193   5.915   6.084
 2436SOL     OW 8206   2.653   4.845   0.680
 2436SOL    HW1 8207   2.655   4.901   0.597
 2436SOL    HW2 8208   2.744   4.839   0.719
 2437SOL     OW 8209   6.702   0.889   5.495
 2437SOL    HW1 8210   6.683   0.984   5.518
 2437SOL    HW2 8211   6.745   0.844   5.573
 2438SOL     OW 8212   3.118   3.500   0.929
 2438SOL    HW1 8213   3.156   3.422   0.979
 2438SOL    HW2 8214   3.019   3.502   0.942
 2439SOL     OW 8215   5.935   4.696   6.093
 2439SOL    HW1 8216   5.835   4.694   6.087
 2439SOL    HW2 8217   5.965   4.790   6.112
 2440SOL     OW 8218   5.829   4.685   5.528
 2440SOL    HW1 8219   5.870   4.766   5.569
 2440SOL    HW2 8220   5.841   4.607   5.590
 2441SOL     OW 8221   6.038   2.351   0.757
 2441SOL    HW1 8222   6.086   2.434   0.726
 2441SOL    HW2 8223   6.102   2.293   0.807
 2442SOL     OW 8224   6.832   2.104   5.120
 2442SOL    HW1 8225   6.780   2.180   5.081
 2442SOL    HW2 8226   6.924   2.136   5.143
 2443SOL     OW 8227   2.690   4.965   5.220
 2443SOL    HW1 8228   2.673   5.034   5.149
 2443SOL    HW2 8229   2.782   4.928   5.209
 2444SOL     OW 8230   3.722   2.697   5.755
 2444SOL    HW1 8231   3.797   2.675   5.818
 2444SOL    HW2 8232   3.637   2.655   5.788
 2445SOL     OW 8233   0.939   0.229   0.970
 2445SOL    HW1 8234   0.979   0.138   0.981
 2445SOL    HW2 8235   0.998   0.284   0.911
 2446SOL     OW 8236   4.987   3.169   6.102
 2446SOL    HW1 8237   5.036   3.147   6.186
 2446SOL    HW2 8238   5.051   3.208   6.036
 2447SOL     OW 8239   0.651   3.220   6.663
 2447SOL    HW1 8240   0.696   3.302   6.699
 2447SOL    HW2 8241   0.554   3.223   6.685
 2448SOL     OW 8242   0.399   6.888   4.688
 2448SOL    HW1 8243   0.458   6.925   4.616
 2448SOL    HW2 8244   0.442   6.807   4.728
 2449SOL     OW 8245   0.697   2.804   5.075
 2449SOL    HW1 8246   0.764   2.868   5.113
 2449SOL    HW2 8247   0.611   2.812   5.125
 2450SOL     OW 8248   2.490   3.271   1.438
 2450SOL    HW1 8249   2.523   3.260   1.532
 2450SOL    HW2 8250   2.391   3.283   1.439
 2451SOL     OW 8251   1.936   5.508   3.948
 2451SOL    HW1 8252   1.895   5.434   3.896
 2451SOL    HW2 8253   2.011   5.548   3.895
 2452SOL     OW 8254   2.169   2.306   4.787
 2452SOL    HW1 8255   2.105   2.232   4.806
 2452SOL    HW2 8256   2.261   2.279   4.814
 2453SOL     OW 8257   0.623   3.648   0.869
 2453SOL    HW1 8258   0.621   3.715   0.944
 2453SOL    HW2 8259   0.704   3.590   0.879
 2454SOL     OW 8260   1.448   0.323   1.917
 2454SOL    HW1 8261   1.354   0.356   1.902
 2454SOL    HW2 8262   1.478   0.348   2.009
 2455SOL     OW 8263   5.484   3.499   1.374
 2455SOL    HW1 8264   5.517   3.440   1.300
 2455SOL    HW2 8265   5.420   3.447   1.431
 2456SOL     OW 8266   2.651   6.786   1.165
 2456SOL    HW1 8267   2.679   6.717   1.099
 2456SOL    HW2 8268   2.605   6.742   1.242
 2457SOL     OW 8269   5.978   6.027   1.120
 2457SOL    HW1 8270   5.894   6.074   1.145
 2457SOL    HW2 8271   6.053   6.059   1.178
 2458SOL     OW 8272   0.798   6.277   1.511
 2458SOL    HW1 8273   0.828   6.187   1.478
 2458SOL    HW2 8274   0.818   6.285   1.608
 2459SOL     OW 8275   1.223   1.150   0.426
 2459SOL    HW1 8276   1.307   1.185   0.465
 2459SOL    HW2 8277   1.242   1.110   0.336
 2460SOL     OW 8278   2.535   4.754   1.501
 2460SOL    HW1 8279   2.594   4.679   1.475
 2460SOL    HW2 8280   2.569   4.796   1.586
 2461SOL     OW 8281   4.733   1.466   3.131
 2461SOL    HW1 8282   4.721   1.552   3.082
 2461SOL    HW2 8283   4.664   1.400   3.102
 2462SOL     OW 8284   2.877   3.921   6.124
 2462SOL    HW1 8285   2.880   3.904   6.025
 2462SOL    HW2 8286   2.836   4.011   6.140
 2463SOL     OW 8287   0.865   2.627   4.959
 2463SOL    HW1 8288   0.818   2.539   4.944
 2463SOL    HW2 8289   0.801   2.692   5.001
 2464SOL     OW 8290   0.783   3.139   0.585
 2464SOL    HW1 8291   0.771   3.206   0.659
 2464SOL    HW2 8292   0.776   3.047   0.623
 2465SOL     OW 8293   6.450   4.778   2.778
 2465SOL    HW1 8294   6.422   4.693   2.733
 2465SOL    HW2 8295   6.431   4.855   2.718
 2466SOL     OW 8296   3.263   1.476   1.742
 2466SOL    HW1 8297   3.280   1.573   1.757
 2466SOL    HW2 8298   3.227   1.462   1.650
 2467SOL     OW 8299   0.622   0.913   4.729
 2467SOL    HW1 8300   0.639   0.880   4.637
 2467SOL    HW2 8301   0.699   0.971   4.758
 2468SOL     OW 8302   6.454   4.656   0.026
 2468SOL    HW1 8303   6.537   4.706   0.000
 2468SOL    HW2 8304   6.394   4.717   0.077
 2469SOL     OW 8305   2.911   2.786   5.885
 2469SOL    HW1 8306   2.827   2.735   5.865
 2469SOL    HW2 8307   2.912   2.871   5.832
 2470SOL     OW 8308   5.488   2.915   1.340
 2470SOL    HW1 8309   5.502   2.841   1.405
 2470SOL    HW2 8310   5.409   2.895   1.282
 2471SOL     OW 8311   0.178   1.572   2.735
 2471SOL    HW1 8312   0.126   1.532   2.811
 2471SOL    HW2 8313   0.147   1.533   2.649
 2472SOL     OW 8314   6.231   0.837   3.711
 2472SOL    HW1 8315   6.151   0.778   3.725
 2472SOL    HW2 8316   6.298   0.789   3.655
 2473SOL     OW 8317   0.383   5.987   5.528
 2473SOL    HW1 8318   0.417   5.956   5.617
 2473SOL    HW2 8319   0.425   5.932   5.455
 2474SOL     OW 8320   6.405   6.629   4.530
 2474SOL    HW1 8321   6.315   6.664   4.556
 2474SOL    HW2 8322   6.474   6.700   4.548
 2475SOL     OW 8323   4.191   2.525   6.258
 2475SOL    HW1 8324   4.232   2.507   6.169
 2475SOL    HW2 8325   4.124   2.598   6.250
 2476SOL     OW 8326   0.504   1.305   3.212
 2476SOL    HW1 8327   0.430   1.261   3.161
 2476SOL    HW2 8328   0.570   1.235   3.240
 2477SOL     OW 8329   4.484   4.514   2.485
 2477SOL    HW1 8330   4.465   4.495   2.388
 2477SOL    HW2 8331   4.548   4.590   2.492
 2478SOL     OW 8332   6.838   0.391   2.214
 2478SOL    HW1 8333   6.807   0.341   2.134
 2478SOL    HW2 8334   6.917   0.346   2.254
 2479SOL     OW 8335   1.028   3.330   0.191
 2479SOL    HW1 8336   1.090   3.279   0.131
 2479SOL    HW2 8337   0.971   3.267   0.243
 2480SOL     OW 8338   6.520   5.302   1.755
 2480SOL    HW1 8339   6.601   5.244   1.745
 2480SOL    HW2 8340   6.480   5.319   1.665
 2481SOL     OW 8341   4.198   4.728   2.406
 2481SOL    HW1 8342   4.273   4.688   2.458
 2481SOL    HW2 8343   4.151   4.796   2.462
 2482SOL     OW 8344   4.314   2.235   4.829
 2482SOL    HW1 8345   4.339   2.138   4.840
 2482SOL    HW2 8346   4.219   2.248   4.854
 2483SOL     OW 8347   1.105   3.520   6.983
 2483SOL    HW1 8348   1.179   3.474   6.935
 2483SOL    HW2 8349   1.087   3.474   0.053
 2484SOL     OW 8350   3.767   4.321   5.836
 2484SOL    HW1 8351   3.860   4.334   5.800
 2484SOL    HW2 8352   3.750   4.224   5.850
 2485SOL     OW 8353   0.641   5.806   6.897
 2485SOL    HW1 8354   0.723   5.805   6.839
 2485SOL    HW2 8355   0.607   5.712   6.907
 2486SOL     OW 8356   0.831   5.441   3.491
 2486SOL    HW1 8357   0.860   5.345   3.480
 2486SOL    HW2 8358   0.811   5.480   3.402
 2487SOL     OW 8359   3.278   1.262   1.500
 2487SOL    HW1 8360   3.325   1.306   1.424
 2487SOL    HW2 8361   3.317   1.172   1.516
 2488SOL     OW 8362   3.169   5.789   6.467
 2488SOL    HW1 8363   3.213   5.723   6.528
 2488SOL    HW2 8364   3.074   5.803   6.497
 2489SOL     OW 8365   6.898   5.475   4.686
 2489SOL    HW1 8366   6.881   5.402   4.620
 2489SOL    HW2 8367   6.898   5.563   4.640
 2490SOL     OW 8368   5.743   3.248   1.501
 2490SOL    HW1 8369   5.778   3.342   1.507
 2490SOL    HW2 8370   5.649   3.250   1.467
 2491SOL     OW 8371   6.841   4.081   3.019
 2491SOL    HW1 8372   6.792   4.167   3.032
 2491SOL    HW2 8373   6.791   4.007   3.063
 2492SOL     OW 8374   4.340   1.308   6.790
 2492SOL    HW1 8375   4.302   1.224   6.829
 2492SOL    HW2 8376   4.280   1.385   6.811
 2493SOL     OW 8377   6.208   0.495   5.167
 2493SOL    HW1 8378   6.249   0.411   5.131
 2493SOL    HW2 8379   6.164   0.475   5.255
 2494SOL     OW 8380   4.958   5.075   0.774
 2494SOL    HW1 8381   4.970   4.984   0.814
 2494SOL    HW2 8382   4.871   5.077   0.724
 2495SOL     OW 8383   0.025   1.417   2.552
 2495SOL    HW1 8384   6.947   1.411   2.520
 2495SOL    HW2 8385   0.087   1.414   2.473
 2496SOL     OW 8386   2.100   4.866   0.654
 2496SOL    HW1 8387   2.162   4.941   0.680
 2496SOL    HW2 8388   2.013   4.878   0.701
 2497SOL     OW 8389   5.656   0.495   6.339
 2497SOL    HW1 8390   5.603   0.428   6.391
 2497SOL    HW2 8391   5.610   0.583   6.340
 2498SOL     OW 8392   0.764   3.223   4.694
 2498SOL    HW1 8393   0.674   3.220   4.736
 2498SOL    HW2 8394   0.755   3.247   4.597
 2499SOL     OW 8395   5.140   1.048   0.365
 2499SOL    HW1 8396   5.186   1.036   0.453
 2499SOL    HW2 8397   5.128   1.145   0.346
 2500SOL     OW 8398   4.890   3.683   6.111
 2500SOL    HW1 8399   4.814   3.647   6.057
 2500SOL    HW2 8400   4.860   3.763   6.162
 2501SOL     OW 8401   6.690   4.602   1.033
 2501SOL    HW1 8402   6.697   4.611   1.133
 2501SOL    HW2 8403   6.667   4.691   0.993
 2502SOL     OW 8404   0.925   0.244   3.592
 2502SOL    HW1 8405   0.867   0.242   3.674
 2502SOL    HW2 8406   0.870   0.220   3.512
 2503SOL     OW 8407   5.550   6.557   4.835
 2503SOL    HW1 8408   5.644   6.547   4.802
 2503SOL    HW2 8409   5.549   6.558   4.935
 2504SOL     OW 8410   2.426   4.516   3.179
 2504SOL    HW1 8411   2.340   4.468   3.197
 2504SOL    HW2 8412   2.415   4.573   3.098
 2505SOL     OW 8413   5.003   4.345   4.647
 2505SOL    HW1 8414   5.005   4.412   4.573
 2505SOL    HW2 8415   4.934   4.276   4.628
 2506SOL     OW 8416   0.695   0.658   0.398
 2506SOL    HW1 8417   0.701   0.565   0.432
 2506SOL    HW2 8418   0.639   0.714   0.459
 2507SOL     OW 8419   6.412   6.337   0.001
 2507SOL    HW1 8420   6.361   6.255   6.990
 2507SOL    HW2 8421   6.506   6.312   0.024
 2508SOL     OW 8422   1.485   2.267   2.067
 2508SOL    HW1 8423   1.533   2.180   2.068
 2508SOL    HW2 8424   1.443   2.284   2.156
 2509SOL     OW 8425   6.127   0.049   3.822
 2509SOL    HW1 8426   6.145   0.051   3.920
 2509SOL    HW2 8427   6.209   0.018   3.773
 2510SOL     OW 8428   4.252   5.892   2.323
 2510SOL    HW1 8429   4.174   5.833   2.298
 2510SOL    HW2 8430   4.333   5.863   2.272
 2511SOL     OW 8431   0.644   6.310   3.325
 2511SOL    HW1 8432   0.627   6.341   3.418
 2511SOL    HW2 8433   0.597   6.223   3.309
 2512SOL     OW 8434   5.685   3.458   4.269
 2512SOL    HW1 8435   5.695   3.391   4.196
 2512SOL    HW2 8436   5.671   3.549   4.229
 2513SOL     OW 8437   7.004   4.733   0.868
 2513SOL    HW1 8438   0.016   4.649   0.913
 2513SOL    HW2 8439   6.948   4.787   0.930
 2514SOL     OW 8440   6.634   1.969   3.733
 2514SOL    HW1 8441   6.541   1.933   3.736
 2514SOL    HW2 8442   6.653   2.018   3.818
 2515SOL     OW 8443   1.104   4.186   6.842
 2515SOL    HW1 8444   1.176   4.154   6.902
 2515SOL    HW2 8445   1.138   4.262   6.786
 2516SOL     OW 8446   4.860   6.759   3.947
 2516SOL    HW1 8447   4.927   6.806   4.004
 2516SOL    HW2 8448   4.829   6.676   3.993
 2517SOL     OW 8449   2.374   5.521   0.679
 2517SOL    HW1 8450   2.362   5.619   0.693
 2517SOL    HW2 8451   2.470   5.496   0.693
 2518SOL     OW 8452   2.329   2.283   0.282
 2518SOL    HW1 8453   2.392   2.320   0.214
 2518SOL    HW2 8454   2.235   2.305   0.256
 2519SOL     OW 8455   6.013   4.447   4.754
 2519SOL    HW1 8456   6.037   4.520   4.690
 2519SOL    HW2 8457   6.011   4.484   4.847
 2520SOL     OW 8458   3.941   5.396   0.706
 2520SOL    HW1 8459   3.887   5.336   0.647
 2520SOL    HW2 8460   3.971   5.345   0.786
 2521SOL     OW 8461   5.867   6.354   5.953
 2521SOL    HW1 8462   5.934   6.330   6.023
 2521SOL    HW2 8463   5.862   6.453   5.944
 2522SOL     OW 8464   2.128   4.568   5.281
 2522SOL    HW1 8465   2.088   4.628   5.212
 2522SOL    HW2 8466   2.226   4.557   5.264
 2523SOL     OW 8467   0.629   2.001   6.427
 2523SOL    HW1 8468   0.613   1.942   6.349
 2523SOL    HW2 8469   0.593   2.093   6.408
 2524SOL     OW 8470   1.684   6.812   4.448
 2524SOL    HW1 8471   1.638   6.890   4.492
 2524SOL    HW2 8472   1.663   6.812   4.350
 2525SOL     OW 8473   2.719   4.761   2.201
 2525SOL    HW1 8474   2.747   4.700   2.128
 2525SOL    HW2 8475   2.634   4.807   2.176
 2526SOL     OW 8476   1.487   2.708   4.432
 2526SOL    HW1 8477   1.581   2.673   4.434
 2526SOL    HW2 8478   1.429   2.645   4.380
 2527SOL     OW 8479   0.002   6.616   4.321
 2527SOL    HW1 8480   6.998   6.706   4.285
 2527SOL    HW2 8481   0.036   6.557   4.247
 2528SOL     OW 8482   5.430   5.207   1.172
 2528SOL    HW1 8483   5.447   5.305   1.181
 2528SOL    HW2 8484   5.355   5.192   1.107
 2529SOL     OW 8485   5.244   4.557   5.233
 2529SOL    HW1 8486   5.166   4.511   5.276
 2529SOL    HW2 8487   5.219   4.585   5.141
 2530SOL     OW 8488   1.137   6.390   3.015
 2530SOL    HW1 8489   1.226   6.345   3.004
 2530SOL    HW2 8490   1.108   6.384   3.111
 2531SOL     OW 8491   5.627   2.335   6.649
 2531SOL    HW1 8492   5.589   2.366   6.562
 2531SOL    HW2 8493   5.727   2.334   6.643
 2532SOL     OW 8494   0.749   5.530   5.870
 2532SOL    HW1 8495   0.775   5.622   5.842
 2532SOL    HW2 8496   0.750   5.469   5.790
 2533SOL     OW 8497   5.665   0.853   4.943
 2533SOL    HW1 8498   5.746   0.823   4.893
 2533SOL    HW2 8499   5.609   0.773   4.966
 2534SOL     OW 8500   6.710   1.042   3.620
 2534SOL    HW1 8501   6.775   1.118   3.621
 2534SOL    HW2 8502   6.623   1.073   3.660
 2535SOL     OW 8503   2.831   0.970   2.133
 2535SOL    HW1 8504   2.891   1.038   2.092
 2535SOL    HW2 8505   2.879   0.925   2.209
 2536SOL     OW 8506   0.617   0.336   3.622
 2536SOL    HW1 8507   0.590   0.242   3.598
 2536SOL    HW2 8508   0.674   0.335   3.704
 2537SOL     OW 8509   2.460   6.180   2.215
 2537SOL    HW1 8510   2.508   6.240   2.280
 2537SOL    HW2 8511   2.429   6.235   2.137
 2538SOL     OW 8512   0.151   5.321   5.290
 2538SOL    HW1 8513   0.086   5.382   5.336
 2538SOL    HW2 8514   0.214   5.376   5.234
 2539SOL     OW 8515   1.779   0.359   5.571
 2539SOL    HW1 8516   1.773   0.298   5.492
 2539SOL    HW2 8517   1.736   0.316   5.650
 2540SOL     OW 8518   4.918   2.378   2.430
 2540SOL    HW1 8519   4.844   2.378   2.362
 2540SOL    HW2 8520   4.940   2.283   2.455
 2541SOL     OW 8521   1.381   1.475   7.008
 2541SOL    HW1 8522   1.424   1.548   6.955
 2541SOL    HW2 8523   1.282   1.479   6.995
 2542SOL     OW 8524   4.172   1.916   3.081
 2542SOL    HW1 8525   4.237   1.961   3.020
 2542SOL    HW2 8526   4.140   1.981   3.150
 2543SOL     OW 8527   5.877   6.786   5.541
 2543SOL    HW1 8528   5.791   6.745   5.572
 2543SOL    HW2 8529   5.858   6.851   5.467
 2544SOL     OW 8530   0.196   0.005   0.791
 2544SOL    HW1 8531   0.271   6.979   0.740
 2544SOL    HW2 8532   0.194   6.985   0.884
 2545SOL     OW 8533   6.555   1.569   0.165
 2545SOL    HW1 8534   6.576   1.475   0.191
 2545SOL    HW2 8535   6.470   1.598   0.210
 2546SOL     OW 8536   6.243   3.410   2.327
 2546SOL    HW1 8537   6.320   3.425   2.389
 2546SOL    HW2 8538   6.200   3.497   2.304
 2547SOL     OW 8539   5.567   3.400   1.102
 2547SOL    HW1 8540   5.632   3.458   1.052
 2547SOL    HW2 8541   5.475   3.436   1.090
 2548SOL     OW 8542   6.804   0.311   5.370
 2548SOL    HW1 8543   6.723   0.353   5.411
 2548SOL    HW2 8544   6.822   0.223   5.414
 2549SOL     OW 8545   2.920   5.250   0.177
 2549SOL    HW1 8546   2.928   5.212   0.085
 2549SOL    HW2 8547   2.823   5.258   0.202
 2550SOL     OW 8548   3.948   0.522   1.063
 2550SOL    HW1 8549   3.859   0.486   1.093
 2550SOL    HW2 8550   4.015   0.508   1.136
 2551SOL     OW 8551   3.462   4.475   1.288
 2551SOL    HW1 8552   3.490   4.471   1.192
 2551SOL    HW2 8553   3.513   4.546   1.335
 2552SOL     OW 8554   2.710   5.059   1.648
 2552SOL    HW1 8555   2.704   5.078   1.745
 2552SOL    HW2 8556   2.618   5.053   1.609
 2553SOL     OW 8557   4.479   1.781   0.173
 2553SOL    HW1 8558   4.538   1.718   0.123
 2553SOL    HW2 8559   4.397   1.733   0.203
 2554SOL     OW 8560   0.890   5.818   0.738
 2554SOL    HW1 8561   0.910   5.726   0.705
 2554SOL    HW2 8562   0.944   5.884   0.686
 2555SOL     OW 8563   0.987   6.334   5.652
 2555SOL    HW1 8564   0.931   6.252   5.635
 2555SOL    HW2 8565   1.051   6.346   5.576
 2556SOL     OW 8566   5.507   0.468   0.743
 2556SOL    HW1 8567   5.505   0.568   0.749
 2556SOL    HW2 8568   5.494   0.429   0.834
 2557SOL     OW 8569   2.600   1.371   0.393
 2557SOL    HW1 8570   2.684   1.358   0.340
 2557SOL    HW2 8571   2.530   1.412   0.334
 2558SOL     OW 8572   5.512   2.370   1.164
 2558SOL    HW1 8573   5.579   2.306   1.201
 2558SOL    HW2 8574   5.547   2.410   1.079
 2559SOL     OW 8575   6.135   5.059   3.650
 2559SOL    HW1 8576   6.184   5.000   3.714
 2559SOL    HW2 8577   6.134   5.152   3.686
 2560SOL     OW 8578   4.168   2.412   1.712
 2560SOL    HW1 8579   4.184   2.493   1.769
 2560SOL    HW2 8580   4.071   2.407   1.688
 2561SOL     OW 8581   3.185   0.131   4.240
 2561SOL    HW1 8582   3.139   0.056   4.287
 2561SOL    HW2 8583   3.268   0.096   4.196
 2562SOL     OW 8584   1.422   6.572   4.904
 2562SOL    HW1 8585   1.386   6.603   4.816
 2562SOL    HW2 8586   1.522   6.566   4.899
 2563SOL     OW 8587   4.038   2.815   6.151
 2563SOL    HW1 8588   4.136   2.792   6.149
 2563SOL    HW2 8589   4.028   2.914   6.163
 2564SOL     OW 8590   1.803   1.241   1.226
 2564SOL    HW1 8591   1.819   1.168   1.293
 2564SOL    HW2 8592   1.803   1.202   1.134
 2565SOL     OW 8593   0.089   0.660   1.251
 2565SOL    HW1 8594   7.006   0.658   1.249
 2565SOL    HW2 8595   0.122   0.752   1.231
 2566SOL     OW 8596   2.792   1.508   0.608
 2566SOL    HW1 8597   2.732   1.434   0.637
 2566SOL    HW2 8598   2.825   1.558   0.689
 2567SOL     OW 8599   2.094   0.994   6.189
 2567SOL    HW1 8600   2.007   1.028   6.223
 2567SOL    HW2 8601   2.109   1.028   6.096
 2568SOL     OW 8602   2.613   6.337   0.759
 2568SOL    HW1 8603   2.700   6.312   0.801
 2568SOL    HW2 8604   2.600   6.286   0.674
 2569SOL     OW 8605   2.507   6.275   6.588
 2569SOL    HW1 8606   2.408   6.288   6.593
 2569SOL    HW2 8607   2.550   6.359   6.553
 2570SOL     OW 8608   0.133   0.007   3.392
 2570SOL    HW1 8609   0.076   7.000   3.472
 2570SOL    HW2 8610   0.175   0.096   3.407
 2571SOL     OW 8611   3.660   3.221   3.016
 2571SOL    HW1 8612   3.646   3.314   3.050
 2571SOL    HW2 8613   3.649   3.220   2.917
 2572SOL     OW 8614   2.607   5.723   2.542
 2572SOL    HW1 8615   2.573   5.817   2.534
 2572SOL    HW2 8616   2.530   5.659   2.537
 2573SOL     OW 8617   6.818   0.709   3.059
 2573SOL    HW1 8618   6.865   0.712   2.970
 2573SOL    HW2 8619   6.757   0.789   3.067
 2574SOL     OW 8620   0.087   4.206   1.939
 2574SOL    HW1 8621   0.071   4.266   1.861
 2574SOL    HW2 8622   0.178   4.164   1.931
 2575SOL     OW 8623   4.735   3.670   5.383
 2575SOL    HW1 8624   4.663   3.701   5.445
 2575SOL    HW2 8625   4.694   3.627   5.302
 2576SOL     OW 8626   0.477   0.192   2.567
 2576SOL    HW1 8627   0.422   0.197   2.483
 2576SOL    HW2 8628   0.477   0.282   2.612
 2577SOL     OW 8629   1.695   4.391   0.678
 2577SOL    HW1 8630   1.785   4.426   0.705
 2577SOL    HW2 8631   1.626   4.425   0.742
 2578SOL     OW 8632   4.543   2.375   4.667
 2578SOL    HW1 8633   4.469   2.367   4.734
 2578SOL    HW2 8634   4.622   2.322   4.698
 2579SOL     OW 8635   0.235   1.094   6.922
 2579SOL    HW1 8636   0.309   1.033   6.951
 2579SOL    HW2 8637   0.269   1.156   6.851
 2580SOL     OW 8638   1.978   2.031   5.837
 2580SOL    HW1 8639   2.057   2.002   5.890
 2580SOL    HW2 8640   1.903   2.055   5.899
 2581SOL     OW 8641   5.411   6.849   4.046
 2581SOL    HW1 8642   5.501   6.822   4.082
 2581SOL    HW2 8643   5.358   6.767   4.025
 2582SOL     OW 8644   6.384   3.952   3.191
 2582SOL    HW1 8645   6.358   4.048   3.178
 2582SOL    HW2 8646   6.330   3.894   3.130
 2583SOL     OW 8647   3.097   1.051   0.431
 2583SOL    HW1 8648   3.013   1.032   0.481
 2583SOL    HW2 8649   3.075   1.074   0.336
 2584SOL     OW 8650   4.079   0.824   3.116
 2584SOL    HW1 8651   4.087   0.724   3.112
 2584SOL    HW2 8652   3.987   0.849   3.144
 2585SOL     OW 8653   3.930   0.555   2.235
 2585SOL    HW1 8654   4.029   0.559   2.228
 2585SOL    HW2 8655   3.902   0.463   2.261
 2586SOL     OW 8656   0.801   1.461   4.210
 2586SOL    HW1 8657   0.862   1.527   4.167
 2586SOL    HW2 8658   0.815   1.462   4.309
 2587SOL     OW 8659   6.242   4.927   2.924
 2587SOL    HW1 8660   6.222   4.928   3.022
 2587SOL    HW2 8661   6.317   4.865   2.906
 2588SOL     OW 8662   3.617   6.567   2.771
 2588SOL    HW1 8663   3.599   6.662   2.794
 2588SOL    HW2 8664   3.710   6.543   2.800
 2589SOL     OW 8665   4.602   6.527   2.044
 2589SOL    HW1 8666   4.659   6.537   2.126
 2589SOL    HW2 8667   4.637   6.452   1.988
 2590SOL     OW 8668   4.264   5.785   3.868
 2590SOL    HW1 8669   4.350   5.791   3.818
 2590SOL    HW2 8670   4.282   5.759   3.963
 2591SOL     OW 8671   6.041   0.584   0.922
 2591SOL    HW1 8672   6.127   0.618   0.958
 2591SOL    HW2 8673   6.045   0.484   0.915
 2592SOL     OW 8674   2.679   4.726   1.752
 2592SOL    HW1 8675   2.756   4.775   1.713
 2592SOL    HW2 8676   2.707   4.679   1.835
 2593SOL     OW 8677   2.917   0.260   3.375
 2593SOL    HW1 8678   2.971   0.344   3.368
 2593SOL    HW2 8679   2.827   0.282   3.412
 2594SOL     OW 8680   2.309   5.991   6.831
 2594SOL    HW1 8681   2.302   6.090   6.842
 2594SOL    HW2 8682   2.310   5.968   6.734
 2595SOL     OW 8683   6.452   3.027   4.372
 2595SOL    HW1 8684   6.403   2.946   4.404
 2595SOL    HW2 8685   6.453   3.028   4.272
 2596SOL     OW 8686   4.312   1.813   1.173
 2596SOL    HW1 8687   4.401   1.780   1.141
 2596SOL    HW2 8688   4.312   1.814   1.273
 2597SOL     OW 8689   2.690   2.075   6.398
 2597SOL    HW1 8690   2.777   2.052   6.353
 2597SOL    HW2 8691   2.614   2.046   6.341
 2598SOL     OW 8692   6.851   1.092   3.188
 2598SOL    HW1 8693   6.754   1.075   3.206
 2598SOL    HW2 8694   6.881   1.035   3.112
 2599SOL     OW 8695   4.847   5.746   6.465
 2599SOL    HW1 8696   4.790   5.809   6.518
 2599SOL    HW2 8697   4.924   5.796   6.425
 2600SOL     OW 8698   0.454   2.479   4.565
 2600SOL    HW1 8699   0.543   2.516   4.590
 2600SOL    HW2 8700   0.383   2.524   4.619
 2601SOL     OW 8701   3.986   4.435   5.284
 2601SOL    HW1 8702   4.065   4.496   5.291
 2601SOL    HW2 8703   3.906   4.487   5.254
 2602SOL     OW 8704   5.735   6.874   6.350
 2602SOL    HW1 8705   5.817   6.835   6.308
 2602SOL    HW2 8706   5.654   6.838   6.304
 2603SOL     OW 8707   1.648   1.735   0.096
 2603SOL    HW1 8708   1.737   1.692   0.079
 2603SOL    HW2 8709   1.602   1.749   0.009
 2604SOL     OW 8710   5.155   1.682   0.496
 2604SOL    HW1 8711   5.103   1.651   0.575
 2604SOL    HW2 8712   5.095   1.688   0.417
 2605SOL     OW 8713   5.675   3.352   4.645
 2605SOL    HW1 8714   5.672   3.253   4.631
 2605SOL    HW2 8715   5.735   3.373   4.722
 2606SOL     OW 8716   6.756   4.755   1.598
 2606SOL    HW1 8717   6.715   4.841   1.570
 2606SOL    HW2 8718   6.844   4.744   1.553
 2607SOL     OW 8719   0.925   1.049   3.830
 2607SOL    HW1 8720   0.916   1.115   3.904
 2607SOL    HW2 8721   0.995   1.079   3.766
 2608SOL     OW 8722   4.763   0.675   0.201
 2608SOL    HW1 8723   4.863   0.667   0.203
 2608SOL    HW2 8724   4.734   0.697   0.108
 2609SOL     OW 8725   0.806   3.647   3.152
 2609SOL    HW1 8726   0.813   3.553   3.119
 2609SOL    HW2 8727   0.802   3.647   3.252
 2610SOL     OW 8728   4.930   5.551   4.851
 2610SOL    HW1 8729   4.975   5.516   4.933
 2610SOL    HW2 8730   4.877   5.633   4.874
 2611SOL     OW 8731   2.584   5.756   2.179
 2611SOL    HW1 8732   2.608   5.688   2.109
 2611SOL    HW2 8733   2.650   5.751   2.254
 2612SOL     OW 8734   0.808   0.091   5.285
 2612SOL    HW1 8735   0.829   0.138   5.200
 2612SOL    HW2 8736   0.831   7.011   5.277
 2613SOL     OW 8737   3.892   1.280   0.159
 2613SOL    HW1 8738   3.909   1.183   0.172
 2613SOL    HW2 8739   3.873   1.297   0.062
 2614SOL     OW 8740   6.341   6.121   6.805
 2614SOL    HW1 8741   6.398   6.042   6.782
 2614SOL    HW2 8742   6.263   6.090   6.859
 2615SOL     OW 8743   6.478   3.888   1.468
 2615SOL    HW1 8744   6.431   3.800   1.474
 2615SOL    HW2 8745   6.572   3.874   1.436
 2616SOL     OW 8746   4.132   3.900   1.947
 2616SOL    HW1 8747   4.090   3.882   2.036
 2616SOL    HW2 8748   4.122   3.997   1.925
 2617SOL     OW 8749   2.367   6.342   1.138
 2617SOL    HW1 8750   2.363   6.252   1.096
 2617SOL    HW2 8751   2.330   6.410   1.075
 2618SOL     OW 8752   0.655   6.108   0.289
 2618SOL    HW1 8753   0.667   6.149   0.198
 2618SOL    HW2 8754   0.649   6.008   0.280
 2619SOL     OW 8755   6.302   1.420   1.973
 2619SOL    HW1 8756   6.238   1.481   2.021
 2619SOL    HW2 8757   6.378   1.397   2.034
 2620SOL     OW 8758   1.540   5.874   4.071
 2620SOL    HW1 8759   1.487   5.842   4.149
 2620SOL    HW2 8760   1.608   5.805   4.046
 2621SOL     OW 8761   0.771   6.132   4.556
 2621SOL    HW1 8762   0.798   6.040   4.526
 2621SOL    HW2 8763   0.852   6.190   4.563
 2622SOL     OW 8764   2.420   2.416   4.675
 2622SOL    HW1 8765   2.430   2.325   4.715
 2622SOL    HW2 8766   2.476   2.422   4.592
 2623SOL     OW 8767   3.259   0.734   6.326
 2623SOL    HW1 8768   3.188   0.805   6.328
 2623SOL    HW2 8769   3.232   0.662   6.262
 2624SOL     OW 8770   5.322   2.085   4.240
 2624SOL    HW1 8771   5.286   2.043   4.323
 2624SOL    HW2 8772   5.253   2.080   4.168
 2625SOL     OW 8773   2.717   6.755   6.227
 2625SOL    HW1 8774   2.702   6.806   6.311
 2625SOL    HW2 8775   2.647   6.684   6.219
 2626SOL     OW 8776   2.271   6.642   3.200
 2626SOL    HW1 8777   2.299   6.551   3.232
 2626SOL    HW2 8778   2.174   6.640   3.176
 2627SOL     OW 8779   0.919   6.937   4.526
 2627SOL    HW1 8780   0.925   6.854   4.470
 2627SOL    HW2 8781   1.004   6.989   4.518
 2628SOL     OW 8782   4.683   5.793   0.236
 2628SOL    HW1 8783   4.668   5.813   0.139
 2628SOL    HW2 8784   4.779   5.812   0.260
 2629SOL     OW 8785   2.873   3.721   1.859
 2629SOL    HW1 8786   2.877   3.719   1.959
 2629SOL    HW2 8787   2.917   3.639   1.822
 2630SOL     OW 8788   3.447   1.841   2.455
 2630SOL    HW1 8789   3.515   1.767   2.455
 2630SOL    HW2 8790   3.447   1.887   2.366
 2631SOL     OW 8791   3.531   6.255   4.202
 2631SOL    HW1 8792   3.499   6.331   4.259
 2631SOL    HW2 8793   3.603   6.287   4.141
 2632SOL     OW 8794   4.721   1.325   1.568
 2632SOL    HW1 8795   4.796   1.261   1.585
 2632SOL    HW2 8796   4.645   1.277   1.524
 2633SOL     OW 8797   7.006   2.296   6.911
 2633SOL    HW1 8798   0.025   2.276   6.819
 2633SOL    HW2 8799   0.065   2.319   6.972
 2634SOL     OW 8800   2.929   4.907   0.392
 2634SOL    HW1 8801   2.941   4.809   0.375
 2634SOL    HW2 8802   2.964   4.929   0.483
 2635SOL     OW 8803   5.781   4.794   3.566
 2635SOL    HW1 8804   5.855   4.729   3.545
 2635SOL    HW2 8805   5.807   4.885   3.534
 2636SOL     OW 8806   5.480   5.750   5.407
 2636SOL    HW1 8807   5.541   5.745   5.486
 2636SOL    HW2 8808   5.393   5.707   5.430
 2637SOL     OW 8809   4.915   5.791   3.018
 2637SOL    HW1 8810   4.908   5.891   3.023
 2637SOL    HW2 8811   4.993   5.766   2.960
 2638SOL     OW 8812   5.074   5.320   1.135
 2638SOL    HW1 8813   4.987   5.333   1.181
 2638SOL    HW2 8814   5.059   5.318   1.036
 2639SOL     OW 8815   6.961   6.934   6.792
 2639SOL    HW1 8816   6.880   6.891   6.751
 2639SOL    HW2 8817   6.936   6.976   6.879
 2640SOL     OW 8818   6.702   6.313   6.626
 2640SOL    HW1 8819   6.675   6.331   6.532
 2640SOL    HW2 8820   6.713   6.400   6.674
 2641SOL     OW 8821   6.998   5.728   0.676
 2641SOL    HW1 8822   0.037   5.729   0.760
 2641SOL    HW2 8823   6.954   5.816   0.664
 2642SOL     OW 8824   6.286   0.227   4.009
 2642SOL    HW1 8825   6.363   0.273   4.054
 2642SOL    HW2 8826   6.299   0.230   3.910
 2643SOL     OW 8827   2.017   0.222   2.287
 2643SOL    HW1 8828   1.963   0.214   2.372
 2643SOL    HW2 8829   2.114   0.222   2.309
 2644SOL     OW 8830   6.409   6.068   4.851
 2644SOL    HW1 8831   6.318   6.097   4.819
 2644SOL    HW2 8832   6.460   6.028   4.775
 2645SOL     OW 8833   5.649   6.229   6.538
 2645SOL    HW1 8834   5.745   6.247   6.559
 2645SOL    HW2 8835   5.599   6.214   6.623
 2646SOL     OW 8836   5.843   5.993   6.170
 2646SOL    HW1 8837   5.913   6.063   6.160
 2646SOL    HW2 8838   5.869   5.911   6.120
 2647SOL     OW 8839   3.177   3.786   0.388
 2647SOL    HW1 8840   3.097   3.728   0.372
 2647SOL    HW2 8841   3.253   3.730   0.420
 2648SOL     OW 8842   4.308   1.210   3.333
 2648SOL    HW1 8843   4.367   1.137   3.299
 2648SOL    HW2 8844   4.308   1.210   3.433
 2649SOL     OW 8845   2.909   4.060   5.171
 2649SOL    HW1 8846   2.988   4.004   5.198
 2649SOL    HW2 8847   2.940   4.141   5.122
 2650SOL     OW 8848   0.674   6.736   2.217
 2650SOL    HW1 8849   0.700   6.804   2.285
 2650SOL    HW2 8850   0.633   6.657   2.263
 2651SOL     OW 8851   0.839   0.276   3.148
 2651SOL    HW1 8852   0.914   0.229   3.102
 2651SOL    HW2 8853   0.763   0.288   3.084
 2652SOL     OW 8854   3.213   3.591   2.515
 2652SOL    HW1 8855   3.140   3.657   2.534
 2652SOL    HW2 8856   3.301   3.639   2.514
 2653SOL     OW 8857   6.875   6.189   0.828
 2653SOL    HW1 8858   6.820   6.175   0.746
 2653SOL    HW2 8859   6.838   6.266   0.881
 2654SOL     OW 8860   6.663   2.038   5.591
 2654SOL    HW1 8861   6.590   2.080   5.644
 2654SOL    HW2 8862   6.707   1.966   5.645
 2655SOL     OW 8863   5.511   5.582   4.317
 2655SOL    HW1 8864   5.511   5.562   4.415
 2655SOL    HW2 8865   5.558   5.668   4.300
 2656SOL     OW 8866   6.027   3.307   5.039
 2656SOL    HW1 8867   6.081   3.225   5.062
 2656SOL    HW2 8868   5.936   3.299   5.079
 2657SOL     OW 8869   3.994   2.537   5.603
 2657SOL    HW1 8870   4.039   2.602   5.665
 2657SOL    HW2 8871   3.993   2.574   5.510
 2658SOL     OW 8872   6.757   4.195   4.935
 2658SOL    HW1 8873   6.809   4.118   4.898
 2658SOL    HW2 8874   6.679   4.215   4.876
 2659SOL     OW 8875   6.536   1.573   3.584
 2659SOL    HW1 8876   6.489   1.508   3.644
 2659SOL    HW2 8877   6.538   1.536   3.491
 2660SOL     OW 8878   0.950   2.121   3.598
 2660SOL    HW1 8879   0.860   2.141   3.559
 2660SOL    HW2 8880   1.008   2.079   3.527
 2661SOL     OW 8881   3.762   6.900   3.366
 2661SOL    HW1 8882   3.787   6.807   3.338
 2661SOL    HW2 8883   3.811   6.966   3.309
 2662SOL     OW 8884   3.758   0.815   3.757
 2662SOL    HW1 8885   3.667   0.855   3.740
 2662SOL    HW2 8886   3.766   0.790   3.853
 2663SOL     OW 8887   0.947   4.319   2.706
 2663SOL    HW1 8888   0.997   4.265   2.774
 2663SOL    HW2 8889   0.858   4.277   2.689
 2664SOL     OW 8890   4.568   4.223   1.642
 2664SOL    HW1 8891   4.517   4.239   1.727
 2664SOL    HW2 8892   4.572   4.307   1.589
 2665SOL     OW 8893   4.545   0.334   4.952
 2665SOL    HW1 8894   4.567   0.380   5.039
 2665SOL    HW2 8895   4.446   0.321   4.946
 2666SOL     OW 8896   5.079   5.631   1.637
 2666SOL    HW1 8897   5.115   5.579   1.715
 2666SOL    HW2 8898   5.050   5.721   1.667
 2667SOL     OW 8899   1.618   5.114   3.012
 2667SOL    HW1 8900   1.635   5.045   3.082
 2667SOL    HW2 8901   1.563   5.075   2.939
 2668SOL     OW 8902   0.201   2.356   5.093
 2668SOL    HW1 8903   0.264   2.363   5.170
 2668SOL    HW2 8904   0.121   2.414   5.109
 2669SOL     OW 8905   4.182   5.932   4.978
 2669SOL    HW1 8906   4.167   5.872   4.899
 2669SOL    HW2 8907   4.155   6.025   4.954
 2670SOL     OW 8908   2.454   6.501   4.158
 2670SOL    HW1 8909   2.426   6.524   4.065
 2670SOL    HW2 8910   2.553   6.487   4.161
 2671SOL     OW 8911   3.077   3.791   6.801
 2671SOL    HW1 8912   3.166   3.751   6.780
 2671SOL    HW2 8913   3.036   3.742   6.877
 2672SOL     OW 8914   0.794   4.340   0.380
 2672SOL    HW1 8915   0.769   4.436   0.375
 2672SOL    HW2 8916   0.740   4.295   0.450
 2673SOL     OW 8917   3.659   2.064   2.810
 2673SOL    HW1 8918   3.636   2.063   2.712
 2673SOL    HW2 8919   3.586   2.109   2.861
 2674SOL     OW 8920   5.325   5.509   5.365
 2674SOL    HW1 8921   5.349   5.482   5.272
 2674SOL    HW2 8922   5.392   5.472   5.429
 2675SOL     OW 8923   0.210   4.865   5.800
 2675SOL    HW1 8924   0.258   4.789   5.844
 2675SOL    HW2 8925   0.269   4.906   5.731
 2676SOL     OW 8926   4.441   0.697   1.830
 2676SOL    HW1 8927   4.392   0.702   1.917
 2676SOL    HW2 8928   4.489   0.783   1.814
 2677SOL     OW 8929   2.360   4.458   2.176
 2677SOL    HW1 8930   2.270   4.420   2.156
 2677SOL    HW2 8931   2.412   4.468   2.092
 2678SOL     OW 8932   0.606   6.389   6.498
 2678SOL    HW1 8933   0.535   6.375   6.429
 2678SOL    HW2 8934   0.617   6.305   6.551
 2679SOL     OW 8935   2.503   5.052   1.948
 2679SOL    HW1 8936   2.454   5.139   1.949
 2679SOL    HW2 8937   2.600   5.069   1.930
 2680SOL     OW 8938   0.472   2.373   1.004
 2680SOL    HW1 8939   0.549   2.334   1.055
 2680SOL    HW2 8940   0.386   2.343   1.045
 2681SOL     OW 8941   2.145   2.117   1.658
 2681SOL    HW1 8942   2.117   2.029   1.621
 2681SOL    HW2 8943   2.148   2.113   1.757
 2682SOL     OW 8944   0.267   2.452   3.737
 2682SOL    HW1 8945   0.186   2.407   3.775
 2682SOL    HW2 8946   0.262   2.551   3.754
 2683SOL     OW 8947   1.336   0.093   0.328
 2683SOL    HW1 8948   1.318   0.012   0.383
 2683SOL    HW2 8949   1.430   0.125   0.345
 2684SOL     OW 8950   2.310   5.653   2.938
 2684SOL    HW1 8951   2.239   5.652   2.867
 2684SOL    HW2 8952   2.372   5.576   2.925
 2685SOL     OW 8953   5.535   5.493   5.969
 2685SOL    HW1 8954   5.611   5.454   5.918
 2685SOL    HW2 8955   5.466   5.423   5.985
 2686SOL     OW 8956   0.840   3.328   4.957
 2686SOL    HW1 8957   0.857   3.328   4.859
 2686SOL    HW2 8958   0.880   3.411   4.998
 2687SOL     OW 8959   4.400   5.271   3.250
 2687SOL    HW1 8960   4.444   5.360   3.238
 2687SOL    HW2 8961   4.467   5.204   3.281
 2688SOL     OW 8962   3.350   4.422   5.359
 2688SOL    HW1 8963   3.336   4.401   5.456
 2688SOL    HW2 8964   3.406   4.351   5.317
 2689SOL     OW 8965   6.041   2.113   4.257
 2689SOL    HW1 8966   6.139   2.118   4.279
 2689SOL    HW2 8967   5.988   2.134   4.339
 2690SOL     OW 8968   3.227   4.087   3.573
 2690SOL    HW1 8969   3.316   4.093   3.528
 2690SOL    HW2 8970   3.160   4.048   3.510
 2691SOL     OW 8971   1.423   6.060   1.715
 2691SOL    HW1 8972   1.375   6.105   1.790
 2691SOL    HW2 8973   1.392   5.965   1.708
 2692SOL     OW 8974   0.324   4.294   3.320
 2692SOL    HW1 8975   0.416   4.330   3.339
 2692SOL    HW2 8976   0.260   4.370   3.308
 2693SOL     OW 8977   1.840   3.247   2.616
 2693SOL    HW1 8978   1.927   3.204   2.592
 2693SOL    HW2 8979   1.771   3.224   2.547
 2694SOL     OW 8980   2.099   1.857   2.916
 2694SOL    HW1 8981   2.002   1.841   2.938
 2694SOL    HW2 8982   2.112   1.853   2.817
 2695SOL     OW 8983   3.868   1.840   2.277
 2695SOL    HW1 8984   3.850   1.835   2.375
 2695SOL    HW2 8985   3.782   1.852   2.228
 2696SOL     OW 8986   3.745   3.454   5.978
 2696SOL    HW1 8987   3.828   3.509   5.967
 2696SOL    HW2 8988   3.770   3.362   6.009
 2697SOL     OW 8989   2.765   1.094   5.245
 2697SOL    HW1 8990   2.719   1.131   5.325
 2697SOL    HW2 8991   2.746   1.151   5.166
 2698SOL     OW 8992   1.234   1.648   6.732
 2698SOL    HW1 8993   1.284   1.594   6.665
 2698SOL    HW2 8994   1.182   1.720   6.686
 2699SOL     OW 8995   1.752   4.954   3.677
 2699SOL    HW1 8996   1.787   5.011   3.751
 2699SOL    HW2 8997   1.701   5.011   3.612
 2700SOL     OW 8998   2.313   4.188   2.718
 2700SOL    HW1 8999   2.321   4.228   2.626
 2700SOL    HW2 9000   2.356   4.250   2.784
 2701SOL     OW 9001   2.689   0.689   5.214
 2701SOL    HW1 9002   2.643   0.605   5.245
 2701SOL    HW2 9003   2.626   0.766   5.221
 2702SOL     OW 9004   6.256   6.289   2.775
 2702SOL    HW1 9005   6.315   6.298   2.695
 2702SOL    HW2 9006   6.306   6.239   2.847
 2703SOL     OW 9007   1.708   2.124   3.038
 2703SOL    HW1 9008   1.683   2.221   3.034
 2703SOL    HW2 9009   1.807   2.115   3.043
 2704SOL     OW 9010   1.321   6.550   0.621
 2704SOL    HW1 9011   1.253   6.599   0.676
 2704SOL    HW2 9012   1.281   6.525   0.533
 2705SOL     OW 9013   0.303   3.432   2.456
 2705SOL    HW1 9014   0.351   3.518   2.438
 2705SOL    HW2 9015   0.327   3.364   2.387
 2706SOL     OW 9016   6.504   2.380   3.578
 2706SOL    HW1 9017   6.431   2.372   3.647
 2706SOL    HW2 9018   6.463   2.398   3.489
 2707SOL     OW 9019   2.544   1.378   6.647
 2707SOL    HW1 9020   2.446   1.397   6.637
 2707SOL    HW2 9021   2.592   1.462   6.671
 2708SOL     OW 9022   1.484   4.835   6.928
 2708SOL    HW1 9023   1.490   4.934   6.943
 2708SOL    HW2 9024   1.566   4.803   6.881
 2709SOL     OW 9025   4.576   6.677   1.794
 2709SOL    HW1 9026   4.503   6.744   1.808
 2709SOL    HW2 9027   4.605   6.641   1.882
 2710SOL     OW 9028   6.391   4.008   2.567
 2710SOL    HW1 9029   6.360   3.915   2.588
 2710SOL    HW2 9030   6.475   4.027   2.617
 2711SOL     OW 9031   1.320   6.997   2.344
 2711SOL    HW1 9032   1.338   0.054   2.278
 2711SOL    HW2 9033   1.231   6.956   2.325
 2712SOL     OW 9034   3.111   5.423   2.689
 2712SOL    HW1 9035   3.162   5.341   2.662
 2712SOL    HW2 9036   3.038   5.439   2.624
 2713SOL     OW 9037   1.612   2.832   5.475
 2713SOL    HW1 9038   1.582   2.920   5.511
 2713SOL    HW2 9039   1.645   2.845   5.381
 2714SOL     OW 9040   5.515   0.104   0.015
 2714SOL    HW1 9041   5.502   0.189   6.980
 2714SOL    HW2 9042   5.458   0.105   0.097
 2715SOL     OW 9043   6.344   0.580   6.995
 2715SOL    HW1 9044   6.249   0.549   6.994
 2715SOL    HW2 9045   6.383   0.565   0.070
 2716SOL     OW 9046   6.312   6.617   2.016
 2716SOL    HW1 9047   6.256   6.543   2.054
 2716SOL    HW2 9048   6.299   6.621   1.917
 2717SOL     OW 9049   0.337   6.845   3.397
 2717SOL    HW1 9050   0.305   6.801   3.313
 2717SOL    HW2 9051   0.300   6.938   3.402
 2718SOL     OW 9052   0.748   3.922   3.382
 2718SOL    HW1 9053   0.743   4.009   3.431
 2718SOL    HW2 9054   0.745   3.939   3.283
 2719SOL     OW 9055   4.020   4.798   2.946
 2719SOL    HW1 9056   4.092   4.731   2.926
 2719SOL    HW2 9057   3.969   4.818   2.862
 2720SOL     OW 9058   0.170   6.020   4.346
 2720SOL    HW1 9059   0.188   6.019   4.247
 2720SOL    HW2 9060   0.187   5.929   4.383
 2721SOL     OW 9061   5.218   6.258   3.583
 2721SOL    HW1 9062   5.258   6.347   3.562
 2721SOL    HW2 9063   5.221   6.243   3.682
 2722SOL     OW 9064   0.514   5.595   2.102
 2722SOL    HW1 9065   0.471   5.633   2.183
 2722SOL    HW2 9066   0.578   5.661   2.063
 2723SOL     OW 9067   1.977   1.960   4.299
 2723SOL    HW1 9068   2.059   1.920   4.339
 2723SOL    HW2 9069   1.961   1.919   4.209
 2724SOL     OW 9070   4.498   5.653   6.121
 2724SOL    HW1 9071   4.496   5.748   6.090
 2724SOL    HW2 9072   4.590   5.632   6.156
 2725SOL     OW 9073   2.826   4.939   3.412
 2725SOL    HW1 9074   2.870   5.000   3.478
 2725SOL    HW2 9075   2.727   4.952   3.416
 2726SOL     OW 9076   4.272   6.112   2.880
 2726SOL    HW1 9077   4.302   6.197   2.923
 2726SOL    HW2 9078   4.173   6.110   2.873
 2727SOL     OW 9079   2.038   5.981   4.134
 2727SOL    HW1 9080   2.117   5.997   4.076
 2727SOL    HW2 9081   2.054   6.021   4.224
 2728SOL     OW 9082   2.826   6.841   5.453
 2728SOL    HW1 9083   2.850   6.913   5.518
 2728SOL    HW2 9084   2.760   6.876   5.387
 2729SOL     OW 9085   0.186   4.754   2.881
 2729SOL    HW1 9086   0.108   4.784   2.936
 2729SOL    HW2 9087   0.154   4.727   2.790
 2730SOL     OW 9088   1.121   4.346   1.212
 2730SOL    HW1 9089   1.098   4.420   1.148
 2730SOL    HW2 9090   1.054   4.272   1.202
 2731SOL     OW 9091   2.405   3.524   0.526
 2731SOL    HW1 9092   2.446   3.570   0.448
 2731SOL    HW2 9093   2.438   3.564   0.611
 2732SOL     OW 9094   5.361   3.081   4.135
 2732SOL    HW1 9095   5.368   3.175   4.169
 2732SOL    HW2 9096   5.277   3.071   4.083
 2733SOL     OW 9097   2.024   0.495   6.745
 2733SOL    HW1 9098   1.953   0.504   6.676
 2733SOL    HW2 9099   2.069   0.407   6.736
 2734SOL     OW 9100   1.806   6.694   4.100
 2734SOL    HW1 9101   1.743   6.766   4.072
 2734SOL    HW2 9102   1.834   6.641   4.020
 2735SOL     OW 9103   1.827   5.436   1.668
 2735SOL    HW1 9104   1.784   5.454   1.580
 2735SOL    HW2 9105   1.922   5.408   1.654
 2736SOL     OW 9106   4.112   6.870   6.724
 2736SOL    HW1 9107   4.127   6.771   6.736
 2736SOL    HW2 9108   4.131   6.895   6.629
 2737SOL     OW 9109   3.933   3.837   5.580
 2737SOL    HW1 9110   3.982   3.881   5.505
 2737SOL    HW2 9111   3.862   3.777   5.543
 2738SOL     OW 9112   6.465   4.135   4.064
 2738SOL    HW1 9113   6.528   4.176   4.131
 2738SOL    HW2 9114   6.512   4.124   3.977
 2739SOL     OW 9115   4.352   4.356   6.944
 2739SOL    HW1 9116   4.267   4.303   6.944
 2739SOL    HW2 9117   4.386   4.364   0.022
 2740SOL     OW 9118   6.071   2.528   4.353
 2740SOL    HW1 9119   6.052   2.590   4.278
 2740SOL    HW2 9120   6.170   2.524   4.369
 2741SOL     OW 9121   1.932   3.002   5.158
 2741SOL    HW1 9122   2.016   3.026   5.206
 2741SOL    HW2 9123   1.931   3.043   5.067
 2742SOL     OW 9124   2.723   6.094   5.925
 2742SOL    HW1 9125   2.677   6.058   6.006
 2742SOL    HW2 9126   2.769   6.020   5.877
 2743SOL     OW 9127   5.759   4.517   6.549
 2743SOL    HW1 9128   5.818   4.560   6.617
 2743SOL    HW2 9129   5.705   4.445   6.592
 2744SOL     OW 9130   4.882   6.973   0.435
 2744SOL    HW1 9131   4.848   6.879   0.439
 2744SOL    HW2 9132   4.970   6.975   0.387
 2745SOL     OW 9133   3.043   5.975   2.039
 2745SOL    HW1 9134   2.949   5.967   2.004
 2745SOL    HW2 9135   3.108   5.952   1.966
 2746SOL     OW 9136   0.883   1.984   6.529
 2746SOL    HW1 9137   0.789   2.006   6.500
 2746SOL    HW2 9138   0.892   1.885   6.540
 2747SOL     OW 9139   4.869   5.930   3.857
 2747SOL    HW1 9140   4.812   5.870   3.912
 2747SOL    HW2 9141   4.903   5.879   3.777
 2748SOL     OW 9142   5.598   1.102   4.876
 2748SOL    HW1 9143   5.668   1.138   4.814
 2748SOL    HW2 9144   5.629   1.016   4.916
 2749SOL     OW 9145   5.350   4.889   3.219
 2749SOL    HW1 9146   5.276   4.839   3.264
 2749SOL    HW2 9147   5.312   4.970   3.173
 2750SOL     OW 9148   1.099   6.759   0.264
 2750SOL    HW1 9149   1.145   6.827   0.321
 2750SOL    HW2 9150   1.057   6.689   0.323
 2751SOL     OW 9151   1.889   0.310   6.511
 2751SOL    HW1 9152   1.942   0.237   6.553
 2751SOL    HW2 9153   1.908   0.313   6.413
 2752SOL     OW 9154   0.879   6.897   6.151
 2752SOL    HW1 9155   0.879   6.975   6.089
 2752SOL    HW2 9156   0.904   6.927   6.243
 2753SOL     OW 9157   3.305   5.271   4.972
 2753SOL    HW1 9158   3.394   5.261   4.928
 2753SOL    HW2 9159   3.266   5.360   4.948
 2754SOL     OW 9160   1.126   5.852   4.210
 2754SOL    HW1 9161   1.114   5.879   4.114
 2754SOL    HW2 9162   1.067   5.774   4.231
 2755SOL     OW 9163   4.693   6.154   2.613
 2755SOL    HW1 9164   4.621   6.185   2.675
 2755SOL    HW2 9165   4.663   6.072   2.565
 2756SOL     OW 9166   0.053   2.567   5.205
 2756SOL    HW1 9167   0.119   2.642   5.205
 2756SOL    HW2 9168   0.013   2.558   5.297
 2757SOL     OW 9169   5.544   3.825   6.091
 2757SOL    HW1 9170   5.641   3.802   6.093
 2757SOL    HW2 9171   5.501   3.794   6.176
 2758SOL     OW 9172   0.132   6.124   1.596
 2758SOL    HW1 9173   0.142   6.095   1.691
 2758SOL    HW2 9174   0.051   6.182   1.587
 2759SOL     OW 9175   3.608   3.600   5.136
 2759SOL    HW1 9176   3.662   3.517   5.123
 2759SOL    HW2 9177   3.511   3.577   5.136
 2760SOL     OW 9178   5.000   5.321   2.736
 2760SOL    HW1 9179   4.935   5.374   2.791
 2760SOL    HW2 9180   5.005   5.358   2.644
 2761SOL     OW 9181   1.698   3.637   4.297
 2761SOL    HW1 9182   1.667   3.654   4.203
 2761SOL    HW2 9183   1.666   3.710   4.356
 2762SOL     OW 9184   4.458   1.219   2.158
 2762SOL    HW1 9185   4.537   1.168   2.123
 2762SOL    HW2 9186   4.393   1.155   2.201
 2763SOL     OW 9187   5.851   1.135   4.508
 2763SOL    HW1 9188   5.843   1.045   4.466
 2763SOL    HW2 9189   5.789   1.199   4.461
 2764SOL     OW 9190   6.969   2.663   3.343
 2764SOL    HW1 9191   6.959   2.598   3.419
 2764SOL    HW2 9192   6.979   2.755   3.379
 2765SOL     OW 9193   0.514   6.637   6.571
 2765SOL    HW1 9194   0.425   6.633   6.525
 2765SOL    HW2 9195   0.563   6.551   6.555
 2766SOL     OW 9196   4.741   0.305   0.453
 2766SOL    HW1 9197   4.738   0.288   0.354
 2766SOL    HW2 9198   4.750   0.218   0.501
 2767SOL     OW 9199   0.514   5.938   5.810
 2767SOL    HW1 9200   0.451   5.878   5.858
 2767SOL    HW2 9201   0.510   6.030   5.850
 2768SOL     OW 9202   4.041   6.748   1.439
 2768SOL    HW1 9203   4.049   6.846   1.461
 2768SOL    HW2 9204   4.039   6.695   1.524
 2769SOL     OW 9205   0.487   4.761   5.615
 2769SOL    HW1 9206   0.451   4.669   5.597
 2769SOL    HW2 9207   0.586   4.760   5.602
 2770SOL     OW 9208   2.381   6.660   0.942
 2770SOL    HW1 9209   2.330   6.741   0.911
 2770SOL    HW2 9210   2.364   6.585   0.878
 2771SOL     OW 9211   4.227   6.778   5.344
 2771SOL    HW1 9212   4.140   6.753   5.303
 2771SOL    HW2 9213   4.224   6.872   5.377
 2772SOL     OW 9214   5.426   1.832   3.295
 2772SOL    HW1 9215   5.442   1.858   3.200
 2772SOL    HW2 9216   5.514   1.820   3.342
 2773SOL     OW 9217   5.626   2.059   6.346
 2773SOL    HW1 9218   5.541   2.057   6.293
 2773SOL    HW2 9219   5.607   2.030   6.440
 2774SOL     OW 9220   6.726   0.192   3.629
 2774SOL    HW1 9221   6.674   0.158   3.708
 2774SOL    HW2 9222   6.793   0.259   3.660
 2775SOL     OW 9223   6.858   1.893   4.437
 2775SOL    HW1 9224   6.890   1.949   4.514
 2775SOL    HW2 9225   6.760   1.908   4.424
 2776SOL     OW 9226   4.746   3.971   6.110
 2776SOL    HW1 9227   4.647   3.970   6.123
 2776SOL    HW2 9228   4.766   3.970   6.012
 2777SOL     OW 9229   1.653   1.965   0.268
 2777SOL    HW1 9230   1.653   1.954   0.367
 2777SOL    HW2 9231   1.627   1.879   0.225
 2778SOL     OW 9232   2.924   7.012   5.626
 2778SOL    HW1 9233   2.988   0.063   5.589
 2778SOL    HW2 9234   2.948   6.993   5.721
 2779SOL     OW 9235   4.814   0.934   2.646
 2779SOL    HW1 9236   4.819   0.926   2.745
 2779SOL    HW2 9237   4.794   0.845   2.606
 2780SOL     OW 9238   0.826   1.031   4.842
 2780SOL    HW1 9239   0.780   1.110   4.881
 2780SOL    HW2 9240   0.883   1.060   4.765
 2781SOL     OW 9241   0.217   0.446   2.555
 2781SOL    HW1 9242   0.270   0.401   2.482
 2781SOL    HW2 9243   0.129   0.399   2.566
 2782SOL     OW 9244   5.634   0.163   4.917
 2782SOL    HW1 9245   5.633   0.149   5.016
 2782SOL    HW2 9246   5.726   0.145   4.882
 2783SOL     OW 9247   6.015   2.988   1.973
 2783SOL    HW1 9248   5.972   2.984   2.063
 2783SOL    HW2 9249   5.996   2.903   1.923
 2784SOL     OW 9250   0.205   2.531   1.969
 2784SOL    HW1 9251   0.188   2.625   2.000
 2784SOL    HW2 9252   0.148   2.468   2.022
 2785SOL     OW 9253   5.608   3.894   3.676
 2785SOL    HW1 9254   5.571   3.821   3.733
 2785SOL    HW2 9255   5.535   3.931   3.617
 2786SOL     OW 9256   6.710   5.497   0.621
 2786SOL    HW1 9257   6.715   5.587   0.665
 2786SOL    HW2 9258   6.691   5.427   0.689
 2787SOL     OW 9259   0.843   6.835   5.829
 2787SOL    HW1 9260   0.757   6.848   5.876
 2787SOL    HW2 9261   0.835   6.867   5.735
 2788SOL     OW 9262   2.634   6.513   0.437
 2788SOL    HW1 9263   2.634   6.561   0.524
 2788SOL    HW2 9264   2.541   6.481   0.416
 2789SOL     OW 9265   1.627   1.836   3.790
 2789SOL    HW1 9266   1.702   1.783   3.750
 2789SOL    HW2 9267   1.657   1.930   3.806
 2790SOL     OW 9268   6.855   5.457   1.612
 2790SOL    HW1 9269   6.878   5.519   1.686
 2790SOL    HW2 9270   6.935   5.444   1.552
 2791SOL     OW 9271   0.237   3.088   5.074
 2791SOL    HW1 9272   0.337   3.087   5.069
 2791SOL    HW2 9273   0.209   3.153   5.144
 2792SOL     OW 9274   2.933   2.391   6.273
 2792SOL    HW1 9275   2.994   2.444   6.213
 2792SOL    HW2 9276   2.983   2.313   6.311
 2793SOL     OW 9277   3.837   3.604   6.262
 2793SOL    HW1 9278   3.747   3.567   6.239
 2793SOL    HW2 9279   3.826   3.681   6.326
 2794SOL     OW 9280   1.476   1.681   6.863
 2794SOL    HW1 9281   1.543   1.663   6.792
 2794SOL    HW2 9282   1.389   1.708   6.821
 2795SOL     OW 9283   1.151   0.189   0.486
 2795SOL    HW1 9284   1.195   0.250   0.553
 2795SOL    HW2 9285   1.221   0.152   0.424
 2796SOL     OW 9286   3.106   6.235   6.929
 2796SOL    HW1 9287   3.069   6.326   6.915
 2796SOL    HW2 9288   3.098   6.210   0.010
 2797SOL     OW 9289   4.682   4.240   4.277
 2797SOL    HW1 9290   4.738   4.175   4.329
 2797SOL    HW2 9291   4.690   4.220   4.180
 2798SOL     OW 9292   5.409   2.570   1.978
 2798SOL    HW1 9293   5.488   2.584   1.918
 2798SOL    HW2 9294   5.419   2.482   2.025
 2799SOL     OW 9295   3.344   6.845   4.869
 2799SOL    HW1 9296   3.345   6.811   4.775
 2799SOL    HW2 9297   3.250   6.846   4.903
 2800SOL     OW 9298   5.047   1.756   6.648
 2800SOL    HW1 9299   5.007   1.847   6.646
 2800SOL    HW2 9300   5.007   1.701   6.574
 2801SOL     OW 9301   0.582   4.370   3.416
 2801SOL    HW1 9302   0.648   4.325   3.476
 2801SOL    HW2 9303   0.603   4.348   3.321
 2802SOL     OW 9304   1.479   4.799   4.159
 2802SOL    HW1 9305   1.539   4.728   4.123
 2802SOL    HW2 9306   1.532   4.862   4.215
 2803SOL     OW 9307   3.399   2.578   6.493
 2803SOL    HW1 9308   3.371   2.633   6.415
 2803SOL    HW2 9309   3.462   2.506   6.463
 2804SOL     OW 9310   5.966   2.621   3.895
 2804SOL    HW1 9311   5.985   2.684   3.970
 2804SOL    HW2 9312   5.869   2.626   3.872
 2805SOL     OW 9313   4.206   4.832   0.474
 2805SOL    HW1 9314   4.293   4.790   0.501
 2805SOL    HW2 9315   4.200   4.923   0.514
 2806SOL     OW 9316   0.338   2.935   4.512
 2806SOL    HW1 9317   0.322   2.938   4.610
 2806SOL    HW2 9318   0.390   2.853   4.489
 2807SOL     OW 9319   4.603   1.762   3.955
 2807SOL    HW1 9320   4.605   1.690   3.885
 2807SOL    HW2 9321   4.579   1.849   3.913
 2808SOL     OW 9322   1.284   6.168   6.279
 2808SOL    HW1 9323   1.262   6.116   6.196
 2808SOL    HW2 9324   1.199   6.205   6.318
 2809SOL     OW 9325   1.134   6.089   0.836
 2809SOL    HW1 9326   1.228   6.116   0.857
 2809SOL    HW2 9327   1.074   6.113   0.913
 2810SOL     OW 9328   0.839   6.190   2.236
 2810SOL    HW1 9329   0.811   6.210   2.330
 2810SOL    HW2 9330   0.903   6.113   2.236
 2811SOL     OW 9331   0.928   0.746   0.643
 2811SOL    HW1 9332   0.987   0.730   0.722
 2811SOL    HW2 9333   0.958   0.829   0.595
 2812SOL     OW 9334   1.807   0.912   1.183
 2812SOL    HW1 9335   1.853   0.972   1.118
 2812SOL    HW2 9336   1.787   0.963   1.267
 2813SOL     OW 9337   6.542   2.107   1.134
 2813SOL    HW1 9338   6.494   2.021   1.153
 2813SOL    HW2 9339   6.614   2.120   1.203
 2814SOL     OW 9340   2.652   4.237   6.781
 2814SOL    HW1 9341   2.562   4.246   6.739
 2814SOL    HW2 9342   2.705   4.168   6.731
 2815SOL     OW 9343   6.734   5.865   5.033
 2815SOL    HW1 9344   6.722   5.784   5.091
 2815SOL    HW2 9345   6.654   5.924   5.042
 2816SOL     OW 9346   0.927   4.731   4.804
 2816SOL    HW1 9347   0.862   4.709   4.731
 2816SOL    HW2 9348   0.878   4.773   4.881
 2817SOL     OW 9349   2.229   0.554   2.037
 2817SOL    HW1 9350   2.189   0.639   2.072
 2817SOL    HW2 9351   2.211   0.548   1.939
 2818SOL     OW 9352   1.842   1.071   0.596
 2818SOL    HW1 9353   1.884   1.096   0.508
 2818SOL    HW2 9354   1.910   1.026   0.654
 2819SOL     OW 9355   6.546   0.248   6.436
 2819SOL    HW1 9356   6.615   0.275   6.369
 2819SOL    HW2 9357   6.487   0.327   6.456
 2820SOL     OW 9358   1.909   1.822   0.547
 2820SOL    HW1 9359   1.951   1.797   0.634
 2820SOL    HW2 9360   1.828   1.766   0.531
 2821SOL     OW 9361   3.321   2.227   6.264
 2821SOL    HW1 9362   3.253   2.275   6.318
 2821SOL    HW2 9363   3.391   2.189   6.324
 2822SOL     OW 9364   4.016   2.824   1.107
 2822SOL    HW1 9365   3.989   2.808   1.202
 2822SOL    HW2 9366   4.083   2.755   1.079
 2823SOL     OW 9367   5.820   4.155   2.624
 2823SOL    HW1 9368   5.793   4.110   2.709
 2823SOL    HW2 9369   5.738   4.172   2.569
 2824SOL     OW 9370   0.702   4.502   5.053
 2824SOL    HW1 9371   0.780   4.541   5.102
 2824SOL    HW2 9372   0.720   4.406   5.031
 2825SOL     OW 9373   5.418   2.148   5.313
 2825SOL    HW1 9374   5.362   2.213   5.363
 2825SOL    HW2 9375   5.487   2.110   5.375
 2826SOL     OW 9376   2.790   3.224   6.939
 2826SOL    HW1 9377   2.886   3.249   6.953
 2826SOL    HW2 9378   2.734   3.265   7.011
 2827SOL     OW 9379   6.352   1.951   0.063
 2827SOL    HW1 9380   6.336   2.050   0.055
 2827SOL    HW2 9381   6.298   1.915   0.140
 2828SOL     OW 9382   1.637   4.514   6.996
 2828SOL    HW1 9383   1.646   4.466   0.067
 2828SOL    HW2 9384   1.598   4.605   7.011
 2829SOL     OW 9385   3.465   4.179   1.582
 2829SOL    HW1 9386   3.503   4.266   1.612
 2829SOL    HW2 9387   3.457   4.117   1.661
 2830SOL     OW 9388   2.835   5.716   4.232
 2830SOL    HW1 9389   2.918   5.706   4.286
 2830SOL    HW2 9390   2.807   5.626   4.198
 2831SOL     OW 9391   6.434   1.675   2.103
 2831SOL    HW1 9392   6.464   1.770   2.105
 2831SOL    HW2 9393   6.481   1.625   2.031
 2832SOL     OW 9394   1.471   4.208   1.594
 2832SOL    HW1 9395   1.445   4.169   1.505
 2832SOL    HW2 9396   1.473   4.135   1.662
 2833SOL     OW 9397   6.669   3.091   3.447
 2833SOL    HW1 9398   6.656   3.073   3.349
 2833SOL    HW2 9399   6.731   3.023   3.486
 2834SOL     OW 9400   2.835   0.721   4.497
 2834SOL    HW1 9401   2.922   0.695   4.455
 2834SOL    HW2 9402   2.792   0.641   4.538
 2835SOL     OW 9403   6.711   1.143   0.556
 2835SOL    HW1 9404   6.731   1.229   0.602
 2835SOL    HW2 9405   6.739   1.066   0.615
 2836SOL     OW 9406   3.076   5.871   1.195
 2836SOL    HW1 9407   3.043   5.834   1.281
 2836SOL    HW2 9408   3.176   5.875   1.197
 2837SOL     OW 9409   5.517   4.148   2.532
 2837SOL    HW1 9410   5.481   4.210   2.601
 2837SOL    HW2 9411   5.572   4.199   2.466
 2838SOL     OW 9412   0.063   3.752   5.629
 2838SOL    HW1 9413   0.042   3.797   5.715
 2838SOL    HW2 9414   0.111   3.816   5.569
 2839SOL     OW 9415   6.116   2.859   6.015
 2839SOL    HW1 9416   6.215   2.853   6.026
 2839SOL    HW2 9417   6.073   2.870   6.104
 2840SOL     OW 9418   6.485   5.887   5.408
 2840SOL    HW1 9419   6.581   5.909   5.393
 2840SOL    HW2 9420   6.467   5.794   5.375
 2841SOL     OW 9421   5.580   3.660   3.030
 2841SOL    HW1 9422   5.627   3.730   3.084
 2841SOL    HW2 9423   5.543   3.590   3.091
 2842SOL     OW 9424   0.838   6.397   3.586
 2842SOL    HW1 9425   0.827   6.465   3.514
 2842SOL    HW2 9426   0.919   6.418   3.640
 2843SOL     OW 9427   1.405   2.972   4.277
 2843SOL    HW1 9428   1.399   3.070   4.261
 2843SOL    HW2 9429   1.325   2.943   4.330
 2844SOL     OW 9430   5.362   4.491   0.216
 2844SOL    HW1 9431   5.397   4.510   0.124
 2844SOL    HW2 9432   5.302   4.565   0.245
 2845SOL     OW 9433   3.783   2.055   1.241
 2845SOL    HW1 9434   3.796   1.958   1.262
 2845SOL    HW2 9435   3.739   2.100   1.319
 2846SOL     OW 9436   5.191   0.089   6.652
 2846SOL    HW1 9437   5.142   0.104   6.737
 2846SOL    HW2 9438   5.132   0.042   6.587
 2847SOL     OW 9439   5.660   4.853   2.647
 2847SOL    HW1 9440   5.684   4.821   2.555
 2847SOL    HW2 9441   5.728   4.919   2.678
 2848SOL     OW 9442   0.544   3.578   0.017
 2848SOL    HW1 9443   0.554   3.602   6.937
 2848SOL    HW2 9444   0.627   3.531   0.049
 2849SOL     OW 9445   5.452   0.500   1.027
 2849SOL    HW1 9446   5.364   0.519   0.984
 2849SOL    HW2 9447   5.443   0.505   1.127
 2850SOL     OW 9448   0.573   1.043   0.838
 2850SOL    HW1 9449   0.572   0.944   0.849
 2850SOL    HW2 9450   0.502   1.084   0.895
 2851SOL     OW 9451   3.690   3.661   1.861
 2851SOL    HW1 9452   3.631   3.632   1.785
 2851SOL    HW2 9453   3.681   3.595   1.936
 2852SOL     OW 9454   0.640   5.072   4.590
 2852SOL    HW1 9455   0.587   5.036   4.514
 2852SOL    HW2 9456   0.628   5.014   4.670
 2853SOL     OW 9457   0.521   4.434   6.063
 2853SOL    HW1 9458   0.607   4.390   6.038
 2853SOL    HW2 9459   0.532   4.478   6.153
 2854SOL     OW 9460   3.301   0.354   6.893
 2854SOL    HW1 9461   3.372   0.283   6.903
 2854SOL    HW2 9462   3.213   0.318   6.923
 2855SOL     OW 9463   2.221   2.083   4.434
 2855SOL    HW1 9464   2.199   2.161   4.375
 2855SOL    HW2 9465   2.299   2.033   4.395
 2856SOL     OW 9466   1.626   5.454   4.839
 2856SOL    HW1 9467   1.567   5.392   4.890
 2856SOL    HW2 9468   1.716   5.412   4.825
 2857SOL     OW 9469   0.357   4.570   0.252
 2857SOL    HW1 9470   0.349   4.571   0.152
 2857SOL    HW2 9471   0.267   4.581   0.293
 2858SOL     OW 9472   5.242   4.972   3.945
 2858SOL    HW1 9473   5.183   4.994   4.023
 2858SOL    HW2 9474   5.334   4.951   3.978
 2859SOL     OW 9475   6.702   5.061   2.044
 2859SOL    HW1 9476   6.693   5.159   2.061
 2859SOL    HW2 9477   6.627   5.031   1.985
 2860SOL     OW 9478   1.126   6.689   3.170
 2860SOL    HW1 9479   1.082   6.599   3.174
 2860SOL    HW2 9480   1.073   6.755   3.224
 2861SOL     OW 9481   5.500   3.217   5.221
 2861SOL    HW1 9482   5.435   3.144   5.197
 2861SOL    HW2 9483   5.449   3.298   5.252
 2862SOL     OW 9484   4.759   1.196   0.209
 2862SOL    HW1 9485   4.797   1.173   0.120
 2862SOL    HW2 9486   4.722   1.113   0.252
 2863SOL     OW 9487   5.621   1.747   6.230
 2863SOL    HW1 9488   5.573   1.681   6.289
 2863SOL    HW2 9489   5.639   1.830   6.283
 2864SOL     OW 9490   3.918   4.775   1.048
 2864SOL    HW1 9491   3.849   4.711   1.015
 2864SOL    HW2 9492   4.010   4.738   1.030
 2865SOL     OW 9493   5.497   5.124   6.145
 2865SOL    HW1 9494   5.523   5.064   6.069
 2865SOL    HW2 9495   5.473   5.068   6.224
 2866SOL     OW 9496   4.413   5.625   0.947
 2866SOL    HW1 9497   4.454   5.561   0.882
 2866SOL    HW2 9498   4.314   5.628   0.933
 2867SOL     OW 9499   0.441   6.359   2.718
 2867SOL    HW1 9500   0.495   6.392   2.640
 2867SOL    HW2 9501   0.478   6.271   2.748
 2868SOL     OW 9502   6.582   0.029   5.345
 2868SOL    HW1 9503   6.572   0.079   5.259
 2868SOL    HW2 9504   6.658   6.980   5.337
 2869SOL     OW 9505   5.244   4.906   5.372
 2869SOL    HW1 9506   5.223   4.980   5.436
 2869SOL    HW2 9507   5.199   4.822   5.404
 2870SOL     OW 9508   0.418   1.534   1.399
 2870SOL    HW1 9509   0.516   1.532   1.380
 2870SOL    HW2 9510   0.389   1.628   1.417
 2871SOL     OW 9511   4.652   1.111   3.270
 2871SOL    HW1 9512   4.683   1.143   3.180
 2871SOL    HW2 9513   4.649   1.011   3.271
 2872SOL     OW 9514   3.635   1.486   2.709
 2872SOL    HW1 9515   3.536   1.479   2.718
 2872SOL    HW2 9516   3.678   1.473   2.798
 2873SOL     OW 9517   0.530   6.871   2.417
 2873SOL    HW1 9518   0.472   6.794   2.444
 2873SOL    HW2 9519   0.477   6.932   2.358
 2874SOL     OW 9520   1.931   0.795   2.756
 2874SOL    HW1 9521   1.983   0.713   2.781
 2874SOL    HW2 9522   1.858   0.809   2.823
 2875SOL     OW 9523   2.639   0.599   2.829
 2875SOL    HW1 9524   2.674   0.506   2.835
 2875SOL    HW2 9525   2.655   0.635   2.737
 2876SOL     OW 9526   1.040   6.970   0.929
 2876SOL    HW1 9527   1.019   6.948   1.024
 2876SOL    HW2 9528   0.958   6.959   0.873
 2877SOL     OW 9529   1.315   3.519   6.643
 2877SOL    HW1 9530   1.345   3.425   6.625
 2877SOL    HW2 9531   1.241   3.543   6.580
 2878SOL     OW 9532   3.211   3.002   4.472
 2878SOL    HW1 9533   3.154   2.965   4.545
 2878SOL    HW2 9534   3.234   3.097   4.493
 2879SOL     OW 9535   5.966   5.787   0.652
 2879SOL    HW1 9536   5.967   5.792   0.751
 2879SOL    HW2 9537   6.024   5.712   0.621
 2880SOL     OW 9538   1.597   1.784   3.030
 2880SOL    HW1 9539   1.581   1.833   3.116
 2880SOL    HW2 9540   1.530   1.812   2.962
 2881SOL     OW 9541   4.966   4.964   6.994
 2881SOL    HW1 9542   5.063   4.976   7.015
 2881SOL    HW2 9543   4.955   4.949   6.896
 2882SOL     OW 9544   5.137   6.644   6.949
 2882SOL    HW1 9545   5.133   6.560   7.003
 2882SOL    HW2 9546   5.054   6.698   6.964
 2883SOL     OW 9547   5.198   6.449   2.989
 2883SOL    HW1 9548   5.187   6.543   3.022
 2883SOL    HW2 9549   5.143   6.387   3.045
 2884SOL     OW 9550   5.955   5.630   3.401
 2884SOL    HW1 9551   5.999   5.699   3.458
 2884SOL    HW2 9552   5.856   5.637   3.410
 2885SOL     OW 9553   0.071   3.712   3.088
 2885SOL    HW1 9554   0.037   3.617   3.084
 2885SOL    HW2 9555   0.152   3.721   3.030
 2886SOL     OW 9556   2.253   4.155   4.783
 2886SOL    HW1 9557   2.206   4.105   4.710
 2886SOL    HW2 9558   2.271   4.094   4.860
 2887SOL     OW 9559   7.011   4.941   2.976
 2887SOL    HW1 9560   7.002   4.943   3.075
 2887SOL    HW2 9561   6.942   5.001   2.935
 2888SOL     OW 9562   4.312   6.053   6.289
 2888SOL    HW1 9563   4.292   6.104   6.372
 2888SOL    HW2 9564   4.408   6.025   6.288
 2889SOL     OW 9565   4.189   5.650   4.458
 2889SOL    HW1 9566   4.136   5.734   4.475
 2889SOL    HW2 9567   4.129   5.571   4.470
 2890SOL     OW 9568   1.612   2.039   0.796
 2890SOL    HW1 9569   1.522   2.078   0.811
 2890SOL    HW2 9570   1.678   2.082   0.858
 2891SOL     OW 9571   1.438   1.319   5.295
 2891SOL    HW1 9572   1.469   1.358   5.208
 2891SOL    HW2 9573   1.344   1.286   5.285
 2892SOL     OW 9574   5.592   4.062   2.113
 2892SOL    HW1 9575   5.644   4.088   2.195
 2892SOL    HW2 9576   5.653   4.063   2.033
 2893SOL     OW 9577   6.878   5.816   5.442
 2893SOL    HW1 9578   6.896   5.875   5.363
 2893SOL    HW2 9579   6.822   5.739   5.413
 2894SOL     OW 9580   2.050   5.531   1.031
 2894SOL    HW1 9581   1.966   5.507   1.080
 2894SOL    HW2 9582   2.128   5.523   1.093
 2895SOL     OW 9583   4.947   6.578   6.444
 2895SOL    HW1 9584   5.033   6.543   6.480
 2895SOL    HW2 9585   4.965   6.631   6.360
 2896SOL     OW 9586   6.264   0.330   5.575
 2896SOL    HW1 9587   6.214   0.280   5.505
 2896SOL    HW2 9588   6.346   0.277   5.601
 2897SOL     OW 9589   3.731   6.085   3.188
 2897SOL    HW1 9590   3.765   6.060   3.279
 2897SOL    HW2 9591   3.645   6.038   3.171
 2898SOL     OW 9592   5.192   2.661   2.635
 2898SOL    HW1 9593   5.158   2.634   2.545
 2898SOL    HW2 9594   5.261   2.595   2.665
 2899SOL     OW 9595   6.666   2.921   0.964
 2899SOL    HW1 9596   6.645   2.874   0.878
 2899SOL    HW2 9597   6.699   2.854   1.031
 2900SOL     OW 9598   3.226   2.912   5.209
 2900SOL    HW1 9599   3.192   2.869   5.292
 2900SOL    HW2 9600   3.163   2.895   5.133
 2901SOL     OW 9601   1.465   3.490   1.730
 2901SOL    HW1 9602   1.548   3.545   1.735
 2901SOL    HW2 9603   1.489   3.394   1.718
 2902SOL     OW 9604   5.552   6.408   3.289
 2902SOL    HW1 9605   5.600   6.381   3.372
 2902SOL    HW2 9606   5.603   6.481   3.244
 2903SOL     OW 9607   0.816   5.400   0.895
 2903SOL    HW1 9608   0.751   5.368   0.826
 2903SOL    HW2 9609   0.772   5.470   0.952
 2904SOL     OW 9610   2.834   4.845   4.838
 2904SOL    HW1 9611   2.796   4.823   4.749
 2904SOL    HW2 9612   2.848   4.762   4.891
 2905SOL     OW 9613   1.168   4.773   1.343
 2905SOL    HW1 9614   1.108   4.847   1.374
 2905SOL    HW2 9615   1.261   4.789   1.375
 2906SOL     OW 9616   0.057   6.021   6.199
 2906SOL    HW1 9617   0.009   5.948   6.247
 2906SOL    HW2 9618   0.086   6.090   6.264
 2907SOL     OW 9619   6.623   1.115   5.628
 2907SOL    HW1 9620   6.554   1.084   5.693
 2907SOL    HW2 9621   6.578   1.157   5.549
 2908SOL     OW 9622   4.049   6.143   3.818
 2908SOL    HW1 9623   4.136   6.190   3.803
 2908SOL    HW2 9624   4.014   6.111   3.730
 2909SOL     OW 9625   0.367   6.866   1.252
 2909SOL    HW1 9626   0.291   6.808   1.220
 2909SOL    HW2 9627   0.428   6.812   1.310
 2910SOL     OW 9628   1.064   0.901   4.509
 2910SOL    HW1 9629   1.140   0.903   4.443
 2910SOL    HW2 9630   1.039   0.806   4.527
 2911SOL     OW 9631   6.427   3.707   4.071
 2911SOL    HW1 9632   6.404   3.777   4.003
 2911SOL    HW2 9633   6.470   3.629   4.025
 2912SOL     OW 9634   0.568   1.383   2.446
 2912SOL    HW1 9635   0.601   1.454   2.384
 2912SOL    HW2 9636   0.528   1.425   2.527
 2913SOL     OW 9637   0.840   6.265   4.097
 2913SOL    HW1 9638   0.800   6.186   4.144
 2913SOL    HW2 9639   0.786   6.287   4.016
 2914SOL     OW 9640   3.559   4.503   1.040
 2914SOL    HW1 9641   3.490   4.563   0.999
 2914SOL    HW2 9642   3.616   4.465   0.968
 2915SOL     OW 9643   2.108   0.801   3.790
 2915SOL    HW1 9644   2.036   0.870   3.780
 2915SOL    HW2 9645   2.183   0.839   3.844
 2916SOL     OW 9646   0.165   5.557   6.424
 2916SOL    HW1 9647   0.225   5.482   6.452
 2916SOL    HW2 9648   0.082   5.556   6.479
 2917SOL     OW 9649   2.266   0.775   3.570
 2917SOL    HW1 9650   2.233   0.802   3.479
 2917SOL    HW2 9651   2.203   0.809   3.640
 2918SOL     OW 9652   5.004   2.305   1.085
 2918SOL    HW1 9653   4.988   2.237   1.013
 2918SOL    HW2 9654   4.920   2.318   1.138
 2919SOL     OW 9655   0.706   6.231   4.982
 2919SOL    HW1 9656   0.762   6.312   4.999
 2919SOL    HW2 9657   0.636   6.253   4.914
 2920SOL     OW 9658   2.755   2.094   1.948
 2920SOL    HW1 9659   2.811   2.172   1.975
 2920SOL    HW2 9660   2.765   2.078   1.850
 2921SOL     OW 9661   0.537   5.438   3.175
 2921SOL    HW1 9662   0.499   5.388   3.252
 2921SOL    HW2 9663   0.482   5.521   3.159
 2922SOL     OW 9664   3.909   4.884   3.218
 2922SOL    HW1 9665   3.959   4.865   3.133
 2922SOL    HW2 9666   3.880   4.980   3.218
 2923SOL     OW 9667   1.395   5.335   4.089
 2923SOL    HW1 9668   1.411   5.308   3.994
 2923SOL    HW2 9669   1.298   5.360   4.100
 2924SOL     OW 9670   5.659   1.676   6.913
 2924SOL    HW1 9671   5.737   1.736   6.932
 2924SOL    HW2 9672   5.575   1.719   6.946
 2925SOL     OW 9673   5.542   6.858   4.585
 2925SOL    HW1 9674   5.483   6.900   4.654
 2925SOL    HW2 9675   5.605   6.927   4.549
 2926SOL     OW 9676   6.385   2.653   4.656
 2926SOL    HW1 9677   6.437   2.739   4.662
 2926SOL    HW2 9678   6.318   2.650   4.731
 2927SOL     OW 9679   1.131   2.400   2.412
 2927SOL    HW1 9680   1.047   2.412   2.466
 2927SOL    HW2 9681   1.113   2.424   2.317
 2928SOL     OW 9682   5.059   4.224   0.690
 2928SOL    HW1 9683   5.102   4.271   0.767
 2928SOL    HW2 9684   5.079   4.126   0.696
 2929SOL     OW 9685   1.930   2.047   3.513
 2929SOL    HW1 9686   1.990   2.112   3.468
 2929SOL    HW2 9687   1.938   1.957   3.469
 2930SOL     OW 9688   0.644   3.237   4.304
 2930SOL    HW1 9689   0.724   3.263   4.250
 2930SOL    HW2 9690   0.589   3.318   4.324
 2931SOL     OW 9691   5.851   4.058   5.701
 2931SOL    HW1 9692   5.874   4.010   5.616
 2931SOL    HW2 9693   5.764   4.025   5.736
 2932SOL     OW 9694   6.519   6.082   1.137
 2932SOL    HW1 9695   6.556   6.175   1.140
 2932SOL    HW2 9696   6.419   6.086   1.124
 2933SOL     OW 9697   0.810   6.989   0.211
 2933SOL    HW1 9698   0.862   0.058   0.213
 2933SOL    HW2 9699   0.854   6.925   0.148
 2934SOL     OW 9700   5.682   4.842   2.232
 2934SOL    HW1 9701   5.660   4.912   2.300
 2934SOL    HW2 9702   5.662   4.877   2.140
 2935SOL     OW 9703   0.909   4.056   5.763
 2935SOL    HW1 9704   0.994   4.098   5.733
 2935SOL    HW2 9705   0.921   3.956   5.768
 2936SOL     OW 9706   4.027   6.058   2.426
 2936SOL    HW1 9707   4.001   5.992   2.496
 2936SOL    HW2 9708   4.109   6.026   2.379
 2937SOL     OW 9709   6.363   3.354   3.357
 2937SOL    HW1 9710   6.397   3.326   3.447
 2937SOL    HW2 9711   6.439   3.358   3.292
 2938SOL     OW 9712   0.508   5.324   1.020
 2938SOL    HW1 9713   0.581   5.346   1.085
 2938SOL    HW2 9714   0.445   5.401   1.012
 2939SOL     OW 9715   5.900   6.172   1.525
 2939SOL    HW1 9716   5.911   6.103   1.597
 2939SOL    HW2 9717   5.850   6.132   1.448
 2940SOL     OW 9718   4.733   6.556   4.174
 2940SOL    HW1 9719   4.773   6.477   4.127
 2940SOL    HW2 9720   4.651   6.585   4.124
 2941SOL     OW 9721   2.423   4.972   2.997
 2941SOL    HW1 9722   2.344   4.963   3.058
 2941SOL    HW2 9723   2.507   4.974   3.052
 2942SOL     OW 9724   3.390   2.004   1.474
 2942SOL    HW1 9725   3.435   1.941   1.411
 2942SOL    HW2 9726   3.311   1.958   1.516
 2943SOL     OW 9727   0.758   3.737   3.707
 2943SOL    HW1 9728   0.777   3.828   3.743
 2943SOL    HW2 9729   0.660   3.730   3.684
 2944SOL     OW 9730   0.658   5.672   2.977
 2944SOL    HW1 9731   0.740   5.656   2.921
 2944SOL    HW2 9732   0.601   5.591   2.976
 2945SOL     OW 9733   5.715   3.764   0.531
 2945SOL    HW1 9734   5.726   3.863   0.521
 2945SOL    HW2 9735   5.661   3.729   0.455
 2946SOL     OW 9736   3.174   4.074   4.416
 2946SOL    HW1 9737   3.083   4.115   4.429
 2946SOL    HW2 9738   3.200   4.080   4.320
 2947SOL     OW 9739   6.103   5.451   6.794
 2947SOL    HW1 9740   6.128   5.513   6.868
 2947SOL    HW2 9741   6.004   5.437   6.795
 2948SOL     OW 9742   6.311   4.160   0.737
 2948SOL    HW1 9743   6.395   4.164   0.683
 2948SOL    HW2 9744   6.239   4.210   0.690
 2949SOL     OW 9745   1.835   6.321   0.968
 2949SOL    HW1 9746   1.902   6.255   0.936
 2949SOL    HW2 9747   1.810   6.301   1.062
 2950SOL     OW 9748   5.477   5.260   2.233
 2950SOL    HW1 9749   5.525   5.344   2.256
 2950SOL    HW2 9750   5.423   5.229   2.311
 2951SOL     OW 9751   0.574   2.421   1.349
 2951SOL    HW1 9752   0.642   2.400   1.419
 2951SOL    HW2 9753   0.621   2.442   1.263
 2952SOL     OW 9754   0.434   1.525   4.392
 2952SOL    HW1 9755   0.458   1.618   4.365
 2952SOL    HW2 9756   0.454   1.511   4.489
 2953SOL     OW 9757   1.490   5.983   2.939
 2953SOL    HW1 9758   1.575   6.033   2.922
 2953SOL    HW2 9759   1.454   6.008   3.029
 2954SOL     OW 9760   0.994   4.202   6.332
 2954SOL    HW1 9761   0.910   4.161   6.370
 2954SOL    HW2 9762   1.056   4.129   6.303
 2955SOL     OW 9763   2.228   4.609   6.485
 2955SOL    HW1 9764   2.196   4.694   6.525
 2955SOL    HW2 9765   2.154   4.566   6.434
 2956SOL     OW 9766   5.412   3.950   4.468
 2956SOL    HW1 9767   5.371   4.023   4.523
 2956SOL    HW2 9768   5.496   3.983   4.426
 2957SOL     OW 9769   1.412   5.013   2.824
 2957SOL    HW1 9770   1.370   5.003   2.914
 2957SOL    HW2 9771   1.340   5.014   2.754
 2958SOL     OW 9772   1.775   4.226   1.445
 2958SOL    HW1 9773   1.736   4.169   1.374
 2958SOL    HW2 9774   1.803   4.314   1.406
 2959SOL     OW 9775   0.247   4.447   3.876
 2959SOL    HW1 9776   0.293   4.459   3.787
 2959SOL    HW2 9777   0.149   4.434   3.862
 2960SOL     OW 9778   4.968   5.855   1.083
 2960SOL    HW1 9779   4.921   5.799   1.015
 2960SOL    HW2 9780   4.931   5.947   1.082
 2961SOL     OW 9781   5.758   2.336   1.517
 2961SOL    HW1 9782   5.749   2.245   1.557
 2961SOL    HW2 9783   5.792   2.328   1.423
 2962SOL     OW 9784   7.007   0.098   3.835
 2962SOL    HW1 9785   0.037   0.185   3.817
 2962SOL    HW2 9786   6.939   0.112   3.908
 2963SOL     OW 9787   2.262   1.905   5.480
 2963SOL    HW1 9788   2.265   1.875   5.575
 2963SOL    HW2 9789   2.219   1.834   5.424
 2964SOL     OW 9790   1.163   0.750   6.002
 2964SOL    HW1 9791   1.128   0.799   6.082
 2964SOL    HW2 9792   1.166   0.811   5.924
 2965SOL     OW 9793   6.154   0.660   6.432
 2965SOL    HW1 9794   6.117   0.672   6.524
 2965SOL    HW2 9795   6.244   0.704   6.426
 2966SOL     OW 9796   3.366   5.934   2.707
 2966SOL    HW1 9797   3.397   5.972   2.620
 2966SOL    HW2 9798   3.298   5.995   2.748
 2967SOL     OW 9799   6.106   6.885   5.165
 2967SOL    HW1 9800   6.062   6.802   5.197
 2967SOL    HW2 9801   6.204   6.868   5.151
 2968SOL     OW 9802   1.287   4.261   1.798
 2968SOL    HW1 9803   1.335   4.224   1.718
 2968SOL    HW2 9804   1.351   4.313   1.855
 2969SOL     OW 9805   4.607   2.696   4.790
 2969SOL    HW1 9806   4.624   2.673   4.886
 2969SOL    HW2 9807   4.526   2.753   4.783
 2970SOL     OW 9808   2.522   2.144   6.123
 2970SOL    HW1 9809   2.580   2.223   6.142
 2970SOL    HW2 9810   2.563   2.088   6.051
 2971SOL     OW 9811   4.459   3.734   6.073
 2971SOL    HW1 9812   4.391   3.716   6.145
 2971SOL    HW2 9813   4.416   3.722   5.984
 2972SOL     OW 9814   0.772   5.895   6.222
 2972SOL    HW1 9815   0.746   5.991   6.208
 2972SOL    HW2 9816   0.706   5.851   6.283
 2973SOL     OW 9817   5.722   0.761   3.996
 2973SOL    HW1 9818   5.800   0.821   3.973
 2973SOL    HW2 9819   5.756   0.681   4.045
 2974SOL     OW 9820   5.298   6.096   2.654
 2974SOL    HW1 9821   5.387   6.141   2.649
 2974SOL    HW2 9822   5.291   6.044   2.739
 2975SOL     OW 9823   0.042   3.740   4.553
 2975SOL    HW1 9824   0.034   3.690   4.639
 2975SOL    HW2 9825   6.970   3.779   4.528
 2976SOL     OW 9826   3.675   0.298   1.499
 2976SOL    HW1 9827   3.645   0.344   1.416
 2976SOL    HW2 9828   3.685   0.364   1.573
 2977SOL     OW 9829   1.513   1.051   2.276
 2977SOL    HW1 9830   1.591   1.017   2.328
 2977SOL    HW2 9831   1.442   1.083   2.339
 2978SOL     OW 9832   3.654   5.877   0.300
 2978SOL    HW1 9833   3.557   5.887   0.278
 2978SOL    HW2 9834   3.700   5.825   0.228
 2979SOL     OW 9835   2.767   1.486   5.519
 2979SOL    HW1 9836   2.808   1.508   5.608
 2979SOL    HW2 9837   2.736   1.570   5.475
 2980SOL     OW 9838   3.449   2.904   3.860
 2980SOL    HW1 9839   3.395   2.980   3.896
 2980SOL    HW2 9840   3.512   2.871   3.930
 2981SOL     OW 9841   2.924   2.055   1.691
 2981SOL    HW1 9842   2.958   2.147   1.676
 2981SOL    HW2 9843   2.904   2.012   1.603
 2982SOL     OW 9844   1.461   0.632   1.726
 2982SOL    HW1 9845   1.375   0.649   1.678
 2982SOL    HW2 9846   1.451   0.657   1.822
 2983SOL     OW 9847   6.785   2.675   6.550
 2983SOL    HW1 9848   6.777   2.727   6.464
 2983SOL    HW2 9849   6.842   2.595   6.535
 2984SOL     OW 9850   0.566   6.647   1.033
 2984SOL    HW1 9851   0.495   6.695   0.981
 2984SOL    HW2 9852   0.592   6.702   1.112
 2985SOL     OW 9853   6.638   6.997   5.747
 2985SOL    HW1 9854   6.577   7.008   5.826
 2985SOL    HW2 9855   6.681   6.907   5.751
 2986SOL     OW 9856   4.095   3.323   3.027
 2986SOL    HW1 9857   4.065   3.252   3.091
 2986SOL    HW2 9858   4.099   3.284   2.935
 2987SOL     OW 9859   2.436   5.890   5.253
 2987SOL    HW1 9860   2.517   5.937   5.288
 2987SOL    HW2 9861   2.379   5.860   5.330
 2988SOL     OW 9862   0.880   1.701   6.577
 2988SOL    HW1 9863   0.932   1.642   6.514
 2988SOL    HW2 9864   0.791   1.659   6.595
 2989SOL     OW 9865   5.642   3.853   5.793
 2989SOL    HW1 9866   5.589   3.935   5.813
 2989SOL    HW2 9867   5.635   3.830   5.696
 2990SOL     OW 9868   4.689   0.587   5.310
 2990SOL    HW1 9869   4.703   0.673   5.261
 2990SOL    HW2 9870   4.762   0.522   5.286
 2991SOL     OW 9871   6.445   2.869   0.097
 2991SOL    HW1 9872   6.476   2.908   0.010
 2991SOL    HW2 9873   6.346   2.858   0.094
 2992SOL     OW 9874   1.740   3.952   5.353
 2992SOL    HW1 9875   1.742   4.001   5.266
 2992SOL    HW2 9876   1.682   3.871   5.345
 2993SOL     OW 9877   3.611   4.899   6.489
 2993SOL    HW1 9878   3.617   4.936   6.397
 2993SOL    HW2 9879   3.530   4.840   6.496
 2994SOL     OW 9880   2.628   5.050   4.717
 2994SOL    HW1 9881   2.559   4.982   4.741
 2994SOL    HW2 9882   2.663   5.091   4.801
 2995SOL     OW 9883   4.677   0.153   1.789
 2995SOL    HW1 9884   4.615   0.194   1.857
 2995SOL    HW2 9885   4.754   0.214   1.774
 2996SOL     OW 9886   6.903   0.733   4.002
 2996SOL    HW1 9887   6.876   0.824   3.970
 2996SOL    HW2 9888   6.904   0.732   4.102
 2997SOL     OW 9889   4.631   6.166   4.261
 2997SOL    HW1 9890   4.718   6.118   4.244
 2997SOL    HW2 9891   4.648   6.264   4.271
 2998SOL     OW 9892   2.521   0.145   2.081
 2998SOL    HW1 9893   2.607   0.176   2.041
 2998SOL    HW2 9894   2.529   0.144   2.181
 2999SOL     OW 9895   1.844   4.917   7.012
 2999SOL    HW1 9896   1.937   4.882   0.002
 2999SOL    HW2 9897   1.781   4.850   0.035
 3000SOL     OW 9898   1.766   4.327   6.259
 3000SOL    HW1 9899   1.755   4.294   6.353
 3000SOL    HW2 9900   1.837   4.272   6.213
 3001SOL     OW 9901   4.035   0.452   6.304
 3001SOL    HW1 9902   4.019   0.357   6.279
 3001SOL    HW2 9903   3.949   0.503   6.304
 3002SOL     OW 9904   1.285   2.222   1.850
 3002SOL    HW1 9905   1.347   2.151   1.817
 3002SOL    HW2 9906   1.338   2.290   1.901
 3003SOL     OW 9907   1.588   6.175   0.752
 3003SOL    HW1 9908   1.638   6.257   0.726
 3003SOL    HW2 9909   1.555   6.129   0.670
 3004SOL     OW 9910   2.823   0.104   4.429
 3004SOL    HW1 9911   2.734   0.102   4.383
 3004SOL    HW2 9912   2.809   0.114   4.528
 3005SOL     OW 9913   2.520   2.235   0.531
 3005SOL    HW1 9914   2.439   2.294   0.530
 3005SOL    HW2 9915   2.528   2.191   0.620
 3006SOL     OW 9916   5.626   1.123   5.877
 3006SOL    HW1 9917   5.605   1.058   5.804
 3006SOL    HW2 9918   5.543   1.145   5.927
 3007SOL     OW 9919   6.332   5.627   5.890
 3007SOL    HW1 9920   6.376   5.577   5.815
 3007SOL    HW2 9921   6.390   5.704   5.917
 3008SOL     OW 9922   5.163   4.140   5.380
 3008SOL    HW1 9923   5.127   4.179   5.296
 3008SOL    HW2 9924   5.188   4.213   5.443
 3009SOL     OW 9925   5.331   3.821   1.821
 3009SOL    HW1 9926   5.262   3.808   1.892
 3009SOL    HW2 9927   5.413   3.862   1.860
 3010SOL     OW 9928   4.349   4.644   1.453
 3010SOL    HW1 9929   4.310   4.589   1.379
 3010SOL    HW2 9930   4.295   4.630   1.536
 3011SOL     OW 9931   6.197   6.796   0.146
 3011SOL    HW1 9932   6.115   6.842   0.111
 3011SOL    HW2 9933   6.234   6.735   0.076
 3012SOL     OW 9934   2.590   1.415   4.802
 3012SOL    HW1 9935   2.520   1.386   4.736
 3012SOL    HW2 9936   2.671   1.357   4.793
 3013SOL     OW 9937   0.574   5.098   5.384
 3013SOL    HW1 9938   0.502   5.054   5.438
 3013SOL    HW2 9939   0.573   5.196   5.401
 3014SOL     OW 9940   3.976   0.373   0.194
 3014SOL    HW1 9941   4.038   0.315   0.247
 3014SOL    HW2 9942   3.882   0.342   0.207
 3015SOL     OW 9943   2.131   6.400   6.270
 3015SOL    HW1 9944   2.093   6.445   6.189
 3015SOL    HW2 9945   2.108   6.454   6.351
 3016SOL     OW 9946   3.481   0.974   4.297
 3016SOL    HW1 9947   3.473   0.930   4.387
 3016SOL    HW2 9948   3.516   0.907   4.231
 3017SOL     OW 9949   1.415   6.143   0.466
 3017SOL    HW1 9950   1.483   6.206   0.429
 3017SOL    HW2 9951   1.325   6.164   0.427
 3018SOL     OW 9952   2.508   2.240   1.960
 3018SOL    HW1 9953   2.453   2.212   1.881
 3018SOL    HW2 9954   2.596   2.192   1.957
 3019SOL     OW 9955   1.396   0.720   5.286
 3019SOL    HW1 9956   1.373   0.640   5.342
 3019SOL    HW2 9957   1.356   0.802   5.327
 3020SOL     OW 9958   4.866   4.232   6.810
 3020SOL    HW1 9959   4.877   4.234   6.711
 3020SOL    HW2 9960   4.956   4.219   6.853
 3021SOL     OW 9961   4.443   6.481   4.503
 3021SOL    HW1 9962   4.415   6.567   4.461
 3021SOL    HW2 9963   4.364   6.419   4.507
 3022SOL     OW 9964   4.285   6.999   3.225
 3022SOL    HW1 9965   4.238   6.945   3.295
 3022SOL    HW2 9966   4.268   0.080   3.243
 3023SOL     OW 9967   5.142   4.615   4.990
 3023SOL    HW1 9968   5.112   4.691   4.932
 3023SOL    HW2 9969   5.082   4.536   4.977
 3024SOL     OW 9970   6.047   1.120   0.194
 3024SOL    HW1 9971   6.092   1.037   0.226
 3024SOL    HW2 9972   6.105   1.165   0.126
 3025SOL     OW 9973   4.132   5.196   0.870
 3025SOL    HW1 9974   4.154   5.104   0.837
 3025SOL    HW2 9975   4.154   5.203   0.967
 3026SOL     OW 9976   0.349   0.291   2.344
 3026SOL    HW1 9977   0.441   0.315   2.315
 3026SOL    HW2 9978   0.322   0.204   2.302
 3027SOL     OW 9979   4.186   0.477   0.660
 3027SOL    HW1 9980   4.196   0.510   0.754
 3027SOL    HW2 9981   4.173   0.378   0.660
 3028SOL     OW 9982   4.113   3.272   4.249
 3028SOL    HW1 9983   4.109   3.371   4.240
 3028SOL    HW2 9984   4.069   3.229   4.170
 3029SOL     OW 9985   0.063   2.585   4.356
 3029SOL    HW1 9986   0.154   2.625   4.369
 3029SOL    HW2 9987   0.041   2.526   4.434
 3030SOL     OW 9988   0.286   3.492   6.305
 3030SOL    HW1 9989   0.233   3.545   6.238
 3030SOL    HW2 9990   0.334   3.418   6.258
 3031SOL     OW 9991   0.310   4.499   7.014
 3031SOL    HW1 9992   0.380   4.427   7.015
 3031SOL    HW2 9993   0.303   4.537   6.922
 3032SOL     OW 9994   3.397   0.062   4.073
 3032SOL    HW1 9995   3.466   7.008   4.053
 3032SOL    HW2 9996   3.319   0.051   4.011
 3033SOL     OW 9997   2.023   0.858   6.607
 3033SOL    HW1 9998   2.032   0.886   6.703
 3033SOL    HW2 9999   2.066   0.926   6.548
 3034SOL     OW10000   5.589   3.301   3.345
 3034SOL    HW110001   5.561   3.380   3.400
 3034SOL    HW210002   5.531   3.296   3.264
 3035SOL     OW10003   6.391   4.055   6.292
 3035SOL    HW110004   6.489   4.061   6.311
 3035SOL    HW210005   6.340   4.063   6.377
 3036SOL     OW10006   3.179   2.314   5.876
 3036SOL    HW110007   3.120   2.377   5.825
 3036SOL    HW210008   3.126   2.266   5.945
 3037SOL     OW10009   0.572   5.272   6.060
 3037SOL    HW110010   0.635   5.266   6.137
 3037SOL    HW210011   0.524   5.360   6.063
 3038SOL     OW10012   5.742   4.521   5.302
 3038SOL    HW110013   5.784   4.601   5.345
 3038SOL    HW210014   5.643   4.527   5.311
 3039SOL     OW10015   6.077   3.206   6.257
 3039SOL    HW110016   6.069   3.298   6.296
 3039SOL    HW210017   6.153   3.158   6.300
 3040SOL     OW10018   4.261   6.153   6.544
 3040SOL    HW110019   4.250   6.169   6.642
 3040SOL    HW210020   4.280   6.239   6.498
 3041SOL     OW10021   2.410   5.948   6.572
 3041SOL    HW110022   2.460   5.878   6.523
 3041SOL    HW210023   2.473   6.003   6.627
 3042SOL     OW10024   0.297   5.483   3.697
 3042SOL    HW110025   0.198   5.481   3.684
 3042SOL    HW210026   0.339   5.406   3.649
 3043SOL     OW10027   2.400   3.750   1.289
 3043SOL    HW110028   2.361   3.821   1.348
 3043SOL    HW210029   2.498   3.741   1.309
 3044SOL     OW10030   3.802   3.779   4.743
 3044SOL    HW110031   3.773   3.684   4.752
 3044SOL    HW210032   3.901   3.785   4.756
 3045SOL     OW10033   5.793   0.211   3.291
 3045SOL    HW110034   5.821   0.267   3.213
 3045SOL    HW210035   5.866   0.147   3.314
 3046SOL     OW10036   6.388   5.713   1.348
 3046SOL    HW110037   6.332   5.642   1.306
 3046SOL    HW210038   6.426   5.773   1.277
 3047SOL     OW10039   4.718   1.440   3.460
 3047SOL    HW110040   4.634   1.432   3.407
 3047SOL    HW210041   4.797   1.431   3.400
 3048SOL     OW10042   4.431   5.270   1.039
 3048SOL    HW110043   4.351   5.239   1.089
 3048SOL    HW210044   4.414   5.263   0.941
 3049SOL     OW10045   0.076   0.790   1.511
 3049SOL    HW110046   0.103   0.882   1.539
 3049SOL    HW210047   0.131   0.762   1.431
 3050SOL     OW10048   4.066   2.382   5.980
 3050SOL    HW110049   4.161   2.370   6.010
 3050SOL    HW210050   4.016   2.297   5.996
 3051SOL     OW10051   2.008   4.519   6.355
 3051SOL    HW110052   1.911   4.528   6.377
 3051SOL    HW210053   2.018   4.471   6.267
 3052SOL     OW10054   6.033   6.156   4.033
 3052SOL    HW110055   6.020   6.143   3.934
 3052SOL    HW210056   6.129   6.145   4.056
 3053SOL     OW10057   0.741   5.568   6.295
 3053SOL    HW110058   0.666   5.587   6.232
 3053SOL    HW210059   0.824   5.548   6.242
 3054SOL     OW10060   6.078   6.391   3.517
 3054SOL    HW110061   6.142   6.461   3.547
 3054SOL    HW210062   6.013   6.431   3.452
 3055SOL     OW10063   5.002   6.351   0.506
 3055SOL    HW110064   4.907   6.368   0.532
 3055SOL    HW210065   5.039   6.431   0.460
 3056SOL     OW10066   4.241   2.069   0.463
 3056SOL    HW110067   4.171   2.108   0.403
 3056SOL    HW210068   4.309   2.021   0.408
 3057SOL     OW10069   6.855   3.288   3.407
 3057SOL    HW110070   6.806   3.232   3.475
 3057SOL    HW210071   6.914   3.229   3.352
 3058SOL     OW10072   6.022   4.032   5.909
 3058SOL    HW110073   6.116   4.053   5.882
 3058SOL    HW210074   5.966   4.020   5.826
 3059SOL     OW10075   1.666   2.584   3.723
 3059SOL    HW110076   1.715   2.671   3.733
 3059SOL    HW210077   1.636   2.574   3.629
 3060SOL     OW10078   5.798   3.558   3.956
 3060SOL    HW110079   5.885   3.532   3.997
 3060SOL    HW210080   5.761   3.481   3.904
 3061SOL     OW10081   5.668   6.479   2.653
 3061SOL    HW110082   5.657   6.561   2.596
 3061SOL    HW210083   5.732   6.497   2.727
 3062SOL     OW10084   3.595   5.231   0.405
 3062SOL    HW110085   3.639   5.198   0.321
 3062SOL    HW210086   3.631   5.181   0.483
 3063SOL     OW10087   6.385   5.340   0.628
 3063SOL    HW110088   6.457   5.290   0.676
 3063SOL    HW210089   6.304   5.281   0.620
 3064SOL     OW10090   4.773   1.530   6.192
 3064SOL    HW110091   4.824   1.605   6.148
 3064SOL    HW210092   4.807   1.443   6.157
 3065SOL     OW10093   5.161   0.579   6.546
 3065SOL    HW110094   5.197   0.663   6.586
 3065SOL    HW210095   5.173   0.504   6.610
 3066SOL     OW10096   5.578   6.672   5.935
 3066SOL    HW110097   5.550   6.682   6.031
 3066SOL    HW210098   5.503   6.631   5.883
 3067SOL     OW10099   1.732   2.269   4.682
 3067SOL    HW110100   1.708   2.196   4.746
 3067SOL    HW210101   1.752   2.230   4.592
 3068SOL     OW10102   5.625   6.974   0.490
 3068SOL    HW110103   5.694   6.906   0.513
 3068SOL    HW210104   5.648   0.044   0.535
 3069SOL     OW10105   5.482   6.168   3.622
 3069SOL    HW110106   5.509   6.138   3.531
 3069SOL    HW210107   5.392   6.211   3.618
 3070SOL     OW10108   2.754   1.157   1.308
 3070SOL    HW110109   2.759   1.233   1.243
 3070SOL    HW210110   2.742   1.072   1.258
 3071SOL     OW10111   5.372   4.690   4.750
 3071SOL    HW110112   5.402   4.665   4.842
 3071SOL    HW210113   5.437   4.754   4.710
 3072SOL     OW10114   1.609   6.490   5.188
 3072SOL    HW110115   1.572   6.575   5.226
 3072SOL    HW210116   1.646   6.509   5.097
 3073SOL     OW10117   0.089   5.366   3.163
 3073SOL    HW110118   0.168   5.338   3.108
 3073SOL    HW210119   0.039   5.439   3.116
 3074SOL     OW10120   3.231   3.188   2.055
 3074SOL    HW110121   3.248   3.118   2.123
 3074SOL    HW210122   3.133   3.190   2.033
 3075SOL     OW10123   3.889   4.911   0.414
 3075SOL    HW110124   3.936   4.977   0.355
 3075SOL    HW210125   3.790   4.919   0.401
 3076SOL     OW10126   1.806   1.680   4.030
 3076SOL    HW110127   1.706   1.689   4.038
 3076SOL    HW210128   1.828   1.617   3.955
 3077SOL     OW10129   0.259   3.956   2.947
 3077SOL    HW110130   0.307   3.871   2.967
 3077SOL    HW210131   0.221   3.994   3.032
 3078SOL     OW10132   6.484   4.281   1.128
 3078SOL    HW110133   6.509   4.298   1.033
 3078SOL    HW210134   6.432   4.196   1.133
 3079SOL     OW10135   1.037   3.859   3.452
 3079SOL    HW110136   1.033   3.915   3.370
 3079SOL    HW210137   0.952   3.808   3.462
 3080SOL     OW10138   3.816   4.747   1.745
 3080SOL    HW110139   3.827   4.752   1.646
 3080SOL    HW210140   3.728   4.705   1.767
 3081SOL     OW10141   1.908   2.838   6.083
 3081SOL    HW110142   1.890   2.848   6.181
 3081SOL    HW210143   1.848   2.768   6.045
 3082SOL     OW10144   5.796   3.979   4.758
 3082SOL    HW110145   5.837   4.005   4.846
 3082SOL    HW210146   5.784   4.060   4.701
 3083SOL     OW10147   3.845   6.028   1.247
 3083SOL    HW110148   3.832   6.057   1.152
 3083SOL    HW210149   3.898   5.944   1.250
 3084SOL     OW10150   6.621   5.207   3.888
 3084SOL    HW110151   6.682   5.252   3.822
 3084SOL    HW210152   6.638   5.243   3.980
 3085SOL     OW10153   6.539   5.115   6.581
 3085SOL    HW110154   6.569   5.188   6.519
 3085SOL    HW210155   6.563   5.140   6.675
 3086SOL     OW10156   6.222   6.016   6.377
 3086SOL    HW110157   6.140   6.073   6.382
 3086SOL    HW210158   6.303   6.073   6.390
 3087SOL     OW10159   2.923   0.363   1.847
 3087SOL    HW110160   3.013   0.393   1.814
 3087SOL    HW210161   2.867   0.443   1.868
 3088SOL     OW10162   2.477   3.301   5.341
 3088SOL    HW110163   2.568   3.339   5.360
 3088SOL    HW210164   2.486   3.224   5.277
 3089SOL     OW10165   3.681   6.610   0.092
 3089SOL    HW110166   3.740   6.580   0.017
 3089SOL    HW210167   3.721   6.580   0.179
 3090SOL     OW10168   1.411   2.330   2.344
 3090SOL    HW110169   1.455   2.257   2.396
 3090SOL    HW210170   1.323   2.352   2.386
 3091SOL     OW10171   1.286   2.914   6.864
 3091SOL    HW110172   1.367   2.899   6.808
 3091SOL    HW210173   1.207   2.932   6.804
 3092SOL     OW10174   4.728   1.788   3.420
 3092SOL    HW110175   4.762   1.757   3.508
 3092SOL    HW210176   4.801   1.779   3.351
 3093SOL     OW10177   6.286   4.825   0.180
 3093SOL    HW110178   6.341   4.864   0.255
 3093SOL    HW210179   6.218   4.763   0.217
 3094SOL     OW10180   2.509   0.948   5.913
 3094SOL    HW110181   2.444   0.960   5.838
 3094SOL    HW210182   2.547   0.856   5.910
 3095SOL     OW10183   2.050   3.506   5.721
 3095SOL    HW110184   2.108   3.458   5.655
 3095SOL    HW210185   2.101   3.582   5.760
 3096SOL     OW10186   1.795   3.096   3.783
 3096SOL    HW110187   1.705   3.095   3.827
 3096SOL    HW210188   1.784   3.113   3.685
 3097SOL     OW10189   5.410   2.831   5.920
 3097SOL    HW110190   5.400   2.929   5.907
 3097SOL    HW210191   5.468   2.813   5.999
 3098SOL     OW10192   1.318   3.436   2.334
 3098SOL    HW110193   1.322   3.355   2.277
 3098SOL    HW210194   1.406   3.482   2.335
 3099SOL     OW10195   0.575   6.862   5.870
 3099SOL    HW110196   0.547   6.780   5.821
 3099SOL    HW210197   0.507   6.934   5.858
 3100SOL     OW10198   6.218   4.162   2.728
 3100SOL    HW110199   6.153   4.218   2.676
 3100SOL    HW210200   6.253   4.089   2.670
 3101SOL     OW10201   5.504   1.058   4.508
 3101SOL    HW110202   5.563   1.085   4.433
 3101SOL    HW210203   5.537   1.099   4.593
 3102SOL     OW10204   5.972   3.859   2.882
 3102SOL    HW110205   5.953   3.783   2.820
 3102SOL    HW210206   5.914   3.937   2.858
 3103SOL     OW10207   1.092   1.061   2.301
 3103SOL    HW110208   1.004   1.106   2.284
 3103SOL    HW210209   1.100   1.040   2.399
 3104SOL     OW10210   5.879   2.163   6.319
 3104SOL    HW110211   5.892   2.251   6.273
 3104SOL    HW210212   5.781   2.141   6.322
 3105SOL     OW10213   5.596   4.149   0.742
 3105SOL    HW110214   5.564   4.154   0.837
 3105SOL    HW210215   5.672   4.084   0.736
 3106SOL     OW10216   5.561   2.006   5.506
 3106SOL    HW110217   5.609   1.918   5.506
 3106SOL    HW210218   5.568   2.048   5.596
 3107SOL     OW10219   4.292   1.912   4.864
 3107SOL    HW110220   4.196   1.922   4.840
 3107SOL    HW210221   4.328   1.827   4.824
 3108SOL     OW10222   1.904   4.503   3.634
 3108SOL    HW110223   1.907   4.502   3.534
 3108SOL    HW210224   1.932   4.414   3.669
 3109SOL     OW10225   0.359   5.265   3.567
 3109SOL    HW110226   0.396   5.240   3.478
 3109SOL    HW210227   0.303   5.190   3.602
 3110SOL     OW10228   1.322   5.816   4.608
 3110SOL    HW110229   1.326   5.911   4.639
 3110SOL    HW210230   1.399   5.765   4.648
 3111SOL     OW10231   6.815   4.123   3.881
 3111SOL    HW110232   6.867   4.045   3.916
 3111SOL    HW210233   6.726   4.092   3.847
 3112SOL     OW10234   4.420   0.423   1.143
 3112SOL    HW110235   4.470   0.495   1.095
 3112SOL    HW210236   4.459   0.334   1.118
 3113SOL     OW10237   1.294   6.772   3.982
 3113SOL    HW110238   1.250   6.697   4.032
 3113SOL    HW210239   1.325   6.738   3.893
 3114SOL     OW10240   4.701   6.140   5.579
 3114SOL    HW110241   4.647   6.176   5.503
 3114SOL    HW210242   4.758   6.065   5.545
 3115SOL     OW10243   4.685   6.238   4.582
 3115SOL    HW110244   4.730   6.159   4.541
 3115SOL    HW210245   4.698   6.318   4.523
 3116SOL     OW10246   0.924   2.166   6.783
 3116SOL    HW110247   0.858   2.234   6.750
 3116SOL    HW210248   0.884   2.075   6.776
 3117SOL     OW10249   4.683   6.911   1.121
 3117SOL    HW110250   4.658   6.814   1.130
 3117SOL    HW210251   4.768   6.918   1.069
 3118SOL     OW10252   1.013   2.034   3.326
 3118SOL    HW110253   1.005   2.106   3.256
 3118SOL    HW210254   0.922   2.000   3.349
 3119SOL     OW10255   4.290   6.660   4.075
 3119SOL    HW110256   4.321   6.691   4.164
 3119SOL    HW210257   4.251   6.568   4.084
 3120SOL     OW10258   3.416   6.259   6.838
 3120SOL    HW110259   3.320   6.252   6.864
 3120SOL    HW210260   3.460   6.330   6.893
 3121SOL     OW10261   3.470   2.024   3.146
 3121SOL    HW110262   3.568   2.029   3.126
 3121SOL    HW210263   3.456   2.016   3.244
 3122SOL     OW10264   5.600   3.604   6.298
 3122SOL    HW110265   5.535   3.529   6.288
 3122SOL    HW210266   5.676   3.592   6.235
 3123SOL     OW10267   1.849   2.917   2.613
 3123SOL    HW110268   1.898   2.891   2.530
 3123SOL    HW210269   1.753   2.892   2.603
 3124SOL     OW10270   4.879   6.502   5.878
 3124SOL    HW110271   4.794   6.452   5.898
 3124SOL    HW210272   4.933   6.450   5.812
 3125SOL     OW10273   1.649   2.047   5.078
 3125SOL    HW110274   1.716   1.978   5.108
 3125SOL    HW210275   1.655   2.127   5.138
 3126SOL     OW10276   4.715   4.511   5.466
 3126SOL    HW110277   4.731   4.413   5.481
 3126SOL    HW210278   4.637   4.523   5.405
 3127SOL     OW10279   6.477   2.488   5.618
 3127SOL    HW110280   6.469   2.396   5.579
 3127SOL    HW210281   6.386   2.524   5.638
 3128SOL     OW10282   3.835   1.183   1.143
 3128SOL    HW110283   3.817   1.086   1.126
 3128SOL    HW210284   3.932   1.201   1.134
 3129SOL     OW10285   4.516   4.771   0.026
 3129SOL    HW110286   4.451   4.822   0.083
 3129SOL    HW210287   4.596   4.829   0.008
 3130SOL     OW10288   6.535   5.915   2.451
 3130SOL    HW110289   6.602   5.977   2.409
 3130SOL    HW210290   6.577   5.866   2.527
 3131SOL     OW10291   6.814   2.587   3.131
 3131SOL    HW110292   6.809   2.488   3.145
 3131SOL    HW210293   6.877   2.626   3.198
 3132SOL     OW10294   4.598   4.201   6.359
 3132SOL    HW110295   4.555   4.115   6.329
 3132SOL    HW210296   4.528   4.273   6.363
 3133SOL     OW10297   5.696   6.085   3.772
 3133SOL    HW110298   5.625   6.106   3.705
 3133SOL    HW210299   5.698   6.157   3.841
 3134SOL     OW10300   4.837   4.815   2.810
 3134SOL    HW110301   4.883   4.753   2.747
 3134SOL    HW210302   4.865   4.794   2.904
 3135SOL     OW10303   3.547   0.964   6.474
 3135SOL    HW110304   3.554   1.063   6.487
 3135SOL    HW210305   3.472   0.928   6.529
 3136SOL     OW10306   6.474   6.405   2.350
 3136SOL    HW110307   6.455   6.493   2.306
 3136SOL    HW210308   6.412   6.336   2.314
 3137SOL     OW10309   4.821   4.554   6.898
 3137SOL    HW110310   4.763   4.476   6.875
 3137SOL    HW210311   4.914   4.538   6.864
 3138SOL     OW10312   7.011   6.613   4.790
 3138SOL    HW110313   6.998   6.527   4.838
 3138SOL    HW210314   0.052   6.599   4.710
 3139SOL     OW10315   1.122   4.614   1.804
 3139SOL    HW110316   1.066   4.583   1.881
 3139SOL    HW210317   1.086   4.699   1.768
 3140SOL     OW10318   5.121   6.165   0.042
 3140SOL    HW110319   5.042   6.105   0.053
 3140SOL    HW210320   5.188   6.122   6.998
 3141SOL     OW10321   5.706   1.768   0.224
 3141SOL    HW110322   5.785   1.734   0.173
 3141SOL    HW210323   5.625   1.764   0.165
 3142SOL     OW10324   4.509   1.177   4.175
 3142SOL    HW110325   4.472   1.260   4.218
 3142SOL    HW210326   4.567   1.129   4.241
 3143SOL     OW10327   6.559   1.480   0.804
 3143SOL    HW110328   6.466   1.492   0.768
 3143SOL    HW210329   6.569   1.386   0.837
 3144SOL     OW10330   4.095   4.920   6.763
 3144SOL    HW110331   4.076   4.871   6.848
 3144SOL    HW210332   4.174   4.879   6.718
 3145SOL     OW10333   0.964   5.822   5.216
 3145SOL    HW110334   0.895   5.783   5.154
 3145SOL    HW210335   0.999   5.908   5.177
 3146SOL     OW10336   6.236   1.879   4.455
 3146SOL    HW110337   6.199   1.965   4.489
 3146SOL    HW210338   6.333   1.890   4.433
 3147SOL     OW10339   4.750   6.329   0.621
 3147SOL    HW110340   4.814   6.259   0.652
 3147SOL    HW210341   4.674   6.336   0.686
 3148SOL     OW10342   5.916   4.897   0.341
 3148SOL    HW110343   5.946   4.970   0.402
 3148SOL    HW210344   5.817   4.903   0.327
 3149SOL     OW10345   3.929   3.313   6.875
 3149SOL    HW110346   4.007   3.353   6.827
 3149SOL    HW210347   3.845   3.356   6.843
 3150SOL     OW10348   0.337   0.275   5.284
 3150SOL    HW110349   0.428   0.264   5.242
 3150SOL    HW210350   0.347   0.298   5.380
 3151SOL     OW10351   6.900   1.050   6.032
 3151SOL    HW110352   6.937   1.141   6.011
 3151SOL    HW210353   6.947   1.013   6.112
 3152SOL     OW10354   2.664   2.051   5.853
 3152SOL    HW110355   2.697   1.966   5.895
 3152SOL    HW210356   2.604   2.028   5.776
 3153SOL     OW10357   5.925   5.558   1.796
 3153SOL    HW110358   5.977   5.498   1.736
 3153SOL    HW210359   5.848   5.597   1.745
 3154SOL     OW10360   3.381   1.902   0.597
 3154SOL    HW110361   3.339   1.951   0.521
 3154SOL    HW210362   3.350   1.941   0.684
 3155SOL     OW10363   0.698   5.742   6.516
 3155SOL    HW110364   0.754   5.674   6.469
 3155SOL    HW210365   0.746   5.776   6.596
 3156SOL     OW10366   3.245   3.900   1.236
 3156SOL    HW110367   3.310   3.889   1.161
 3156SOL    HW210368   3.154   3.921   1.200
 3157SOL     OW10369   1.711   1.200   3.892
 3157SOL    HW110370   1.677   1.194   3.799
 3157SOL    HW210371   1.698   1.293   3.927
 3158SOL     OW10372   2.538   0.800   6.618
 3158SOL    HW110373   2.626   0.753   6.614
 3158SOL    HW210374   2.541   0.870   6.689
 3159SOL     OW10375   5.024   6.501   1.526
 3159SOL    HW110376   5.122   6.493   1.545
 3159SOL    HW210377   4.975   6.518   1.611
 3160SOL     OW10378   2.610   1.241   5.039
 3160SOL    HW110379   2.648   1.221   4.949
 3160SOL    HW210380   2.591   1.339   5.046
 3161SOL     OW10381   1.973   2.699   2.039
 3161SOL    HW110382   1.915   2.765   2.086
 3161SOL    HW210383   2.037   2.747   1.979
 3162SOL     OW10384   0.986   5.588   2.084
 3162SOL    HW110385   1.078   5.626   2.092
 3162SOL    HW210386   0.954   5.600   1.990
 3163SOL     OW10387   4.999   4.538   1.049
 3163SOL    HW110388   5.076   4.502   0.996
 3163SOL    HW210389   4.914   4.501   1.013
 3164SOL     OW10390   2.646   0.349   4.088
 3164SOL    HW110391   2.728   0.381   4.135
 3164SOL    HW210392   2.592   0.292   4.149
 3165SOL     OW10393   1.031   5.381   6.683
 3165SOL    HW110394   1.004   5.291   6.717
 3165SOL    HW210395   1.064   5.436   6.759
 3166SOL     OW10396   3.760   1.643   4.534
 3166SOL    HW110397   3.664   1.625   4.513
 3166SOL    HW210398   3.790   1.580   4.606
 3167SOL     OW10399   6.345   3.048   2.026
 3167SOL    HW110400   6.359   3.146   2.044
 3167SOL    HW210401   6.322   3.035   1.929
 3168SOL     OW10402   5.057   1.414   1.172
 3168SOL    HW110403   5.091   1.467   1.250
 3168SOL    HW210404   4.961   1.390   1.187
 3169SOL     OW10405   0.791   3.157   1.608
 3169SOL    HW110406   0.753   3.074   1.569
 3169SOL    HW210407   0.735   3.236   1.581
 3170SOL     OW10408   2.305   4.156   3.920
 3170SOL    HW110409   2.374   4.226   3.938
 3170SOL    HW210410   2.284   4.155   3.822
 3171SOL     OW10411   5.123   1.278   4.982
 3171SOL    HW110412   5.075   1.210   5.037
 3171SOL    HW210413   5.221   1.261   4.985
 3172SOL     OW10414   6.223   3.759   1.480
 3172SOL    HW110415   6.163   3.835   1.506
 3172SOL    HW210416   6.172   3.674   1.484
 3173SOL     OW10417   5.500   3.379   0.165
 3173SOL    HW110418   5.453   3.465   0.147
 3173SOL    HW210419   5.447   3.304   0.125
 3174SOL     OW10420   3.209   2.939   6.555
 3174SOL    HW110421   3.184   3.023   6.603
 3174SOL    HW210422   3.178   2.945   6.460
 3175SOL     OW10423   5.852   5.955   5.423
 3175SOL    HW110424   5.792   5.976   5.500
 3175SOL    HW210425   5.889   5.863   5.434
 3176SOL     OW10426   0.649   4.881   3.705
 3176SOL    HW110427   0.645   4.945   3.781
 3176SOL    HW210428   0.649   4.931   3.618
 3177SOL     OW10429   5.082   2.572   2.391
 3177SOL    HW110430   5.022   2.493   2.406
 3177SOL    HW210431   5.101   2.581   2.294
 3178SOL     OW10432   1.240   0.956   2.788
 3178SOL    HW110433   1.317   0.912   2.834
 3178SOL    HW210434   1.171   0.887   2.765
 3179SOL     OW10435   0.954   3.332   2.256
 3179SOL    HW110436   0.961   3.246   2.306
 3179SOL    HW210437   0.894   3.321   2.178
 3180SOL     OW10438   6.349   0.211   6.815
 3180SOL    HW110439   6.345   0.269   6.897
 3180SOL    HW210440   6.297   0.253   6.741
 3181SOL     OW10441   0.283   6.453   4.945
 3181SOL    HW110442   0.280   6.470   5.044
 3181SOL    HW210443   0.217   6.382   4.921
 3182SOL     OW10444   1.245   0.185   1.186
 3182SOL    HW110445   1.329   0.151   1.228
 3182SOL    HW210446   1.253   0.284   1.173
 3183SOL     OW10447   4.445   4.167   0.644
 3183SOL    HW110448   4.355   4.123   0.640
 3183SOL    HW210449   4.516   4.097   0.653
 3184SOL     OW10450   6.144   1.081   4.041
 3184SOL    HW110451   6.199   1.043   3.967
 3184SOL    HW210452   6.204   1.115   4.113
 3185SOL     OW10453   1.478   0.254   5.636
 3185SOL    HW110454   1.508   0.276   5.729
 3185SOL    HW210455   1.388   0.212   5.639
 3186SOL     OW10456   0.479   1.987   5.452
 3186SOL    HW110457   0.388   2.027   5.447
 3186SOL    HW210458   0.472   1.888   5.438
 3187SOL     OW10459   5.442   0.078   3.148
 3187SOL    HW110460   5.388   0.035   3.075
 3187SOL    HW210461   5.536   0.044   3.144
 3188SOL     OW10462   1.501   5.740   1.277
 3188SOL    HW110463   1.449   5.823   1.259
 3188SOL    HW210464   1.599   5.763   1.279
 3189SOL     OW10465   2.493   1.338   6.307
 3189SOL    HW110466   2.517   1.284   6.226
 3189SOL    HW210467   2.563   1.407   6.322
 3190SOL     OW10468   6.043   6.366   4.766
 3190SOL    HW110469   6.124   6.410   4.804
 3190SOL    HW210470   6.053   6.266   4.773
 3191SOL     OW10471   3.766   4.936   1.420
 3191SOL    HW110472   3.811   4.875   1.354
 3191SOL    HW210473   3.782   5.031   1.394
 3192SOL     OW10474   5.800   0.553   3.279
 3192SOL    HW110475   5.731   0.567   3.349
 3192SOL    HW210476   5.890   0.544   3.322
 3193SOL     OW10477   3.490   5.767   4.800
 3193SOL    HW110478   3.411   5.711   4.775
 3193SOL    HW210479   3.459   5.855   4.835
 3194SOL     OW10480   2.191   6.502   4.872
 3194SOL    HW110481   2.206   6.403   4.864
 3194SOL    HW210482   2.245   6.538   4.948
 3195SOL     OW10483   0.690   6.564   0.272
 3195SOL    HW110484   0.626   6.620   0.218
 3195SOL    HW210485   0.639   6.491   0.318
 3196SOL     OW10486   6.431   6.794   2.440
 3196SOL    HW110487   6.442   6.748   2.353
 3196SOL    HW210488   6.436   6.893   2.426
 3197SOL     OW10489   2.771   0.966   0.246
 3197SOL    HW110490   2.779   0.874   0.207
 3197SOL    HW210491   2.759   0.959   0.345
 3198SOL     OW10492   5.301   3.767   3.764
 3198SOL    HW110493   5.259   3.824   3.835
 3198SOL    HW210494   5.397   3.752   3.786
 3199SOL     OW10495   4.935   3.696   3.637
 3199SOL    HW110496   4.918   3.606   3.596
 3199SOL    HW210497   4.897   3.698   3.729
 3200SOL     OW10498   5.996   3.367   4.788
 3200SOL    HW110499   6.011   3.341   4.883
 3200SOL    HW210500   5.992   3.466   4.780
 3201SOL     OW10501   6.301   3.888   2.134
 3201SOL    HW110502   6.266   3.931   2.217
 3201SOL    HW210503   6.235   3.820   2.102
 3202SOL     OW10504   2.945   2.770   6.176
 3202SOL    HW110505   2.900   2.770   6.087
 3202SOL    HW210506   3.016   2.700   6.178
 3203SOL     OW10507   3.275   6.365   1.893
 3203SOL    HW110508   3.369   6.386   1.867
 3203SOL    HW210509   3.275   6.307   1.975
 3204SOL     OW10510   4.890   0.855   4.036
 3204SOL    HW110511   4.875   0.951   4.058
 3204SOL    HW210512   4.950   0.814   4.104
 3205SOL     OW10513   4.498   2.719   6.608
 3205SOL    HW110514   4.419   2.727   6.668
 3205SOL    HW210515   4.482   2.647   6.540
 3206SOL     OW10516   2.979   4.589   0.597
 3206SOL    HW110517   2.974   4.577   0.498
 3206SOL    HW210518   3.017   4.506   0.638
 3207SOL     OW10519   2.339   6.334   3.615
 3207SOL    HW110520   2.424   6.313   3.566
 3207SOL    HW210521   2.339   6.290   3.704
 3208SOL     OW10522   6.719   3.606   6.370
 3208SOL    HW110523   6.802   3.597   6.316
 3208SOL    HW210524   6.645   3.553   6.326
 3209SOL     OW10525   4.922   0.022   5.775
 3209SOL    HW110526   4.955   0.117   5.778
 3209SOL    HW210527   4.914   7.003   5.868
 3210SOL     OW10528   5.209   5.036   2.089
 3210SOL    HW110529   5.244   5.017   2.181
 3210SOL    HW210530   5.225   4.957   2.030
 3211SOL     OW10531   2.255   6.337   6.507
 3211SOL    HW110532   2.231   6.304   6.416
 3211SOL    HW210533   2.173   6.340   6.564
 3212SOL     OW10534   3.366   6.732   4.178
 3212SOL    HW110535   3.364   6.639   4.143
 3212SOL    HW210536   3.456   6.772   4.163
 3213SOL     OW10537   1.313   0.520   5.756
 3213SOL    HW110538   1.378   0.540   5.829
 3213SOL    HW210539   1.261   0.438   5.779
 3214SOL     OW10540   3.426   0.922   3.026
 3214SOL    HW110541   3.341   0.949   3.071
 3214SOL    HW210542   3.407   0.898   2.931
 3215SOL     OW10543   2.150   2.949   2.093
 3215SOL    HW110544   2.198   2.879   2.146
 3215SOL    HW210545   2.213   3.023   2.071
 3216SOL     OW10546   5.929   5.089   0.532
 3216SOL    HW110547   5.926   5.153   0.455
 3216SOL    HW210548   5.860   5.116   0.600
 3217SOL     OW10549   6.423   6.282   3.695
 3217SOL    HW110550   6.381   6.275   3.785
 3217SOL    HW210551   6.414   6.194   3.647
 3218SOL     OW10552   6.054   1.352   3.496
 3218SOL    HW110553   6.101   1.338   3.409
 3218SOL    HW210554   6.119   1.383   3.565
 3219SOL     OW10555   5.513   1.888   4.237
 3219SOL    HW110556   5.450   1.965   4.235
 3219SOL    HW210557   5.465   1.806   4.270
 3220SOL     OW10558   6.749   3.667   5.533
 3220SOL    HW110559   6.829   3.709   5.576
 3220SOL    HW210560   6.779   3.605   5.460
 3221SOL     OW10561   4.027   1.273   2.093
 3221SOL    HW110562   4.093   1.344   2.116
 3221SOL    HW210563   3.952   1.274   2.160
 3222SOL     OW10564   3.153   0.864   3.997
 3222SOL    HW110565   3.085   0.874   3.924
 3222SOL    HW210566   3.110   0.882   4.085
 3223SOL     OW10567   1.631   5.902   0.834
 3223SOL    HW110568   1.672   5.872   0.920
 3223SOL    HW210569   1.632   6.002   0.829
 3224SOL     OW10570   4.644   2.612   4.284
 3224SOL    HW110571   4.580   2.578   4.353
 3224SOL    HW210572   4.694   2.690   4.321
 3225SOL     OW10573   4.696   1.200   4.724
 3225SOL    HW110574   4.605   1.232   4.697
 3225SOL    HW210575   4.712   1.108   4.687
 3226SOL     OW10576   6.040   0.959   0.463
 3226SOL    HW110577   5.964   0.927   0.406
 3226SOL    HW210578   6.113   0.891   0.464
 3227SOL     OW10579   6.041   4.329   5.672
 3227SOL    HW110580   6.002   4.312   5.763
 3227SOL    HW210581   5.971   4.366   5.612
 3228SOL     OW10582   2.124   4.415   0.468
 3228SOL    HW110583   2.117   4.373   0.558
 3228SOL    HW210584   2.167   4.505   0.477
 3229SOL     OW10585   1.444   1.467   1.370
 3229SOL    HW110586   1.354   1.477   1.328
 3229SOL    HW210587   1.442   1.392   1.436
 3230SOL     OW10588   3.002   6.106   4.970
 3230SOL    HW110589   2.997   6.152   4.882
 3230SOL    HW210590   2.944   6.025   4.969
 3231SOL     OW10591   2.485   2.546   2.632
 3231SOL    HW110592   2.511   2.454   2.663
 3231SOL    HW210593   2.396   2.570   2.670
 3232SOL     OW10594   2.663   4.618   3.267
 3232SOL    HW110595   2.571   4.581   3.252
 3232SOL    HW210596   2.698   4.656   3.181
 3233SOL     OW10597   3.091   0.360   6.354
 3233SOL    HW110598   3.129   0.299   6.423
 3233SOL    HW210599   3.158   0.374   6.281
 3234SOL     OW10600   3.317   3.733   0.884
 3234SOL    HW110601   3.261   3.678   0.947
 3234SOL    HW210602   3.381   3.789   0.937
 3235SOL     OW10603   6.826   1.707   2.982
 3235SOL    HW110604   6.891   1.732   3.054
 3235SOL    HW210605   6.812   1.785   2.921
 3236SOL     OW10606   5.604   6.931   0.208
 3236SOL    HW110607   5.578   6.948   0.303
 3236SOL    HW210608   5.585   7.013   0.154
 3237SOL     OW10609   6.225   0.976   5.378
 3237SOL    HW110610   6.265   0.949   5.291
 3237SOL    HW210611   6.127   0.992   5.367
 3238SOL     OW10612   6.897   4.948   1.037
 3238SOL    HW110613   6.948   5.004   0.972
 3238SOL    HW210614   6.876   5.001   1.119
 3239SOL     OW10615   6.252   0.176   5.319
 3239SOL    HW110616   6.307   0.209   5.242
 3239SOL    HW210617   6.163   0.144   5.285
 3240SOL     OW10618   0.957   1.809   1.506
 3240SOL    HW110619   1.034   1.787   1.566
 3240SOL    HW210620   0.983   1.885   1.445
 3241SOL     OW10621   0.381   2.760   5.885
 3241SOL    HW110622   0.478   2.736   5.880
 3241SOL    HW210623   0.363   2.811   5.969
 3242SOL     OW10624   0.180   4.804   5.112
 3242SOL    HW110625   0.118   4.731   5.085
 3242SOL    HW210626   0.213   4.851   5.030
 3243SOL     OW10627   5.679   5.838   4.305
 3243SOL    HW110628   5.722   5.857   4.217
 3243SOL    HW210629   5.629   5.919   4.336
 3244SOL     OW10630   4.797   0.070   6.720
 3244SOL    HW110631   4.840   0.017   6.646
 3244SOL    HW210632   4.699   0.053   6.720
 3245SOL     OW10633   3.177   6.392   4.286
 3245SOL    HW110634   3.146   6.340   4.207
 3245SOL    HW210635   3.277   6.385   4.294
 3246SOL     OW10636   6.810   5.595   3.307
 3246SOL    HW110637   6.787   5.685   3.344
 3246SOL    HW210638   6.895   5.563   3.347
 3247SOL     OW10639   2.176   4.210   4.141
 3247SOL    HW110640   2.106   4.276   4.112
 3247SOL    HW210641   2.233   4.185   4.063
 3248SOL     OW10642   6.276   2.639   3.748
 3248SOL    HW110643   6.245   2.589   3.828
 3248SOL    HW210644   6.242   2.595   3.665
 3249SOL     OW10645   3.905   4.017   4.246
 3249SOL    HW110646   3.847   4.037   4.325
 3249SOL    HW210647   3.989   3.971   4.278
 3250SOL     OW10648   4.611   6.392   3.779
 3250SOL    HW110649   4.626   6.442   3.865
 3250SOL    HW210650   4.626   6.295   3.795
 3251SOL     OW10651   2.458   2.214   2.586
 3251SOL    HW110652   2.480   2.271   2.508
 3251SOL    HW210653   2.503   2.250   2.668
 3252SOL     OW10654   1.833   1.812   2.911
 3252SOL    HW110655   1.741   1.801   2.947
 3252SOL    HW210656   1.831   1.874   2.832
 3253SOL     OW10657   6.662   3.886   0.576
 3253SOL    HW110658   6.680   3.967   0.632
 3253SOL    HW210659   6.612   3.818   0.630
 3254SOL     OW10660   6.270   6.813   0.397
 3254SOL    HW110661   6.235   6.796   0.305
 3254SOL    HW210662   6.360   6.772   0.407
 3255SOL     OW10663   3.630   5.398   2.178
 3255SOL    HW110664   3.712   5.365   2.132
 3255SOL    HW210665   3.566   5.323   2.191
 3256SOL     OW10666   5.430   2.712   1.511
 3256SOL    HW110667   5.344   2.734   1.464
 3256SOL    HW210668   5.481   2.646   1.457
 3257SOL     OW10669   2.274   1.382   3.203
 3257SOL    HW110670   2.239   1.387   3.109
 3257SOL    HW210671   2.367   1.419   3.206
 3258SOL     OW10672   1.136   5.406   4.128
 3258SOL    HW110673   1.062   5.463   4.093
 3258SOL    HW210674   1.107   5.310   4.129
 3259SOL     OW10675   5.546   5.181   4.100
 3259SOL    HW110676   5.495   5.104   4.140
 3259SOL    HW210677   5.583   5.154   4.012
 3260SOL     OW10678   1.425   4.402   3.205
 3260SOL    HW110679   1.471   4.462   3.271
 3260SOL    HW210680   1.470   4.312   3.205
 3261SOL     OW10681   5.913   6.917   4.080
 3261SOL    HW110682   5.950   6.824   4.076
 3261SOL    HW210683   5.896   6.950   3.988
 3262SOL     OW10684   3.191   2.179   3.301
 3262SOL    HW110685   3.271   2.121   3.287
 3262SOL    HW210686   3.130   2.170   3.222
 3263SOL     OW10687   6.088   0.256   1.404
 3263SOL    HW110688   6.091   0.325   1.477
 3263SOL    HW210689   6.102   0.300   1.316
 3264SOL     OW10690   1.472   4.604   6.674
 3264SOL    HW110691   1.409   4.631   6.747
 3264SOL    HW210692   1.438   4.522   6.629
 3265SOL     OW10693   0.384   5.625   6.265
 3265SOL    HW110694   0.291   5.619   6.302
 3265SOL    HW210695   0.388   5.577   6.178
 3266SOL     OW10696   3.336   4.734   6.048
 3266SOL    HW110697   3.345   4.811   6.111
 3266SOL    HW210698   3.424   4.719   6.001
 3267SOL     OW10699   3.406   0.168   1.098
 3267SOL    HW110700   3.347   0.241   1.065
 3267SOL    HW210701   3.361   0.079   1.086
 3268SOL     OW10702   5.484   4.228   1.703
 3268SOL    HW110703   5.519   4.319   1.726
 3268SOL    HW210704   5.414   4.237   1.632
 3269SOL     OW10705   2.197   4.742   1.208
 3269SOL    HW110706   2.295   4.763   1.212
 3269SOL    HW210707   2.145   4.819   1.246
 3270SOL     OW10708   1.301   3.442   6.154
 3270SOL    HW110709   1.326   3.404   6.242
 3270SOL    HW210710   1.369   3.417   6.086
 3271SOL     OW10711   1.224   3.649   1.296
 3271SOL    HW110712   1.232   3.745   1.321
 3271SOL    HW210713   1.314   3.605   1.299
 3272SOL     OW10714   4.137   6.877   1.163
 3272SOL    HW110715   4.155   6.781   1.187
 3272SOL    HW210716   4.042   6.900   1.185
 3273SOL     OW10717   3.980   3.824   6.696
 3273SOL    HW110718   3.949   3.823   6.791
 3273SOL    HW210719   3.965   3.735   6.655
 3274SOL     OW10720   4.466   0.240   1.927
 3274SOL    HW110721   4.474   0.329   1.883
 3274SOL    HW210722   4.370   0.211   1.927
 3275SOL     OW10723   5.247   0.392   2.078
 3275SOL    HW110724   5.280   0.346   1.995
 3275SOL    HW210725   5.148   0.399   2.075
 3276SOL     OW10726   5.834   5.591   0.409
 3276SOL    HW110727   5.910   5.613   0.470
 3276SOL    HW210728   5.772   5.527   0.455
 3277SOL     OW10729   3.360   1.255   2.360
 3277SOL    HW110730   3.280   1.223   2.308
 3277SOL    HW210731   3.340   1.252   2.458
 3278SOL     OW10732   5.299   1.409   6.747
 3278SOL    HW110733   5.299   1.330   6.685
 3278SOL    HW210734   5.204   1.435   6.767
 3279SOL     OW10735   4.236   0.238   2.205
 3279SOL    HW110736   4.221   0.219   2.108
 3279SOL    HW210737   4.207   0.159   2.259
 3280SOL     OW10738   0.129   2.718   4.058
 3280SOL    HW110739   0.125   2.650   4.131
 3280SOL    HW210740   0.047   2.711   4.001
 3281SOL     OW10741   5.665   2.261   1.923
 3281SOL    HW110742   5.601   2.249   1.999
 3281SOL    HW210743   5.754   2.290   1.959
 3282SOL     OW10744   6.191   4.372   5.184
 3282SOL    HW110745   6.211   4.465   5.215
 3282SOL    HW210746   6.276   4.321   5.173
 3283SOL     OW10747   3.007   1.443   0.397
 3283SOL    HW110748   2.932   1.430   0.461
 3283SOL    HW210749   3.019   1.359   0.343
 3284SOL     OW10750   2.113   0.610   5.148
 3284SOL    HW110751   2.108   0.710   5.147
 3284SOL    HW210752   2.209   0.581   5.146
 3285SOL     OW10753   3.801   2.133   4.070
 3285SOL    HW110754   3.883   2.162   4.021
 3285SOL    HW210755   3.722   2.140   4.010
 3286SOL     OW10756   1.486   3.403   2.868
 3286SOL    HW110757   1.471   3.492   2.824
 3286SOL    HW210758   1.576   3.368   2.842
 3287SOL     OW10759   2.615   1.326   0.670
 3287SOL    HW110760   2.625   1.228   0.686
 3287SOL    HW210761   2.584   1.342   0.577
 3288SOL     OW10762   3.067   5.683   1.652
 3288SOL    HW110763   3.148   5.693   1.710
 3288SOL    HW210764   3.057   5.587   1.626
 3289SOL     OW10765   4.931   0.518   0.031
 3289SOL    HW110766   4.958   0.448   0.097
 3289SOL    HW210767   4.832   0.510   0.013
 3290SOL     OW10768   1.082   5.233   6.960
 3290SOL    HW110769   1.037   5.317   6.990
 3290SOL    HW210770   1.138   5.197   0.018
 3291SOL     OW10771   4.917   6.302   5.262
 3291SOL    HW110772   4.972   6.280   5.343
 3291SOL    HW210773   4.898   6.218   5.211
 3292SOL     OW10774   0.275   3.260   0.358
 3292SOL    HW110775   0.176   3.268   0.350
 3292SOL    HW210776   0.317   3.279   0.270
 3293SOL     OW10777   6.504   4.349   2.593
 3293SOL    HW110778   6.560   4.428   2.567
 3293SOL    HW210779   6.412   4.360   2.556
 3294SOL     OW10780   3.748   2.912   5.600
 3294SOL    HW110781   3.721   2.885   5.508
 3294SOL    HW210782   3.746   2.831   5.660
 3295SOL     OW10783   1.457   2.932   3.553
 3295SOL    HW110784   1.479   2.835   3.559
 3295SOL    HW210785   1.430   2.966   3.643
 3296SOL     OW10786   2.611   0.596   0.031
 3296SOL    HW110787   2.524   0.624   7.007
 3296SOL    HW210788   2.600   0.509   0.078
 3297SOL     OW10789   3.322   0.509   5.673
 3297SOL    HW110790   3.260   0.511   5.594
 3297SOL    HW210791   3.375   0.594   5.676
 3298SOL     OW10792   3.380   4.259   5.990
 3298SOL    HW110793   3.383   4.169   6.033
 3298SOL    HW210794   3.316   4.317   6.040
 3299SOL     OW10795   2.556   0.043   4.265
 3299SOL    HW110796   2.507   6.972   4.267
 3299SOL    HW210797   2.584   0.064   4.171
 3300SOL     OW10798   1.776   0.884   3.308
 3300SOL    HW110799   1.819   0.972   3.327
 3300SOL    HW210800   1.802   0.818   3.379
 3301SOL     OW10801   1.306   1.315   2.232
 3301SOL    HW110802   1.320   1.244   2.301
 3301SOL    HW210803   1.274   1.398   2.277
 3302SOL     OW10804   1.431   5.040   5.140
 3302SOL    HW110805   1.412   4.965   5.077
 3302SOL    HW210806   1.469   5.004   5.225
 3303SOL     OW10807   3.734   3.587   0.553
 3303SOL    HW110808   3.742   3.507   0.493
 3303SOL    HW210809   3.641   3.591   0.590
 3304SOL     OW10810   2.174   3.789   0.336
 3304SOL    HW110811   2.085   3.745   0.327
 3304SOL    HW210812   2.181   3.833   0.426
 3305SOL     OW10813   2.891   2.931   0.084
 3305SOL    HW110814   2.876   3.029   0.099
 3305SOL    HW210815   2.986   2.916   0.057
 3306SOL     OW10816   2.871   6.951   1.428
 3306SOL    HW110817   2.863   6.975   1.331
 3306SOL    HW210818   2.808   7.006   1.482
 3307SOL     OW10819   2.430   5.777   4.969
 3307SOL    HW110820   2.383   5.767   5.057
 3307SOL    HW210821   2.365   5.762   4.895
 3308SOL     OW10822   4.583   5.274   1.256
 3308SOL    HW110823   4.530   5.224   1.325
 3308SOL    HW210824   4.527   5.291   1.175
 3309SOL     OW10825   5.883   3.991   3.638
 3309SOL    HW110826   5.928   4.004   3.726
 3309SOL    HW210827   5.788   3.963   3.653
 3310SOL     OW10828   6.440   4.393   6.534
 3310SOL    HW110829   6.410   4.471   6.590
 3310SOL    HW210830   6.519   4.350   6.578
 3311SOL     OW10831   2.077   2.729   6.908
 3311SOL    HW110832   2.125   2.699   6.826
 3311SOL    HW210833   2.142   2.737   6.984
 3312SOL     OW10834   4.780   3.641   0.178
 3312SOL    HW110835   4.735   3.563   0.135
 3312SOL    HW210836   4.716   3.719   0.182
 3313SOL     OW10837   0.302   0.365   3.973
 3313SOL    HW110838   0.337   0.273   3.990
 3313SOL    HW210839   0.296   0.416   4.059
 3314SOL     OW10840   3.451   6.290   3.098
 3314SOL    HW110841   3.488   6.209   3.142
 3314SOL    HW210842   3.476   6.290   3.001
 3315SOL     OW10843   0.726   6.338   3.872
 3315SOL    HW110844   0.739   6.411   3.805
 3315SOL    HW210845   0.649   6.280   3.845
 3316SOL     OW10846   3.502   1.933   0.207
 3316SOL    HW110847   3.479   1.945   0.110
 3316SOL    HW210848   3.582   1.874   0.216
 3317SOL     OW10849   5.822   2.278   1.253
 3317SOL    HW110850   5.875   2.305   1.173
 3317SOL    HW210851   5.855   2.190   1.287
 3318SOL     OW10852   3.869   3.059   0.520
 3318SOL    HW110853   3.909   3.046   0.611
 3318SOL    HW210854   3.770   3.067   0.527
 3319SOL     OW10855   6.733   6.745   4.044
 3319SOL    HW110856   6.669   6.716   3.973
 3319SOL    HW210857   6.703   6.708   4.132
 3320SOL     OW10858   6.366   0.511   2.311
 3320SOL    HW110859   6.441   0.518   2.377
 3320SOL    HW210860   6.372   0.586   2.246
 3321SOL     OW10861   4.690   1.948   0.001
 3321SOL    HW110862   4.640   1.900   0.073
 3321SOL    HW210863   4.762   2.004   0.042
 3322SOL     OW10864   5.774   3.018   1.344
 3322SOL    HW110865   5.679   2.994   1.361
 3322SOL    HW210866   5.798   3.100   1.396
 3323SOL     OW10867   1.455   1.108   2.022
 3323SOL    HW110868   1.496   1.097   2.113
 3323SOL    HW210869   1.425   1.203   2.011
 3324SOL     OW10870   6.089   4.968   5.679
 3324SOL    HW110871   6.122   4.878   5.650
 3324SOL    HW210872   6.122   4.988   5.771
 3325SOL     OW10873   2.947   5.407   5.985
 3325SOL    HW110874   2.923   5.469   6.060
 3325SOL    HW210875   2.944   5.313   6.017
 3326SOL     OW10876   3.550   1.926   1.983
 3326SOL    HW110877   3.492   1.920   1.903
 3326SOL    HW210878   3.589   2.018   1.989
 3327SOL     OW10879   1.998   5.667   5.812
 3327SOL    HW110880   2.042   5.750   5.776
 3327SOL    HW210881   1.943   5.691   5.891
 3328SOL     OW10882   4.699   3.052   5.260
 3328SOL    HW110883   4.719   3.135   5.208
 3328SOL    HW210884   4.770   2.984   5.242
 3329SOL     OW10885   0.538   6.181   5.942
 3329SOL    HW110886   0.486   6.265   5.950
 3329SOL    HW210887   0.561   6.146   6.033
 3330SOL     OW10888   6.673   2.824   3.046
 3330SOL    HW110889   6.720   2.745   3.085
 3330SOL    HW210890   6.609   2.793   2.975
 3331SOL     OW10891   1.997   2.665   0.542
 3331SOL    HW110892   1.926   2.697   0.604
 3331SOL    HW210893   1.993   2.566   0.534
 3332SOL     OW10894   0.235   3.989   1.426
 3332SOL    HW110895   0.181   4.055   1.375
 3332SOL    HW210896   0.316   4.035   1.465
 3333SOL     OW10897   3.278   5.820   5.584
 3333SOL    HW110898   3.197   5.868   5.549
 3333SOL    HW210899   3.255   5.768   5.666
 3334SOL     OW10900   1.448   2.690   0.754
 3334SOL    HW110901   1.438   2.624   0.828
 3334SOL    HW210902   1.522   2.662   0.693
 3335SOL     OW10903   5.354   4.919   4.487
 3335SOL    HW110904   5.356   4.982   4.565
 3335SOL    HW210905   5.444   4.877   4.476
 3336SOL     OW10906   3.170   6.450   5.577
 3336SOL    HW110907   3.213   6.379   5.521
 3336SOL    HW210908   3.225   6.534   5.570
 3337SOL     OW10909   3.762   1.755   0.733
 3337SOL    HW110910   3.821   1.739   0.812
 3337SOL    HW210911   3.683   1.694   0.737
 3338SOL     OW10912   6.771   4.913   6.875
 3338SOL    HW110913   6.795   5.010   6.881
 3338SOL    HW210914   6.731   4.895   6.785
 3339SOL     OW10915   0.660   4.738   6.152
 3339SOL    HW110916   0.752   4.766   6.175
 3339SOL    HW210917   0.632   4.781   6.066
 3340SOL     OW10918   4.176   0.194   1.948
 3340SOL    HW110919   4.175   0.097   1.925
 3340SOL    HW210920   4.086   0.234   1.927
 3341SOL     OW10921   0.859   0.273   0.449
 3341SOL    HW110922   0.948   0.251   0.488
 3341SOL    HW210923   0.835   0.368   0.472
 3342SOL     OW10924   2.609   0.224   5.303
 3342SOL    HW110925   2.708   0.219   5.294
 3342SOL    HW210926   2.577   0.315   5.276
 3343SOL     OW10927   0.159   2.608   1.185
 3343SOL    HW110928   0.197   2.521   1.215
 3343SOL    HW210929   0.231   2.662   1.141
 3344SOL     OW10930   1.223   2.839   6.518
 3344SOL    HW110931   1.223   2.925   6.567
 3344SOL    HW210932   1.163   2.846   6.438
 3345SOL     OW10933   2.304   3.133   5.739
 3345SOL    HW110934   2.264   3.043   5.720
 3345SOL    HW210935   2.253   3.203   5.689
 3346SOL     OW10936   2.160   6.043   2.617
 3346SOL    HW110937   2.195   5.954   2.647
 3346SOL    HW210938   2.185   6.059   2.522
 3347SOL     OW10939   6.110   4.024   3.496
 3347SOL    HW110940   6.041   4.007   3.567
 3347SOL    HW210941   6.142   4.118   3.503
 3348SOL     OW10942   3.730   3.592   3.413
 3348SOL    HW110943   3.710   3.512   3.470
 3348SOL    HW210944   3.669   3.667   3.438
 3349SOL     OW10945   5.121   3.111   6.315
 3349SOL    HW110946   5.088   3.057   6.393
 3349SOL    HW210947   5.213   3.082   6.291
 3350SOL     OW10948   2.051   2.809   1.425
 3350SOL    HW110949   2.020   2.741   1.491
 3350SOL    HW210950   1.972   2.852   1.381
 3351SOL     OW10951   5.804   2.675   0.743
 3351SOL    HW110952   5.902   2.694   0.754
 3351SOL    HW210953   5.793   2.593   0.686
 3352SOL     OW10954   6.893   3.182   0.105
 3352SOL    HW110955   6.885   3.213   0.010
 3352SOL    HW210956   6.873   3.084   0.109
 3353SOL     OW10957   1.754   6.662   5.948
 3353SOL    HW110958   1.702   6.695   5.869
 3353SOL    HW210959   1.764   6.563   5.942
 3354SOL     OW10960   0.599   0.607   1.714
 3354SOL    HW110961   0.658   0.610   1.633
 3354SOL    HW210962   0.650   0.566   1.790
 3355SOL     OW10963   6.034   0.883   2.821
 3355SOL    HW110964   5.982   0.967   2.807
 3355SOL    HW210965   6.102   0.898   2.893
 3356SOL     OW10966   1.116   3.571   6.452
 3356SOL    HW110967   1.039   3.510   6.431
 3356SOL    HW210968   1.156   3.605   6.367
 3357SOL     OW10969   2.623   5.373   2.206
 3357SOL    HW110970   2.529   5.370   2.171
 3357SOL    HW210971   2.684   5.408   2.135
 3358SOL     OW10972   6.678   4.368   3.511
 3358SOL    HW110973   6.750   4.355   3.579
 3358SOL    HW210974   6.694   4.453   3.462
 3359SOL     OW10975   1.974   1.634   1.837
 3359SOL    HW110976   1.980   1.680   1.926
 3359SOL    HW210977   1.964   1.536   1.850
 3360SOL     OW10978   2.465   0.895   6.322
 3360SOL    HW110979   2.526   0.972   6.304
 3360SOL    HW210980   2.446   0.890   6.421
 3361SOL     OW10981   3.235   1.171   2.959
 3361SOL    HW110982   3.140   1.150   2.980
 3361SOL    HW210983   3.288   1.178   3.044
 3362SOL     OW10984   3.118   1.856   4.544
 3362SOL    HW110985   3.180   1.933   4.558
 3362SOL    HW210986   3.059   1.846   4.625
 3363SOL     OW10987   6.809   0.737   6.600
 3363SOL    HW110988   6.810   0.642   6.631
 3363SOL    HW210989   6.765   0.742   6.510
 3364SOL     OW10990   2.379   5.216   5.490
 3364SOL    HW110991   2.359   5.302   5.536
 3364SOL    HW210992   2.469   5.182   5.519
 3365SOL     OW10993   6.630   2.866   5.408
 3365SOL    HW110994   6.533   2.889   5.406
 3365SOL    HW210995   6.648   2.793   5.341
 3366SOL     OW10996   5.501   0.827   0.308
 3366SOL    HW110997   5.466   0.792   0.394
 3366SOL    HW210998   5.514   0.752   0.244
 3367SOL     OW10999   2.317   0.061   2.747
 3367SOL    HW111000   2.360   0.047   2.658
 3367SOL    HW211001   2.310   0.160   2.765
 3368SOL     OW11002   6.280   1.433   4.542
 3368SOL    HW111003   6.278   1.355   4.605
 3368SOL    HW211004   6.239   1.407   4.455
 3369SOL     OW11005   3.647   5.921   6.780
 3369SOL    HW111006   3.725   5.945   6.723
 3369SOL    HW211007   3.583   5.998   6.782
 3370SOL     OW11008   5.863   6.954   5.299
 3370SOL    HW111009   5.819   7.006   5.226
 3370SOL    HW211010   5.960   6.940   5.275
 3371SOL     OW11011   6.717   4.611   1.316
 3371SOL    HW111012   6.724   4.534   1.379
 3371SOL    HW211013   6.622   4.640   1.309
 3372SOL     OW11014   0.883   2.413   2.507
 3372SOL    HW111015   0.829   2.492   2.536
 3372SOL    HW211016   0.890   2.348   2.583
 3373SOL     OW11017   0.616   2.553   6.527
 3373SOL    HW111018   0.551   2.562   6.602
 3373SOL    HW211019   0.638   2.644   6.492
 3374SOL     OW11020   3.525   6.314   5.265
 3374SOL    HW111021   3.587   6.236   5.263
 3374SOL    HW211022   3.477   6.320   5.178
 3375SOL     OW11023   3.434   3.766   4.455
 3375SOL    HW111024   3.441   3.737   4.360
 3375SOL    HW211025   3.524   3.797   4.487
 3376SOL     OW11026   3.104   2.922   1.694
 3376SOL    HW111027   3.124   2.955   1.602
 3376SOL    HW211028   3.018   2.872   1.693
 3377SOL     OW11029   2.958   5.486   5.483
 3377SOL    HW111030   2.935   5.410   5.423
 3377SOL    HW211031   3.057   5.500   5.485
 3378SOL     OW11032   0.324   1.133   0.981
 3378SOL    HW111033   0.304   1.227   0.955
 3378SOL    HW211034   0.315   1.123   1.080
 3379SOL     OW11035   5.923   5.032   5.372
 3379SOL    HW111036   6.011   5.001   5.335
 3379SOL    HW211037   5.871   5.079   5.301
 3380SOL     OW11038   0.274   3.532   5.154
 3380SOL    HW111039   0.259   3.594   5.231
 3380SOL    HW211040   0.217   3.451   5.165
 3381SOL     OW11041   3.275   2.343   1.659
 3381SOL    HW111042   3.292   2.442   1.655
 3381SOL    HW211043   3.338   2.301   1.725
 3382SOL     OW11044   0.490   6.705   0.116
 3382SOL    HW111045   0.449   6.791   0.083
 3382SOL    HW211046   0.430   6.629   0.092
 3383SOL     OW11047   0.768   4.450   1.460
 3383SOL    HW111048   0.813   4.531   1.422
 3383SOL    HW211049   0.732   4.471   1.551
 3384SOL     OW11050   3.229   3.060   4.013
 3384SOL    HW111051   3.152   3.083   3.954
 3384SOL    HW211052   3.235   3.126   4.087
 3385SOL     OW11053   6.885   4.308   3.690
 3385SOL    HW111054   6.957   4.273   3.629
 3385SOL    HW211055   6.857   4.236   3.753
 3386SOL     OW11056   5.842   4.203   4.580
 3386SOL    HW111057   5.862   4.274   4.514
 3386SOL    HW211058   5.907   4.207   4.655
 3387SOL     OW11059   3.232   1.792   2.600
 3387SOL    HW111060   3.256   1.750   2.688
 3387SOL    HW211061   3.316   1.820   2.554
 3388SOL     OW11062   5.458   2.195   1.449
 3388SOL    HW111063   5.531   2.232   1.507
 3388SOL    HW211064   5.406   2.271   1.409
 3389SOL     OW11065   4.317   5.656   2.618
 3389SOL    HW111066   4.308   5.740   2.670
 3389SOL    HW211067   4.226   5.622   2.593
 3390SOL     OW11068   4.441   1.596   5.315
 3390SOL    HW111069   4.387   1.656   5.375
 3390SOL    HW211070   4.500   1.651   5.257
 3391SOL     OW11071   3.564   2.113   3.932
 3391SOL    HW111072   3.522   2.089   4.019
 3391SOL    HW211073   3.494   2.123   3.862
 3392SOL     OW11074   5.171   6.155   3.275
 3392SOL    HW111075   5.111   6.228   3.308
 3392SOL    HW211076   5.202   6.099   3.353
 3393SOL     OW11077   0.028   0.158   0.055
 3393SOL    HW111078   0.025   0.214   6.988
 3393SOL    HW211079   0.119   0.165   0.096
 3394SOL     OW11080   5.594   1.082   2.414
 3394SOL    HW111081   5.664   1.011   2.408
 3394SOL    HW211082   5.609   1.137   2.497
 3395SOL     OW11083   1.459   3.665   5.514
 3395SOL    HW111084   1.525   3.660   5.438
 3395SOL    HW211085   1.389   3.595   5.502
 3396SOL     OW11086   6.401   3.511   4.297
 3396SOL    HW111087   6.418   3.584   4.231
 3396SOL    HW211088   6.483   3.494   4.351
 3397SOL     OW11089   3.773   5.929   6.259
 3397SOL    HW111090   3.861   5.914   6.213
 3397SOL    HW211091   3.712   5.851   6.242
 3398SOL     OW11092   0.576   0.670   2.874
 3398SOL    HW111093   0.622   0.705   2.792
 3398SOL    HW211094   0.581   0.738   2.947
 3399SOL     OW11095   4.542   5.783   4.786
 3399SOL    HW111096   4.503   5.875   4.792
 3399SOL    HW211097   4.473   5.716   4.813
 3400SOL     OW11098   5.156   2.596   0.341
 3400SOL    HW111099   5.097   2.540   0.398
 3400SOL    HW211100   5.100   2.657   0.284
 3401SOL     OW11101   6.711   4.144   6.196
 3401SOL    HW111102   6.704   4.240   6.223
 3401SOL    HW211103   6.756   4.092   6.269
 3402SOL     OW11104   5.301   5.304   2.022
 3402SOL    HW111105   5.368   5.303   2.095
 3402SOL    HW211106   5.270   5.211   2.002
 3403SOL     OW11107   3.729   1.595   5.301
 3403SOL    HW111108   3.767   1.674   5.253
 3403SOL    HW211109   3.666   1.546   5.240
 3404SOL     OW11110   4.676   6.779   1.549
 3404SOL    HW111111   4.644   6.745   1.637
 3404SOL    HW211112   4.673   6.879   1.548
 3405SOL     OW11113   6.159   4.100   0.164
 3405SOL    HW111114   6.221   4.121   0.239
 3405SOL    HW211115   6.097   4.176   0.149
 3406SOL     OW11116   0.958   4.123   1.187
 3406SOL    HW111117   1.028   4.062   1.150
 3406SOL    HW211118   0.936   4.096   1.281
 3407SOL     OW11119   1.181   4.912   2.715
 3407SOL    HW111120   1.170   4.889   2.619
 3407SOL    HW211121   1.143   4.838   2.771
 3408SOL     OW11122   5.234   3.573   3.316
 3408SOL    HW111123   5.259   3.547   3.409
 3408SOL    HW211124   5.208   3.670   3.314
 3409SOL     OW11125   2.755   1.025   5.931
 3409SOL    HW111126   2.662   0.990   5.923
 3409SOL    HW211127   2.798   0.986   6.013
 3410SOL     OW11128   6.810   1.954   0.233
 3410SOL    HW111129   6.845   1.948   0.327
 3410SOL    HW211130   6.771   2.045   0.218
 3411SOL     OW11131   4.557   2.197   2.052
 3411SOL    HW111132   4.524   2.104   2.036
 3411SOL    HW211133   4.480   2.255   2.076
 3412SOL     OW11134   4.521   5.522   6.861
 3412SOL    HW111135   4.450   5.575   6.813
 3412SOL    HW211136   4.542   5.440   6.808
 3413SOL     OW11137   5.023   1.224   2.442
 3413SOL    HW111138   4.942   1.251   2.391
 3413SOL    HW211139   5.094   1.293   2.430
 3414SOL     OW11140   3.859   0.707   5.311
 3414SOL    HW111141   3.828   0.680   5.219
 3414SOL    HW211142   3.863   0.627   5.370
 3415SOL     OW11143   1.112   4.994   4.447
 3415SOL    HW111144   1.203   4.980   4.487
 3415SOL    HW211145   1.043   4.990   4.519
 3416SOL     OW11146   2.087   4.444   6.084
 3416SOL    HW111147   2.119   4.537   6.067
 3416SOL    HW211148   2.045   4.408   6.001
 3417SOL     OW11149   5.139   1.020   1.283
 3417SOL    HW111150   5.049   1.013   1.326
 3417SOL    HW211151   5.130   1.002   1.185
 3418SOL     OW11152   3.066   2.987   6.330
 3418SOL    HW111153   3.018   2.917   6.279
 3418SOL    HW211154   3.140   3.026   6.275
 3419SOL     OW11155   5.018   3.630   6.575
 3419SOL    HW111156   4.987   3.583   6.492
 3419SOL    HW211157   4.939   3.665   6.625
 3420SOL     OW11158   4.297   1.431   4.009
 3420SOL    HW111159   4.202   1.406   3.991
 3420SOL    HW211160   4.345   1.445   3.923
 3421SOL     OW11161   0.355   6.660   2.532
 3421SOL    HW111162   0.420   6.585   2.521
 3421SOL    HW211163   0.265   6.623   2.554
 3422SOL     OW11164   3.019   2.097   2.890
 3422SOL    HW111165   3.110   2.100   2.930
 3422SOL    HW211166   3.025   2.071   2.794
 3423SOL     OW11167   3.173   0.455   1.699
 3423SOL    HW111168   3.255   0.473   1.754
 3423SOL    HW211169   3.134   0.542   1.669
 3424SOL     OW11170   4.370   1.107   1.633
 3424SOL    HW111171   4.309   1.035   1.599
 3424SOL    HW211172   4.315   1.180   1.673
 3425SOL     OW11173   4.286   4.173   1.652
 3425SOL    HW111174   4.310   4.227   1.732
 3425SOL    HW211175   4.340   4.088   1.652
 3426SOL     OW11176   4.647   3.685   0.992
 3426SOL    HW111177   4.607   3.730   1.072
 3426SOL    HW211178   4.714   3.746   0.950
 3427SOL     OW11179   0.624   1.564   0.685
 3427SOL    HW111180   0.627   1.464   0.683
 3427SOL    HW211181   0.660   1.597   0.772
 3428SOL     OW11182   4.196   4.750   3.302
 3428SOL    HW111183   4.133   4.712   3.234
 3428SOL    HW211184   4.225   4.841   3.273
 3429SOL     OW11185   0.248   2.839   0.660
 3429SOL    HW111186   0.229   2.931   0.624
 3429SOL    HW211187   0.211   2.831   0.752
 3430SOL     OW11188   1.557   5.033   6.411
 3430SOL    HW111189   1.538   5.055   6.315
 3430SOL    HW211190   1.570   4.935   6.420
 3431SOL     OW11191   1.859   6.163   6.614
 3431SOL    HW111192   1.887   6.141   6.520
 3431SOL    HW211193   1.874   6.083   6.672
 3432SOL     OW11194   2.960   1.824   6.550
 3432SOL    HW111195   2.880   1.820   6.489
 3432SOL    HW211196   2.930   1.826   6.645
 3433SOL     OW11197   5.050   0.874   4.649
 3433SOL    HW111198   5.037   0.969   4.678
 3433SOL    HW211199   5.146   0.859   4.626
 3434SOL     OW11200   4.455   1.716   3.300
 3434SOL    HW111201   4.438   1.617   3.308
 3434SOL    HW211202   4.525   1.743   3.366
 3435SOL     OW11203   0.952   1.270   0.283
 3435SOL    HW111204   0.988   1.338   0.347
 3435SOL    HW211205   1.007   1.187   0.287
 3436SOL     OW11206   4.636   6.857   2.960
 3436SOL    HW111207   4.623   6.804   3.044
 3436SOL    HW211208   4.556   6.847   2.900
 3437SOL     OW11209   4.510   0.659   6.755
 3437SOL    HW111210   4.585   0.596   6.738
 3437SOL    HW211211   4.446   0.619   6.822
 3438SOL     OW11212   1.201   4.855   6.553
 3438SOL    HW111213   1.221   4.909   6.635
 3438SOL    HW211214   1.121   4.797   6.570
 3439SOL     OW11215   2.409   0.100   3.930
 3439SOL    HW111216   2.371   0.008   3.942
 3439SOL    HW211217   2.502   0.103   3.965
 3440SOL     OW11218   3.071   2.129   0.738
 3440SOL    HW111219   3.126   2.208   0.765
 3440SOL    HW211220   2.992   2.159   0.685
 3441SOL     OW11221   4.697   0.281   4.306
 3441SOL    HW111222   4.657   0.360   4.259
 3441SOL    HW211223   4.792   0.270   4.278
 3442SOL     OW11224   1.035   4.856   3.146
 3442SOL    HW111225   1.041   4.939   3.203
 3442SOL    HW211226   1.107   4.858   3.077
 3443SOL     OW11227   5.682   6.621   4.289
 3443SOL    HW111228   5.744   6.655   4.359
 3443SOL    HW211229   5.594   6.596   4.331
 3444SOL     OW11230   4.430   4.920   0.250
 3444SOL    HW111231   4.521   4.892   0.282
 3444SOL    HW211232   4.362   4.893   0.317
 3445SOL     OW11233   5.894   5.268   4.755
 3445SOL    HW111234   5.849   5.198   4.699
 3445SOL    HW211235   5.898   5.354   4.705
 3446SOL     OW11236   2.596   6.312   2.397
 3446SOL    HW111237   2.659   6.355   2.333
 3446SOL    HW211238   2.644   6.291   2.482
 3447SOL     OW11239   6.186   4.651   5.298
 3447SOL    HW111240   6.193   4.705   5.382
 3447SOL    HW211241   6.114   4.689   5.240
 3448SOL     OW11242   3.475   3.338   0.940
 3448SOL    HW111243   3.564   3.293   0.946
 3448SOL    HW211244   3.489   3.436   0.928
 3449SOL     OW11245   6.868   6.201   2.860
 3449SOL    HW111246   6.954   6.209   2.911
 3449SOL    HW211247   6.801   6.150   2.915
 3450SOL     OW11248   0.524   2.013   1.341
 3450SOL    HW111249   0.473   2.099   1.338
 3450SOL    HW211250   0.471   1.941   1.297
 3451SOL     OW11251   1.560   4.521   4.342
 3451SOL    HW111252   1.657   4.499   4.331
 3451SOL    HW211253   1.509   4.489   4.262
 3452SOL     OW11254   6.832   1.891   0.758
 3452SOL    HW111255   6.871   1.940   0.836
 3452SOL    HW211256   6.866   1.797   0.758
 3453SOL     OW11257   6.000   6.207   5.647
 3453SOL    HW111258   6.019   6.217   5.549
 3453SOL    HW211259   6.025   6.291   5.694
 3454SOL     OW11260   1.253   1.335   0.727
 3454SOL    HW111261   1.197   1.400   0.677
 3454SOL    HW211262   1.264   1.365   0.822
 3455SOL     OW11263   2.119   2.689   3.962
 3455SOL    HW111264   2.051   2.749   4.004
 3455SOL    HW211265   2.075   2.635   3.890
 3456SOL     OW11266   0.007   0.001   0.501
 3456SOL    HW111267   0.072   0.067   0.463
 3456SOL    HW211268   0.027   7.005   0.598
 3457SOL     OW11269   1.825   6.149   3.890
 3457SOL    HW111270   1.811   6.248   3.887
 3457SOL    HW211271   1.817   6.117   3.984
 3458SOL     OW11272   5.303   4.793   0.446
 3458SOL    HW111273   5.222   4.804   0.389
 3458SOL    HW211274   5.384   4.825   0.396
 3459SOL     OW11275   6.579   6.319   3.037
 3459SOL    HW111276   6.587   6.391   2.969
 3459SOL    HW211277   6.508   6.254   3.009
 3460SOL     OW11278   3.618   2.998   6.316
 3460SOL    HW111279   3.636   3.072   6.251
 3460SOL    HW211280   3.677   2.920   6.295
 3461SOL     OW11281   2.374   5.398   2.858
 3461SOL    HW111282   2.336   5.355   2.939
 3461SOL    HW211283   2.371   5.334   2.781
 3462SOL     OW11284   5.238   2.834   2.327
 3462SOL    HW111285   5.208   2.847   2.421
 3462SOL    HW211286   5.176   2.771   2.280
 3463SOL     OW11287   1.566   3.060   1.387
 3463SOL    HW111288   1.629   3.122   1.341
 3463SOL    HW211289   1.593   3.051   1.483
 3464SOL     OW11290   5.302   2.100   5.778
 3464SOL    HW111291   5.257   2.070   5.694
 3464SOL    HW211292   5.279   2.038   5.852
 3465SOL     OW11293   1.629   4.629   1.508
 3465SOL    HW111294   1.683   4.567   1.564
 3465SOL    HW211295   1.542   4.586   1.484
 3466SOL     OW11296   6.265   4.333   4.165
 3466SOL    HW111297   6.262   4.350   4.264
 3466SOL    HW211298   6.340   4.270   4.145
 3467SOL     OW11299   3.351   2.797   1.076
 3467SOL    HW111300   3.285   2.733   1.114
 3467SOL    HW211301   3.313   2.889   1.077
 3468SOL     OW11302   3.585   1.650   1.070
 3468SOL    HW111303   3.677   1.646   1.109
 3468SOL    HW211304   3.589   1.634   0.972
 3469SOL     OW11305   3.711   5.374   4.847
 3469SOL    HW111306   3.771   5.425   4.909
 3469SOL    HW211307   3.747   5.281   4.835
 3470SOL     OW11308   0.849   2.429   2.208
 3470SOL    HW111309   0.769   2.391   2.252
 3470SOL    HW211310   0.825   2.516   2.164
 3471SOL     OW11311   4.989   2.992   4.873
 3471SOL    HW111312   5.025   2.991   4.780
 3471SOL    HW211313   4.902   3.041   4.875
 3472SOL     OW11314   4.403   1.967   2.918
 3472SOL    HW111315   4.391   1.987   2.821
 3472SOL    HW211316   4.496   1.993   2.945
 3473SOL     OW11317   6.014   4.645   1.832
 3473SOL    HW111318   5.946   4.678   1.898
 3473SOL    HW211319   5.968   4.595   1.759
 3474SOL     OW11320   4.878   4.784   3.784
 3474SOL    HW111321   4.935   4.710   3.818
 3474SOL    HW211322   4.931   4.869   3.780
 3475SOL     OW11323   6.834   4.308   4.089
 3475SOL    HW111324   6.840   4.241   4.015
 3475SOL    HW211325   6.742   4.308   4.126
 3476SOL     OW11326   1.702   1.474   3.054
 3476SOL    HW111327   1.609   1.464   3.089
 3476SOL    HW211328   1.700   1.527   2.969
 3477SOL     OW11329   0.665   3.986   1.397
 3477SOL    HW111330   0.756   3.974   1.439
 3477SOL    HW211331   0.674   4.041   1.314
 3478SOL     OW11332   2.084   0.572   1.147
 3478SOL    HW111333   2.124   0.482   1.165
 3478SOL    HW211334   2.122   0.610   1.063
 3479SOL     OW11335   1.296   4.337   5.111
 3479SOL    HW111336   1.365   4.317   5.042
 3479SOL    HW211337   1.206   4.308   5.078
 3480SOL     OW11338   1.376   4.528   6.360
 3480SOL    HW111339   1.395   4.583   6.278
 3480SOL    HW211340   1.286   4.552   6.396
 3481SOL     OW11341   5.885   0.307   4.748
 3481SOL    HW111342   5.925   0.339   4.834
 3481SOL    HW211343   5.917   0.214   4.728
 3482SOL     OW11344   5.875   3.534   6.564
 3482SOL    HW111345   5.938   3.574   6.630
 3482SOL    HW211346   5.812   3.604   6.531
 3483SOL     OW11347   5.827   2.657   5.503
 3483SOL    HW111348   5.736   2.658   5.461
 3483SOL    HW211349   5.821   2.693   5.596
 3484SOL     OW11350   0.988   3.566   4.936
 3484SOL    HW111351   1.030   3.564   4.845
 3484SOL    HW211352   1.060   3.559   5.005
 3485SOL     OW11353   0.007   3.081   6.819
 3485SOL    HW111354   0.071   3.106   6.891
 3485SOL    HW211355   6.987   2.989   6.837
 3486SOL     OW11356   1.578   6.535   5.516
 3486SOL    HW111357   1.587   6.600   5.591
 3486SOL    HW211358   1.669   6.501   5.491
 3487SOL     OW11359   4.690   1.590   0.054
 3487SOL    HW111360   4.693   1.570   6.972
 3487SOL    HW211361   4.782   1.581   0.093
 3488SOL     OW11362   6.026   6.776   4.892
 3488SOL    HW111363   6.066   6.857   4.936
 3488SOL    HW211364   5.928   6.792   4.876
 3489SOL     OW11365   3.088   5.892   0.816
 3489SOL    HW111366   3.143   5.948   0.755
 3489SOL    HW211367   3.126   5.799   0.820
 3490SOL     OW11368   3.427   6.210   0.764
 3490SOL    HW111369   3.489   6.220   0.842
 3490SOL    HW211370   3.393   6.300   0.737
 3491SOL     OW11371   4.188   4.783   5.982
 3491SOL    HW111372   4.164   4.795   5.886
 3491SOL    HW211373   4.190   4.685   6.003
 3492SOL     OW11374   5.841   4.526   3.029
 3492SOL    HW111375   5.849   4.612   3.078
 3492SOL    HW211376   5.797   4.458   3.087
 3493SOL     OW11377   6.851   3.080   5.430
 3493SOL    HW111378   6.901   3.040   5.353
 3493SOL    HW211379   6.765   3.031   5.444
 3494SOL     OW11380   3.982   1.563   2.203
 3494SOL    HW111381   4.002   1.625   2.127
 3494SOL    HW211382   3.884   1.545   2.206
 3495SOL     OW11383   1.068   3.490   3.343
 3495SOL    HW111384   1.148   3.440   3.376
 3495SOL    HW211385   0.999   3.425   3.311
 3496SOL     OW11386   6.182   4.891   1.423
 3496SOL    HW111387   6.171   4.896   1.324
 3496SOL    HW211388   6.218   4.978   1.457
 3497SOL     OW11389   3.373   0.090   2.154
 3497SOL    HW111390   3.279   0.055   2.156
 3497SOL    HW211391   3.371   0.190   2.146
 3498SOL     OW11392   1.956   2.608   1.577
 3498SOL    HW111393   1.867   2.614   1.622
 3498SOL    HW211394   1.993   2.516   1.589
 3499SOL     OW11395   5.790   6.711   4.554
 3499SOL    HW111396   5.710   6.746   4.603
 3499SOL    HW211397   5.829   6.783   4.497
 3500SOL     OW11398   2.288   2.402   4.044
 3500SOL    HW111399   2.370   2.366   4.000
 3500SOL    HW211400   2.280   2.500   4.024
 3501SOL     OW11401   1.490   0.039   5.932
 3501SOL    HW111402   1.531   0.131   5.931
 3501SOL    HW211403   1.405   0.040   5.879
 3502SOL     OW11404   4.425   2.377   2.559
 3502SOL    HW111405   4.435   2.282   2.529
 3502SOL    HW211406   4.487   2.435   2.506
 3503SOL     OW11407   0.223   5.852   6.462
 3503SOL    HW111408   0.143   5.908   6.440
 3503SOL    HW211409   0.195   5.757   6.475
 3504SOL     OW11410   1.749   0.811   0.355
 3504SOL    HW111411   1.791   0.807   0.445
 3504SOL    HW211412   1.717   0.904   0.336
 3505SOL     OW11413   5.145   3.681   5.998
 3505SOL    HW111414   5.165   3.584   5.987
 3505SOL    HW211415   5.053   3.692   6.036
 3506SOL     OW11416   4.207   4.786   5.074
 3506SOL    HW111417   4.111   4.796   5.048
 3506SOL    HW211418   4.244   4.704   5.032
 3507SOL     OW11419   3.451   0.907   0.859
 3507SOL    HW111420   3.454   1.005   0.839
 3507SOL    HW211421   3.359   0.872   0.843
 3508SOL     OW11422   3.461   1.408   5.521
 3508SOL    HW111423   3.561   1.413   5.515
 3508SOL    HW211424   3.435   1.338   5.587
 3509SOL     OW11425   4.109   5.683   6.431
 3509SOL    HW111426   4.014   5.653   6.428
 3509SOL    HW211427   4.116   5.767   6.485
 3510SOL     OW11428   2.548   1.843   1.484
 3510SOL    HW111429   2.479   1.859   1.555
 3510SOL    HW211430   2.600   1.927   1.469
 3511SOL     OW11431   2.700   4.363   1.647
 3511SOL    HW111432   2.718   4.266   1.631
 3511SOL    HW211433   2.750   4.393   1.728
 3512SOL     OW11434   6.957   4.940   5.589
 3512SOL    HW111435   7.007   5.012   5.539
 3512SOL    HW211436   6.971   4.852   5.543
 3513SOL     OW11437   6.161   1.913   0.946
 3513SOL    HW111438   6.132   2.008   0.940
 3513SOL    HW211439   6.082   1.853   0.930
 3514SOL     OW11440   3.194   1.727   1.910
 3514SOL    HW111441   3.142   1.650   1.948
 3514SOL    HW211442   3.139   1.811   1.918
 3515SOL     OW11443   0.234   5.049   4.386
 3515SOL    HW111444   0.171   5.025   4.312
 3515SOL    HW211445   0.193   5.120   4.443
 3516SOL     OW11446   4.635   0.437   1.532
 3516SOL    HW111447   4.664   0.346   1.502
 3516SOL    HW211448   4.714   0.491   1.560
 3517SOL     OW11449   5.241   0.709   1.302
 3517SOL    HW111450   5.261   0.802   1.271
 3517SOL    HW211451   5.142   0.694   1.300
 3518SOL     OW11452   5.061   0.965   5.147
 3518SOL    HW111453   4.976   0.965   5.095
 3518SOL    HW211454   5.132   0.917   5.095
 3519SOL     OW11455   3.227   1.090   1.178
 3519SOL    HW111456   3.147   1.087   1.238
 3519SOL    HW211457   3.282   1.171   1.197
 3520SOL     OW11458   3.086   6.183   4.140
 3520SOL    HW111459   3.011   6.142   4.192
 3520SOL    HW211460   3.066   6.176   4.042
 3521SOL     OW11461   2.727   2.861   6.378
 3521SOL    HW111462   2.777   2.913   6.447
 3521SOL    HW211463   2.791   2.828   6.308
 3522SOL     OW11464   1.053   6.243   6.391
 3522SOL    HW111465   1.025   6.208   6.301
 3522SOL    HW211466   0.990   6.314   6.421
 3523SOL     OW11467   3.117   6.511   6.873
 3523SOL    HW111468   3.086   6.546   6.785
 3523SOL    HW211469   3.194   6.567   6.906
 3524SOL     OW11470   4.928   1.295   3.952
 3524SOL    HW111471   4.931   1.355   3.872
 3524SOL    HW211472   4.835   1.264   3.967
 3525SOL     OW11473   0.024   3.429   3.060
 3525SOL    HW111474   0.113   3.431   3.105
 3525SOL    HW211475   0.004   3.335   3.031
 3526SOL     OW11476   0.473   6.410   1.774
 3526SOL    HW111477   0.383   6.415   1.817
 3526SOL    HW211478   0.531   6.347   1.826
 3527SOL     OW11479   6.996   3.104   6.350
 3527SOL    HW111480   6.896   3.107   6.353
 3527SOL    HW211481   0.017   3.145   6.433
 3528SOL     OW11482   2.388   5.635   4.463
 3528SOL    HW111483   2.299   5.606   4.426
 3528SOL    HW211484   2.453   5.643   4.388
 3529SOL     OW11485   4.169   4.701   0.938
 3529SOL    HW111486   4.133   4.621   0.889
 3529SOL    HW211487   4.247   4.673   0.994
 3530SOL     OW11488   6.503   6.677   0.479
 3530SOL    HW111489   6.603   6.682   0.475
 3530SOL    HW211490   6.476   6.626   0.561
 3531SOL     OW11491   4.714   2.464   0.403
 3531SOL    HW111492   4.634   2.475   0.344
 3531SOL    HW211493   4.706   2.378   0.453
 3532SOL     OW11494   1.887   0.823   1.571
 3532SOL    HW111495   1.806   0.781   1.612
 3532SOL    HW211496   1.934   0.755   1.514
 3533SOL     OW11497   0.958   1.626   3.373
 3533SOL    HW111498   0.991   1.622   3.279
 3533SOL    HW211499   0.858   1.613   3.374
 3534SOL     OW11500   0.166   0.906   1.141
 3534SOL    HW111501   0.204   0.895   1.049
 3534SOL    HW211502   0.213   0.980   1.188
 3535SOL     OW11503   3.289   6.087   4.285
 3535SOL    HW111504   3.380   6.104   4.247
 3535SOL    HW211505   3.220   6.116   4.220
 3536SOL     OW11506   3.885   1.635   3.116
 3536SOL    HW111507   3.939   1.623   3.199
 3536SOL    HW211508   3.913   1.719   3.069
 3537SOL     OW11509   1.701   6.816   3.795
 3537SOL    HW111510   1.695   6.767   3.708
 3537SOL    HW211511   1.612   6.855   3.817
 3538SOL     OW11512   2.638   5.605   1.952
 3538SOL    HW111513   2.697   5.530   1.924
 3538SOL    HW211514   2.661   5.688   1.900
 3539SOL     OW11515   3.441   3.826   4.158
 3539SOL    HW111516   3.372   3.765   4.121
 3539SOL    HW211517   3.469   3.891   4.088
 3540SOL     OW11518   1.268   2.455   3.676
 3540SOL    HW111519   1.341   2.455   3.745
 3540SOL    HW211520   1.185   2.415   3.715
 3541SOL     OW11521   4.015   3.772   4.387
 3541SOL    HW111522   3.994   3.850   4.446
 3541SOL    HW211523   3.978   3.688   4.427
 3542SOL     OW11524   6.509   5.463   1.022
 3542SOL    HW111525   6.440   5.535   1.019
 3542SOL    HW211526   6.466   5.377   1.051
 3543SOL     OW11527   5.537   2.608   4.631
 3543SOL    HW111528   5.563   2.679   4.696
 3543SOL    HW211529   5.440   2.587   4.641
 3544SOL     OW11530   2.313   6.931   0.119
 3544SOL    HW111531   2.312   6.886   0.208
 3544SOL    HW211532   2.240   6.999   0.115
 3545SOL     OW11533   3.514   4.816   0.675
 3545SOL    HW111534   3.488   4.732   0.722
 3545SOL    HW211535   3.433   4.868   0.651
 3546SOL     OW11536   0.191   4.856   2.232
 3546SOL    HW111537   0.192   4.781   2.298
 3546SOL    HW211538   0.097   4.880   2.211
 3547SOL     OW11539   4.977   5.069   4.411
 3547SOL    HW111540   5.033   4.988   4.427
 3547SOL    HW211541   5.036   5.148   4.396
 3548SOL     OW11542   5.135   3.695   5.707
 3548SOL    HW111543   5.095   3.764   5.646
 3548SOL    HW211544   5.113   3.717   5.801
 3549SOL     OW11545   5.338   3.896   2.447
 3549SOL    HW111546   5.362   3.963   2.518
 3549SOL    HW211547   5.275   3.829   2.485
 3550SOL     OW11548   5.015   1.384   3.426
 3550SOL    HW111549   5.105   1.411   3.460
 3550SOL    HW211550   5.009   1.403   3.328
 3551SOL     OW11551   2.228   6.478   2.873
 3551SOL    HW111552   2.318   6.511   2.903
 3551SOL    HW211553   2.164   6.484   2.950
 3552SOL     OW11554   6.566   4.283   3.262
 3552SOL    HW111555   6.602   4.312   3.351
 3552SOL    HW211556   6.466   4.293   3.262
 3553SOL     OW11557   5.716   2.144   3.424
 3553SOL    HW111558   5.731   2.171   3.519
 3553SOL    HW211559   5.772   2.202   3.364
 3554SOL     OW11560   4.077   5.766   6.910
 3554SOL    HW111561   4.019   5.837   6.950
 3554SOL    HW211562   4.022   5.708   6.850
 3555SOL     OW11563   0.344   2.141   3.437
 3555SOL    HW111564   0.269   2.205   3.421
 3555SOL    HW211565   0.309   2.048   3.437
 3556SOL     OW11566   4.471   1.299   6.547
 3556SOL    HW111567   4.443   1.305   6.643
 3556SOL    HW211568   4.526   1.217   6.533
 3557SOL     OW11569   0.993   0.251   4.469
 3557SOL    HW111570   1.064   0.186   4.496
 3557SOL    HW211571   1.034   0.326   4.417
 3558SOL     OW11572   6.910   6.688   1.328
 3558SOL    HW111573   6.910   6.718   1.423
 3558SOL    HW211574   7.001   6.701   1.288
 3559SOL     OW11575   1.314   0.533   5.452
 3559SOL    HW111576   1.366   0.454   5.420
 3559SOL    HW211577   1.323   0.543   5.551
 3560SOL     OW11578   6.531   6.886   1.198
 3560SOL    HW111579   6.567   6.878   1.105
 3560SOL    HW211580   6.433   6.867   1.198
 3561SOL     OW11581   5.326   4.475   3.959
 3561SOL    HW111582   5.267   4.546   3.920
 3561SOL    HW211583   5.321   4.393   3.901
 3562SOL     OW11584   3.784   2.055   3.132
 3562SOL    HW111585   3.791   1.972   3.076
 3562SOL    HW211586   3.784   2.135   3.073
 3563SOL     OW11587   4.961   6.804   1.583
 3563SOL    HW111588   4.872   6.801   1.539
 3563SOL    HW211589   4.950   6.789   1.682
 3564SOL     OW11590   6.685   4.304   3.019
 3564SOL    HW111591   6.643   4.282   3.107
 3564SOL    HW211592   6.614   4.318   2.951
 3565SOL     OW11593   1.690   1.067   5.389
 3565SOL    HW111594   1.641   1.000   5.445
 3565SOL    HW211595   1.706   1.029   5.298
 3566SOL     OW11596   0.939   4.446   6.351
 3566SOL    HW111597   0.990   4.500   6.284
 3566SOL    HW211598   0.973   4.352   6.352
 3567SOL     OW11599   6.993   2.812   1.194
 3567SOL    HW111600   0.043   2.738   1.207
 3567SOL    HW211601   0.018   2.898   1.223
 3568SOL     OW11602   4.650   4.270   3.666
 3568SOL    HW111603   4.629   4.314   3.753
 3568SOL    HW211604   4.625   4.173   3.671
 3569SOL     OW11605   4.036   3.296   3.386
 3569SOL    HW111606   4.002   3.268   3.296
 3569SOL    HW211607   4.012   3.226   3.454
 3570SOL     OW11608   0.235   1.984   4.967
 3570SOL    HW111609   0.174   2.017   5.039
 3570SOL    HW211610   0.318   1.946   5.009
 3571SOL     OW11611   2.535   6.816   4.598
 3571SOL    HW111612   2.461   6.750   4.606
 3571SOL    HW211613   2.511   6.900   4.646
 3572SOL     OW11614   5.095   4.242   1.841
 3572SOL    HW111615   5.029   4.169   1.857
 3572SOL    HW211616   5.125   4.279   1.929
 3573SOL     OW11617   6.935   4.602   3.685
 3573SOL    HW111618   7.011   4.605   3.620
 3573SOL    HW211619   6.922   4.509   3.717
 3574SOL     OW11620   2.223   1.848   5.786
 3574SOL    HW111621   2.167   1.774   5.822
 3574SOL    HW211622   2.279   1.887   5.859
 3575SOL     OW11623   5.277   0.389   6.719
 3575SOL    HW111624   5.359   0.350   6.762
 3575SOL    HW211625   5.205   0.398   6.787
 3576SOL     OW11626   0.984   2.777   0.619
 3576SOL    HW111627   1.044   2.698   0.616
 3576SOL    HW211628   1.012   2.843   0.549
 3577SOL     OW11629   1.334   2.803   4.840
 3577SOL    HW111630   1.355   2.789   4.937
 3577SOL    HW211631   1.414   2.779   4.785
 3578SOL     OW11632   3.769   2.970   6.940
 3578SOL    HW111633   3.739   3.052   6.989
 3578SOL    HW211634   3.757   2.985   6.842
 3579SOL     OW11635   1.085   3.907   1.069
 3579SOL    HW111636   0.998   3.869   1.037
 3579SOL    HW211637   1.160   3.862   1.022
 3580SOL     OW11638   6.690   3.859   2.191
 3580SOL    HW111639   6.706   3.833   2.286
 3580SOL    HW211640   6.778   3.863   2.142
 3581SOL     OW11641   1.408   0.737   2.684
 3581SOL    HW111642   1.437   0.643   2.700
 3581SOL    HW211643   1.421   0.760   2.587
 3582SOL     OW11644   4.505   6.071   0.095
 3582SOL    HW111645   4.495   6.067   0.194
 3582SOL    HW211646   4.561   5.994   0.063
 3583SOL     OW11647   1.855   5.527   1.320
 3583SOL    HW111648   1.780   5.491   1.376
 3583SOL    HW211649   1.934   5.544   1.379
 3584SOL     OW11650   5.905   4.924   4.583
 3584SOL    HW111651   5.905   4.980   4.500
 3584SOL    HW211652   5.814   4.927   4.624
 3585SOL     OW11653   3.520   1.890   3.624
 3585SOL    HW111654   3.586   1.830   3.578
 3585SOL    HW211655   3.537   1.889   3.722
 3586SOL     OW11656   6.567   2.031   5.329
 3586SOL    HW111657   6.603   2.030   5.422
 3586SOL    HW211658   6.477   1.987   5.327
 3587SOL     OW11659   2.912   0.780   5.806
 3587SOL    HW111660   2.893   0.731   5.891
 3587SOL    HW211661   2.997   0.832   5.816
 3588SOL     OW11662   5.566   4.761   4.468
 3588SOL    HW111663   5.636   4.794   4.405
 3588SOL    HW211664   5.590   4.669   4.500
 3589SOL     OW11665   0.829   0.343   6.185
 3589SOL    HW111666   0.902   0.402   6.150
 3589SOL    HW211667   0.817   0.266   6.123
 3590SOL     OW11668   6.040   5.475   5.127
 3590SOL    HW111669   6.081   5.566   5.123
 3590SOL    HW211670   6.104   5.408   5.090
 3591SOL     OW11671   4.406   1.889   0.690
 3591SOL    HW111672   4.314   1.850   0.688
 3591SOL    HW211673   4.401   1.989   0.678
 3592SOL     OW11674   1.374   6.188   0.953
 3592SOL    HW111675   1.412   6.222   1.039
 3592SOL    HW211676   1.440   6.200   0.880
 3593SOL     OW11677   3.915   3.224   5.961
 3593SOL    HW111678   3.930   3.146   5.901
 3593SOL    HW211679   3.992   3.288   5.952
 3594SOL     OW11680   4.511   4.587   5.295
 3594SOL    HW111681   4.486   4.640   5.376
 3594SOL    HW211682   4.430   4.574   5.237
 3595SOL     OW11683   4.886   6.527   4.546
 3595SOL    HW111684   4.800   6.511   4.499
 3595SOL    HW211685   4.868   6.549   4.642
 3596SOL     OW11686   3.996   1.807   2.814
 3596SOL    HW111687   3.931   1.861   2.867
 3596SOL    HW211688   4.089   1.833   2.838
 3597SOL     OW11689   3.609   4.270   5.293
 3597SOL    HW111690   3.595   4.222   5.206
 3597SOL    HW211691   3.650   4.208   5.359
 3598SOL     OW11692   0.128   5.843   5.079
 3598SOL    HW111693   0.181   5.778   5.025
 3598SOL    HW211694   0.173   5.933   5.077
 3599SOL     OW11695   2.472   1.576   4.993
 3599SOL    HW111696   2.534   1.653   5.011
 3599SOL    HW211697   2.505   1.526   4.913
 3600SOL     OW11698   2.854   3.824   0.073
 3600SOL    HW111699   2.881   3.746   0.131
 3600SOL    HW211700   2.825   3.791   7.000
 3601SOL     OW11701   4.409   0.755   5.197
 3601SOL    HW111702   4.461   0.838   5.218
 3601SOL    HW211703   4.312   0.771   5.212
 3602SOL     OW11704   1.527   2.397   1.398
 3602SOL    HW111705   1.622   2.374   1.416
 3602SOL    HW211706   1.523   2.468   1.327
 3603SOL     OW11707   2.257   0.445   5.761
 3603SOL    HW111708   2.288   0.432   5.855
 3603SOL    HW211709   2.309   0.385   5.700
 3604SOL     OW11710   6.688   0.792   3.508
 3604SOL    HW111711   6.764   0.729   3.523
 3604SOL    HW211712   6.713   0.883   3.543
 3605SOL     OW11713   1.448   0.433   5.082
 3605SOL    HW111714   1.456   0.428   5.182
 3605SOL    HW211715   1.353   0.454   5.057
 3606SOL     OW11716   2.607   6.927   2.704
 3606SOL    HW111717   2.566   6.890   2.621
 3606SOL    HW211718   2.569   6.880   2.784
 3607SOL     OW11719   6.574   1.497   3.286
 3607SOL    HW111720   6.557   1.402   3.261
 3607SOL    HW211721   6.512   1.556   3.233
 3608SOL     OW11722   3.847   1.809   5.932
 3608SOL    HW111723   3.879   1.722   5.969
 3608SOL    HW211724   3.921   1.876   5.936
 3609SOL     OW11725   3.063   0.248   5.537
 3609SOL    HW111726   3.097   0.342   5.536
 3609SOL    HW211727   3.024   0.228   5.627
 3610SOL     OW11728   2.134   0.765   5.552
 3610SOL    HW111729   2.097   0.848   5.595
 3610SOL    HW211730   2.073   0.688   5.570
 3611SOL     OW11731   5.564   3.973   3.265
 3611SOL    HW111732   5.609   4.058   3.292
 3611SOL    HW211733   5.631   3.898   3.267
 3612SOL     OW11734   4.887   1.912   0.382
 3612SOL    HW111735   4.789   1.904   0.401
 3612SOL    HW211736   4.916   1.835   0.326
 3613SOL     OW11737   3.697   0.115   2.688
 3613SOL    HW111738   3.781   0.061   2.684
 3613SOL    HW211739   3.618   0.056   2.670
 3614SOL     OW11740   3.683   5.514   0.425
 3614SOL    HW111741   3.657   5.426   0.463
 3614SOL    HW211742   3.722   5.571   0.497
 3615SOL     OW11743   5.351   2.996   5.244
 3615SOL    HW111744   5.351   2.901   5.274
 3615SOL    HW211745   5.258   3.032   5.248
 3616SOL     OW11746   1.353   2.108   0.903
 3616SOL    HW111747   1.285   2.126   0.831
 3616SOL    HW211748   1.306   2.073   0.984
 3617SOL     OW11749   3.996   5.273   5.128
 3617SOL    HW111750   4.076   5.254   5.070
 3617SOL    HW211751   4.025   5.325   5.208
 3618SOL     OW11752   1.246   5.468   4.668
 3618SOL    HW111753   1.281   5.374   4.672
 3618SOL    HW211754   1.199   5.482   4.581
 3619SOL     OW11755   6.248   2.021   2.352
 3619SOL    HW111756   6.258   2.038   2.254
 3619SOL    HW211757   6.276   1.927   2.372
 3620SOL     OW11758   5.032   6.148   5.438
 3620SOL    HW111759   5.091   6.112   5.366
 3620SOL    HW211760   5.089   6.176   5.516
 3621SOL     OW11761   3.648   3.106   3.996
 3621SOL    HW111762   3.585   3.159   4.053
 3621SOL    HW211763   3.665   3.017   4.038
 3622SOL     OW11764   2.008   5.464   6.211
 3622SOL    HW111765   2.043   5.555   6.191
 3622SOL    HW211766   1.993   5.454   6.310
 3623SOL     OW11767   1.636   5.894   6.202
 3623SOL    HW111768   1.557   5.836   6.185
 3623SOL    HW211769   1.712   5.837   6.235
 3624SOL     OW11770   2.867   1.775   3.079
 3624SOL    HW111771   2.857   1.837   3.157
 3624SOL    HW211772   2.837   1.821   2.995
 3625SOL     OW11773   6.027   2.395   1.430
 3625SOL    HW111774   5.969   2.393   1.512
 3625SOL    HW211775   6.113   2.441   1.452
 3626SOL     OW11776   1.416   2.722   6.327
 3626SOL    HW111777   1.433   2.644   6.386
 3626SOL    HW211778   1.371   2.795   6.379
 3627SOL     OW11779   3.316   1.164   2.686
 3627SOL    HW111780   3.297   1.129   2.778
 3627SOL    HW211781   3.334   1.262   2.690
 3628SOL     OW11782   6.579   1.626   1.534
 3628SOL    HW111783   6.597   1.707   1.478
 3628SOL    HW211784   6.660   1.607   1.591
 3629SOL     OW11785   1.709   0.778   4.193
 3629SOL    HW111786   1.714   0.729   4.107
 3629SOL    HW211787   1.762   0.863   4.187
 3630SOL     OW11788   6.417   2.351   2.984
 3630SOL    HW111789   6.464   2.431   3.021
 3630SOL    HW211790   6.418   2.278   3.053
 3631SOL     OW11791   2.003   5.708   2.642
 3631SOL    HW111792   2.002   5.738   2.547
 3631SOL    HW211793   2.093   5.725   2.681
 3632SOL     OW11794   4.999   3.319   2.501
 3632SOL    HW111795   4.972   3.229   2.468
 3632SOL    HW211796   5.055   3.365   2.431
 3633SOL     OW11797   4.282   4.622   6.315
 3633SOL    HW111798   4.341   4.563   6.370
 3633SOL    HW211799   4.242   4.569   6.240
 3634SOL     OW11800   3.270   5.445   6.237
 3634SOL    HW111801   3.211   5.438   6.317
 3634SOL    HW211802   3.266   5.359   6.186
 3635SOL     OW11803   1.567   6.848   3.076
 3635SOL    HW111804   1.603   6.934   3.041
 3635SOL    HW211805   1.640   6.779   3.078
 3636SOL     OW11806   0.214   5.922   4.776
 3636SOL    HW111807   0.277   5.980   4.725
 3636SOL    HW211808   0.175   5.974   4.852
 3637SOL     OW11809   5.457   2.493   6.767
 3637SOL    HW111810   5.520   2.420   6.739
 3637SOL    HW211811   5.366   2.475   6.729
 3638SOL     OW11812   0.497   2.956   3.560
 3638SOL    HW111813   0.534   2.946   3.467
 3638SOL    HW211814   0.547   3.027   3.608
 3639SOL     OW11815   4.122   3.572   4.628
 3639SOL    HW111816   4.196   3.569   4.561
 3639SOL    HW211817   4.111   3.481   4.669
 3640SOL     OW11818   4.544   1.680   2.408
 3640SOL    HW111819   4.491   1.668   2.325
 3640SOL    HW211820   4.556   1.591   2.453
 3641SOL     OW11821   6.567   3.580   1.823
 3641SOL    HW111822   6.492   3.628   1.777
 3641SOL    HW211823   6.595   3.501   1.768
 3642SOL     OW11824   5.083   4.285   6.325
 3642SOL    HW111825   5.180   4.271   6.302
 3642SOL    HW211826   5.046   4.360   6.271
 3643SOL     OW11827   4.094   6.194   4.924
 3643SOL    HW111828   4.152   6.274   4.914
 3643SOL    HW211829   4.023   6.211   4.993
 3644SOL     OW11830   2.883   0.873   2.576
 3644SOL    HW111831   2.981   0.893   2.581
 3644SOL    HW211832   2.834   0.929   2.643
 3645SOL     OW11833   2.246   4.126   3.374
 3645SOL    HW111834   2.173   4.071   3.333
 3645SOL    HW211835   2.257   4.211   3.323
 3646SOL     OW11836   1.880   5.261   5.384
 3646SOL    HW111837   1.963   5.207   5.401
 3646SOL    HW211838   1.863   5.266   5.285
 3647SOL     OW11839   3.936   6.899   0.404
 3647SOL    HW111840   3.852   6.846   0.422
 3647SOL    HW211841   4.008   6.836   0.373
 3648SOL     OW11842   5.127   4.657   3.602
 3648SOL    HW111843   5.085   4.628   3.688
 3648SOL    HW211844   5.081   4.740   3.569
 3649SOL     OW11845   4.990   2.412   0.444
 3649SOL    HW111846   5.012   2.352   0.367
 3649SOL    HW211847   4.891   2.424   0.450
 3650SOL     OW11848   5.412   6.075   6.126
 3650SOL    HW111849   5.427   5.996   6.066
 3650SOL    HW211850   5.493   6.089   6.183
 3651SOL     OW11851   1.232   1.999   6.272
 3651SOL    HW111852   1.173   1.930   6.312
 3651SOL    HW211853   1.194   2.029   6.184
 3652SOL     OW11854   5.346   2.445   2.703
 3652SOL    HW111855   5.356   2.346   2.695
 3652SOL    HW211856   5.338   2.470   2.800
 3653SOL     OW11857   2.175   1.074   0.839
 3653SOL    HW111858   2.223   1.062   0.752
 3653SOL    HW211859   2.214   1.152   0.888
 3654SOL     OW11860   4.371   6.529   1.620
 3654SOL    HW111861   4.464   6.493   1.619
 3654SOL    HW211862   4.310   6.462   1.578
 3655SOL     OW11863   1.288   0.854   4.360
 3655SOL    HW111864   1.311   0.779   4.298
 3655SOL    HW211865   1.371   0.888   4.404
 3656SOL     OW11866   0.510   6.980   0.800
 3656SOL    HW111867   0.506   6.947   0.706
 3656SOL    HW211868   0.545   0.058   0.801
 3657SOL     OW11869   5.877   4.897   6.387
 3657SOL    HW111870   5.812   4.824   6.409
 3657SOL    HW211871   5.964   4.879   6.433
 3658SOL     OW11872   1.599   4.155   5.468
 3658SOL    HW111873   1.646   4.236   5.435
 3658SOL    HW211874   1.642   4.073   5.430
 3659SOL     OW11875   1.089   2.303   6.963
 3659SOL    HW111876   1.032   2.240   6.909
 3659SOL    HW211877   1.073   2.286   0.044
 3660SOL     OW11878   3.952   4.823   5.063
 3660SOL    HW111879   3.958   4.872   5.151
 3660SOL    HW211880   3.862   4.778   5.057
 3661SOL     OW11881   0.746   1.290   4.903
 3661SOL    HW111882   0.688   1.372   4.910
 3661SOL    HW211883   0.842   1.316   4.910
 3662SOL     OW11884   3.770   1.557   5.749
 3662SOL    HW111885   3.760   1.489   5.676
 3662SOL    HW211886   3.685   1.608   5.758
 3663SOL     OW11887   1.624   2.473   6.122
 3663SOL    HW111888   1.527   2.476   6.099
 3663SOL    HW211889   1.657   2.379   6.117
 3664SOL     OW11890   2.635   1.676   1.218
 3664SOL    HW111891   2.638   1.587   1.173
 3664SOL    HW211892   2.540   1.707   1.225
 3665SOL     OW11893   0.025   6.233   5.009
 3665SOL    HW111894   6.992   6.153   5.042
 3665SOL    HW211895   6.982   6.287   4.949
 3666SOL     OW11896   2.108   3.692   4.791
 3666SOL    HW111897   2.065   3.739   4.868
 3666SOL    HW211898   2.126   3.757   4.718
 3667SOL     OW11899   2.190   6.594   1.288
 3667SOL    HW111900   2.152   6.604   1.380
 3667SOL    HW211901   2.136   6.528   1.236
 3668SOL     OW11902   4.950   1.189   0.807
 3668SOL    HW111903   4.899   1.219   0.726
 3668SOL    HW211904   4.916   1.239   0.887
 3669SOL     OW11905   6.395   1.082   1.798
 3669SOL    HW111906   6.469   1.123   1.852
 3669SOL    HW211907   6.379   1.138   1.716
 3670SOL     OW11908   1.982   6.967   2.450
 3670SOL    HW111909   1.918   0.015   2.494
 3670SOL    HW211910   1.998   6.890   2.512
 3671SOL     OW11911   0.242   0.633   5.487
 3671SOL    HW111912   0.195   0.722   5.493
 3671SOL    HW211913   0.239   0.589   5.577
 3672SOL     OW11914   4.221   0.500   3.875
 3672SOL    HW111915   4.243   0.582   3.822
 3672SOL    HW211916   4.174   0.434   3.817
 3673SOL     OW11917   3.336   1.205   1.841
 3673SOL    HW111918   3.292   1.237   1.757
 3673SOL    HW211919   3.420   1.258   1.857
 3674SOL     OW11920   6.968   4.265   5.989
 3674SOL    HW111921   6.918   4.179   6.000
 3674SOL    HW211922   7.012   4.268   5.899
 3675SOL     OW11923   6.594   0.690   4.867
 3675SOL    HW111924   6.648   0.634   4.804
 3675SOL    HW211925   6.645   0.701   4.953
 3676SOL     OW11926   2.536   0.649   5.510
 3676SOL    HW111927   2.582   0.561   5.498
 3676SOL    HW211928   2.572   0.695   5.591
 3677SOL     OW11929   1.622   1.008   4.706
 3677SOL    HW111930   1.714   0.997   4.744
 3677SOL    HW211931   1.617   0.962   4.617
 3678SOL     OW11932   3.143   0.927   3.465
 3678SOL    HW111933   3.199   0.979   3.530
 3678SOL    HW211934   3.074   0.874   3.514
 3679SOL     OW11935   3.174   1.006   2.206
 3679SOL    HW111936   3.252   0.960   2.249
 3679SOL    HW211937   3.091   0.954   2.223
 3680SOL     OW11938   4.052   1.976   4.243
 3680SOL    HW111939   4.082   2.064   4.205
 3680SOL    HW211940   4.036   1.912   4.168
 3681SOL     OW11941   1.058   6.115   3.654
 3681SOL    HW111942   1.071   6.160   3.742
 3681SOL    HW211943   1.019   6.180   3.589
 3682SOL     OW11944   5.277   1.758   1.506
 3682SOL    HW111945   5.261   1.857   1.499
 3682SOL    HW211946   5.371   1.742   1.536
 3683SOL     OW11947   6.438   1.632   1.147
 3683SOL    HW111948   6.388   1.718   1.152
 3683SOL    HW211949   6.525   1.646   1.102
 3684SOL     OW11950   2.717   6.036   5.628
 3684SOL    HW111951   2.698   5.975   5.704
 3684SOL    HW211952   2.812   6.068   5.634
 3685SOL     OW11953   1.991   6.896   3.501
 3685SOL    HW111954   1.964   6.907   3.405
 3685SOL    HW211955   2.082   6.936   3.515
 3686SOL     OW11956   0.032   4.470   0.313
 3686SOL    HW111957   0.021   4.433   0.405
 3686SOL    HW211958   0.083   4.406   0.257
 3687SOL     OW11959   6.617   4.787   4.106
 3687SOL    HW111960   6.655   4.852   4.040
 3687SOL    HW211961   6.619   4.827   4.197
 3688SOL     OW11962   6.978   3.113   1.829
 3688SOL    HW111963   6.973   3.212   1.817
 3688SOL    HW211964   6.938   3.068   1.749
 3689SOL     OW11965   1.915   1.778   5.405
 3689SOL    HW111966   1.896   1.792   5.502
 3689SOL    HW211967   1.995   1.719   5.395
 3690SOL     OW11968   6.155   4.870   1.737
 3690SOL    HW111969   6.143   4.847   1.640
 3690SOL    HW211970   6.112   4.799   1.793
 3691SOL     OW11971   1.993   2.025   0.777
 3691SOL    HW111972   2.031   1.940   0.741
 3691SOL    HW211973   2.037   2.103   0.733
 3692SOL     OW11974   0.833   3.072   5.374
 3692SOL    HW111975   0.905   3.135   5.343
 3692SOL    HW211976   0.863   2.978   5.360
 3693SOL     OW11977   0.138   2.148   2.729
 3693SOL    HW111978   0.070   2.207   2.772
 3693SOL    HW211979   0.210   2.126   2.795
 3694SOL     OW11980   0.237   6.704   1.800
 3694SOL    HW111981   0.243   6.635   1.727
 3694SOL    HW211982   0.143   6.736   1.808
 3695SOL     OW11983   6.180   3.684   3.783
 3695SOL    HW111984   6.092   3.696   3.828
 3695SOL    HW211985   6.206   3.588   3.786
 3696SOL     OW11986   4.634   0.033   4.087
 3696SOL    HW111987   4.624   0.007   3.991
 3696SOL    HW211988   4.632   0.133   4.095
 3697SOL     OW11989   5.878   5.316   3.534
 3697SOL    HW111990   5.867   5.412   3.508
 3697SOL    HW211991   5.947   5.308   3.606
 3698SOL     OW11992   1.028   6.834   4.261
 3698SOL    HW111993   1.055   6.765   4.328
 3698SOL    HW211994   1.093   6.910   4.263
 3699SOL     OW11995   3.246   2.132   2.994
 3699SOL    HW111996   3.294   2.163   2.911
 3699SOL    HW211997   3.310   2.080   3.051
 3700SOL     OW11998   0.675   5.547   4.189
 3700SOL    HW111999   0.663   5.468   4.249
 3700SOL    HW212000   0.591   5.602   4.188
 3701SOL     OW12001   6.407   0.682   2.088
 3701SOL    HW112002   6.501   0.713   2.078
 3701SOL    HW212003   6.374   0.646   2.001
 3702SOL     OW12004   6.451   4.698   3.386
 3702SOL    HW112005   6.380   4.747   3.436
 3702SOL    HW212006   6.541   4.727   3.420
 3703SOL     OW12007   0.556   2.071   3.773
 3703SOL    HW112008   0.558   2.096   3.676
 3703SOL    HW212009   0.645   2.034   3.799
 3704SOL     OW12010   6.498   6.842   0.907
 3704SOL    HW112011   6.586   6.802   0.878
 3704SOL    HW212012   6.423   6.789   0.867
 3705SOL     OW12013   6.259   4.293   3.571
 3705SOL    HW112014   6.340   4.236   3.561
 3705SOL    HW212015   6.279   4.370   3.631
 3706SOL     OW12016   0.971   5.369   6.397
 3706SOL    HW112017   1.000   5.438   6.331
 3706SOL    HW212018   1.015   5.388   6.485
 3707SOL     OW12019   0.704   4.295   3.169
 3707SOL    HW112020   0.770   4.248   3.227
 3707SOL    HW212021   0.665   4.230   3.104
 3708SOL     OW12022   1.675   5.931   0.353
 3708SOL    HW112023   1.749   5.947   0.418
 3708SOL    HW212024   1.613   6.010   0.353
 3709SOL     OW12025   0.859   1.738   2.012
 3709SOL    HW112026   0.919   1.808   1.971
 3709SOL    HW212027   0.912   1.654   2.026
 3710SOL     OW12028   2.215   3.821   5.491
 3710SOL    HW112029   2.219   3.745   5.426
 3710SOL    HW212030   2.307   3.860   5.502
 3711SOL     OW12031   2.184   4.948   5.146
 3711SOL    HW112032   2.153   5.042   5.157
 3711SOL    HW212033   2.283   4.946   5.137
 3712SOL     OW12034   3.051   4.829   4.108
 3712SOL    HW112035   3.130   4.860   4.160
 3712SOL    HW212036   2.972   4.887   4.130
 3713SOL     OW12037   5.998   0.222   5.583
 3713SOL    HW112038   6.011   0.278   5.665
 3713SOL    HW212039   6.033   0.130   5.600
 3714SOL     OW12040   0.249   5.252   0.310
 3714SOL    HW112041   0.214   5.184   0.374
 3714SOL    HW212042   0.172   5.299   0.266
 3715SOL     OW12043   6.110   4.546   3.022
 3715SOL    HW112044   6.013   4.527   3.007
 3715SOL    HW212045   6.164   4.502   2.951
 3716SOL     OW12046   5.602   5.752   5.636
 3716SOL    HW112047   5.578   5.848   5.623
 3716SOL    HW212048   5.596   5.729   5.733
 3717SOL     OW12049   4.917   0.162   1.202
 3717SOL    HW112050   4.965   0.113   1.275
 3717SOL    HW212051   4.820   0.168   1.224
 3718SOL     OW12052   5.547   6.651   6.225
 3718SOL    HW112053   5.590   6.571   6.182
 3718SOL    HW212054   5.450   6.631   6.243
 3719SOL     OW12055   2.361   4.479   0.197
 3719SOL    HW112056   2.419   4.416   0.145
 3719SOL    HW212057   2.284   4.429   0.237
 3720SOL     OW12058   0.952   2.305   0.617
 3720SOL    HW112059   0.889   2.256   0.678
 3720SOL    HW212060   1.040   2.317   0.663
 3721SOL     OW12061   6.450   0.014   5.977
 3721SOL    HW112062   6.369   0.044   5.926
 3721SOL    HW212063   6.421   6.986   6.062
 3722SOL     OW12064   5.628   6.637   0.934
 3722SOL    HW112065   5.607   6.721   0.883
 3722SOL    HW212066   5.727   6.627   0.942
 3723SOL     OW12067   4.523   4.291   6.026
 3723SOL    HW112068   4.546   4.380   5.986
 3723SOL    HW212069   4.604   4.253   6.071
 3724SOL     OW12070   6.495   4.802   4.859
 3724SOL    HW112071   6.586   4.843   4.848
 3724SOL    HW212072   6.474   4.794   4.956
 3725SOL     OW12073   0.260   6.227   0.704
 3725SOL    HW112074   0.355   6.223   0.735
 3725SOL    HW212075   0.198   6.216   0.782
 3726SOL     OW12076   5.907   3.602   5.185
 3726SOL    HW112077   5.863   3.584   5.097
 3726SOL    HW212078   5.836   3.614   5.255
 3727SOL     OW12079   6.535   1.605   4.454
 3727SOL    HW112080   6.477   1.537   4.498
 3727SOL    HW212081   6.618   1.618   4.508
 3728SOL     OW12082   2.011   4.897   0.335
 3728SOL    HW112083   2.091   4.887   0.394
 3728SOL    HW212084   1.995   4.811   0.285
 3729SOL     OW12085   0.209   0.171   6.189
 3729SOL    HW112086   0.258   0.111   6.251
 3729SOL    HW212087   0.111   0.152   6.195
 3730SOL     OW12088   5.085   4.674   4.713
 3730SOL    HW112089   5.044   4.627   4.635
 3730SOL    HW212090   5.184   4.659   4.713
 3731SOL     OW12091   6.989   1.637   1.498
 3731SOL    HW112092   6.921   1.694   1.452
 3731SOL    HW212093   0.033   1.595   1.430
 3732SOL     OW12094   4.083   2.613   0.082
 3732SOL    HW112095   4.053   2.613   0.178
 3732SOL    HW212096   4.172   2.658   0.076
 3733SOL     OW12097   1.532   1.040   3.023
 3733SOL    HW112098   1.473   1.117   2.998
 3733SOL    HW212099   1.608   1.073   3.078
 3734SOL     OW12100   3.834   0.435   1.833
 3734SOL    HW112101   3.889   0.508   1.791
 3734SOL    HW212102   3.743   0.470   1.852
 3735SOL     OW12103   4.621   1.139   2.775
 3735SOL    HW112104   4.581   1.095   2.695
 3735SOL    HW212105   4.713   1.171   2.753
 3736SOL     OW12106   0.836   1.984   0.228
 3736SOL    HW112107   0.764   1.915   0.227
 3736SOL    HW212108   0.915   1.949   0.280
 3737SOL     OW12109   5.161   2.031   4.033
 3737SOL    HW112110   5.079   1.974   4.023
 3737SOL    HW212111   5.184   2.072   3.945
 3738SOL     OW12112   0.238   0.908   0.855
 3738SOL    HW112113   0.306   0.873   0.790
 3738SOL    HW212114   0.275   0.988   0.902
 3739SOL     OW12115   3.220   4.442   6.775
 3739SOL    HW112116   3.178   4.473   6.690
 3739SOL    HW212117   3.241   4.344   6.768
 3740SOL     OW12118   5.881   6.271   6.879
 3740SOL    HW112119   5.820   6.193   6.862
 3740SOL    HW212120   5.886   6.327   6.796
 3741SOL     OW12121   5.843   4.294   0.144
 3741SOL    HW112122   5.918   4.310   0.079
 3741SOL    HW212123   5.827   4.196   0.154
 3742SOL     OW12124   4.896   5.009   1.422
 3742SOL    HW112125   4.819   4.954   1.392
 3742SOL    HW212126   4.929   5.065   1.346
 3743SOL     OW12127   2.451   3.934   0.667
 3743SOL    HW112128   2.425   3.914   0.761
 3743SOL    HW212129   2.390   3.886   0.604
 3744SOL     OW12130   6.664   5.774   2.717
 3744SOL    HW112131   6.630   5.683   2.740
 3744SOL    HW212132   6.667   5.830   2.800
 3745SOL     OW12133   5.665   1.944   2.589
 3745SOL    HW112134   5.741   2.007   2.572
 3745SOL    HW212135   5.591   1.994   2.635
 3746SOL     OW12136   4.867   0.206   5.197
 3746SOL    HW112137   4.774   0.203   5.232
 3746SOL    HW212138   4.881   0.132   5.132
 3747SOL     OW12139   2.198   5.837   5.429
 3747SOL    HW112140   2.259   5.861   5.505
 3747SOL    HW212141   2.105   5.825   5.464
 3748SOL     OW12142   5.135   2.267   3.055
 3748SOL    HW112143   5.095   2.347   3.099
 3748SOL    HW212144   5.067   2.226   2.994
 3749SOL     OW12145   6.172   6.373   1.530
 3749SOL    HW112146   6.073   6.385   1.536
 3749SOL    HW212147   6.200   6.297   1.588
 3750SOL     OW12148   5.828   3.893   1.284
 3750SOL    HW112149   5.792   3.818   1.339
 3750SOL    HW212150   5.864   3.857   1.198
 3751SOL     OW12151   1.503   4.741   0.410
 3751SOL    HW112152   1.528   4.780   0.499
 3751SOL    HW212153   1.527   4.644   0.408
 3752SOL     OW12154   1.124   6.937   5.817
 3752SOL    HW112155   1.029   6.904   5.820
 3752SOL    HW212156   1.154   6.958   5.910
 3753SOL     OW12157   0.693   0.704   5.848
 3753SOL    HW112158   0.639   0.779   5.811
 3753SOL    HW212159   0.790   0.725   5.840
 3754SOL     OW12160   6.570   6.212   1.745
 3754SOL    HW112161   6.623   6.177   1.822
 3754SOL    HW212162   6.508   6.283   1.776
 3755SOL     OW12163   4.593   2.412   3.007
 3755SOL    HW112164   4.626   2.506   3.001
 3755SOL    HW212165   4.506   2.404   2.959
 3756SOL     OW12166   3.480   6.890   0.595
 3756SOL    HW112167   3.414   6.941   0.650
 3756SOL    HW212168   3.443   6.799   0.574
 3757SOL     OW12169   3.105   4.387   5.954
 3757SOL    HW112170   3.013   4.349   5.940
 3757SOL    HW212171   3.101   4.456   6.025
 3758SOL     OW12172   6.863   0.954   2.196
 3758SOL    HW112173   6.913   1.017   2.256
 3758SOL    HW212174   6.904   0.863   2.203
 3759SOL     OW12175   4.839   3.872   0.878
 3759SOL    HW112176   4.917   3.931   0.896
 3759SOL    HW212177   4.831   3.856   0.779
 3760SOL     OW12178   2.038   1.686   5.875
 3760SOL    HW112179   1.972   1.756   5.847
 3760SOL    HW212180   2.037   1.611   5.809
 3761SOL     OW12181   6.299   6.172   4.095
 3761SOL    HW112182   6.293   6.259   4.046
 3761SOL    HW212183   6.294   6.188   4.193
 3762SOL     OW12184   0.267   3.118   0.642
 3762SOL    HW112185   0.248   3.201   0.590
 3762SOL    HW212186   0.303   3.142   0.732
 3763SOL     OW12187   0.026   3.193   4.410
 3763SOL    HW112188   0.004   3.144   4.326
 3763SOL    HW212189   0.124   3.185   4.430
 3764SOL     OW12190   2.063   0.035   4.048
 3764SOL    HW112191   2.090   0.128   4.023
 3764SOL    HW212192   2.005   7.012   3.977
 3765SOL     OW12193   6.343   0.946   3.329
 3765SOL    HW112194   6.357   0.918   3.424
 3765SOL    HW212195   6.248   0.975   3.317
 3766SOL     OW12196   2.091   1.379   5.181
 3766SOL    HW112197   2.121   1.444   5.111
 3766SOL    HW212198   2.005   1.337   5.152
 3767SOL     OW12199   0.012   4.576   0.637
 3767SOL    HW112200   0.109   4.567   0.614
 3767SOL    HW212201   0.003   4.619   0.727
 3768SOL     OW12202   4.605   6.264   1.098
 3768SOL    HW112203   4.643   6.198   1.034
 3768SOL    HW212204   4.667   6.342   1.105
 3769SOL     OW12205   4.090   6.567   4.704
 3769SOL    HW112206   4.106   6.661   4.675
 3769SOL    HW212207   4.102   6.560   4.803
 3770SOL     OW12208   2.126   2.593   0.192
 3770SOL    HW112209   2.221   2.617   0.175
 3770SOL    HW212210   2.121   2.506   0.240
 3771SOL     OW12211   4.138   1.565   5.820
 3771SOL    HW112212   4.165   1.517   5.904
 3771SOL    HW212213   4.105   1.499   5.752
 3772SOL     OW12214   4.765   0.684   2.590
 3772SOL    HW112215   4.667   0.667   2.601
 3772SOL    HW212216   4.808   0.601   2.554
 3773SOL     OW12217   6.410   2.989   0.609
 3773SOL    HW112218   6.456   2.925   0.670
 3773SOL    HW212219   6.443   2.975   0.515
 3774SOL     OW12220   1.509   1.729   1.980
 3774SOL    HW112221   1.522   1.809   1.921
 3774SOL    HW212222   1.418   1.690   1.962
 3775SOL     OW12223   5.274   2.720   3.519
 3775SOL    HW112224   5.355   2.777   3.503
 3775SOL    HW212225   5.218   2.717   3.436
 3776SOL     OW12226   2.863   1.815   6.798
 3776SOL    HW112227   2.869   1.914   6.808
 3776SOL    HW212228   2.806   1.777   6.870
 3777SOL     OW12229   1.139   4.005   3.178
 3777SOL    HW112230   1.132   3.909   3.153
 3777SOL    HW212231   1.225   4.021   3.226
 3778SOL     OW12232   1.887   0.650   1.771
 3778SOL    HW112233   1.931   0.632   1.859
 3778SOL    HW212234   1.932   0.727   1.726
 3779SOL     OW12235   1.896   5.182   6.989
 3779SOL    HW112236   1.961   5.171   6.913
 3779SOL    HW212237   1.859   5.093   7.015
 3780SOL     OW12238   2.297   6.889   4.028
 3780SOL    HW112239   2.220   6.952   4.019
 3780SOL    HW212240   2.291   6.841   4.115
 3781SOL     OW12241   2.770   5.444   4.712
 3781SOL    HW112242   2.735   5.406   4.626
 3781SOL    HW212243   2.724   5.530   4.732
 3782SOL     OW12244   2.510   1.265   2.558
 3782SOL    HW112245   2.595   1.229   2.596
 3782SOL    HW212246   2.522   1.285   2.461
 3783SOL     OW12247   5.138   4.995   4.861
 3783SOL    HW112248   5.123   4.920   4.797
 3783SOL    HW212249   5.104   4.968   4.952
 3784SOL     OW12250   4.809   2.132   4.465
 3784SOL    HW112251   4.782   2.219   4.422
 3784SOL    HW212252   4.814   2.145   4.564
 3785SOL     OW12253   0.944   0.358   1.908
 3785SOL    HW112254   0.933   0.261   1.886
 3785SOL    HW212255   0.988   0.367   1.998
 3786SOL     OW12256   2.648   6.263   1.833
 3786SOL    HW112257   2.629   6.260   1.735
 3786SOL    HW212258   2.561   6.265   1.883
 3787SOL     OW12259   4.955   1.117   4.143
 3787SOL    HW112260   4.915   1.152   4.227
 3787SOL    HW212261   4.933   1.178   4.067
 3788SOL     OW12262   6.463   3.397   2.486
 3788SOL    HW112263   6.546   3.398   2.430
 3788SOL    HW212264   6.455   3.483   2.535
 3789SOL     OW12265   1.429   5.214   2.048
 3789SOL    HW112266   1.510   5.177   2.094
 3789SOL    HW212267   1.347   5.165   2.080
 3790SOL     OW12268   2.040   3.278   2.892
 3790SOL    HW112269   2.024   3.248   2.986
 3790SOL    HW212270   2.071   3.373   2.892
 3791SOL     OW12271   6.307   0.604   2.687
 3791SOL    HW112272   6.325   0.577   2.781
 3791SOL    HW212273   6.348   0.693   2.669
 3792SOL     OW12274   1.133   5.842   6.477
 3792SOL    HW112275   1.157   5.924   6.529
 3792SOL    HW212276   1.075   5.867   6.400
 3793SOL     OW12277   0.678   5.253   2.429
 3793SOL    HW112278   0.743   5.327   2.413
 3793SOL    HW212279   0.586   5.282   2.402
 3794SOL     OW12280   4.572   0.301   3.981
 3794SOL    HW112281   4.545   0.387   4.024
 3794SOL    HW212282   4.491   0.246   3.962
 3795SOL     OW12283   5.736   0.314   0.377
 3795SOL    HW112284   5.664   0.293   0.444
 3795SOL    HW212285   5.697   0.366   0.301
 3796SOL     OW12286   6.988   2.808   0.909
 3796SOL    HW112287   0.070   2.789   0.904
 3796SOL    HW212288   6.965   2.840   1.000
 3797SOL     OW12289   0.330   5.315   2.620
 3797SOL    HW112290   0.231   5.327   2.616
 3797SOL    HW212291   0.365   5.297   2.528
 3798SOL     OW12292   1.263   4.354   0.540
 3798SOL    HW112293   1.333   4.311   0.484
 3798SOL    HW212294   1.205   4.283   0.581
 3799SOL     OW12295   1.598   0.610   5.581
 3799SOL    HW112296   1.611   0.591   5.678
 3799SOL    HW212297   1.649   0.544   5.526
 3800SOL     OW12298   5.209   2.491   5.096
 3800SOL    HW112299   5.277   2.419   5.082
 3800SOL    HW212300   5.203   2.548   5.014
 3801SOL     OW12301   6.770   0.069   6.029
 3801SOL    HW112302   6.743   0.015   6.109
 3801SOL    HW212303   6.693   0.074   5.965
 3802SOL     OW12304   1.894   2.478   5.306
 3802SOL    HW112305   1.930   2.557   5.257
 3802SOL    HW212306   1.914   2.487   5.404
 3803SOL     OW12307   4.109   1.183   1.146
 3803SOL    HW112308   4.128   1.123   1.224
 3803SOL    HW212309   4.108   1.278   1.176
 3804SOL     OW12310   5.087   3.593   4.978
 3804SOL    HW112311   5.118   3.498   4.983
 3804SOL    HW212312   4.987   3.595   4.968
 3805SOL     OW12313   1.736   3.569   1.444
 3805SOL    HW112314   1.803   3.542   1.375
 3805SOL    HW212315   1.730   3.669   1.448
 3806SOL     OW12316   3.667   0.941   0.294
 3806SOL    HW112317   3.739   0.874   0.280
 3806SOL    HW212318   3.658   0.961   0.392
 3807SOL     OW12319   1.356   6.994   2.903
 3807SOL    HW112320   1.290   6.919   2.894
 3807SOL    HW212321   1.448   6.957   2.910
 3808SOL     OW12322   3.979   1.037   0.306
 3808SOL    HW112323   4.005   1.120   0.355
 3808SOL    HW212324   4.040   0.962   0.331
 3809SOL     OW12325   4.377   1.036   0.461
 3809SOL    HW112326   4.456   0.975   0.469
 3809SOL    HW212327   4.398   1.110   0.397
 3810SOL     OW12328   1.788   3.834   6.762
 3810SOL    HW112329   1.750   3.889   6.688
 3810SOL    HW212330   1.885   3.858   6.774
 3811SOL     OW12331   0.398   0.519   6.704
 3811SOL    HW112332   0.492   0.485   6.700
 3811SOL    HW212333   0.358   0.516   6.613
 3812SOL     OW12334   4.942   1.052   5.855
 3812SOL    HW112335   4.868   1.045   5.922
 3812SOL    HW212336   4.906   1.091   5.770
 3813SOL     OW12337   3.549   4.885   2.355
 3813SOL    HW112338   3.475   4.819   2.342
 3813SOL    HW212339   3.572   4.891   2.452
 3814SOL     OW12340   2.439   0.898   1.597
 3814SOL    HW112341   2.434   0.980   1.654
 3814SOL    HW212342   2.350   0.879   1.556
 3815SOL     OW12343   5.171   2.185   1.899
 3815SOL    HW112344   5.091   2.229   1.858
 3815SOL    HW212345   5.252   2.207   1.845
 3816SOL     OW12346   0.254   6.477   0.239
 3816SOL    HW112347   0.295   6.426   0.163
 3816SOL    HW212348   0.173   6.429   0.271
 3817SOL     OW12349   5.256   1.934   5.162
 3817SOL    HW112350   5.319   1.970   5.231
 3817SOL    HW212351   5.307   1.904   5.082
 3818SOL     OW12352   4.162   5.440   2.531
 3818SOL    HW112353   4.163   5.357   2.586
 3818SOL    HW212354   4.144   5.417   2.435
 3819SOL     OW12355   5.564   4.073   5.916
 3819SOL    HW112356   5.610   4.160   5.935
 3819SOL    HW212357   5.600   4.002   5.977
 3820SOL     OW12358   4.470   6.443   3.432
 3820SOL    HW112359   4.549   6.382   3.419
 3820SOL    HW212360   4.475   6.485   3.523
 3821SOL     OW12361   0.323   5.081   1.261
 3821SOL    HW112362   0.326   5.024   1.343
 3821SOL    HW212363   0.349   5.174   1.285
 3822SOL     OW12364   0.707   4.183   1.122
 3822SOL    HW112365   0.664   4.114   1.063
 3822SOL    HW212366   0.805   4.164   1.129
 3823SOL     OW12367   2.754   3.514   5.633
 3823SOL    HW112368   2.789   3.582   5.568
 3823SOL    HW212369   2.656   3.529   5.647
 3824SOL     OW12370   0.437   2.085   5.956
 3824SOL    HW112371   0.435   2.185   5.957
 3824SOL    HW212372   0.357   2.050   6.004
 3825SOL     OW12373   0.460   6.362   6.255
 3825SOL    HW112374   0.528   6.418   6.208
 3825SOL    HW212375   0.369   6.386   6.221
 3826SOL     OW12376   6.831   1.844   1.414
 3826SOL    HW112377   6.732   1.860   1.413
 3826SOL    HW212378   6.875   1.912   1.473
 3827SOL     OW12379   5.464   1.670   1.936
 3827SOL    HW112380   5.372   1.662   1.897
 3827SOL    HW212381   5.503   1.759   1.913
 3828SOL     OW12382   3.987   1.104   1.868
 3828SOL    HW112383   3.939   1.175   1.817
 3828SOL    HW212384   4.046   1.147   1.936
 3829SOL     OW12385   0.889   5.193   4.003
 3829SOL    HW112386   0.923   5.161   4.092
 3829SOL    HW212387   0.881   5.293   4.004
 3830SOL     OW12388   2.957   0.749   5.292
 3830SOL    HW112389   2.858   0.754   5.304
 3830SOL    HW212390   2.983   0.798   5.209
 3831SOL     OW12391   4.769   1.798   1.987
 3831SOL    HW112392   4.680   1.819   2.026
 3831SOL    HW212393   4.765   1.707   1.944
 3832SOL     OW12394   5.903   6.806   2.106
 3832SOL    HW112395   5.808   6.816   2.136
 3832SOL    HW212396   5.964   6.853   2.170
 3833SOL     OW12397   1.606   6.305   2.233
 3833SOL    HW112398   1.663   6.364   2.177
 3833SOL    HW212399   1.626   6.321   2.330
 3834SOL     OW12400   2.913   2.976   0.507
 3834SOL    HW112401   2.871   3.057   0.468
 3834SOL    HW212402   2.844   2.906   0.522
 3835SOL     OW12403   3.364   5.280   2.776
 3835SOL    HW112404   3.349   5.191   2.818
 3835SOL    HW212405   3.351   5.272   2.677
 3836SOL     OW12406   1.125   2.704   6.016
 3836SOL    HW112407   1.206   2.761   6.031
 3836SOL    HW212408   1.049   2.762   5.986
 3837SOL     OW12409   3.184   4.192   7.005
 3837SOL    HW112410   3.258   4.209   6.940
 3837SOL    HW212411   3.220   4.192   0.082
 3838SOL     OW12412   6.248   3.774   4.591
 3838SOL    HW112413   6.212   3.769   4.684
 3838SOL    HW212414   6.280   3.684   4.562
 3839SOL     OW12415   1.042   5.912   6.247
 3839SOL    HW112416   0.954   5.885   6.208
 3839SOL    HW212417   1.101   5.949   6.174
 3840SOL     OW12418   2.566   2.081   3.222
 3840SOL    HW112419   2.657   2.045   3.240
 3840SOL    HW212420   2.536   2.050   3.132
 3841SOL     OW12421   0.796   3.120   3.908
 3841SOL    HW112422   0.701   3.121   3.939
 3841SOL    HW212423   0.843   3.041   3.947
 3842SOL     OW12424   1.660   5.266   6.848
 3842SOL    HW112425   1.595   5.193   6.873
 3842SOL    HW212426   1.753   5.236   6.869
 3843SOL     OW12427   6.066   4.332   6.993
 3843SOL    HW112428   6.056   4.328   6.893
 3843SOL    HW212429   6.147   4.385   0.000
 3844SOL     OW12430   2.618   4.439   5.559
 3844SOL    HW112431   2.644   4.507   5.491
 3844SOL    HW212432   2.627   4.348   5.520
 3845SOL     OW12433   3.236   3.211   4.253
 3845SOL    HW112434   3.241   3.247   4.346
 3845SOL    HW212435   3.140   3.207   4.224
 3846SOL     OW12436   0.139   4.538   4.737
 3846SOL    HW112437   0.151   4.513   4.641
 3846SOL    HW212438   0.207   4.490   4.792
 3847SOL     OW12439   1.136   0.368   0.794
 3847SOL    HW112440   1.143   0.433   0.718
 3847SOL    HW212441   1.227   0.336   0.819
 3848SOL     OW12442   3.077   6.273   1.677
 3848SOL    HW112443   3.122   6.334   1.742
 3848SOL    HW212444   3.051   6.325   1.595
 3849SOL     OW12445   2.837   1.583   5.768
 3849SOL    HW112446   2.810   1.551   5.859
 3849SOL    HW212447   2.936   1.576   5.758
 3850SOL     OW12448   1.458   3.541   1.364
 3850SOL    HW112449   1.541   3.548   1.419
 3850SOL    HW212450   1.435   3.444   1.351
 3851SOL     OW12451   2.402   2.887   1.168
 3851SOL    HW112452   2.374   2.943   1.246
 3851SOL    HW212453   2.426   2.796   1.200
 3852SOL     OW12454   4.897   1.401   5.361
 3852SOL    HW112455   4.941   1.313   5.344
 3852SOL    HW212456   4.958   1.475   5.333
 3853SOL     OW12457   0.595   4.078   2.143
 3853SOL    HW112458   0.611   3.988   2.103
 3853SOL    HW212459   0.560   4.067   2.236
 3854SOL     OW12460   1.479   3.469   4.488
 3854SOL    HW112461   1.531   3.533   4.432
 3854SOL    HW212462   1.534   3.440   4.566
 3855SOL     OW12463   6.973   1.373   5.178
 3855SOL    HW112464   6.976   1.341   5.273
 3855SOL    HW212465   6.942   1.298   5.119
 3856SOL     OW12466   1.408   6.405   6.185
 3856SOL    HW112467   1.378   6.330   6.243
 3856SOL    HW212468   1.375   6.390   6.092
 3857SOL     OW12469   0.900   0.111   6.648
 3857SOL    HW112470   0.949   0.041   6.700
 3857SOL    HW212471   0.817   0.136   6.696
 3858SOL     OW12472   3.602   4.436   6.983
 3858SOL    HW112473   3.544   4.355   6.974
 3858SOL    HW212474   3.547   4.514   7.011
 3859SOL     OW12475   6.020   2.416   2.514
 3859SOL    HW112476   6.102   2.473   2.522
 3859SOL    HW212477   5.982   2.399   2.605
 3860SOL     OW12478   2.513   5.880   4.588
 3860SOL    HW112479   2.595   5.878   4.531
 3860SOL    HW212480   2.464   5.793   4.579
 3861SOL     OW12481   3.202   4.214   6.652
 3861SOL    HW112482   3.139   4.152   6.698
 3861SOL    HW212483   3.201   4.197   6.553
 3862SOL     OW12484   1.085   5.673   5.948
 3862SOL    HW112485   1.176   5.714   5.945
 3862SOL    HW212486   1.054   5.654   5.855
 3863SOL     OW12487   2.406   3.135   0.272
 3863SOL    HW112488   2.378   3.060   0.211
 3863SOL    HW212489   2.352   3.131   0.356
 3864SOL     OW12490   3.255   2.020   1.077
 3864SOL    HW112491   3.328   1.987   1.137
 3864SOL    HW212492   3.256   2.120   1.075
 3865SOL     OW12493   4.102   0.702   2.583
 3865SOL    HW112494   4.036   0.636   2.548
 3865SOL    HW212495   4.127   0.766   2.511
 3866SOL     OW12496   3.840   6.569   6.908
 3866SOL    HW112497   3.796   6.593   6.822
 3866SOL    HW212498   3.846   6.469   6.915
 3867SOL     OW12499   2.024   4.943   3.308
 3867SOL    HW112500   1.935   4.946   3.353
 3867SOL    HW212501   2.015   4.899   3.219
 3868SOL     OW12502   1.906   5.783   3.127
 3868SOL    HW112503   2.003   5.800   3.143
 3868SOL    HW212504   1.858   5.778   3.215
 3869SOL     OW12505   0.550   1.571   4.025
 3869SOL    HW112506   0.468   1.623   4.050
 3869SOL    HW212507   0.568   1.501   4.094
 3870SOL     OW12508   3.663   3.783   0.314
 3870SOL    HW112509   3.678   3.723   0.235
 3870SOL    HW212510   3.689   3.735   0.398
 3871SOL     OW12511   3.046   0.683   4.328
 3871SOL    HW112512   2.985   0.749   4.287
 3871SOL    HW212513   3.134   0.683   4.279
 3872SOL     OW12514   4.651   4.036   0.803
 3872SOL    HW112515   4.727   3.981   0.838
 3872SOL    HW212516   4.583   4.050   0.876
 3873SOL     OW12517   6.255   4.521   1.830
 3873SOL    HW112518   6.235   4.436   1.780
 3873SOL    HW212519   6.172   4.575   1.838
 3874SOL     OW12520   5.271   6.288   6.015
 3874SOL    HW112521   5.330   6.223   6.062
 3874SOL    HW212522   5.305   6.302   5.921
 3875SOL     OW12523   2.532   3.568   0.287
 3875SOL    HW112524   2.629   3.589   0.298
 3875SOL    HW212525   2.484   3.649   0.253
 3876SOL     OW12526   5.977   3.945   2.509
 3876SOL    HW112527   5.967   4.023   2.570
 3876SOL    HW212528   5.886   3.910   2.484
 3877SOL     OW12529   4.162   1.848   2.210
 3877SOL    HW112530   4.186   1.942   2.232
 3877SOL    HW212531   4.069   1.829   2.240
 3878SOL     OW12532   4.983   5.866   4.711
 3878SOL    HW112533   4.985   5.966   4.716
 3878SOL    HW212534   4.924   5.830   4.783
 3879SOL     OW12535   2.524   5.866   0.563
 3879SOL    HW112536   2.609   5.821   0.536
 3879SOL    HW212537   2.492   5.826   0.649
 3880SOL     OW12538   6.147   1.406   4.035
 3880SOL    HW112539   6.232   1.432   3.989
 3880SOL    HW212540   6.072   1.464   4.002
 3881SOL     OW12541   0.111   5.587   5.971
 3881SOL    HW112542   0.134   5.667   6.026
 3881SOL    HW212543   0.041   5.611   5.904
 3882SOL     OW12544   6.776   6.533   6.087
 3882SOL    HW112545   6.829   6.482   6.020
 3882SOL    HW212546   6.822   6.619   6.108
 3883SOL     OW12547   3.924   2.088   6.972
 3883SOL    HW112548   3.970   2.141   0.027
 3883SOL    HW212549   3.890   2.150   6.901
 3884SOL     OW12550   2.943   5.622   5.796
 3884SOL    HW112551   2.939   5.543   5.858
 3884SOL    HW212552   2.956   5.591   5.702
 3885SOL     OW12553   6.894   0.386   3.719
 3885SOL    HW112554   6.991   0.368   3.734
 3885SOL    HW212555   6.852   0.413   3.806
 3886SOL     OW12556   6.761   6.042   4.499
 3886SOL    HW112557   6.717   6.107   4.561
 3886SOL    HW212558   6.832   6.089   4.446
 3887SOL     OW12559   6.539   3.106   4.927
 3887SOL    HW112560   6.609   3.038   4.907
 3887SOL    HW212561   6.564   3.157   5.009
 3888SOL     OW12562   5.407   0.697   2.760
 3888SOL    HW112563   5.426   0.684   2.858
 3888SOL    HW212564   5.309   0.688   2.744
 3889SOL     OW12565   6.741   5.435   6.563
 3889SOL    HW112566   6.680   5.443   6.642
 3889SOL    HW212567   6.690   5.398   6.485
 3890SOL     OW12568   6.137   3.522   2.990
 3890SOL    HW112569   6.209   3.461   2.958
 3890SOL    HW212570   6.055   3.468   3.010
 3891SOL     OW12571   4.342   4.334   5.569
 3891SOL    HW112572   4.316   4.276   5.491
 3891SOL    HW212573   4.440   4.329   5.583
 3892SOL     OW12574   5.454   5.760   3.802
 3892SOL    HW112575   5.412   5.821   3.869
 3892SOL    HW212576   5.430   5.665   3.823
 3893SOL     OW12577   2.620   6.385   4.481
 3893SOL    HW112578   2.543   6.397   4.418
 3893SOL    HW212579   2.605   6.304   4.537
 3894SOL     OW12580   6.037   5.447   6.415
 3894SOL    HW112581   6.023   5.418   6.321
 3894SOL    HW212582   6.012   5.373   6.477
 3895SOL     OW12583   1.417   2.171   6.389
 3895SOL    HW112584   1.374   2.258   6.368
 3895SOL    HW212585   1.366   2.097   6.345
 3896SOL     OW12586   6.236   2.457   0.271
 3896SOL    HW112587   6.301   2.503   0.211
 3896SOL    HW212588   6.266   2.363   0.286
 3897SOL     OW12589   2.817   6.852   2.957
 3897SOL    HW112590   2.847   6.914   3.030
 3897SOL    HW212591   2.885   6.852   2.884
 3898SOL     OW12592   3.196   4.118   3.840
 3898SOL    HW112593   3.262   4.164   3.899
 3898SOL    HW212594   3.236   4.106   3.749
 3899SOL     OW12595   4.916   2.314   6.537
 3899SOL    HW112596   4.985   2.372   6.494
 3899SOL    HW212597   4.911   2.336   6.635
 3900SOL     OW12598   0.733   2.460   3.581
 3900SOL    HW112599   0.659   2.454   3.648
 3900SOL    HW212600   0.778   2.371   3.573
 3901SOL     OW12601   3.491   6.359   4.973
 3901SOL    HW112602   3.464   6.454   4.990
 3901SOL    HW212603   3.466   6.333   4.880
 3902SOL     OW12604   3.425   5.568   3.017
 3902SOL    HW112605   3.377   5.503   3.076
 3902SOL    HW212606   3.486   5.625   3.072
 3903SOL     OW12607   3.418   3.931   6.514
 3903SOL    HW112608   3.365   3.851   6.545
 3903SOL    HW212609   3.362   3.985   6.452
 3904SOL     OW12610   2.817   6.306   0.466
 3904SOL    HW112611   2.827   6.235   0.397
 3904SOL    HW212612   2.752   6.375   0.432
 3905SOL     OW12613   4.143   0.585   5.571
 3905SOL    HW112614   4.095   0.606   5.657
 3905SOL    HW212615   4.221   0.525   5.590
 3906SOL     OW12616   6.267   5.894   4.062
 3906SOL    HW112617   6.276   5.993   4.059
 3906SOL    HW212618   6.193   5.869   4.125
 3907SOL     OW12619   0.591   1.567   4.613
 3907SOL    HW112620   0.634   1.653   4.640
 3907SOL    HW212621   0.517   1.546   4.676
 3908SOL     OW12622   2.095   1.714   4.518
 3908SOL    HW112623   2.013   1.678   4.562
 3908SOL    HW212624   2.129   1.793   4.570
 3909SOL     OW12625   5.879   3.380   2.282
 3909SOL    HW112626   5.925   3.298   2.316
 3909SOL    HW212627   5.945   3.454   2.270
 3910SOL     OW12628   1.892   2.366   0.860
 3910SOL    HW112629   1.980   2.389   0.902
 3910SOL    HW212630   1.855   2.284   0.903
 3911SOL     OW12631   5.912   1.108   1.186
 3911SOL    HW112632   5.837   1.174   1.182
 3911SOL    HW212633   5.878   1.017   1.162
 3912SOL     OW12634   5.119   4.131   0.444
 3912SOL    HW112635   5.112   4.173   0.535
 3912SOL    HW212636   5.128   4.032   0.455
 3913SOL     OW12637   4.163   4.502   1.265
 3913SOL    HW112638   4.122   4.590   1.242
 3913SOL    HW212639   4.090   4.437   1.291
 3914SOL     OW12640   0.381   0.814   0.615
 3914SOL    HW112641   0.382   0.900   0.564
 3914SOL    HW212642   0.474   0.775   0.616
 3915SOL     OW12643   5.405   0.682   4.931
 3915SOL    HW112644   5.386   0.644   4.840
 3915SOL    HW212645   5.455   0.615   4.985
 3916SOL     OW12646   2.071   2.350   2.348
 3916SOL    HW112647   2.026   2.333   2.436
 3916SOL    HW212648   2.146   2.415   2.361
 3917SOL     OW12649   4.041   5.744   2.251
 3917SOL    HW112650   3.996   5.659   2.279
 3917SOL    HW212651   4.000   5.778   2.167
 3918SOL     OW12652   3.853   6.902   1.170
 3918SOL    HW112653   3.829   6.869   1.261
 3918SOL    HW212654   3.782   6.963   1.135
 3919SOL     OW12655   5.057   5.261   3.218
 3919SOL    HW112656   5.037   5.321   3.295
 3919SOL    HW212657   5.136   5.204   3.240
 3920SOL     OW12658   4.664   1.236   6.291
 3920SOL    HW112659   4.578   1.283   6.311
 3920SOL    HW212660   4.740   1.287   6.331
 3921SOL     OW12661   0.781   3.135   6.069
 3921SOL    HW112662   0.847   3.210   6.078
 3921SOL    HW212663   0.756   3.124   5.973
 3922SOL     OW12664   5.488   2.234   3.916
 3922SOL    HW112665   5.409   2.174   3.931
 3922SOL    HW212666   5.572   2.180   3.919
 3923SOL     OW12667   5.241   1.253   1.007
 3923SOL    HW112668   5.185   1.315   1.062
 3923SOL    HW212669   5.196   1.165   0.998
 3924SOL     OW12670   5.282   5.235   3.715
 3924SOL    HW112671   5.228   5.293   3.653
 3924SOL    HW212672   5.240   5.237   3.806
 3925SOL     OW12673   3.551   4.426   1.671
 3925SOL    HW112674   3.556   4.512   1.723
 3925SOL    HW212675   3.610   4.358   1.715
 3926SOL     OW12676   1.244   5.793   5.225
 3926SOL    HW112677   1.160   5.744   5.201
 3926SOL    HW212678   1.323   5.735   5.208
 3927SOL     OW12679   6.279   6.340   5.291
 3927SOL    HW112680   6.185   6.313   5.313
 3927SOL    HW212681   6.302   6.311   5.198
 3928SOL     OW12682   4.514   5.487   2.857
 3928SOL    HW112683   4.498   5.448   2.767
 3928SOL    HW212684   4.543   5.582   2.848
 3929SOL     OW12685   1.963   1.424   5.424
 3929SOL    HW112686   2.044   1.423   5.365
 3929SOL    HW212687   1.884   1.458   5.372
 3930SOL     OW12688   2.457   5.437   4.203
 3930SOL    HW112689   2.470   5.348   4.161
 3930SOL    HW212690   2.372   5.437   4.256
 3931SOL     OW12691   0.583   2.297   0.296
 3931SOL    HW112692   0.517   2.230   0.262
 3931SOL    HW212693   0.538   2.360   0.359
 3932SOL     OW12694   1.870   4.424   2.624
 3932SOL    HW112695   1.959   4.466   2.639
 3932SOL    HW212696   1.879   4.349   2.558
 3933SOL     OW12697   1.589   6.685   1.469
 3933SOL    HW112698   1.678   6.725   1.493
 3933SOL    HW212699   1.580   6.683   1.369
 3934SOL     OW12700   1.991   6.838   2.207
 3934SOL    HW112701   1.969   6.903   2.280
 3934SOL    HW212702   2.047   6.883   2.138
 3935SOL     OW12703   7.014   0.777   5.431
 3935SOL    HW112704   6.945   0.752   5.363
 3935SOL    HW212705   0.006   0.876   5.436
 3936SOL     OW12706   6.400   4.525   3.651
 3936SOL    HW112707   6.408   4.573   3.564
 3936SOL    HW212708   6.469   4.560   3.715
 3937SOL     OW12709   1.242   6.276   6.960
 3937SOL    HW112710   1.197   6.317   6.881
 3937SOL    HW212711   1.282   6.348   7.016
 3938SOL     OW12712   0.373   4.421   6.622
 3938SOL    HW112713   0.356   4.504   6.674
 3938SOL    HW212714   0.435   4.361   6.673
 3939SOL     OW12715   2.266   6.338   4.289
 3939SOL    HW112716   2.329   6.262   4.300
 3939SOL    HW212717   2.309   6.410   4.234
 3940SOL     OW12718   2.837   6.444   6.721
 3940SOL    HW112719   2.831   6.428   6.819
 3940SOL    HW212720   2.764   6.395   6.674
 3941SOL     OW12721   5.671   5.449   2.291
 3941SOL    HW112722   5.739   5.516   2.261
 3941SOL    HW212723   5.625   5.482   2.373
 3942SOL     OW12724   0.470   6.332   6.785
 3942SOL    HW112725   0.461   6.234   6.767
 3942SOL    HW212726   0.566   6.358   6.782
 3943SOL     OW12727   0.790   5.189   0.594
 3943SOL    HW112728   0.724   5.245   0.643
 3943SOL    HW212729   0.742   5.131   0.528
 3944SOL     OW12730   4.623   2.779   0.687
 3944SOL    HW112731   4.654   2.863   0.642
 3944SOL    HW212732   4.542   2.744   0.639
 3945SOL     OW12733   6.954   0.744   2.801
 3945SOL    HW112734   0.030   0.712   2.778
 3945SOL    HW212735   6.891   0.720   2.727
 3946SOL     OW12736   5.809   1.802   1.370
 3946SOL    HW112737   5.717   1.839   1.380
 3946SOL    HW212738   5.814   1.748   1.286
 3947SOL     OW12739   5.608   0.092   1.711
 3947SOL    HW112740   5.635   0.008   1.757
 3947SOL    HW212741   5.536   0.071   1.644
 3948SOL     OW12742   1.825   1.619   4.302
 3948SOL    HW112743   1.803   1.650   4.210
 3948SOL    HW212744   1.761   1.661   4.367
 3949SOL     OW12745   6.267   0.168   2.467
 3949SOL    HW112746   6.268   0.170   2.367
 3949SOL    HW212747   6.345   0.114   2.500
 3950SOL     OW12748   2.400   4.738   1.795
 3950SOL    HW112749   2.347   4.719   1.713
 3950SOL    HW212750   2.473   4.804   1.774
 3951SOL     OW12751   6.757   2.443   3.794
 3951SOL    HW112752   6.716   2.440   3.885
 3951SOL    HW212753   6.741   2.355   3.748
 3952SOL     OW12754   5.812   4.957   6.743
 3952SOL    HW112755   5.882   4.902   6.787
 3952SOL    HW212756   5.818   5.052   6.774
 3953SOL     OW12757   3.541   3.159   4.941
 3953SOL    HW112758   3.492   3.078   4.972
 3953SOL    HW212759   3.488   3.206   4.871
 3954SOL     OW12760   0.863   4.565   5.266
 3954SOL    HW112761   0.930   4.491   5.267
 3954SOL    HW212762   0.848   4.597   5.360
 3955SOL     OW12763   5.983   3.134   0.069
 3955SOL    HW112764   5.985   3.215   0.010
 3955SOL    HW212765   5.892   3.093   0.067
 3956SOL     OW12766   6.506   3.229   5.161
 3956SOL    HW112767   6.529   3.323   5.187
 3956SOL    HW212768   6.443   3.190   5.229
 3957SOL     OW12769   2.102   2.786   1.789
 3957SOL    HW112770   2.113   2.698   1.742
 3957SOL    HW212771   2.192   2.826   1.806
 3958SOL     OW12772   5.859   5.604   1.424
 3958SOL    HW112773   5.817   5.525   1.469
 3958SOL    HW212774   5.913   5.656   1.491
 3959SOL     OW12775   3.259   5.012   1.052
 3959SOL    HW112776   3.274   5.022   1.151
 3959SOL    HW212777   3.287   5.096   1.006
 3960SOL     OW12778   5.976   3.229   1.021
 3960SOL    HW112779   6.060   3.177   1.035
 3960SOL    HW212780   5.966   3.254   0.925
 3961SOL     OW12781   6.840   1.232   1.088
 3961SOL    HW112782   6.798   1.181   1.163
 3961SOL    HW212783   6.939   1.229   1.096
 3962SOL     OW12784   0.243   6.614   6.441
 3962SOL    HW112785   0.152   6.631   6.480
 3962SOL    HW212786   0.244   6.642   6.345
 3963SOL     OW12787   5.233   3.788   4.614
 3963SOL    HW112788   5.250   3.772   4.711
 3963SOL    HW212789   5.313   3.831   4.572
 3964SOL     OW12790   5.596   4.337   6.680
 3964SOL    HW112791   5.539   4.256   6.668
 3964SOL    HW212792   5.656   4.324   6.759
 3965SOL     OW12793   2.291   4.196   1.338
 3965SOL    HW112794   2.262   4.291   1.345
 3965SOL    HW212795   2.313   4.174   1.243
 3966SOL     OW12796   6.974   2.932   5.207
 3966SOL    HW112797   6.976   3.013   5.148
 3966SOL    HW212798   0.051   2.896   5.218
 3967SOL     OW12799   1.901   0.634   0.122
 3967SOL    HW112800   1.970   0.571   0.157
 3967SOL    HW212801   1.862   0.687   0.197
 3968SOL     OW12802   4.087   2.750   0.784
 3968SOL    HW112803   4.069   2.706   0.696
 3968SOL    HW212804   4.141   2.688   0.841
 3969SOL     OW12805   5.988   6.345   0.993
 3969SOL    HW112806   6.012   6.349   0.897
 3969SOL    HW212807   5.905   6.289   1.005
 3970SOL     OW12808   5.642   4.240   4.205
 3970SOL    HW112809   5.644   4.322   4.147
 3970SOL    HW212810   5.695   4.167   4.162
 3971SOL     OW12811   0.122   5.886   4.068
 3971SOL    HW112812   0.135   5.798   4.114
 3971SOL    HW212813   0.026   5.894   4.040
 3972SOL     OW12814   0.775   0.804   6.553
 3972SOL    HW112815   0.699   0.813   6.618
 3972SOL    HW212816   0.800   0.708   6.545
 3973SOL     OW12817   3.850   3.155   2.053
 3973SOL    HW112818   3.899   3.236   2.019
 3973SOL    HW212819   3.866   3.146   2.151
 3974SOL     OW12820   5.287   1.148   6.928
 3974SOL    HW112821   5.210   1.180   6.873
 3974SOL    HW212822   5.254   1.088   7.001
 3975SOL     OW12823   6.859   5.846   4.036
 3975SOL    HW112824   6.800   5.772   4.067
 3975SOL    HW212825   6.844   5.927   4.093
 3976SOL     OW12826   0.943   2.866   5.626
 3976SOL    HW112827   0.915   2.813   5.706
 3976SOL    HW212828   1.038   2.845   5.603
 3977SOL     OW12829   2.511   4.894   5.781
 3977SOL    HW112830   2.541   4.891   5.876
 3977SOL    HW212831   2.564   4.828   5.727
 3978SOL     OW12832   4.717   2.584   5.830
 3978SOL    HW112833   4.774   2.501   5.831
 3978SOL    HW212834   4.771   2.661   5.797
 3979SOL     OW12835   0.972   5.393   2.733
 3979SOL    HW112836   1.055   5.427   2.688
 3979SOL    HW212837   0.960   5.296   2.712
 3980SOL     OW12838   5.119   4.283   4.259
 3980SOL    HW112839   5.214   4.301   4.285
 3980SOL    HW212840   5.078   4.220   4.326
 3981SOL     OW12841   6.972   0.996   6.574
 3981SOL    HW112842   7.010   1.083   6.605
 3981SOL    HW212843   7.001   0.978   6.481
 3982SOL     OW12844   2.198   3.013   4.514
 3982SOL    HW112845   2.257   3.047   4.588
 3982SOL    HW212846   2.142   2.938   4.548
 3983SOL     OW12847   3.119   0.685   3.688
 3983SOL    HW112848   3.218   0.676   3.697
 3983SOL    HW212849   3.075   0.659   3.774
 3984SOL     OW12850   1.406   5.926   2.040
 3984SOL    HW112851   1.346   5.994   1.997
 3984SOL    HW212852   1.468   5.972   2.104
 3985SOL     OW12853   1.763   2.770   1.771
 3985SOL    HW112854   1.847   2.792   1.820
 3985SOL    HW212855   1.733   2.849   1.718
 3986SOL     OW12856   0.401   1.744   3.254
 3986SOL    HW112857   0.385   1.673   3.185
 3986SOL    HW212858   0.449   1.821   3.212
 3987SOL     OW12859   0.685   4.127   5.403
 3987SOL    HW112860   0.719   4.040   5.441
 3987SOL    HW212861   0.610   4.108   5.340
 3988SOL     OW12862   5.306   6.878   1.901
 3988SOL    HW112863   5.361   6.884   1.817
 3988SOL    HW212864   5.299   6.783   1.929
 3989SOL     OW12865   4.359   0.416   5.640
 3989SOL    HW112866   4.328   0.408   5.735
 3989SOL    HW212867   4.457   0.437   5.639
 3990SOL     OW12868   6.176   0.387   4.346
 3990SOL    HW112869   6.143   0.373   4.253
 3990SOL    HW212870   6.185   0.485   4.363
 3991SOL     OW12871   6.336   2.124   3.459
 3991SOL    HW112872   6.241   2.113   3.429
 3991SOL    HW212873   6.371   2.212   3.426
 3992SOL     OW12874   5.971   3.856   5.563
 3992SOL    HW112875   5.975   3.817   5.472
 3992SOL    HW212876   5.955   3.784   5.630
 3993SOL     OW12877   1.815   1.044   4.152
 3993SOL    HW112878   1.857   1.086   4.072
 3993SOL    HW212879   1.739   1.101   4.184
 3994SOL     OW12880   3.045   2.140   3.850
 3994SOL    HW112881   3.038   2.178   3.758
 3994SOL    HW212882   3.008   2.048   3.851
 3995SOL     OW12883   1.285   3.676   2.008
 3995SOL    HW112884   1.212   3.641   2.067
 3995SOL    HW212885   1.245   3.708   1.922
 3996SOL     OW12886   0.372   6.182   5.290
 3996SOL    HW112887   0.360   6.137   5.379
 3996SOL    HW212888   0.468   6.179   5.263
 3997SOL     OW12889   5.801   3.782   4.582
 3997SOL    HW112890   5.800   3.866   4.636
 3997SOL    HW212891   5.874   3.787   4.514
 3998SOL     OW12892   3.916   2.111   3.577
 3998SOL    HW112893   3.991   2.175   3.595
 3998SOL    HW212894   3.834   2.163   3.551
 3999SOL     OW12895   5.050   3.168   1.003
 3999SOL    HW112896   5.066   3.246   0.943
 3999SOL    HW212897   5.116   3.096   0.984
 4000SOL     OW12898   2.403   4.683   2.948
 4000SOL    HW112899   2.495   4.652   2.925
 4000SOL    HW212900   2.394   4.780   2.926
 4001SOL     OW12901   0.579   6.311   4.767
 4001SOL    HW112902   0.508   6.381   4.763
 4001SOL    HW212903   0.648   6.330   4.698
 4002SOL     OW12904   3.829   4.062   4.749
 4002SOL    HW112905   3.792   3.970   4.765
 4002SOL    HW212906   3.842   4.108   4.837
 4003SOL     OW12907   2.597   1.016   4.779
 4003SOL    HW112908   2.531   0.945   4.805
 4003SOL    HW212909   2.582   1.041   4.683
 4004SOL     OW12910   1.538   3.396   5.326
 4004SOL    HW112911   1.580   3.349   5.404
 4004SOL    HW212912   1.603   3.459   5.286
 4005SOL     OW12913   5.554   3.156   0.981
 4005SOL    HW112914   5.565   3.239   1.036
 4005SOL    HW212915   5.605   3.081   1.024
 4006SOL     OW12916   6.945   6.016   1.926
 4006SOL    HW112917   0.009   5.985   1.875
 4006SOL    HW212918   6.871   5.948   1.915
 4007SOL     OW12919   0.322   1.110   1.261
 4007SOL    HW112920   0.418   1.089   1.243
 4007SOL    HW212921   0.316   1.181   1.331
 4008SOL     OW12922   4.136   0.967   1.693
 4008SOL    HW112923   4.128   0.868   1.705
 4008SOL    HW212924   4.082   1.014   1.763
 4009SOL     OW12925   3.356   2.251   1.411
 4009SOL    HW112926   3.376   2.158   1.442
 4009SOL    HW212927   3.302   2.299   1.480
 4010SOL     OW12928   1.596   4.819   0.654
 4010SOL    HW112929   1.696   4.823   0.660
 4010SOL    HW212930   1.557   4.906   0.683
 4011SOL     OW12931   5.938   6.755   6.203
 4011SOL    HW112932   5.891   6.675   6.165
 4011SOL    HW212933   5.961   6.818   6.129
 4012SOL     OW12934   5.323   5.021   1.752
 4012SOL    HW112935   5.276   5.053   1.670
 4012SOL    HW212936   5.257   4.978   1.813
 4013SOL     OW12937   0.252   1.919   0.215
 4013SOL    HW112938   0.254   1.821   0.195
 4013SOL    HW212939   0.338   1.960   0.185
 4014SOL     OW12940   2.773   5.961   2.582
 4014SOL    HW112941   2.796   5.930   2.489
 4014SOL    HW212942   2.676   5.986   2.585
 4015SOL     OW12943   3.891   6.288   5.114
 4015SOL    HW112944   3.846   6.320   5.031
 4015SOL    HW212945   3.841   6.321   5.194
 4016SOL     OW12946   4.729   5.530   4.667
 4016SOL    HW112947   4.662   5.458   4.684
 4016SOL    HW212948   4.811   5.514   4.722
 4017SOL     OW12949   1.928   5.838   6.021
 4017SOL    HW112950   1.982   5.805   6.099
 4017SOL    HW212951   1.926   5.938   6.023
 4018SOL     OW12952   5.032   5.333   0.838
 4018SOL    HW112953   4.971   5.396   0.789
 4018SOL    HW212954   5.008   5.239   0.814
 4019SOL     OW12955   0.467   2.424   3.415
 4019SOL    HW112956   0.537   2.415   3.486
 4019SOL    HW212957   0.441   2.334   3.381
 4020SOL     OW12958   6.637   5.890   4.291
 4020SOL    HW112959   6.650   5.960   4.220
 4020SOL    HW212960   6.658   5.929   4.380
 4021SOL     OW12961   5.079   5.439   6.052
 4021SOL    HW112962   5.081   5.401   6.145
 4021SOL    HW212963   4.984   5.455   6.025
 4022SOL     OW12964   3.327   6.986   1.532
 4022SOL    HW112965   3.353   6.907   1.587
 4022SOL    HW212966   3.374   6.982   1.444
 4023SOL     OW12967   1.073   1.671   3.989
 4023SOL    HW112968   0.981   1.705   4.009
 4023SOL    HW212969   1.067   1.578   3.953
 4024SOL     OW12970   1.052   6.704   6.066
 4024SOL    HW112971   0.997   6.787   6.067
 4024SOL    HW212972   1.028   6.649   5.986
 4025SOL     OW12973   0.135   4.438   4.486
 4025SOL    HW112974   0.146   4.339   4.497
 4025SOL    HW212975   0.138   4.461   4.388
 4026SOL     OW12976   0.520   6.365   4.123
 4026SOL    HW112977   0.613   6.403   4.122
 4026SOL    HW212978   0.523   6.269   4.151
 4027SOL     OW12979   2.784   5.370   5.152
 4027SOL    HW112980   2.832   5.316   5.221
 4027SOL    HW212981   2.813   5.466   5.160
 4028SOL     OW12982   5.052   1.827   4.591
 4028SOL    HW112983   4.996   1.767   4.648
 4028SOL    HW212984   4.993   1.880   4.530
 4029SOL     OW12985   1.465   6.805   0.602
 4029SOL    HW112986   1.415   6.821   0.687
 4029SOL    HW212987   1.461   6.708   0.579
 4030SOL     OW12988   1.047   1.523   1.799
 4030SOL    HW112989   1.068   1.447   1.738
 4030SOL    HW212990   0.953   1.515   1.832
 4031SOL     OW12991   5.395   5.930   0.597
 4031SOL    HW112992   5.487   5.924   0.558
 4031SOL    HW212993   5.400   5.917   0.696
 4032SOL     OW12994   5.090   2.106   2.438
 4032SOL    HW112995   5.085   2.123   2.340
 4032SOL    HW212996   5.050   2.017   2.459
 4033SOL     OW12997   1.522   2.942   2.840
 4033SOL    HW112998   1.584   2.981   2.908
 4033SOL    HW212999   1.563   2.947   2.749
 4034SOL     OW13000   2.079   2.420   4.537
 4034SOL    HW113001   2.140   2.489   4.497
 4034SOL    HW213002   2.121   2.382   4.619
 4035SOL     OW13003   3.739   2.106   1.726
 4035SOL    HW113004   3.729   2.191   1.777
 4035SOL    HW213005   3.835   2.095   1.700
 4036SOL     OW13006   4.252   6.128   3.473
 4036SOL    HW113007   4.196   6.045   3.476
 4036SOL    HW213008   4.278   6.154   3.566
 4037SOL     OW13009   1.692   1.675   6.264
 4037SOL    HW113010   1.662   1.638   6.176
 4037SOL    HW213011   1.771   1.623   6.296
 4038SOL     OW13012   3.691   4.704   6.039
 4038SOL    HW113013   3.673   4.698   5.940
 4038SOL    HW213014   3.703   4.612   6.076
 4039SOL     OW13015   6.095   4.635   1.434
 4039SOL    HW113016   6.167   4.574   1.400
 4039SOL    HW213017   6.125   4.730   1.426
 4040SOL     OW13018   2.718   0.359   5.065
 4040SOL    HW113019   2.810   0.332   5.094
 4040SOL    HW213020   2.717   0.457   5.045
 4041SOL     OW13021   1.408   6.312   1.609
 4041SOL    HW113022   1.426   6.217   1.635
 4041SOL    HW213023   1.318   6.319   1.567
 4042SOL     OW13024   0.273   1.342   3.596
 4042SOL    HW113025   0.262   1.254   3.548
 4042SOL    HW213026   0.294   1.414   3.530
 4043SOL     OW13027   4.399   1.995   6.114
 4043SOL    HW113028   4.443   1.925   6.171
 4043SOL    HW213029   4.362   2.067   6.172
 4044SOL     OW13030   4.425   4.565   3.286
 4044SOL    HW113031   4.442   4.532   3.379
 4044SOL    HW213032   4.372   4.650   3.290
 4045SOL     OW13033   4.820   1.537   5.145
 4045SOL    HW113034   4.809   1.478   5.225
 4045SOL    HW213035   4.730   1.560   5.108
 4046SOL     OW13036   4.873   1.620   3.993
 4046SOL    HW113037   4.774   1.631   3.982
 4046SOL    HW213038   4.892   1.538   4.048
 4047SOL     OW13039   3.088   2.173   6.433
 4047SOL    HW113040   3.060   2.213   6.520
 4047SOL    HW213041   3.090   2.073   6.441
 4048SOL     OW13042   4.763   2.419   3.667
 4048SOL    HW113043   4.736   2.337   3.718
 4048SOL    HW213044   4.682   2.472   3.645
 4049SOL     OW13045   4.303   3.999   1.280
 4049SOL    HW113046   4.258   3.922   1.327
 4049SOL    HW213047   4.392   4.017   1.321
 4050SOL     OW13048   6.751   4.770   3.083
 4050SOL    HW113049   6.651   4.773   3.093
 4050SOL    HW213050   6.777   4.811   2.995
 4051SOL     OW13051   5.836   1.359   4.227
 4051SOL    HW113052   5.922   1.387   4.268
 4051SOL    HW213053   5.852   1.283   4.163
 4052SOL     OW13054   4.992   1.587   4.414
 4052SOL    HW113055   5.069   1.642   4.445
 4052SOL    HW213056   4.911   1.608   4.469
 4053SOL     OW13057   0.702   5.015   3.935
 4053SOL    HW113058   0.741   5.103   3.960
 4053SOL    HW213059   0.769   4.943   3.952
 4054SOL     OW13060   4.817   4.036   1.355
 4054SOL    HW113061   4.892   4.058   1.293
 4054SOL    HW213062   4.853   4.016   1.445
 4055SOL     OW13063   0.110   4.671   0.061
 4055SOL    HW113064   0.176   4.617   0.009
 4055SOL    HW213065   0.017   4.638   0.043
 4056SOL     OW13066   5.199   3.509   0.029
 4056SOL    HW113067   5.274   3.555   0.076
 4056SOL    HW213068   5.136   3.469   0.096
 4057SOL     OW13069   0.169   4.088   5.948
 4057SOL    HW113070   0.138   4.068   6.041
 4057SOL    HW213071   0.258   4.134   5.952
 4058SOL     OW13072   3.792   0.803   4.288
 4058SOL    HW113073   3.699   0.804   4.250
 4058SOL    HW213074   3.803   0.880   4.350
 4059SOL     OW13075   0.893   1.266   4.025
 4059SOL    HW113076   0.830   1.321   4.079
 4059SOL    HW213077   0.969   1.235   4.083
 4060SOL     OW13078   6.995   6.386   4.516
 4060SOL    HW113079   6.906   6.342   4.506
 4060SOL    HW213080   7.001   6.464   4.453
 4061SOL     OW13081   0.819   4.410   1.741
 4061SOL    HW113082   0.893   4.401   1.674
 4061SOL    HW213083   0.804   4.507   1.762
 4062SOL     OW13084   2.233   4.209   0.306
 4062SOL    HW113085   2.148   4.157   0.303
 4062SOL    HW213086   2.228   4.277   0.379
 4063SOL     OW13087   3.786   0.923   1.097
 4063SOL    HW113088   3.705   0.866   1.081
 4063SOL    HW213089   3.835   0.889   1.177
 4064SOL     OW13090   2.353   0.513   5.010
 4064SOL    HW113091   2.391   0.605   5.006
 4064SOL    HW213092   2.327   0.483   4.918
 4065SOL     OW13093   2.248   1.562   1.493
 4065SOL    HW113094   2.208   1.475   1.463
 4065SOL    HW213095   2.340   1.570   1.456
 4066SOL     OW13096   0.279   4.169   4.537
 4066SOL    HW113097   0.243   4.096   4.479
 4066SOL    HW213098   0.377   4.178   4.522
 4067SOL     OW13099   6.442   4.675   0.798
 4067SOL    HW113100   6.528   4.654   0.752
 4067SOL    HW213101   6.376   4.710   0.731
 4068SOL     OW13102   1.578   2.808   5.777
 4068SOL    HW113103   1.607   2.801   5.681
 4068SOL    HW213104   1.625   2.886   5.820
 4069SOL     OW13105   4.797   6.756   5.686
 4069SOL    HW113106   4.712   6.709   5.711
 4069SOL    HW213107   4.796   6.849   5.723
 4070SOL     OW13108   1.829   3.193   4.214
 4070SOL    HW113109   1.888   3.247   4.274
 4070SOL    HW213110   1.883   3.159   4.136
 4071SOL     OW13111   1.751   0.458   4.696
 4071SOL    HW113112   1.749   0.547   4.740
 4071SOL    HW213113   1.763   0.387   4.765
 4072SOL     OW13114   3.177   6.570   2.475
 4072SOL    HW113115   3.164   6.582   2.376
 4072SOL    HW213116   3.268   6.530   2.492
 4073SOL     OW13117   4.055   5.217   6.707
 4073SOL    HW113118   4.035   5.264   6.793
 4073SOL    HW213119   4.078   5.121   6.726
 4074SOL     OW13120   1.436   5.498   2.309
 4074SOL    HW113121   1.533   5.479   2.318
 4074SOL    HW213122   1.415   5.517   2.213
 4075SOL     OW13123   5.782   0.679   0.079
 4075SOL    HW113124   5.717   0.717   0.013
 4075SOL    HW213125   5.856   0.744   0.094
 4076SOL     OW13126   1.742   5.668   4.052
 4076SOL    HW113127   1.685   5.595   4.089
 4076SOL    HW213128   1.826   5.629   4.014
 4077SOL     OW13129   2.801   2.011   1.429
 4077SOL    HW113130   2.830   1.924   1.391
 4077SOL    HW213131   2.824   2.085   1.365
 4078SOL     OW13132   4.259   4.974   2.205
 4078SOL    HW113133   4.287   5.069   2.213
 4078SOL    HW213134   4.291   4.923   2.285
 4079SOL     OW13135   0.423   1.790   4.357
 4079SOL    HW113136   0.414   1.875   4.306
 4079SOL    HW213137   0.464   1.809   4.447
 4080SOL     OW13138   6.493   2.196   4.624
 4080SOL    HW113139   6.403   2.169   4.659
 4080SOL    HW213140   6.509   2.293   4.643
 4081SOL     OW13141   0.585   4.132   2.959
 4081SOL    HW113142   0.627   4.089   2.879
 4081SOL    HW213143   0.486   4.139   2.946
 4082SOL     OW13144   0.381   3.311   0.117
 4082SOL    HW113145   0.469   3.265   0.122
 4082SOL    HW213146   0.395   3.410   0.120
 4083SOL     OW13147   6.620   3.299   4.728
 4083SOL    HW113148   6.593   3.245   4.808
 4083SOL    HW213149   6.715   3.329   4.739
 4084SOL     OW13150   6.153   0.799   4.740
 4084SOL    HW113151   6.069   0.846   4.711
 4084SOL    HW213152   6.159   0.801   4.839
 4085SOL     OW13153   3.290   5.688   6.678
 4085SOL    HW113154   3.381   5.724   6.696
 4085SOL    HW213155   3.239   5.679   6.764
 4086SOL     OW13156   1.015   3.369   1.367
 4086SOL    HW113157   1.044   3.455   1.325
 4086SOL    HW213158   1.048   3.366   1.462
 4087SOL     OW13159   2.219   1.104   3.197
 4087SOL    HW113160   2.173   1.090   3.285
 4087SOL    HW213161   2.258   1.196   3.194
 4088SOL     OW13162   6.941   2.038   6.987
 4088SOL    HW113163   6.954   2.135   6.968
 4088SOL    HW213164   6.896   2.028   0.060
 4089SOL     OW13165   0.501   0.822   5.671
 4089SOL    HW113166   0.526   0.768   5.590
 4089SOL    HW213167   0.406   0.852   5.663
 4090SOL     OW13168   3.306   5.155   6.423
 4090SOL    HW113169   3.338   5.126   6.513
 4090SOL    HW213170   3.370   5.220   6.383
 4091SOL     OW13171   4.758   6.682   1.290
 4091SOL    HW113172   4.697   6.687   1.369
 4091SOL    HW213173   4.832   6.748   1.301
 4092SOL     OW13174   0.226   1.382   4.233
 4092SOL    HW113175   0.270   1.446   4.296
 4092SOL    HW213176   0.204   1.429   4.148
 4093SOL     OW13177   5.243   0.055   4.033
 4093SOL    HW113178   5.300   6.990   4.032
 4093SOL    HW213179   5.227   0.085   4.127
 4094SOL     OW13180   3.332   3.783   6.085
 4094SOL    HW113181   3.419   3.751   6.046
 4094SOL    HW213182   3.274   3.704   6.105
 4095SOL     OW13183   1.681   3.602   6.132
 4095SOL    HW113184   1.669   3.503   6.135
 4095SOL    HW213185   1.763   3.624   6.079
 4096SOL     OW13186   4.454   4.830   1.718
 4096SOL    HW113187   4.470   4.914   1.769
 4096SOL    HW213188   4.464   4.751   1.779
 4097SOL     OW13189   3.417   3.894   3.408
 4097SOL    HW113190   3.399   3.810   3.357
 4097SOL    HW213191   3.355   3.966   3.375
 4098SOL     OW13192   0.775   3.291   2.035
 4098SOL    HW113193   0.680   3.320   2.018
 4098SOL    HW213194   0.781   3.191   2.028
 4099SOL     OW13195   2.576   5.963   1.701
 4099SOL    HW113196   2.497   5.902   1.705
 4099SOL    HW213197   2.548   6.052   1.664
 4100SOL     OW13198   3.684   6.963   3.056
 4100SOL    HW113199   3.609   0.008   3.079
 4100SOL    HW213200   3.770   7.003   3.087
 4101SOL     OW13201   4.577   2.093   6.537
 4101SOL    HW113202   4.483   2.060   6.539
 4101SOL    HW213203   4.633   2.037   6.600
 4102SOL     OW13204   4.308   2.030   6.587
 4102SOL    HW113205   4.227   2.033   6.529
 4102SOL    HW213206   4.282   2.056   6.680
 4103SOL     OW13207   0.137   0.504   1.898
 4103SOL    HW113208   0.100   0.587   1.858
 4103SOL    HW213209   0.182   0.449   1.827
 4104SOL     OW13210   2.290   4.668   2.579
 4104SOL    HW113211   2.341   4.715   2.651
 4104SOL    HW213212   2.345   4.665   2.496
 4105SOL     OW13213   6.073   5.146   0.152
 4105SOL    HW113214   6.062   5.109   0.060
 4105SOL    HW213215   6.170   5.156   0.173
 4106SOL     OW13216   6.577   3.873   4.819
 4106SOL    HW113217   6.507   3.944   4.816
 4106SOL    HW213218   6.537   3.788   4.854
 4107SOL     OW13219   0.002   0.565   0.859
 4107SOL    HW113220   6.962   0.482   0.853
 4107SOL    HW213221   7.004   0.609   0.947
 4108SOL     OW13222   6.319   2.667   5.108
 4108SOL    HW113223   6.339   2.765   5.099
 4108SOL    HW213224   6.339   2.638   5.201
 4109SOL     OW13225   2.577   6.126   3.699
 4109SOL    HW113226   2.606   6.117   3.603
 4109SOL    HW213227   2.634   6.194   3.744
 4110SOL     OW13228   4.770   3.312   5.200
 4110SOL    HW113229   4.732   3.404   5.210
 4110SOL    HW213230   4.853   3.316   5.145
 4111SOL     OW13231   3.738   3.009   6.658
 4111SOL    HW113232   3.653   3.023   6.608
 4111SOL    HW213233   3.800   3.086   6.642
 4112SOL     OW13234   3.972   0.252   5.875
 4112SOL    HW113235   4.031   0.284   5.800
 4112SOL    HW213236   3.952   0.328   5.937
 4113SOL     OW13237   3.495   4.966   4.916
 4113SOL    HW113238   3.480   4.955   4.817
 4113SOL    HW213239   3.414   4.935   4.966
 4114SOL     OW13240   3.768   1.865   2.963
 4114SOL    HW113241   3.715   1.899   2.886
 4114SOL    HW213242   3.736   1.773   2.987
 4115SOL     OW13243   4.991   4.064   2.636
 4115SOL    HW113244   5.091   4.061   2.629
 4115SOL    HW213245   4.952   4.062   2.544
 4116SOL     OW13246   2.979   0.819   2.321
 4116SOL    HW113247   3.046   0.750   2.346
 4116SOL    HW213248   2.936   0.856   2.404
 4117SOL     OW13249   0.890   5.935   1.240
 4117SOL    HW113250   0.848   6.016   1.201
 4117SOL    HW213251   0.947   5.890   1.171
 4118SOL     OW13252   2.009   0.098   6.672
 4118SOL    HW113253   1.935   0.098   6.739
 4118SOL    HW213254   2.041   0.004   6.656
 4119SOL     OW13255   4.963   1.692   3.314
 4119SOL    HW113256   5.011   1.723   3.396
 4119SOL    HW213257   4.959   1.592   3.314
 4120SOL     OW13258   5.238   1.001   2.477
 4120SOL    HW113259   5.211   0.980   2.383
 4120SOL    HW213260   5.322   0.952   2.499
 4121SOL     OW13261   6.338   2.254   4.190
 4121SOL    HW113262   6.314   2.342   4.230
 4121SOL    HW213263   6.424   2.221   4.230
 4122SOL     OW13264   1.847   5.427   0.097
 4122SOL    HW113265   1.928   5.431   0.155
 4122SOL    HW213266   1.849   5.343   0.043
 4123SOL     OW13267   4.388   3.372   5.606
 4123SOL    HW113268   4.431   3.334   5.523
 4123SOL    HW213269   4.333   3.451   5.581
 4124SOL     OW13270   4.132   5.878   3.450
 4124SOL    HW113271   4.124   5.841   3.357
 4124SOL    HW213272   4.103   5.808   3.516
 4125SOL     OW13273   4.969   1.160   1.609
 4125SOL    HW113274   5.058   1.184   1.571
 4125SOL    HW213275   4.976   1.150   1.708
 4126SOL     OW13276   1.867   4.365   4.792
 4126SOL    HW113277   1.943   4.344   4.854
 4126SOL    HW213278   1.819   4.446   4.824
 4127SOL     OW13279   5.776   4.558   4.517
 4127SOL    HW113280   5.848   4.598   4.574
 4127SOL    HW213281   5.809   4.549   4.423
 4128SOL     OW13282   0.216   2.010   1.751
 4128SOL    HW113283   0.209   1.914   1.724
 4128SOL    HW213284   0.130   2.040   1.792
 4129SOL     OW13285   6.745   2.790   6.296
 4129SOL    HW113286   6.803   2.863   6.259
 4129SOL    HW213287   6.724   2.724   6.224
 4130SOL     OW13288   6.636   2.583   1.422
 4130SOL    HW113289   6.670   2.666   1.377
 4130SOL    HW213290   6.699   2.508   1.405
 4131SOL     OW13291   6.873   3.797   2.876
 4131SOL    HW113292   6.825   3.883   2.863
 4131SOL    HW213293   6.924   3.800   2.963
 4132SOL     OW13294   4.724   1.957   4.868
 4132SOL    HW113295   4.823   1.946   4.872
 4132SOL    HW213296   4.682   1.871   4.838
 4133SOL     OW13297   2.473   2.641   1.213
 4133SOL    HW113298   2.430   2.558   1.249
 4133SOL    HW213299   2.553   2.616   1.158
 4134SOL     OW13300   1.941   1.131   0.339
 4134SOL    HW113301   2.041   1.139   0.343
 4134SOL    HW213302   1.912   1.126   0.243
 4135SOL     OW13303   1.900   0.515   0.881
 4135SOL    HW113304   1.825   0.544   0.822
 4135SOL    HW213305   1.862   0.469   0.962
 4136SOL     OW13306   0.559   1.599   3.754
 4136SOL    HW113307   0.559   1.519   3.694
 4136SOL    HW213308   0.548   1.570   3.848
 4137SOL     OW13309   3.939   3.082   5.745
 4137SOL    HW113310   3.872   3.020   5.704
 4137SOL    HW213311   4.017   3.092   5.684
 4138SOL     OW13312   4.263   5.443   2.032
 4138SOL    HW113313   4.322   5.406   1.960
 4138SOL    HW213314   4.188   5.495   1.990
 4139SOL     OW13315   2.820   1.810   0.819
 4139SOL    HW113316   2.798   1.727   0.870
 4139SOL    HW213317   2.767   1.812   0.734
 4140SOL     OW13318   4.290   1.730   5.523
 4140SOL    HW113319   4.195   1.703   5.509
 4140SOL    HW213320   4.302   1.826   5.498
 4141SOL     OW13321   5.535   5.642   0.769
 4141SOL    HW113322   5.593   5.644   0.850
 4141SOL    HW213323   5.576   5.698   0.697
 4142SOL     OW13324   6.080   3.298   1.527
 4142SOL    HW113325   6.007   3.276   1.592
 4142SOL    HW213326   6.090   3.224   1.461
 4143SOL     OW13327   0.515   2.618   1.857
 4143SOL    HW113328   0.415   2.620   1.857
 4143SOL    HW213329   0.548   2.592   1.767
 4144SOL     OW13330   4.117   0.918   2.123
 4144SOL    HW113331   4.034   0.879   2.163
 4144SOL    HW213332   4.148   0.994   2.180
 4145SOL     OW13333   3.487   6.597   3.104
 4145SOL    HW113334   3.455   6.563   3.192
 4145SOL    HW213335   3.587   6.603   3.104
 4146SOL     OW13336   4.508   4.747   0.495
 4146SOL    HW113337   4.590   4.780   0.447
 4146SOL    HW213338   4.490   4.653   0.468
 4147SOL     OW13339   2.705   1.810   6.005
 4147SOL    HW113340   2.606   1.813   6.019
 4147SOL    HW213341   2.736   1.716   6.003
 4148SOL     OW13342   7.016   0.209   2.307
 4148SOL    HW113343   0.089   0.221   2.350
 4148SOL    HW213344   0.009   0.151   2.226
 4149SOL     OW13345   4.719   4.231   2.298
 4149SOL    HW113346   4.648   4.216   2.229
 4149SOL    HW213347   4.675   4.248   2.386
 4150SOL     OW13348   4.191   0.494   5.272
 4150SOL    HW113349   4.157   0.497   5.365
 4150SOL    HW213350   4.286   0.460   5.272
 4151SOL     OW13351   0.023   5.694   0.420
 4151SOL    HW113352   0.031   5.703   0.519
 4151SOL    HW213353   0.113   5.701   0.378
 4152SOL     OW13354   3.264   3.989   1.487
 4152SOL    HW113355   3.342   4.052   1.493
 4152SOL    HW213356   3.253   3.959   1.392
 4153SOL     OW13357   6.084   5.599   6.048
 4153SOL    HW113358   6.125   5.641   6.130
 4153SOL    HW213359   6.157   5.578   5.983
 4154SOL     OW13360   4.546   2.724   5.088
 4154SOL    HW113361   4.608   2.799   5.108
 4154SOL    HW213362   4.477   2.717   5.159
 4155SOL     OW13363   1.757   2.814   0.605
 4155SOL    HW113364   1.740   2.911   0.588
 4155SOL    HW213365   1.713   2.759   0.533
 4156SOL     OW13366   5.933   0.983   4.910
 4156SOL    HW113367   5.906   1.065   4.860
 4156SOL    HW213368   5.923   0.903   4.851
 4157SOL     OW13369   2.969   0.853   3.039
 4157SOL    HW113370   3.029   0.817   2.967
 4157SOL    HW213371   2.877   0.816   3.026
 4158SOL     OW13372   1.315   0.508   3.723
 4158SOL    HW113373   1.298   0.410   3.713
 4158SOL    HW213374   1.240   0.550   3.775
 4159SOL     OW13375   0.190   4.181   5.382
 4159SOL    HW113376   0.095   4.149   5.390
 4159SOL    HW213377   0.192   4.262   5.324
 4160SOL     OW13378   0.179   0.627   0.626
 4160SOL    HW113379   0.245   0.699   0.646
 4160SOL    HW213380   0.139   0.594   0.712
 4161SOL     OW13381   6.334   1.910   1.187
 4161SOL    HW113382   6.258   1.923   1.123
 4161SOL    HW213383   6.298   1.887   1.277
 4162SOL     OW13384   0.883   6.833   5.308
 4162SOL    HW113385   0.971   6.797   5.339
 4162SOL    HW213386   0.843   6.771   5.240
 4163SOL     OW13387   6.689   1.516   5.270
 4163SOL    HW113388   6.723   1.454   5.341
 4163SOL    HW213389   6.720   1.609   5.290
 4164SOL     OW13390   2.692   6.657   5.798
 4164SOL    HW113391   2.694   6.755   5.818
 4164SOL    HW213392   2.661   6.607   5.879
 4165SOL     OW13393   2.395   6.301   1.923
 4165SOL    HW113394   2.342   6.383   1.901
 4165SOL    HW213395   2.334   6.221   1.926
 4166SOL     OW13396   6.266   1.689   1.756
 4166SOL    HW113397   6.225   1.616   1.701
 4166SOL    HW213398   6.198   1.725   1.820
 4167SOL     OW13399   1.869   2.459   1.240
 4167SOL    HW113400   1.944   2.524   1.230
 4167SOL    HW213401   1.796   2.500   1.296
 4168SOL     OW13402   1.996   5.191   1.342
 4168SOL    HW113403   1.982   5.199   1.244
 4168SOL    HW213404   1.913   5.218   1.391
 4169SOL     OW13405   6.482   3.420   6.344
 4169SOL    HW113406   6.440   3.502   6.305
 4169SOL    HW213407   6.479   3.346   6.277
 4170SOL     OW13408   3.460   1.210   5.306
 4170SOL    HW113409   3.452   1.272   5.228
 4170SOL    HW213410   3.402   1.244   5.381
 4171SOL     OW13411   6.063   3.545   1.403
 4171SOL    HW113412   6.088   3.474   1.467
 4171SOL    HW213413   5.998   3.509   1.336
 4172SOL     OW13414   2.909   0.899   0.623
 4172SOL    HW113415   2.976   0.830   0.596
 4172SOL    HW213416   2.854   0.864   0.699
 4173SOL     OW13417   4.945   3.216   5.442
 4173SOL    HW113418   4.976   3.302   5.483
 4173SOL    HW213419   4.882   3.234   5.367
 4174SOL     OW13420   5.222   0.609   3.244
 4174SOL    HW113421   5.199   0.571   3.154
 4174SOL    HW213422   5.155   0.680   3.268
 4175SOL     OW13423   2.337   1.268   2.774
 4175SOL    HW113424   2.244   1.294   2.747
 4175SOL    HW213425   2.398   1.277   2.695
 4176SOL     OW13426   5.795   4.472   2.735
 4176SOL    HW113427   5.714   4.529   2.718
 4176SOL    HW213428   5.813   4.469   2.833
 4177SOL     OW13429   6.966   5.577   3.070
 4177SOL    HW113430   6.929   5.603   3.159
 4177SOL    HW213431   6.891   5.546   3.011
 4178SOL     OW13432   4.338   2.331   5.511
 4178SOL    HW113433   4.312   2.288   5.598
 4178SOL    HW213434   4.407   2.401   5.528
 4179SOL     OW13435   6.646   2.187   0.217
 4179SOL    HW113436   6.600   2.246   0.283
 4179SOL    HW213437   6.591   2.182   0.133
 4180SOL     OW13438   4.964   3.898   1.545
 4180SOL    HW113439   4.991   3.970   1.609
 4180SOL    HW213440   4.983   3.809   1.586
 4181SOL     OW13441   6.564   0.748   0.595
 4181SOL    HW113442   6.531   0.806   0.669
 4181SOL    HW213443   6.556   0.797   0.508
 4182SOL     OW13444   5.885   0.865   3.390
 4182SOL    HW113445   5.833   0.820   3.463
 4182SOL    HW213446   5.821   0.909   3.327
 4183SOL     OW13447   1.264   0.966   1.893
 4183SOL    HW113448   1.334   1.015   1.945
 4183SOL    HW213449   1.270   0.993   1.797
 4184SOL     OW13450   4.464   4.855   6.330
 4184SOL    HW113451   4.513   4.802   6.399
 4184SOL    HW213452   4.429   4.794   6.260
 4185SOL     OW13453   0.122   0.317   3.767
 4185SOL    HW113454   0.170   0.323   3.680
 4185SOL    HW213455   0.186   0.335   3.842
 4186SOL     OW13456   3.704   4.237   1.816
 4186SOL    HW113457   3.703   4.201   1.909
 4186SOL    HW213458   3.695   4.161   1.751
 4187SOL     OW13459   3.929   5.155   6.206
 4187SOL    HW113460   3.925   5.151   6.306
 4187SOL    HW213461   3.975   5.239   6.178
 4188SOL     OW13462   5.062   6.404   3.390
 4188SOL    HW113463   4.980   6.390   3.444
 4188SOL    HW213464   5.080   6.502   3.381
 4189SOL     OW13465   1.721   3.245   3.279
 4189SOL    HW113466   1.760   3.293   3.201
 4189SOL    HW213467   1.625   3.225   3.263
 4190SOL     OW13468   2.416   0.109   1.646
 4190SOL    HW113469   2.503   0.153   1.623
 4190SOL    HW213470   2.379   0.150   1.729
 4191SOL     OW13471   0.591   1.912   3.155
 4191SOL    HW113472   0.581   2.010   3.140
 4191SOL    HW213473   0.663   1.876   3.096
 4192SOL     OW13474   6.106   0.227   3.577
 4192SOL    HW113475   6.100   0.158   3.649
 4192SOL    HW213476   6.078   0.316   3.613
 4193SOL     OW13477   1.379   6.709   3.743
 4193SOL    HW113478   1.412   6.791   3.695
 4193SOL    HW213479   1.309   6.664   3.688
 4194SOL     OW13480   5.976   6.939   3.042
 4194SOL    HW113481   6.045   6.998   3.082
 4194SOL    HW213482   6.007   6.908   2.952
 4195SOL     OW13483   5.131   0.825   3.431
 4195SOL    HW113484   5.044   0.802   3.474
 4195SOL    HW213485   5.150   0.922   3.446
 4196SOL     OW13486   4.766   3.009   3.405
 4196SOL    HW113487   4.722   3.028   3.317
 4196SOL    HW213488   4.852   3.060   3.411
 4197SOL     OW13489   5.252   4.110   4.611
 4197SOL    HW113490   5.153   4.122   4.603
 4197SOL    HW213491   5.282   4.148   4.698
 4198SOL     OW13492   6.550   3.697   5.920
 4198SOL    HW113493   6.591   3.619   5.873
 4198SOL    HW213494   6.458   3.672   5.951
 4199SOL     OW13495   2.742   4.162   6.502
 4199SOL    HW113496   2.831   4.116   6.495
 4199SOL    HW213497   2.753   4.260   6.487
 4200SOL     OW13498   3.029   0.577   7.016
 4200SOL    HW113499   3.089   0.541   0.071
 4200SOL    HW213500   3.017   0.507   6.945
 4201SOL     OW13501   6.368   6.856   5.050
 4201SOL    HW113502   6.398   6.836   4.957
 4201SOL    HW213503   6.448   6.862   5.110
 4202SOL     OW13504   5.665   3.556   5.352
 4202SOL    HW113505   5.631   3.636   5.403
 4202SOL    HW213506   5.669   3.477   5.413
 4203SOL     OW13507   3.819   5.582   4.246
 4203SOL    HW113508   3.903   5.529   4.238
 4203SOL    HW213509   3.799   5.600   4.342
 4204SOL     OW13510   1.721   4.075   0.108
 4204SOL    HW113511   1.744   3.993   0.055
 4204SOL    HW213512   1.623   4.076   0.126
 4205SOL     OW13513   2.567   6.026   3.168
 4205SOL    HW113514   2.573   5.942   3.113
 4205SOL    HW213515   2.506   6.091   3.122
 4206SOL     OW13516   5.255   6.615   4.023
 4206SOL    HW113517   5.240   6.564   3.938
 4206SOL    HW213518   5.214   6.566   4.099
 4207SOL     OW13519   1.131   6.629   6.876
 4207SOL    HW113520   1.096   6.622   6.969
 4207SOL    HW213521   1.164   6.722   6.860
 4208SOL     OW13522   0.491   2.755   1.329
 4208SOL    HW113523   0.584   2.722   1.345
 4208SOL    HW213524   0.453   2.710   1.248
 4209SOL     OW13525   2.902   0.267   5.318
 4209SOL    HW113526   2.987   0.262   5.371
 4209SOL    HW213527   2.921   0.244   5.223
 4210SOL     OW13528   3.615   2.903   0.345
 4210SOL    HW113529   3.559   2.837   0.296
 4210SOL    HW213530   3.708   2.902   0.307
 4211SOL     OW13531   5.141   3.793   4.273
 4211SOL    HW113532   5.200   3.863   4.231
 4211SOL    HW213533   5.164   3.784   4.369
 4212SOL     OW13534   6.285   6.891   2.081
 4212SOL    HW113535   6.372   6.940   2.079
 4212SOL    HW213536   6.300   6.795   2.060
 4213SOL     OW13537   0.634   6.996   1.152
 4213SOL    HW113538   0.561   6.929   1.142
 4213SOL    HW213539   0.722   6.949   1.159
 4214SOL     OW13540   3.029   5.576   3.730
 4214SOL    HW113541   2.979   5.554   3.646
 4214SOL    HW213542   3.077   5.495   3.762
 4215SOL     OW13543   1.645   5.954   6.828
 4215SOL    HW113544   1.623   5.936   6.732
 4215SOL    HW213545   1.631   6.051   6.848
 4216SOL     OW13546   2.735   3.074   5.284
 4216SOL    HW113547   2.649   3.106   5.245
 4216SOL    HW213548   2.719   2.989   5.334
 4217SOL     OW13549   6.332   1.096   4.257
 4217SOL    HW113550   6.359   1.005   4.287
 4217SOL    HW213551   6.413   1.144   4.221
 4218SOL     OW13552   3.168   5.529   2.016
 4218SOL    HW113553   3.226   5.574   1.947
 4218SOL    HW213554   3.176   5.577   2.103
 4219SOL     OW13555   5.684   0.091   2.819
 4219SOL    HW113556   5.608   0.129   2.766
 4219SOL    HW213557   5.765   0.084   2.761
 4220SOL     OW13558   0.102   4.135   3.168
 4220SOL    HW113559   0.135   4.226   3.192
 4220SOL    HW213560   0.005   4.141   3.142
 4221SOL     OW13561   5.397   6.506   5.761
 4221SOL    HW113562   5.410   6.411   5.788
 4221SOL    HW213563   5.347   6.510   5.674
 4222SOL     OW13564   2.641   2.855   0.187
 4222SOL    HW113565   2.555   2.889   0.149
 4222SOL    HW213566   2.718   2.898   0.140
 4223SOL     OW13567   3.676   3.781   3.081
 4223SOL    HW113568   3.769   3.801   3.113
 4223SOL    HW213569   3.628   3.867   3.062
 4224SOL     OW13570   3.578   1.838   5.887
 4224SOL    HW113571   3.677   1.830   5.902
 4224SOL    HW213572   3.545   1.922   5.929
 4225SOL     OW13573   5.207   0.154   4.287
 4225SOL    HW113574   5.219   0.061   4.324
 4225SOL    HW213575   5.272   0.216   4.331
 4226SOL     OW13576   2.018   1.707   2.447
 4226SOL    HW113577   2.090   1.692   2.379
 4226SOL    HW213578   1.933   1.666   2.416
 4227SOL     OW13579   5.279   4.017   6.469
 4227SOL    HW113580   5.212   3.950   6.437
 4227SOL    HW213581   5.351   4.027   6.400
 4228SOL     OW13582   4.218   5.247   2.995
 4228SOL    HW113583   4.149   5.317   3.011
 4228SOL    HW213584   4.277   5.239   3.075
 4229SOL     OW13585   3.830   5.230   5.432
 4229SOL    HW113586   3.753   5.168   5.451
 4229SOL    HW213587   3.808   5.287   5.353
 4230SOL     OW13588   2.735   1.524   6.361
 4230SOL    HW113589   2.750   1.588   6.286
 4230SOL    HW213590   2.707   1.575   6.443
 4231SOL     OW13591   3.831   6.433   6.450
 4231SOL    HW113592   3.922   6.468   6.473
 4231SOL    HW213593   3.814   6.349   6.501
 4232SOL     OW13594   1.665   4.072   1.256
 4232SOL    HW113595   1.618   3.989   1.228
 4232SOL    HW213596   1.621   4.151   1.215
 4233SOL     OW13597   5.649   5.447   1.215
 4233SOL    HW113598   5.665   5.508   1.292
 4233SOL    HW213599   5.578   5.486   1.156
 4234SOL     OW13600   3.644   3.520   5.675
 4234SOL    HW113601   3.694   3.442   5.714
 4234SOL    HW213602   3.677   3.538   5.583
 4235SOL     OW13603   0.286   4.159   4.806
 4235SOL    HW113604   0.316   4.248   4.841
 4235SOL    HW213605   0.284   4.161   4.706
 4236SOL     OW13606   0.686   3.724   4.619
 4236SOL    HW113607   0.687   3.689   4.525
 4236SOL    HW213608   0.764   3.785   4.631
 4237SOL     OW13609   6.103   3.716   5.352
 4237SOL    HW113610   6.039   3.676   5.287
 4237SOL    HW213611   6.148   3.795   5.311
 4238SOL     OW13612   4.535   4.912   5.027
 4238SOL    HW113613   4.546   4.988   4.963
 4238SOL    HW213614   4.452   4.926   5.081
 4239SOL     OW13615   5.037   5.906   5.713
 4239SOL    HW113616   4.963   5.852   5.752
 4239SOL    HW213617   5.017   6.003   5.724
 4240SOL     OW13618   2.802   4.719   6.103
 4240SOL    HW113619   2.758   4.730   6.014
 4240SOL    HW213620   2.901   4.706   6.090
 4241SOL     OW13621   3.257   2.267   1.156
 4241SOL    HW113622   3.296   2.251   1.247
 4241SOL    HW213623   3.247   2.366   1.141
 4242SOL     OW13624   2.477   0.428   2.154
 4242SOL    HW113625   2.491   0.329   2.157
 4242SOL    HW213626   2.394   0.449   2.103
 4243SOL     OW13627   1.523   2.336   2.795
 4243SOL    HW113628   1.495   2.240   2.806
 4243SOL    HW213629   1.489   2.389   2.873
 4244SOL     OW13630   2.987   0.497   1.038
 4244SOL    HW113631   2.987   0.426   1.109
 4244SOL    HW213632   3.061   0.562   1.055
 4245SOL     OW13633   0.087   1.572   1.259
 4245SOL    HW113634   0.027   1.560   1.180
 4245SOL    HW213635   0.161   1.505   1.255
 4246SOL     OW13636   4.556   2.611   3.683
 4246SOL    HW113637   4.577   2.646   3.775
 4246SOL    HW213638   4.584   2.678   3.615
 4247SOL     OW13639   2.530   5.475   0.037
 4247SOL    HW113640   2.471   5.554   0.053
 4247SOL    HW213641   2.594   5.465   0.113
 4248SOL     OW13642   2.812   0.274   3.096
 4248SOL    HW113643   2.803   0.363   3.141
 4248SOL    HW213644   2.909   0.253   3.082
 4249SOL     OW13645   5.975   1.130   5.304
 4249SOL    HW113646   6.064   1.166   5.277
 4249SOL    HW213647   5.934   1.190   5.372
 4250SOL     OW13648   0.930   5.654   4.654
 4250SOL    HW113649   0.874   5.721   4.605
 4250SOL    HW213650   0.872   5.578   4.683
 4251SOL     OW13651   4.683   2.030   5.128
 4251SOL    HW113652   4.719   1.956   5.185
 4251SOL    HW213653   4.697   2.006   5.031
 4252SOL     OW13654   0.949   6.977   6.407
 4252SOL    HW113655   1.030   6.919   6.402
 4252SOL    HW213656   0.942   0.001   6.498
 4253SOL     OW13657   4.135   6.974   3.011
 4253SOL    HW113658   4.127   6.877   2.988
 4253SOL    HW213659   4.207   6.986   3.079
 4254SOL     OW13660   1.059   1.862   5.537
 4254SOL    HW113661   1.075   1.958   5.558
 4254SOL    HW213662   1.144   1.819   5.508
 4255SOL     OW13663   1.186   3.005   4.050
 4255SOL    HW113664   1.237   2.980   4.133
 4255SOL    HW213665   1.249   3.014   3.974
 4256SOL     OW13666   6.286   6.264   0.706
 4256SOL    HW113667   6.331   6.239   0.620
 4256SOL    HW213668   6.263   6.180   0.756
 4257SOL     OW13669   6.956   0.912   2.537
 4257SOL    HW113670   6.934   0.821   2.501
 4257SOL    HW213671   0.028   0.941   2.500
 4258SOL     OW13672   2.883   5.498   0.904
 4258SOL    HW113673   2.864   5.576   0.962
 4258SOL    HW213674   2.848   5.415   0.947
 4259SOL     OW13675   0.432   6.424   0.036
 4259SOL    HW113676   0.479   6.351   0.086
 4259SOL    HW213677   0.418   6.396   6.957
 4260SOL     OW13678   0.159   0.505   5.287
 4260SOL    HW113679   0.183   0.550   5.373
 4260SOL    HW213680   0.206   0.417   5.281
 4261SOL     OW13681   2.769   6.432   3.490
 4261SOL    HW113682   2.853   6.402   3.443
 4261SOL    HW213683   2.737   6.517   3.449
 4262SOL     OW13684   1.400   3.980   5.100
 4262SOL    HW113685   1.304   3.979   5.127
 4262SOL    HW213686   1.427   3.889   5.069
 4263SOL     OW13687   3.408   0.908   2.395
 4263SOL    HW113688   3.473   0.982   2.411
 4263SOL    HW213689   3.455   0.828   2.357
 4264SOL     OW13690   4.758   2.185   6.311
 4264SOL    HW113691   4.761   2.085   6.312
 4264SOL    HW213692   4.808   2.221   6.390
 4265SOL     OW13693   3.363   6.643   6.905
 4265SOL    HW113694   3.447   6.682   6.943
 4265SOL    HW213695   3.316   6.712   6.850
 4266SOL     OW13696   1.309   4.689   2.055
 4266SOL    HW113697   1.288   4.685   1.957
 4266SOL    HW213698   1.256   4.620   2.104
 4267SOL     OW13699   1.884   3.512   4.006
 4267SOL    HW113700   1.872   3.470   3.916
 4267SOL    HW213701   1.922   3.604   3.994
 4268SOL     OW13702   1.307   4.328   6.080
 4268SOL    HW113703   1.297   4.334   6.179
 4268SOL    HW213704   1.399   4.298   6.056
 4269SOL     OW13705   2.324   1.483   4.112
 4269SOL    HW113706   2.390   1.408   4.117
 4269SOL    HW213707   2.336   1.544   4.190
 4270SOL     OW13708   4.205   4.070   1.026
 4270SOL    HW113709   4.135   4.142   1.030
 4270SOL    HW213710   4.238   4.050   1.118
 4271SOL     OW13711   6.505   0.370   0.747
 4271SOL    HW113712   6.449   0.299   0.787
 4271SOL    HW213713   6.560   0.331   0.673
 4272SOL     OW13714   6.131   2.017   5.506
 4272SOL    HW113715   6.113   1.958   5.585
 4272SOL    HW213716   6.044   2.041   5.461
 4273SOL     OW13717   3.695   5.431   3.578
 4273SOL    HW113718   3.745   5.508   3.538
 4273SOL    HW213719   3.701   5.437   3.678
 4274SOL     OW13720   6.947   0.342   1.331
 4274SOL    HW113721   6.892   0.370   1.410
 4274SOL    HW213722   6.887   0.331   1.251
 4275SOL     OW13723   6.297   1.849   4.011
 4275SOL    HW113724   6.240   1.814   4.085
 4275SOL    HW213725   6.393   1.837   4.036
 4276SOL     OW13726   1.895   0.197   3.009
 4276SOL    HW113727   1.956   0.218   3.085
 4276SOL    HW213728   1.948   0.165   2.931
 4277SOL     OW13729   6.271   5.591   2.948
 4277SOL    HW113730   6.239   5.587   3.043
 4277SOL    HW213731   6.261   5.501   2.906
 4278SOL     OW13732   0.289   0.116   1.375
 4278SOL    HW113733   0.325   0.042   1.319
 4278SOL    HW213734   0.312   0.099   1.471
 4279SOL     OW13735   0.819   3.385   3.148
 4279SOL    HW113736   0.869   3.299   3.134
 4279SOL    HW213737   0.737   3.367   3.203
 4280SOL     OW13738   3.070   6.532   6.583
 4280SOL    HW113739   2.990   6.493   6.628
 4280SOL    HW213740   3.153   6.492   6.621
 4281SOL     OW13741   0.158   6.528   2.205
 4281SOL    HW113742   0.176   6.522   2.304
 4281SOL    HW213743   0.205   6.453   2.159
 4282SOL     OW13744   5.208   4.652   1.613
 4282SOL    HW113745   5.169   4.561   1.627
 4282SOL    HW213746   5.134   4.717   1.593
 4283SOL     OW13747   6.133   1.220   5.060
 4283SOL    HW113748   6.041   1.183   5.053
 4283SOL    HW213749   6.142   1.299   5.000
 4284SOL     OW13750   4.835   6.375   0.140
 4284SOL    HW113751   4.828   6.293   0.196
 4284SOL    HW213752   4.774   6.367   0.060
 4285SOL     OW13753   3.112   1.552   6.136
 4285SOL    HW113754   3.179   1.525   6.205
 4285SOL    HW213755   3.093   1.474   6.076
 4286SOL     OW13756   5.549   6.406   6.825
 4286SOL    HW113757   5.523   6.403   6.921
 4286SOL    HW213758   5.610   6.483   6.809
 4287SOL     OW13759   4.174   0.536   1.214
 4287SOL    HW113760   4.263   0.493   1.203
 4287SOL    HW213761   4.185   0.626   1.256
 4288SOL     OW13762   0.399   6.504   2.049
 4288SOL    HW113763   0.348   6.589   2.034
 4288SOL    HW213764   0.487   6.509   2.002
 4289SOL     OW13765   0.413   4.198   5.920
 4289SOL    HW113766   0.376   4.209   5.828
 4289SOL    HW213767   0.455   4.284   5.951
 4290SOL     OW13768   0.212   1.042   2.803
 4290SOL    HW113769   0.138   1.078   2.746
 4290SOL    HW213770   0.229   1.106   2.878
 4291SOL     OW13771   4.306   5.056   6.192
 4291SOL    HW113772   4.309   5.154   6.215
 4291SOL    HW213773   4.375   5.007   6.245
 4292SOL     OW13774   6.770   0.053   0.495
 4292SOL    HW113775   6.863   0.019   0.482
 4292SOL    HW213776   6.769   0.153   0.487
 4293SOL     OW13777   3.963   3.330   6.304
 4293SOL    HW113778   3.945   3.421   6.268
 4293SOL    HW213779   3.946   3.262   6.232
 4294SOL     OW13780   3.345   2.110   0.351
 4294SOL    HW113781   3.253   2.076   0.367
 4294SOL    HW213782   3.401   2.037   0.311
 4295SOL     OW13783   4.135   6.392   2.582
 4295SOL    HW113784   4.234   6.382   2.566
 4295SOL    HW213785   4.118   6.397   2.681
 4296SOL     OW13786   1.891   5.578   2.221
 4296SOL    HW113787   1.849   5.563   2.310
 4296SOL    HW213788   1.888   5.493   2.168
 4297SOL     OW13789   5.079   4.794   0.293
 4297SOL    HW113790   5.057   4.885   0.260
 4297SOL    HW213791   5.088   4.731   0.216
 4298SOL     OW13792   1.897   6.910   0.626
 4298SOL    HW113793   1.881   6.908   0.725
 4298SOL    HW213794   1.994   6.892   0.608
 4299SOL     OW13795   0.297   3.259   5.844
 4299SOL    HW113796   0.374   3.196   5.848
 4299SOL    HW213797   0.329   3.352   5.860
 4300SOL     OW13798   3.571   0.618   1.635
 4300SOL    HW113799   3.625   0.631   1.552
 4300SOL    HW213800   3.617   0.661   1.712
 4301SOL     OW13801   1.870   5.990   5.268
 4301SOL    HW113802   1.938   5.917   5.256
 4301SOL    HW213803   1.912   6.078   5.246
 4302SOL     OW13804   4.202   5.218   0.090
 4302SOL    HW113805   4.174   5.312   0.109
 4302SOL    HW213806   4.293   5.218   0.048
 4303SOL     OW13807   4.277   4.995   3.212
 4303SOL    HW113808   4.311   4.988   3.119
 4303SOL    HW213809   4.197   5.055   3.215
 4304SOL     OW13810   3.055   4.363   1.691
 4304SOL    HW113811   2.979   4.402   1.744
 4304SOL    HW213812   3.120   4.434   1.669
 4305SOL     OW13813   1.282   6.687   5.888
 4305SOL    HW113814   1.341   6.759   5.851
 4305SOL    HW213815   1.263   6.705   5.984
 4306SOL     OW13816   5.735   3.654   4.975
 4306SOL    HW113817   5.650   3.619   5.014
 4306SOL    HW213818   5.747   3.750   5.000
 4307SOL     OW13819   6.725   1.520   4.980
 4307SOL    HW113820   6.701   1.477   5.067
 4307SOL    HW213821   6.794   1.464   4.933
 4308SOL     OW13822   4.481   5.744   5.776
 4308SOL    HW113823   4.498   5.800   5.857
 4308SOL    HW213824   4.532   5.659   5.783
 4309SOL     OW13825   3.034   1.987   1.265
 4309SOL    HW113826   3.105   1.981   1.195
 4309SOL    HW213827   2.978   2.068   1.249
 4310SOL     OW13828   6.567   1.831   4.019
 4310SOL    HW113829   6.580   1.805   3.923
 4310SOL    HW213830   6.583   1.751   4.077
 4311SOL     OW13831   0.635   6.411   1.160
 4311SOL    HW113832   0.591   6.484   1.108
 4311SOL    HW213833   0.644   6.439   1.256
 4312SOL     OW13834   0.198   3.487   2.732
 4312SOL    HW113835   0.276   3.468   2.672
 4312SOL    HW213836   0.134   3.410   2.730
 4313SOL     OW13837   0.676   3.284   0.813
 4313SOL    HW113838   0.655   3.336   0.730
 4313SOL    HW213839   0.726   3.342   0.877
 4314SOL     OW13840   2.339   1.341   5.941
 4314SOL    HW113841   2.399   1.381   5.872
 4314SOL    HW213842   2.317   1.411   6.010
 4315SOL     OW13843   2.373   2.551   5.456
 4315SOL    HW113844   2.423   2.533   5.541
 4315SOL    HW213845   2.307   2.478   5.440
 4316SOL     OW13846   4.670   4.568   1.223
 4316SOL    HW113847   4.580   4.527   1.235
 4316SOL    HW213848   4.704   4.549   1.131
 4317SOL     OW13849   4.928   0.690   4.483
 4317SOL    HW113850   4.873   0.628   4.539
 4317SOL    HW213851   4.983   0.750   4.542
 4318SOL     OW13852   1.531   6.184   3.787
 4318SOL    HW113853   1.623   6.222   3.800
 4318SOL    HW213854   1.491   6.162   3.876
 4319SOL     OW13855   2.014   4.614   1.680
 4319SOL    HW113856   1.998   4.524   1.720
 4319SOL    HW213857   2.111   4.622   1.656
 4320SOL     OW13858   3.723   1.142   1.686
 4320SOL    HW113859   3.651   1.157   1.618
 4320SOL    HW213860   3.754   1.047   1.682
 4321SOL     OW13861   6.683   5.893   2.965
 4321SOL    HW113862   6.614   5.837   3.010
 4321SOL    HW213863   6.720   5.960   3.030
 4322SOL     OW13864   2.740   2.033   4.909
 4322SOL    HW113865   2.668   2.022   4.841
 4322SOL    HW213866   2.763   2.130   4.918
 4323SOL     OW13867   5.553   4.078   1.467
 4323SOL    HW113868   5.574   4.111   1.560
 4323SOL    HW213869   5.585   4.146   1.401
 4324SOL     OW13870   6.516   3.939   5.198
 4324SOL    HW113871   6.468   4.027   5.196
 4324SOL    HW213872   6.611   3.954   5.225
 4325SOL     OW13873   1.250   0.739   1.372
 4325SOL    HW113874   1.344   0.706   1.366
 4325SOL    HW213875   1.242   0.826   1.322
 4326SOL     OW13876   5.002   2.773   2.854
 4326SOL    HW113877   5.061   2.714   2.799
 4326SOL    HW213878   4.939   2.822   2.793
 4327SOL     OW13879   3.119   6.741   3.805
 4327SOL    HW113880   3.067   6.715   3.724
 4327SOL    HW213881   3.120   6.665   3.870
 4328SOL     OW13882   6.279   0.235   2.187
 4328SOL    HW113883   6.283   0.237   2.087
 4328SOL    HW213884   6.282   0.329   2.223
 4329SOL     OW13885   5.955   4.047   0.400
 4329SOL    HW113886   5.915   4.037   0.308
 4329SOL    HW213887   5.991   3.958   0.430
 4330SOL     OW13888   2.743   5.720   5.519
 4330SOL    HW113889   2.802   5.640   5.510
 4330SOL    HW213890   2.649   5.691   5.536
 4331SOL     OW13891   5.894   1.673   2.945
 4331SOL    HW113892   5.809   1.689   2.995
 4331SOL    HW213893   5.874   1.619   2.863
 4332SOL     OW13894   6.942   5.610   1.152
 4332SOL    HW113895   6.882   5.568   1.084
 4332SOL    HW213896   6.887   5.654   1.223
 4333SOL     OW13897   3.351   2.981   6.256
 4333SOL    HW113898   3.446   2.999   6.284
 4333SOL    HW213899   3.329   3.039   6.178
 4334SOL     OW13900   0.347   2.133   3.932
 4334SOL    HW113901   0.261   2.085   3.915
 4334SOL    HW213902   0.409   2.118   3.855
 4335SOL     OW13903   2.028   3.480   1.480
 4335SOL    HW113904   2.122   3.465   1.450
 4335SOL    HW213905   2.017   3.574   1.511
 4336SOL     OW13906   2.085   4.835   5.420
 4336SOL    HW113907   2.050   4.746   5.391
 4336SOL    HW213908   2.114   4.831   5.515
 4337SOL     OW13909   6.878   4.589   4.107
 4337SOL    HW113910   6.803   4.650   4.082
 4337SOL    HW213911   6.852   4.495   4.085
 4338SOL     OW13912   3.491   2.928   5.419
 4338SOL    HW113913   3.467   2.922   5.516
 4338SOL    HW213914   3.475   2.840   5.375
 4339SOL     OW13915   4.085   3.938   5.390
 4339SOL    HW113916   4.116   3.913   5.298
 4339SOL    HW213917   4.030   4.021   5.386
 4340SOL     OW13918   0.028   3.962   0.187
 4340SOL    HW113919   6.981   4.010   0.127
 4340SOL    HW213920   6.996   3.933   0.270
 4341SOL     OW13921   6.418   6.171   1.480
 4341SOL    HW113922   6.459   6.219   1.402
 4341SOL    HW213923   6.458   6.206   1.565
 4342SOL     OW13924   4.844   3.706   2.345
 4342SOL    HW113925   4.869   3.623   2.296
 4342SOL    HW213926   4.838   3.686   2.443
 4343SOL     OW13927   4.641   0.319   6.339
 4343SOL    HW113928   4.706   0.373   6.285
 4343SOL    HW213929   4.637   0.226   6.303
 4344SOL     OW13930   1.417   3.927   1.655
 4344SOL    HW113931   1.356   3.848   1.646
 4344SOL    HW213932   1.489   3.906   1.721
 4345SOL     OW13933   3.720   2.931   2.989
 4345SOL    HW113934   3.697   3.027   3.006
 4345SOL    HW213935   3.734   2.917   2.891
 4346SOL     OW13936   1.139   3.774   2.709
 4346SOL    HW113937   1.043   3.763   2.683
 4346SOL    HW213938   1.160   3.713   2.786
 4347SOL     OW13939   6.320   5.834   0.855
 4347SOL    HW113940   6.317   5.767   0.781
 4347SOL    HW213941   6.396   5.897   0.839
 4348SOL     OW13942   6.433   4.248   5.980
 4348SOL    HW113943   6.494   4.310   5.929
 4348SOL    HW213944   6.488   4.181   6.029
 4349SOL     OW13945   0.862   4.123   4.095
 4349SOL    HW113946   0.765   4.100   4.098
 4349SOL    HW213947   0.914   4.042   4.068
 4350SOL     OW13948   5.461   0.227   3.995
 4350SOL    HW113949   5.474   0.268   3.905
 4350SOL    HW213950   5.386   0.161   3.992
 4351SOL     OW13951   0.558   5.822   0.855
 4351SOL    HW113952   0.467   5.862   0.858
 4351SOL    HW213953   0.624   5.890   0.822
 4352SOL     OW13954   3.297   4.288   1.386
 4352SOL    HW113955   3.330   4.244   1.469
 4352SOL    HW213956   3.357   4.366   1.363
 4353SOL     OW13957   2.204   3.887   0.051
 4353SOL    HW113958   2.198   3.869   0.149
 4353SOL    HW213959   2.284   3.944   0.032
 4354SOL     OW13960   5.173   5.538   1.993
 4354SOL    HW113961   5.220   5.454   2.019
 4354SOL    HW213962   5.074   5.525   1.997
 4355SOL     OW13963   1.609   4.773   3.522
 4355SOL    HW113964   1.641   4.854   3.571
 4355SOL    HW213965   1.688   4.722   3.487
 4356SOL     OW13966   5.761   1.879   5.743
 4356SOL    HW113967   5.743   1.848   5.837
 4356SOL    HW213968   5.689   1.844   5.682
 4357SOL     OW13969   5.266   5.991   2.905
 4357SOL    HW113970   5.241   5.894   2.917
 4357SOL    HW213971   5.267   6.035   2.995
 4358SOL     OW13972   2.671   0.518   1.266
 4358SOL    HW113973   2.578   0.540   1.295
 4358SOL    HW213974   2.704   0.441   1.320
 4359SOL     OW13975   2.671   2.505   1.051
 4359SOL    HW113976   2.693   2.444   0.975
 4359SOL    HW213977   2.697   2.598   1.028
 4360SOL     OW13978   3.027   6.097   3.601
 4360SOL    HW113979   3.068   6.006   3.602
 4360SOL    HW213980   3.085   6.160   3.653
 4361SOL     OW13981   1.833   1.041   6.558
 4361SOL    HW113982   1.779   1.083   6.630
 4361SOL    HW213983   1.870   0.953   6.590
 4362SOL     OW13984   0.221   5.861   2.734
 4362SOL    HW113985   0.208   5.788   2.801
 4362SOL    HW213986   0.238   5.947   2.781
 4363SOL     OW13987   3.592   0.385   2.175
 4363SOL    HW113988   3.686   0.353   2.189
 4363SOL    HW213989   3.534   0.354   2.250
 4364SOL     OW13990   3.057   4.000   3.369
 4364SOL    HW113991   3.131   3.996   3.301
 4364SOL    HW213992   2.982   4.055   3.333
 4365SOL     OW13993   2.646   1.402   1.132
 4365SOL    HW113994   2.605   1.340   1.065
 4365SOL    HW213995   2.741   1.421   1.105
 4366SOL     OW13996   4.621   5.159   4.903
 4366SOL    HW113997   4.588   5.197   4.816
 4366SOL    HW213998   4.716   5.185   4.917
 4367SOL     OW13999   2.103   6.894   1.781
 4367SOL    HW114000   2.058   6.804   1.782
 4367SOL    HW214001   2.193   6.886   1.740
 4368SOL     OW14002   4.932   4.499   4.459
 4368SOL    HW114003   4.979   4.520   4.374
 4368SOL    HW214004   4.834   4.492   4.442
 4369SOL     OW14005   6.220   4.346   3.862
 4369SOL    HW114006   6.240   4.280   3.934
 4369SOL    HW214007   6.304   4.391   3.833
 4370SOL     OW14008   4.791   4.771   0.707
 4370SOL    HW114009   4.852   4.772   0.628
 4370SOL    HW214010   4.752   4.679   0.718
 4371SOL     OW14011   3.816   1.424   3.336
 4371SOL    HW114012   3.754   1.446   3.261
 4371SOL    HW214013   3.872   1.344   3.311
 4372SOL     OW14014   1.712   4.612   4.882
 4372SOL    HW114015   1.739   4.685   4.820
 4372SOL    HW214016   1.617   4.586   4.864
 4373SOL     OW14017   4.469   0.389   0.388
 4373SOL    HW114018   4.464   0.468   0.449
 4373SOL    HW214019   4.563   0.380   0.353
 4374SOL     OW14020   2.157   6.212   0.586
 4374SOL    HW114021   2.167   6.307   0.556
 4374SOL    HW214022   2.225   6.192   0.656
 4375SOL     OW14023   4.740   1.063   6.036
 4375SOL    HW114024   4.649   1.102   6.053
 4375SOL    HW214025   4.807   1.109   6.094
 4376SOL     OW14026   3.230   4.986   6.953
 4376SOL    HW114027   3.207   5.013   0.031
 4376SOL    HW214028   3.146   4.977   6.900
 4377SOL     OW14029   5.383   5.945   6.493
 4377SOL    HW114030   5.306   5.985   6.444
 4377SOL    HW214031   5.436   6.019   6.536
 4378SOL     OW14032   3.269   4.992   1.317
 4378SOL    HW114033   3.222   4.904   1.326
 4378SOL    HW214034   3.209   5.066   1.347
 4379SOL     OW14035   6.739   6.138   0.305
 4379SOL    HW114036   6.731   6.158   0.208
 4379SOL    HW214037   6.813   6.192   0.344
 4380SOL     OW14038   2.080   5.485   4.897
 4380SOL    HW114039   2.071   5.483   4.798
 4380SOL    HW214040   2.029   5.563   4.934
 4381SOL     OW14041   3.224   6.171   4.527
 4381SOL    HW114042   3.235   6.129   4.437
 4381SOL    HW214043   3.231   6.270   4.519
 4382SOL     OW14044   5.074   4.008   3.082
 4382SOL    HW114045   4.996   4.036   3.138
 4382SOL    HW214046   5.044   3.983   2.990
 4383SOL     OW14047   1.420   0.522   0.614
 4383SOL    HW114048   1.360   0.491   0.540
 4383SOL    HW214049   1.383   0.606   0.653
 4384SOL     OW14050   3.747   6.825   1.997
 4384SOL    HW114051   3.768   6.874   1.913
 4384SOL    HW214052   3.823   6.835   2.061
 4385SOL     OW14053   6.362   2.532   4.321
 4385SOL    HW114054   6.459   2.521   4.344
 4385SOL    HW214055   6.333   2.626   4.341
 4386SOL     OW14056   2.102   5.128   6.795
 4386SOL    HW114057   2.058   5.121   6.706
 4386SOL    HW214058   2.198   5.101   6.788
 4387SOL     OW14059   5.846   2.034   1.035
 4387SOL    HW114060   5.826   2.127   1.004
 4387SOL    HW214061   5.865   2.036   1.133
 4388SOL     OW14062   4.107   1.234   6.041
 4388SOL    HW114063   4.016   1.259   6.009
 4388SOL    HW214064   4.173   1.302   6.010
 4389SOL     OW14065   0.365   2.511   2.858
 4389SOL    HW114066   0.422   2.438   2.819
 4389SOL    HW214067   0.412   2.599   2.846
 4390SOL     OW14068   4.210   3.837   0.886
 4390SOL    HW114069   4.295   3.784   0.893
 4390SOL    HW214070   4.218   3.919   0.943
 4391SOL     OW14071   0.498   5.868   0.524
 4391SOL    HW114072   0.399   5.856   0.536
 4391SOL    HW214073   0.538   5.782   0.491
 4392SOL     OW14074   5.214   5.195   5.277
 4392SOL    HW114075   5.115   5.180   5.284
 4392SOL    HW214076   5.254   5.125   5.218
 4393SOL     OW14077   5.258   6.765   3.100
 4393SOL    HW114078   5.222   6.832   3.035
 4393SOL    HW214079   5.347   6.733   3.068
 4394SOL     OW14080   4.630   0.504   2.275
 4394SOL    HW114081   4.632   0.493   2.374
 4394SOL    HW214082   4.580   0.427   2.234
 4395SOL     OW14083   4.427   2.654   0.936
 4395SOL    HW114084   4.412   2.644   0.837
 4395SOL    HW214085   4.524   2.671   0.953
 4396SOL     OW14086   1.400   1.471   3.144
 4396SOL    HW114087   1.362   1.417   3.069
 4396SOL    HW214088   1.423   1.562   3.111
 4397SOL     OW14089   4.327   0.942   6.701
 4397SOL    HW114090   4.256   0.986   6.755
 4397SOL    HW214091   4.360   0.861   6.749
 4398SOL     OW14092   0.686   5.314   4.335
 4398SOL    HW114093   0.639   5.227   4.324
 4398SOL    HW214094   0.692   5.336   4.433
 4399SOL     OW14095   2.964   0.625   2.072
 4399SOL    HW114096   2.990   0.677   1.990
 4399SOL    HW214097   3.019   0.656   2.150
 4400SOL     OW14098   3.466   4.961   2.665
 4400SOL    HW114099   3.447   4.980   2.761
 4400SOL    HW214100   3.380   4.940   2.618
 4401SOL     OW14101   5.513   6.230   4.866
 4401SOL    HW114102   5.557   6.315   4.839
 4401SOL    HW214103   5.576   6.177   4.923
 4402SOL     OW14104   6.844   6.785   1.602
 4402SOL    HW114105   6.883   6.759   1.691
 4402SOL    HW214106   6.868   6.880   1.582
 4403SOL     OW14107   6.484   1.239   3.251
 4403SOL    HW114108   6.437   1.151   3.250
 4403SOL    HW214109   6.482   1.280   3.160
 4404SOL     OW14110   1.940   4.268   2.219
 4404SOL    HW114111   1.899   4.357   2.240
 4404SOL    HW214112   1.937   4.210   2.300
 4405SOL     OW14113   2.526   3.922   6.310
 4405SOL    HW114114   2.618   3.909   6.346
 4405SOL    HW214115   2.530   3.954   6.216
 4406SOL     OW14116   6.315   2.513   2.148
 4406SOL    HW114117   6.273   2.437   2.199
 4406SOL    HW214118   6.353   2.478   2.062
 4407SOL     OW14119   1.039   0.970   0.498
 4407SOL    HW114120   1.090   1.053   0.475
 4407SOL    HW214121   0.942   0.993   0.505
 4408SOL     OW14122   3.902   6.162   1.563
 4408SOL    HW114123   3.868   6.235   1.622
 4408SOL    HW214124   4.001   6.151   1.577
 4409SOL     OW14125   3.570   2.056   2.549
 4409SOL    HW114126   3.580   2.104   2.462
 4409SOL    HW214127   3.525   1.968   2.534
 4410SOL     OW14128   2.097   5.869   0.843
 4410SOL    HW114129   2.099   5.813   0.760
 4410SOL    HW214130   2.151   5.824   0.915
 4411SOL     OW14131   3.756   3.429   2.312
 4411SOL    HW114132   3.704   3.438   2.397
 4411SOL    HW214133   3.695   3.436   2.234
 4412SOL     OW14134   3.840   1.402   6.333
 4412SOL    HW114135   3.790   1.368   6.253
 4412SOL    HW214136   3.912   1.337   6.357
 4413SOL     OW14137   4.147   5.499   4.050
 4413SOL    HW114138   4.208   5.495   3.971
 4413SOL    HW214139   4.141   5.593   4.083
 4414SOL     OW14140   3.363   4.869   2.087
 4414SOL    HW114141   3.366   4.964   2.058
 4414SOL    HW214142   3.454   4.827   2.075
 4415SOL     OW14143   4.528   1.811   2.084
 4415SOL    HW114144   4.478   1.855   2.010
 4415SOL    HW214145   4.466   1.750   2.134
 4416SOL     OW14146   2.443   2.368   4.307
 4416SOL    HW114147   2.350   2.331   4.302
 4416SOL    HW214148   2.443   2.462   4.273
 4417SOL     OW14149   5.917   0.036   1.024
 4417SOL    HW114150   5.841   0.100   1.011
 4417SOL    HW214151   5.921   0.009   1.121
 4418SOL     OW14152   4.903   0.562   3.350
 4418SOL    HW114153   4.903   0.514   3.263
 4418SOL    HW214154   4.819   0.542   3.400
 4419SOL     OW14155   6.067   5.327   6.166
 4419SOL    HW114156   5.985   5.283   6.129
 4419SOL    HW214157   6.079   5.417   6.124
 4420SOL     OW14158   5.120   0.986   1.008
 4420SOL    HW114159   5.074   1.000   0.920
 4420SOL    HW214160   5.192   0.917   0.997
 4421SOL     OW14161   0.074   1.281   3.120
 4421SOL    HW114162   7.015   1.216   3.125
 4421SOL    HW214163   0.070   1.344   3.198
 4422SOL     OW14164   1.556   3.912   5.975
 4422SOL    HW114165   1.562   4.009   5.996
 4422SOL    HW214166   1.616   3.890   5.898
 4423SOL     OW14167   6.957   1.752   6.040
 4423SOL    HW114168   6.983   1.766   5.945
 4423SOL    HW214169   7.003   1.820   6.098
 4424SOL     OW14170   1.591   5.575   3.396
 4424SOL    HW114171   1.560   5.563   3.491
 4424SOL    HW214172   1.675   5.523   3.381
 4425SOL     OW14173   4.887   4.070   1.895
 4425SOL    HW114174   4.886   4.045   1.992
 4425SOL    HW214175   4.859   3.992   1.840
 4426SOL     OW14176   0.167   6.917   6.615
 4426SOL    HW114177   0.077   6.910   6.657
 4426SOL    HW214178   0.238   6.914   6.685
 4427SOL     OW14179   0.837   5.626   3.252
 4427SOL    HW114180   0.748   5.642   3.210
 4427SOL    HW214181   0.900   5.588   3.184
 4428SOL     OW14182   1.055   6.972   2.683
 4428SOL    HW114183   0.972   7.002   2.730
 4428SOL    HW214184   1.114   6.922   2.747
 4429SOL     OW14185   3.003   0.487   2.770
 4429SOL    HW114186   3.073   0.448   2.830
 4429SOL    HW214187   2.912   0.463   2.805
 4430SOL     OW14188   2.074   0.775   2.096
 4430SOL    HW114189   2.069   0.866   2.138
 4430SOL    HW214190   1.989   0.726   2.113
 4431SOL     OW14191   2.085   2.093   3.267
 4431SOL    HW114192   2.131   2.071   3.181
 4431SOL    HW214193   2.064   2.008   3.316
 4432SOL     OW14194   2.885   3.642   4.314
 4432SOL    HW114195   2.871   3.544   4.321
 4432SOL    HW214196   2.906   3.667   4.220
 4433SOL     OW14197   6.564   0.286   2.270
 4433SOL    HW114198   6.506   0.365   2.249
 4433SOL    HW214199   6.660   0.313   2.263
 4434SOL     OW14200   5.861   1.984   5.391
 4434SOL    HW114201   5.853   2.039   5.474
 4434SOL    HW214202   5.797   2.018   5.322
 4435SOL     OW14203   3.669   3.033   1.877
 4435SOL    HW114204   3.763   3.048   1.909
 4435SOL    HW214205   3.611   3.108   1.909
 4436SOL     OW14206   5.481   0.356   6.923
 4436SOL    HW114207   5.546   0.381   6.852
 4436SOL    HW214208   5.460   0.436   6.978
 4437SOL     OW14209   3.351   0.070   5.852
 4437SOL    HW114210   3.264   0.083   5.901
 4437SOL    HW214211   3.397   0.158   5.841
 4438SOL     OW14212   3.813   2.488   6.593
 4438SOL    HW114213   3.757   2.432   6.532
 4438SOL    HW214214   3.784   2.583   6.589
 4439SOL     OW14215   1.512   3.858   3.160
 4439SOL    HW114216   1.433   3.796   3.166
 4439SOL    HW214217   1.488   3.946   3.199
 4440SOL     OW14218   6.441   1.031   0.729
 4440SOL    HW114219   6.348   1.005   0.755
 4440SOL    HW214220   6.437   1.094   0.651
 4441SOL     OW14221   6.570   6.976   4.083
 4441SOL    HW114222   6.611   0.046   4.113
 4441SOL    HW214223   6.642   6.914   4.053
 4442SOL     OW14224   1.810   5.466   2.463
 4442SOL    HW114225   1.733   5.502   2.516
 4442SOL    HW214226   1.808   5.366   2.465
 4443SOL     OW14227   2.524   1.194   1.017
 4443SOL    HW114228   2.551   1.178   0.922
 4443SOL    HW214229   2.540   1.110   1.070
 4444SOL     OW14230   5.006   1.450   3.170
 4444SOL    HW114231   5.057   1.494   3.096
 4444SOL    HW214232   4.910   1.441   3.144
 4445SOL     OW14233   0.681   1.537   6.338
 4445SOL    HW114234   0.738   1.495   6.268
 4445SOL    HW214235   0.615   1.599   6.295
 4446SOL     OW14236   6.077   5.340   4.232
 4446SOL    HW114237   5.992   5.362   4.280
 4446SOL    HW214238   6.141   5.416   4.240
 4447SOL     OW14239   4.807   4.009   5.119
 4447SOL    HW114240   4.801   3.960   5.206
 4447SOL    HW214241   4.799   3.944   5.043
 4448SOL     OW14242   2.501   3.245   6.762
 4448SOL    HW114243   2.520   3.322   6.702
 4448SOL    HW214244   2.438   3.181   6.717
 4449SOL     OW14245   0.030   1.057   5.476
 4449SOL    HW114246   0.094   1.134   5.476
 4449SOL    HW214247   6.980   1.069   5.550
 4450SOL     OW14248   3.853   3.372   3.163
 4450SOL    HW114249   3.868   3.358   3.065
 4450SOL    HW214250   3.904   3.453   3.193
 4451SOL     OW14251   0.150   4.523   0.979
 4451SOL    HW114252   0.120   4.536   1.073
 4451SOL    HW214253   0.181   4.428   0.966
 4452SOL     OW14254   6.947   3.454   6.498
 4452SOL    HW114255   6.918   3.452   6.402
 4452SOL    HW214256   6.980   3.363   6.524
 4453SOL     OW14257   5.849   0.677   0.745
 4453SOL    HW114258   5.918   0.628   0.798
 4453SOL    HW214259   5.759   0.663   0.787
 4454SOL     OW14260   5.553   2.917   1.837
 4454SOL    HW114261   5.617   2.967   1.779
 4454SOL    HW214262   5.459   2.943   1.812
 4455SOL     OW14263   4.362   2.420   2.850
 4455SOL    HW114264   4.268   2.388   2.852
 4455SOL    HW214265   4.398   2.415   2.757
 4456SOL     OW14266   0.312   5.608   2.336
 4456SOL    HW114267   0.227   5.620   2.388
 4456SOL    HW214268   0.369   5.689   2.346
 4457SOL     OW14269   4.346   2.350   6.660
 4457SOL    HW114270   4.273   2.328   6.725
 4457SOL    HW214271   4.434   2.323   6.698
 4458SOL     OW14272   4.108   1.437   1.236
 4458SOL    HW114273   4.123   1.430   1.335
 4458SOL    HW214274   4.152   1.519   1.201
 4459SOL     OW14275   5.799   6.041   5.694
 4459SOL    HW114276   5.746   6.073   5.772
 4459SOL    HW214277   5.882   6.097   5.685
 4460SOL     OW14278   1.327   1.747   0.455
 4460SOL    HW114279   1.234   1.710   0.456
 4460SOL    HW214280   1.380   1.702   0.384
 4461SOL     OW14281   2.045   0.095   2.768
 4461SOL    HW114282   1.999   0.149   2.698
 4461SOL    HW214283   2.142   0.085   2.744
 4462SOL     OW14284   6.901   3.941   0.424
 4462SOL    HW114285   6.823   3.897   0.468
 4462SOL    HW214286   6.903   4.038   0.448
 4463SOL     OW14287   0.705   4.577   6.945
 4463SOL    HW114288   0.653   4.547   6.866
 4463SOL    HW214289   0.647   4.575   0.010
 4464SOL     OW14290   6.496   2.551   6.875
 4464SOL    HW114291   6.452   2.461   6.878
 4464SOL    HW214292   6.488   2.595   6.964
 4465SOL     OW14293   6.130   5.206   1.087
 4465SOL    HW114294   6.121   5.113   1.121
 4465SOL    HW214295   6.078   5.268   1.146
 4466SOL     OW14296   0.216   2.881   3.588
 4466SOL    HW114297   0.233   2.837   3.676
 4466SOL    HW214298   0.302   2.914   3.550
 4467SOL     OW14299   1.457   0.686   4.187
 4467SOL    HW114300   1.455   0.588   4.166
 4467SOL    HW214301   1.549   0.712   4.217
 4468SOL     OW14302   1.183   1.795   0.768
 4468SOL    HW114303   1.115   1.721   0.776
 4468SOL    HW214304   1.275   1.755   0.760
 4469SOL     OW14305   4.951   6.626   0.661
 4469SOL    HW114306   5.011   6.563   0.711
 4469SOL    HW214307   4.899   6.681   0.727
 4470SOL     OW14308   4.785   4.774   1.779
 4470SOL    HW114309   4.734   4.699   1.822
 4470SOL    HW214310   4.835   4.740   1.700
 4471SOL     OW14311   5.929   2.393   1.932
 4471SOL    HW114312   5.861   2.444   1.878
 4471SOL    HW214313   5.973   2.456   1.997
 4472SOL     OW14314   2.353   5.310   1.544
 4472SOL    HW114315   2.395   5.306   1.454
 4472SOL    HW214316   2.409   5.259   1.610
 4473SOL     OW14317   6.013   0.588   0.355
 4473SOL    HW114318   5.932   0.613   0.408
 4473SOL    HW214319   5.992   0.591   0.257
 4474SOL     OW14320   6.121   1.057   4.515
 4474SOL    HW114321   6.137   1.002   4.433
 4474SOL    HW214322   6.028   1.094   4.513
 4475SOL     OW14323   1.407   3.352   0.476
 4475SOL    HW114324   1.451   3.412   0.542
 4475SOL    HW214325   1.315   3.329   0.508
 4476SOL     OW14326   4.108   6.417   2.835
 4476SOL    HW114327   4.159   6.392   2.917
 4476SOL    HW214328   4.019   6.456   2.861
 4477SOL     OW14329   1.804   2.129   0.966
 4477SOL    HW114330   1.838   2.160   1.055
 4477SOL    HW214331   1.876   2.078   0.919
 4478SOL     OW14332   1.356   4.945   1.131
 4478SOL    HW114333   1.290   4.870   1.124
 4478SOL    HW214334   1.415   4.930   1.211
 4479SOL     OW14335   1.928   0.184   6.021
 4479SOL    HW114336   1.846   0.127   6.015
 4479SOL    HW214337   1.993   0.158   5.950
 4480SOL     OW14338   6.785   3.844   3.203
 4480SOL    HW114339   6.884   3.831   3.205
 4480SOL    HW214340   6.740   3.758   3.179
 4481SOL     OW14341   0.570   1.066   4.306
 4481SOL    HW114342   0.666   1.044   4.325
 4481SOL    HW214343   0.564   1.159   4.270
 4482SOL     OW14344   1.035   4.135   2.885
 4482SOL    HW114345   1.024   4.043   2.846
 4482SOL    HW214346   1.066   4.126   2.980
 4483SOL     OW14347   5.530   3.448   0.435
 4483SOL    HW114348   5.535   3.421   0.532
 4483SOL    HW214349   5.530   3.366   0.378
 4484SOL     OW14350   3.138   3.497   6.774
 4484SOL    HW114351   3.092   3.530   6.856
 4484SOL    HW214352   3.071   3.484   6.701
 4485SOL     OW14353   4.943   6.763   6.230
 4485SOL    HW114354   5.005   6.835   6.260
 4485SOL    HW214355   4.907   6.785   6.140
 4486SOL     OW14356   6.324   3.265   4.185
 4486SOL    HW114357   6.362   3.332   4.249
 4486SOL    HW214358   6.272   3.197   4.235
 4487SOL     OW14359   3.154   3.162   5.699
 4487SOL    HW114360   3.057   3.141   5.714
 4487SOL    HW214361   3.164   3.257   5.669
 4488SOL     OW14362   6.832   2.170   6.502
 4488SOL    HW114363   6.737   2.145   6.484
 4488SOL    HW214364   6.886   2.087   6.517
 4489SOL     OW14365   0.944   0.939   2.584
 4489SOL    HW114366   0.880   0.919   2.511
 4489SOL    HW214367   0.894   0.954   2.669
 4490SOL     OW14368   6.514   1.868   4.413
 4490SOL    HW114369   6.546   1.773   4.411
 4490SOL    HW214370   6.565   1.922   4.345
 4491SOL     OW14371   1.616   4.235   2.210
 4491SOL    HW114372   1.672   4.300   2.261
 4491SOL    HW214373   1.670   4.152   2.193
 4492SOL     OW14374   5.131   4.030   6.153
 4492SOL    HW114375   5.196   4.027   6.230
 4492SOL    HW214376   5.119   3.938   6.116
 4493SOL     OW14377   5.981   4.622   3.474
 4493SOL    HW114378   6.013   4.527   3.464
 4493SOL    HW214379   5.942   4.653   3.388
 4494SOL     OW14380   5.557   1.781   1.584
 4494SOL    HW114381   5.564   1.842   1.505
 4494SOL    HW214382   5.632   1.800   1.648
 4495SOL     OW14383   5.422   5.418   1.499
 4495SOL    HW114384   5.498   5.355   1.482
 4495SOL    HW214385   5.336   5.376   1.471
 4496SOL     OW14386   6.305   3.569   5.928
 4496SOL    HW114387   6.233   3.638   5.929
 4496SOL    HW214388   6.322   3.541   5.833
 4497SOL     OW14389   6.897   5.955   0.952
 4497SOL    HW114390   6.886   6.044   0.909
 4497SOL    HW214391   6.817   5.898   0.932
 4498SOL     OW14392   1.128   4.009   6.059
 4498SOL    HW114393   1.182   4.007   6.143
 4498SOL    HW214394   1.031   4.011   6.081
 4499SOL     OW14395   5.394   3.651   0.160
 4499SOL    HW114396   5.486   3.684   0.181
 4499SOL    HW214397   5.327   3.716   0.194
 4500SOL     OW14398   4.018   3.798   2.552
 4500SOL    HW114399   3.949   3.778   2.483
 4500SOL    HW214400   4.083   3.721   2.556
 4501SOL     OW14401   1.369   4.858   4.953
 4501SOL    HW114402   1.299   4.885   4.886
 4501SOL    HW214403   1.335   4.782   5.007
 4502SOL     OW14404   5.381   2.505   0.015
 4502SOL    HW114405   5.339   2.595   0.021
 4502SOL    HW214406   5.423   2.493   6.942
 4503SOL     OW14407   1.247   3.061   2.606
 4503SOL    HW114408   1.337   3.029   2.578
 4503SOL    HW214409   1.256   3.126   2.681
 4504SOL     OW14410   4.470   2.456   4.419
 4504SOL    HW114411   4.382   2.411   4.399
 4504SOL    HW214412   4.505   2.424   4.507
 4505SOL     OW14413   2.207   5.155   0.668
 4505SOL    HW114414   2.270   5.179   0.594
 4505SOL    HW214415   2.223   5.216   0.746
 4506SOL     OW14416   3.495   0.321   5.809
 4506SOL    HW114417   3.452   0.377   5.738
 4506SOL    HW214418   3.595   0.330   5.802
 4507SOL     OW14419   6.025   3.626   2.369
 4507SOL    HW114420   6.066   3.665   2.286
 4507SOL    HW214421   5.931   3.658   2.379
 4508SOL     OW14422   1.984   4.079   0.212
 4508SOL    HW114423   1.929   3.997   0.200
 4508SOL    HW214424   1.958   4.147   0.143
 4509SOL     OW14425   0.684   2.556   2.810
 4509SOL    HW114426   0.664   2.604   2.725
 4509SOL    HW214427   0.737   2.616   2.871
 4510SOL     OW14428   2.596   6.404   6.104
 4510SOL    HW114429   2.552   6.339   6.165
 4510SOL    HW214430   2.692   6.379   6.093
 4511SOL     OW14431   0.069   2.131   0.241
 4511SOL    HW114432   0.124   2.049   0.248
 4511SOL    HW214433   7.003   2.122   0.298
 4512SOL     OW14434   2.499   3.974   6.895
 4512SOL    HW114435   2.587   4.008   6.929
 4512SOL    HW214436   2.509   3.942   6.801
 4513SOL     OW14437   6.254   1.155   2.969
 4513SOL    HW114438   6.266   1.154   2.870
 4513SOL    HW214439   6.243   1.061   3.002
 4514SOL     OW14440   2.432   0.462   5.277
 4514SOL    HW114441   2.420   0.554   5.314
 4514SOL    HW214442   2.386   0.455   5.189
 4515SOL     OW14443   6.927   4.965   0.355
 4515SOL    HW114444   6.992   4.945   0.282
 4515SOL    HW214445   6.913   4.882   0.410
 4516SOL     OW14446   0.523   0.082   3.612
 4516SOL    HW114447   0.583   0.023   3.559
 4516SOL    HW214448   0.521   0.051   3.707
 4517SOL     OW14449   2.772   1.210   6.739
 4517SOL    HW114450   2.705   1.284   6.730
 4517SOL    HW214451   2.841   1.236   6.807
 4518SOL     OW14452   1.482   6.914   3.587
 4518SOL    HW114453   1.393   6.939   3.550
 4518SOL    HW214454   1.510   6.980   3.656
 4519SOL     OW14455   6.687   2.275   4.980
 4519SOL    HW114456   6.755   2.290   4.909
 4519SOL    HW214457   6.603   2.324   4.957
 4520SOL     OW14458   0.035   3.708   2.670
 4520SOL    HW114459   6.979   3.724   2.737
 4520SOL    HW214460   0.080   3.621   2.690
 4521SOL     OW14461   5.303   1.679   6.493
 4521SOL    HW114462   5.378   1.644   6.549
 4521SOL    HW214463   5.267   1.763   6.534
 4522SOL     OW14464   5.697   6.664   3.179
 4522SOL    HW114465   5.690   6.699   3.086
 4522SOL    HW214466   5.690   6.741   3.243
 4523SOL     OW14467   4.610   2.035   5.782
 4523SOL    HW114468   4.521   2.057   5.822
 4523SOL    HW214469   4.597   1.987   5.696
 4524SOL     OW14470   5.860   0.530   5.179
 4524SOL    HW114471   5.908   0.617   5.179
 4524SOL    HW214472   5.905   0.467   5.243
 4525SOL     OW14473   6.682   1.354   4.185
 4525SOL    HW114474   6.627   1.437   4.176
 4525SOL    HW214475   6.748   1.367   4.260
 4526SOL     OW14476   2.995   1.687   1.471
 4526SOL    HW114477   2.994   1.594   1.508
 4526SOL    HW214478   2.999   1.684   1.371
 4527SOL     OW14479   4.311   6.151   4.152
 4527SOL    HW114480   4.377   6.129   4.080
 4527SOL    HW214481   4.343   6.112   4.238
 4528SOL     OW14482   4.760   0.081   6.142
 4528SOL    HW114483   4.662   0.077   6.127
 4528SOL    HW214484   4.804   0.123   6.062
 4529SOL     OW14485   3.137   6.964   3.967
 4529SOL    HW114486   3.157   6.934   4.061
 4529SOL    HW214487   3.139   6.885   3.906
 4530SOL     OW14488   6.991   2.417   4.014
 4530SOL    HW114489   7.001   2.368   3.927
 4530SOL    HW214490   6.910   2.475   4.011
 4531SOL     OW14491   0.676   4.009   3.753
 4531SOL    HW114492   0.772   4.025   3.778
 4531SOL    HW214493   0.626   4.095   3.757
 4532SOL     OW14494   0.870   2.246   0.145
 4532SOL    HW114495   0.846   2.157   0.186
 4532SOL    HW214496   0.852   2.318   0.211
 4533SOL     OW14497   3.299   6.357   2.197
 4533SOL    HW114498   3.312   6.456   2.199
 4533SOL    HW214499   3.335   6.318   2.282
 4534SOL     OW14500   6.705   4.117   5.692
 4534SOL    HW114501   6.681   4.194   5.750
 4534SOL    HW214502   6.645   4.039   5.712
 4535SOL     OW14503   5.376   2.445   2.975
 4535SOL    HW114504   5.471   2.416   2.971
 4535SOL    HW214505   5.320   2.369   3.009
 4536SOL     OW14506   6.724   6.919   3.549
 4536SOL    HW114507   6.693   7.014   3.548
 4536SOL    HW214508   6.822   6.916   3.567
 4537SOL     OW14509   5.125   3.250   5.876
 4537SOL    HW114510   5.045   3.311   5.877
 4537SOL    HW214511   5.106   3.171   5.818
 4538SOL     OW14512   3.454   2.156   1.771
 4538SOL    HW114513   3.497   2.109   1.694
 4538SOL    HW214514   3.524   2.208   1.822
 4539SOL     OW14515   2.230   2.666   2.187
 4539SOL    HW114516   2.311   2.637   2.136
 4539SOL    HW214517   2.148   2.653   2.130
 4540SOL     OW14518   3.494   2.682   5.277
 4540SOL    HW114519   3.422   2.628   5.321
 4540SOL    HW214520   3.485   2.674   5.178
 4541SOL     OW14521   6.155   1.522   1.568
 4541SOL    HW114522   6.250   1.498   1.549
 4541SOL    HW214523   6.094   1.460   1.519
 4542SOL     OW14524   5.148   6.662   3.334
 4542SOL    HW114525   5.203   6.696   3.258
 4542SOL    HW214526   5.133   6.736   3.400
 4543SOL     OW14527   5.924   2.754   2.430
 4543SOL    HW114528   5.892   2.664   2.401
 4543SOL    HW214529   5.858   2.794   2.494
 4544SOL     OW14530   5.525   5.232   6.571
 4544SOL    HW114531   5.605   5.245   6.512
 4544SOL    HW214532   5.483   5.143   6.551
 4545SOL     OW14533   3.671   3.983   6.182
 4545SOL    HW114534   3.677   4.079   6.208
 4545SOL    HW214535   3.635   3.929   6.259
 4546SOL     OW14536   0.602   6.126   6.628
 4546SOL    HW114537   0.683   6.091   6.582
 4546SOL    HW214538   0.526   6.064   6.614
 4547SOL     OW14539   4.611   1.428   2.567
 4547SOL    HW114540   4.628   1.489   2.645
 4547SOL    HW214541   4.519   1.389   2.574
 4548SOL     OW14542   0.926   3.351   4.242
 4548SOL    HW114543   1.015   3.362   4.197
 4548SOL    HW214544   0.856   3.399   4.190
 4549SOL     OW14545   5.819   1.622   2.559
 4549SOL    HW114546   5.805   1.718   2.533
 4549SOL    HW214547   5.913   1.611   2.593
 4550SOL     OW14548   2.192   5.497   4.326
 4550SOL    HW114549   2.230   5.410   4.360
 4550SOL    HW214550   2.102   5.512   4.368
 4551SOL     OW14551   6.486   3.383   0.696
 4551SOL    HW114552   6.498   3.305   0.634
 4551SOL    HW214553   6.553   3.378   0.769
 4552SOL     OW14554   6.893   3.039   4.204
 4552SOL    HW114555   6.941   3.016   4.120
 4552SOL    HW214556   6.905   2.965   4.271
 4553SOL     OW14557   5.209   4.977   6.372
 4553SOL    HW114558   5.272   4.986   6.450
 4553SOL    HW214559   5.206   4.881   6.343
 4554SOL     OW14560   6.535   6.666   3.902
 4554SOL    HW114561   6.523   6.655   3.803
 4554SOL    HW214562   6.446   6.678   3.946
 4555SOL     OW14563   3.881   3.167   0.232
 4555SOL    HW114564   3.900   3.251   0.283
 4555SOL    HW214565   3.941   3.094   0.264
 4556SOL     OW14566   4.459   0.430   5.248
 4556SOL    HW114567   4.488   0.512   5.298
 4556SOL    HW214568   4.532   0.362   5.249
 4557SOL     OW14569   5.565   1.301   4.680
 4557SOL    HW114570   5.502   1.315   4.603
 4557SOL    HW214571   5.621   1.383   4.692
 4558SOL     OW14572   6.578   2.987   6.381
 4558SOL    HW114573   6.631   3.072   6.384
 4558SOL    HW214574   6.635   2.913   6.348
 4559SOL     OW14575   1.590   6.408   1.443
 4559SOL    HW114576   1.532   6.370   1.516
 4559SOL    HW214577   1.596   6.507   1.453
 4560SOL     OW14578   5.512   2.949   2.411
 4560SOL    HW114579   5.466   2.900   2.337
 4560SOL    HW214580   5.572   2.885   2.460
 4561SOL     OW14581   3.565   6.539   6.453
 4561SOL    HW114582   3.559   6.613   6.386
 4561SOL    HW214583   3.650   6.488   6.439
 4562SOL     OW14584   2.479   4.452   5.793
 4562SOL    HW114585   2.525   4.464   5.705
 4562SOL    HW214586   2.419   4.373   5.788
 4563SOL     OW14587   5.880   2.317   6.874
 4563SOL    HW114588   5.969   2.360   6.888
 4563SOL    HW214589   5.869   2.294   6.777
 4564SOL     OW14590   0.790   5.126   6.940
 4564SOL    HW114591   0.878   5.169   6.961
 4564SOL    HW214592   0.730   5.133   0.004
 4565SOL     OW14593   2.855   1.010   3.852
 4565SOL    HW114594   2.855   1.061   3.939
 4565SOL    HW214595   2.780   1.043   3.795
 4566SOL     OW14596   1.611   0.764   0.982
 4566SOL    HW114597   1.664   0.845   0.956
 4566SOL    HW214598   1.668   0.704   1.038
 4567SOL     OW14599   5.602   1.702   0.679
 4567SOL    HW114600   5.513   1.735   0.648
 4567SOL    HW214601   5.671   1.721   0.610
 4568SOL     OW14602   4.431   4.923   3.840
 4568SOL    HW114603   4.460   5.009   3.881
 4568SOL    HW214604   4.364   4.878   3.899
 4569SOL     OW14605   0.676   1.620   3.359
 4569SOL    HW114606   0.582   1.595   3.379
 4569SOL    HW214607   0.703   1.697   3.417
 4570SOL     OW14608   5.647   5.795   4.720
 4570SOL    HW114609   5.616   5.709   4.681
 4570SOL    HW214610   5.567   5.852   4.741
 4571SOL     OW14611   3.946   3.155   3.985
 4571SOL    HW114612   3.867   3.176   3.927
 4571SOL    HW214613   3.914   3.116   4.071
 4572SOL     OW14614   2.553   5.351   1.160
 4572SOL    HW114615   2.486   5.282   1.184
 4572SOL    HW214616   2.641   5.308   1.140
 4573SOL     OW14617   5.271   0.279   1.282
 4573SOL    HW114618   5.336   0.356   1.283
 4573SOL    HW214619   5.184   0.308   1.321
 4574SOL     OW14620   0.153   4.417   1.714
 4574SOL    HW114621   0.242   4.416   1.758
 4574SOL    HW214622   0.163   4.446   1.619
 4575SOL     OW14623   6.709   6.504   1.702
 4575SOL    HW114624   6.766   6.575   1.744
 4575SOL    HW214625   6.764   6.449   1.640
 4576SOL     OW14626   3.212   6.289   3.714
 4576SOL    HW114627   3.275   6.299   3.791
 4576SOL    HW214628   3.227   6.363   3.648
 4577SOL     OW14629   2.162   3.422   3.750
 4577SOL    HW114630   2.185   3.482   3.674
 4577SOL    HW214631   2.063   3.410   3.755
 4578SOL     OW14632   6.676   5.950   3.740
 4578SOL    HW114633   6.672   6.041   3.782
 4578SOL    HW214634   6.685   5.958   3.641
 4579SOL     OW14635   4.623   1.985   3.808
 4579SOL    HW114636   4.715   1.953   3.832
 4579SOL    HW214637   4.626   2.083   3.791
 4580SOL     OW14638   0.510   5.139   6.770
 4580SOL    HW114639   0.482   5.212   6.831
 4580SOL    HW214640   0.610   5.138   6.763
 4581SOL     OW14641   3.431   5.992   5.164
 4581SOL    HW114642   3.396   6.006   5.257
 4581SOL    HW214643   3.523   5.955   5.169
 4582SOL     OW14644   5.016   6.930   3.427
 4582SOL    HW114645   5.079   6.941   3.504
 4582SOL    HW214646   5.001   0.002   3.383
 4583SOL     OW14647   3.557   0.535   5.409
 4583SOL    HW114648   3.575   0.437   5.405
 4583SOL    HW214649   3.608   0.575   5.485
 4584SOL     OW14650   0.124   5.079   5.450
 4584SOL    HW114651   0.163   5.165   5.419
 4584SOL    HW214652   0.194   5.024   5.495
 4585SOL     OW14653   3.071   6.148   2.247
 4585SOL    HW114654   3.058   6.107   2.157
 4585SOL    HW214655   3.137   6.223   2.239
 4586SOL     OW14656   2.560   6.006   1.284
 4586SOL    HW114657   2.483   5.975   1.340
 4586SOL    HW214658   2.572   6.105   1.294
 4587SOL     OW14659   3.047   4.876   0.641
 4587SOL    HW114660   3.023   4.781   0.624
 4587SOL    HW214661   2.973   4.920   0.693
 4588SOL     OW14662   3.163   3.885   4.834
 4588SOL    HW114663   3.184   3.850   4.742
 4588SOL    HW214664   3.142   3.983   4.828
 4589SOL     OW14665   1.364   2.017   3.484
 4589SOL    HW114666   1.317   2.043   3.569
 4589SOL    HW214667   1.460   1.997   3.503
 4590SOL     OW14668   4.150   6.607   3.358
 4590SOL    HW114669   4.187   6.515   3.372
 4590SOL    HW214670   4.061   6.615   3.404
 4591SOL     OW14671   5.479   5.999   5.226
 4591SOL    HW114672   5.524   6.033   5.309
 4591SOL    HW214673   5.470   5.900   5.232
 4592SOL     OW14674   3.415   1.454   5.813
 4592SOL    HW114675   3.417   1.358   5.842
 4592SOL    HW214676   3.375   1.510   5.886
 4593SOL     OW14677   4.932   6.745   1.874
 4593SOL    HW114678   5.031   6.737   1.881
 4593SOL    HW214679   4.899   6.816   1.936
 4594SOL     OW14680   3.919   2.155   2.677
 4594SOL    HW114681   3.921   2.144   2.577
 4594SOL    HW214682   3.836   2.113   2.714
 4595SOL     OW14683   4.698   3.350   5.786
 4595SOL    HW114684   4.644   3.375   5.866
 4595SOL    HW214685   4.707   3.429   5.726
 4596SOL     OW14686   4.743   0.277   2.655
 4596SOL    HW114687   4.703   0.214   2.721
 4596SOL    HW214688   4.842   0.266   2.654
 4597SOL     OW14689   6.374   3.939   5.513
 4597SOL    HW114690   6.280   3.953   5.481
 4597SOL    HW214691   6.406   3.849   5.483
 4598SOL     OW14692   2.594   4.368   0.072
 4598SOL    HW114693   2.595   4.282   0.021
 4598SOL    HW214694   2.680   4.376   0.124
 4599SOL     OW14695   3.345   5.314   0.189
 4599SOL    HW114696   3.344   5.274   0.281
 4599SOL    HW214697   3.359   5.241   0.122
 4600SOL     OW14698   2.870   3.815   1.031
 4600SOL    HW114699   2.955   3.858   1.002
 4600SOL    HW214700   2.868   3.808   1.131
 4601SOL     OW14701   2.073   4.998   3.929
 4601SOL    HW114702   1.992   5.045   3.894
 4601SOL    HW214703   2.103   4.930   3.862
 4602SOL     OW14704   1.451   0.385   1.302
 4602SOL    HW114705   1.396   0.367   1.384
 4602SOL    HW214706   1.533   0.436   1.328
 4603SOL     OW14707   2.869   1.304   2.066
 4603SOL    HW114708   2.865   1.362   1.984
 4603SOL    HW214709   2.938   1.233   2.053
 4604SOL     OW14710   1.085   0.397   2.899
 4604SOL    HW114711   1.122   0.475   2.950
 4604SOL    HW214712   1.109   0.312   2.947
 4605SOL     OW14713   5.296   6.062   5.791
 4605SOL    HW114714   5.301   5.988   5.724
 4605SOL    HW214715   5.291   6.023   5.883
 4606SOL     OW14716   6.359   6.329   4.608
 4606SOL    HW114717   6.317   6.325   4.699
 4606SOL    HW214718   6.363   6.425   4.578
 4607SOL     OW14719   2.958   3.046   1.001
 4607SOL    HW114720   2.860   3.049   1.021
 4607SOL    HW214721   2.977   3.103   0.921
 4608SOL     OW14722   0.806   3.323   5.483
 4608SOL    HW114723   0.814   3.229   5.450
 4608SOL    HW214724   0.848   3.385   5.418
 4609SOL     OW14725   3.174   0.250   1.004
 4609SOL    HW114726   3.137   0.253   1.096
 4609SOL    HW214727   3.101   0.231   0.939
 4610SOL     OW14728   6.537   3.807   6.455
 4610SOL    HW114729   6.585   3.892   6.477
 4610SOL    HW214730   6.603   3.740   6.420
 4611SOL     OW14731   1.728   4.585   6.745
 4611SOL    HW114732   1.726   4.558   6.841
 4611SOL    HW214733   1.635   4.588   6.710
 4612SOL     OW14734   2.193   0.482   6.269
 4612SOL    HW114735   2.223   0.575   6.245
 4612SOL    HW214736   2.116   0.488   6.333
 4613SOL     OW14737   3.369   4.764   1.681
 4613SOL    HW114738   3.437   4.746   1.752
 4613SOL    HW214739   3.411   4.819   1.608
 4614SOL     OW14740   2.330   5.014   6.658
 4614SOL    HW114741   2.338   4.989   6.562
 4614SOL    HW214742   2.380   4.948   6.714
 4615SOL     OW14743   6.481   3.222   6.162
 4615SOL    HW114744   6.436   3.264   6.083
 4615SOL    HW214745   6.450   3.128   6.172
 4616SOL     OW14746   5.466   1.145   6.494
 4616SOL    HW114747   5.527   1.067   6.507
 4616SOL    HW214748   5.478   1.183   6.403
 4617SOL     OW14749   6.819   3.692   1.831
 4617SOL    HW114750   6.726   3.655   1.832
 4617SOL    HW214751   6.824   3.772   1.890
 4618SOL     OW14752   0.537   2.947   6.948
 4618SOL    HW114753   0.466   3.000   6.996
 4618SOL    HW214754   0.593   3.009   6.893
 4619SOL     OW14755   4.390   0.737   3.945
 4619SOL    HW114756   4.435   0.754   4.033
 4619SOL    HW214757   4.314   0.673   3.959
 4620SOL     OW14758   2.439   6.004   0.291
 4620SOL    HW114759   2.366   5.979   0.227
 4620SOL    HW214760   2.407   5.988   0.385
 4621SOL     OW14761   6.910   0.529   6.305
 4621SOL    HW114762   6.873   0.442   6.271
 4621SOL    HW214763   6.855   0.605   6.270
 4622SOL     OW14764   1.880   4.151   0.469
 4622SOL    HW114765   1.788   4.118   0.491
 4622SOL    HW214766   1.897   4.140   0.371
 4623SOL     OW14767   5.350   3.810   2.907
 4623SOL    HW114768   5.413   3.777   2.977
 4623SOL    HW214769   5.264   3.837   2.949
 4624SOL     OW14770   4.436   6.812   6.076
 4624SOL    HW114771   4.498   6.882   6.113
 4624SOL    HW214772   4.363   6.857   6.024
 4625SOL     OW14773   1.220   3.690   6.244
 4625SOL    HW114774   1.297   3.749   6.219
 4625SOL    HW214775   1.245   3.594   6.226
 4626SOL     OW14776   5.562   4.497   1.819
 4626SOL    HW114777   5.487   4.563   1.831
 4626SOL    HW214778   5.615   4.492   1.904
 4627SOL     OW14779   1.796   6.671   5.289
 4627SOL    HW114780   1.760   6.578   5.294
 4627SOL    HW214781   1.840   6.694   5.376
 4628SOL     OW14782   6.247   3.036   1.749
 4628SOL    HW114783   6.284   3.042   1.656
 4628SOL    HW214784   6.164   2.980   1.748
 4629SOL     OW14785   4.415   5.490   4.366
 4629SOL    HW114786   4.318   5.514   4.376
 4629SOL    HW214787   4.433   5.404   4.413
 4630SOL     OW14788   2.218   6.360   2.635
 4630SOL    HW114789   2.225   6.420   2.714
 4630SOL    HW214790   2.148   6.290   2.653
 4631SOL     OW14791   2.029   0.765   3.211
 4631SOL    HW114792   1.977   0.774   3.296
 4631SOL    HW214793   2.122   0.802   3.225
 4632SOL     OW14794   5.439   6.372   4.066
 4632SOL    HW114795   5.397   6.425   4.139
 4632SOL    HW214796   5.375   6.363   3.990
 4633SOL     OW14797   4.998   2.601   5.327
 4633SOL    HW114798   5.070   2.547   5.282
 4633SOL    HW214799   4.910   2.580   5.284
 4634SOL     OW14800   2.964   4.367   0.023
 4634SOL    HW114801   2.923   4.370   0.114
 4634SOL    HW214802   3.035   4.296   0.021
 4635SOL     OW14803   5.003   3.619   1.658
 4635SOL    HW114804   4.911   3.585   1.679
 4635SOL    HW214805   5.070   3.551   1.686
 4636SOL     OW14806   0.538   5.667   1.700
 4636SOL    HW114807   0.604   5.668   1.775
 4636SOL    HW214808   0.488   5.580   1.701
 4637SOL     OW14809   1.366   0.795   5.008
 4637SOL    HW114810   1.354   0.714   5.066
 4637SOL    HW214811   1.309   0.869   5.043
 4638SOL     OW14812   4.323   5.041   5.589
 4638SOL    HW114813   4.249   5.020   5.653
 4638SOL    HW214814   4.399   5.084   5.639
 4639SOL     OW14815   6.504   1.926   5.038
 4639SOL    HW114816   6.425   1.972   4.996
 4639SOL    HW214817   6.522   1.967   5.128
 4640SOL     OW14818   5.995   5.124   2.903
 4640SOL    HW114819   5.909   5.075   2.886
 4640SOL    HW214820   6.070   5.059   2.910
 4641SOL     OW14821   2.730   3.539   5.307
 4641SOL    HW114822   2.801   3.469   5.305
 4641SOL    HW214823   2.761   3.619   5.255
 4642SOL     OW14824   5.729   5.827   3.815
 4642SOL    HW114825   5.639   5.788   3.838
 4642SOL    HW214826   5.716   5.916   3.771
 4643SOL     OW14827   4.285   3.524   1.183
 4643SOL    HW114828   4.298   3.471   1.099
 4643SOL    HW214829   4.346   3.488   1.254
 4644SOL     OW14830   3.646   4.496   5.662
 4644SOL    HW114831   3.574   4.430   5.640
 4644SOL    HW214832   3.722   4.449   5.707
 4645SOL     OW14833   1.881   6.134   4.764
 4645SOL    HW114834   1.793   6.149   4.809
 4645SOL    HW214835   1.875   6.054   4.705
 4646SOL     OW14836   3.466   0.484   0.811
 4646SOL    HW114837   3.479   0.385   0.803
 4646SOL    HW214838   3.372   0.503   0.841
 4647SOL     OW14839   6.879   0.566   5.252
 4647SOL    HW114840   6.966   0.517   5.259
 4647SOL    HW214841   6.806   0.501   5.231
 4648SOL     OW14842   2.087   6.105   3.597
 4648SOL    HW114843   1.994   6.127   3.568
 4648SOL    HW214844   2.151   6.168   3.553
 4649SOL     OW14845   6.129   6.505   5.817
 4649SOL    HW114846   6.154   6.592   5.860
 4649SOL    HW214847   6.052   6.520   5.755
 4650SOL     OW14848   6.655   4.276   1.343
 4650SOL    HW114849   6.602   4.268   1.259
 4650SOL    HW214850   6.598   4.316   1.415
 4651SOL     OW14851   6.114   2.325   1.743
 4651SOL    HW114852   6.042   2.340   1.811
 4651SOL    HW214853   6.137   2.228   1.739
 4652SOL     OW14854   0.429   6.505   5.291
 4652SOL    HW114855   0.491   6.563   5.345
 4652SOL    HW214856   0.427   6.414   5.331
 4653SOL     OW14857   0.669   4.852   0.138
 4653SOL    HW114858   0.629   4.939   0.167
 4653SOL    HW214859   0.682   4.853   0.039
 4654SOL     OW14860   1.258   1.891   6.919
 4654SOL    HW114861   1.205   1.930   6.843
 4654SOL    HW214862   1.235   1.794   6.930
 4655SOL     OW14863   0.243   4.883   3.873
 4655SOL    HW114864   0.252   4.830   3.790
 4655SOL    HW214865   0.268   4.979   3.855
 4656SOL     OW14866   2.426   6.805   3.343
 4656SOL    HW114867   2.371   6.745   3.285
 4656SOL    HW214868   2.425   6.897   3.306
 4657SOL     OW14869   5.952   0.896   5.802
 4657SOL    HW114870   6.037   0.906   5.751
 4657SOL    HW214871   5.971   0.860   5.893
 4658SOL     OW14872   5.250   0.594   4.138
 4658SOL    HW114873   5.322   0.639   4.086
 4658SOL    HW214874   5.215   0.656   4.208
 4659SOL     OW14875   1.931   2.899   4.388
 4659SOL    HW114876   2.022   2.903   4.348
 4659SOL    HW214877   1.867   2.952   4.333
 4660SOL     OW14878   6.393   1.400   5.343
 4660SOL    HW114879   6.294   1.417   5.335
 4660SOL    HW214880   6.440   1.443   5.266
 4661SOL     OW14881   3.212   2.953   3.161
 4661SOL    HW114882   3.307   2.923   3.168
 4661SOL    HW214883   3.176   2.975   3.252
 4662SOL     OW14884   5.952   6.641   4.131
 4662SOL    HW114885   5.888   6.606   4.199
 4662SOL    HW214886   6.046   6.628   4.164
 4663SOL     OW14887   0.302   2.882   2.004
 4663SOL    HW114888   0.236   2.839   2.065
 4663SOL    HW214889   0.272   2.873   1.910
 4664SOL     OW14890   3.260   4.170   0.268
 4664SOL    HW114891   3.179   4.112   0.268
 4664SOL    HW214892   3.341   4.115   0.249
 4665SOL     OW14893   5.687   0.346   6.083
 4665SOL    HW114894   5.712   0.422   6.022
 4665SOL    HW214895   5.675   0.380   6.176
 4666SOL     OW14896   1.493   1.507   0.649
 4666SOL    HW114897   1.425   1.574   0.680
 4666SOL    HW214898   1.558   1.552   0.588
 4667SOL     OW14899   0.801   5.999   4.248
 4667SOL    HW114900   0.811   5.946   4.332
 4667SOL    HW214901   0.806   5.937   4.169
 4668SOL     OW14902   5.380   0.391   5.187
 4668SOL    HW114903   5.425   0.389   5.276
 4668SOL    HW214904   5.444   0.425   5.118
 4669SOL     OW14905   2.093   1.878   2.646
 4669SOL    HW114906   2.041   1.814   2.589
 4669SOL    HW214907   2.158   1.929   2.589
 4670SOL     OW14908   2.161   1.267   4.164
 4670SOL    HW114909   2.074   1.285   4.210
 4670SOL    HW214910   2.202   1.353   4.136
 4671SOL     OW14911   5.901   2.106   2.549
 4671SOL    HW114912   5.907   2.181   2.482
 4671SOL    HW214913   5.938   2.136   2.637
 4672SOL     OW14914   2.849   2.596   5.337
 4672SOL    HW114915   2.751   2.617   5.343
 4672SOL    HW214916   2.860   2.502   5.304
 4673SOL     OW14917   5.147   0.636   2.204
 4673SOL    HW114918   5.061   0.592   2.179
 4673SOL    HW214919   5.223   0.573   2.188
 4674SOL     OW14920   4.480   6.572   5.115
 4674SOL    HW114921   4.480   6.623   5.201
 4674SOL    HW214922   4.544   6.496   5.122
 4675SOL     OW14923   1.069   4.544   6.743
 4675SOL    HW114924   1.038   4.597   6.664
 4675SOL    HW214925   1.125   4.603   6.802
 4676SOL     OW14926   1.244   4.432   4.285
 4676SOL    HW114927   1.149   4.423   4.315
 4676SOL    HW214928   1.305   4.408   4.360
 4677SOL     OW14929   1.254   3.620   0.583
 4677SOL    HW114930   1.233   3.718   0.588
 4677SOL    HW214931   1.192   3.576   0.518
 4678SOL     OW14932   1.022   3.350   1.657
 4678SOL    HW114933   1.016   3.394   1.746
 4678SOL    HW214934   0.949   3.282   1.649
 4679SOL     OW14935   4.526   0.266   2.192
 4679SOL    HW114936   4.486   0.196   2.251
 4679SOL    HW214937   4.493   0.253   2.098
 4680SOL     OW14938   1.900   0.639   6.490
 4680SOL    HW114939   1.801   0.650   6.493
 4680SOL    HW214940   1.944   0.719   6.531
 4681SOL     OW14941   4.788   5.678   2.416
 4681SOL    HW114942   4.809   5.621   2.494
 4681SOL    HW214943   4.693   5.708   2.421
 4682SOL     OW14944   3.492   3.567   6.034
 4682SOL    HW114945   3.573   3.528   5.990
 4682SOL    HW214946   3.498   3.553   6.133
 4683SOL     OW14947   6.112   4.657   3.813
 4683SOL    HW114948   6.157   4.573   3.784
 4683SOL    HW214949   6.179   4.732   3.814
 4684SOL     OW14950   5.395   0.019   5.853
 4684SOL    HW114951   5.400   0.049   5.758
 4684SOL    HW214952   5.395   6.935   5.856
 4685SOL     OW14953   2.994   3.424   4.696
 4685SOL    HW114954   3.030   3.446   4.787
 4685SOL    HW214955   2.964   3.509   4.651
 4686SOL     OW14956   1.616   0.004   6.828
 4686SOL    HW114957   1.605   6.966   6.744
 4686SOL    HW214958   1.596   6.963   6.907
 4687SOL     OW14959   1.758   0.472   2.722
 4687SOL    HW114960   1.674   0.422   2.745
 4687SOL    HW214961   1.771   0.547   2.787
 4688SOL     OW14962   4.903   2.770   4.999
 4688SOL    HW114963   4.965   2.831   4.950
 4688SOL    HW214964   4.897   2.683   4.951
 4689SOL     OW14965   6.642   1.399   1.227
 4689SOL    HW114966   6.678   1.337   1.158
 4689SOL    HW214967   6.622   1.488   1.186
 4690SOL     OW14968   3.305   2.719   0.686
 4690SOL    HW114969   3.308   2.789   0.758
 4690SOL    HW214970   3.351   2.636   0.718
 4691SOL     OW14971   6.620   3.348   1.668
 4691SOL    HW114972   6.611   3.294   1.751
 4691SOL    HW214973   6.710   3.332   1.627
 4692SOL     OW14974   5.000   3.048   2.420
 4692SOL    HW114975   5.015   3.011   2.328
 4692SOL    HW214976   5.076   3.021   2.479
 4693SOL     OW14977   0.476   0.109   3.044
 4693SOL    HW114978   0.410   0.033   3.045
 4693SOL    HW214979   0.448   0.175   2.975
 4694SOL     OW14980   2.243   6.757   5.930
 4694SOL    HW114981   2.151   6.785   5.957
 4694SOL    HW214982   2.299   6.839   5.914
 4695SOL     OW14983   1.876   5.010   2.014
 4695SOL    HW114984   1.793   5.050   2.054
 4695SOL    HW214985   1.861   4.912   1.999
 4696SOL     OW14986   1.702   6.369   6.139
 4696SOL    HW114987   1.619   6.375   6.195
 4696SOL    HW214988   1.707   6.279   6.097
 4697SOL     OW14989   4.329   5.489   1.296
 4697SOL    HW114990   4.315   5.451   1.205
 4697SOL    HW214991   4.297   5.423   1.365
 4698SOL     OW14992   5.858   1.209   4.769
 4698SOL    HW114993   5.827   1.215   4.675
 4698SOL    HW214994   5.929   1.277   4.786
 4699SOL     OW14995   0.846   1.275   2.722
 4699SOL    HW114996   0.923   1.333   2.747
 4699SOL    HW214997   0.871   1.178   2.733
 4700SOL     OW14998   6.372   1.688   3.208
 4700SOL    HW114999   6.411   1.755   3.271
 4700SOL    HW215000   6.277   1.670   3.233
 4701SOL     OW15001   2.906   2.665   1.709
 4701SOL    HW115002   2.913   2.601   1.786
 4701SOL    HW215003   2.939   2.621   1.626
 4702SOL     OW15004   6.113   5.020   0.832
 4702SOL    HW115005   6.016   5.020   0.808
 4702SOL    HW215006   6.139   5.112   0.864
 4703SOL     OW15007   0.343   5.402   3.968
 4703SOL    HW115008   0.327   5.454   3.884
 4703SOL    HW215009   0.263   5.410   4.028
 4704SOL     OW15010   2.018   4.832   4.462
 4704SOL    HW115011   2.075   4.751   4.477
 4704SOL    HW215012   1.969   4.823   4.375
 4705SOL     OW15013   3.265   2.078   1.962
 4705SOL    HW115014   3.326   2.114   1.891
 4705SOL    HW215015   3.185   2.037   1.919
 4706SOL     OW15016   2.247   1.288   1.000
 4706SOL    HW115017   2.342   1.280   1.030
 4706SOL    HW215018   2.190   1.313   1.078
 4707SOL     OW15019   1.393   5.483   2.037
 4707SOL    HW115020   1.456   5.532   1.976
 4707SOL    HW215021   1.409   5.385   2.029
 4708SOL     OW15022   1.895   3.098   6.063
 4708SOL    HW115023   1.922   3.002   6.053
 4708SOL    HW215024   1.977   3.154   6.077
 4709SOL     OW15025   5.448   4.234   5.244
 4709SOL    HW115026   5.429   4.313   5.302
 4709SOL    HW215027   5.431   4.150   5.296
 4710SOL     OW15028   6.048   5.780   5.074
 4710SOL    HW115029   5.959   5.745   5.046
 4710SOL    HW215030   6.065   5.756   5.169
 4711SOL     OW15031   5.111   4.377   2.447
 4711SOL    HW115032   5.127   4.298   2.388
 4711SOL    HW215033   5.190   4.439   2.442
 4712SOL     OW15034   3.628   4.433   6.073
 4712SOL    HW115035   3.530   4.437   6.093
 4712SOL    HW215036   3.642   4.402   5.979
 4713SOL     OW15037   5.637   4.431   0.765
 4713SOL    HW115038   5.597   4.344   0.736
 4713SOL    HW215039   5.639   4.434   0.865
 4714SOL     OW15040   4.069   2.006   6.471
 4714SOL    HW115041   3.981   2.009   6.519
 4714SOL    HW215042   4.078   2.088   6.413
 4715SOL     OW15043   6.394   1.788   2.371
 4715SOL    HW115044   6.435   1.785   2.280
 4715SOL    HW215045   6.392   1.696   2.410
 4716SOL     OW15046   3.156   4.280   5.593
 4716SOL    HW115047   3.149   4.247   5.499
 4716SOL    HW215048   3.083   4.346   5.611
 4717SOL     OW15049   2.210   5.071   5.815
 4717SOL    HW115050   2.114   5.060   5.790
 4717SOL    HW215051   2.265   5.081   5.732
 4718SOL     OW15052   4.774   4.322   1.922
 4718SOL    HW115053   4.821   4.234   1.909
 4718SOL    HW215054   4.688   4.306   1.970
 4719SOL     OW15055   5.618   4.434   3.999
 4719SOL    HW115056   5.671   4.363   3.953
 4719SOL    HW215057   5.527   4.439   3.959
 4720SOL     OW15058   1.552   2.119   6.605
 4720SOL    HW115059   1.512   2.126   6.513
 4720SOL    HW215060   1.487   2.155   6.672
 4721SOL     OW15061   0.748   3.125   2.394
 4721SOL    HW115062   0.700   3.089   2.315
 4721SOL    HW215063   0.841   3.089   2.396
 4722SOL     OW15064   1.425   5.103   6.157
 4722SOL    HW115065   1.335   5.082   6.194
 4722SOL    HW215066   1.446   5.200   6.174
 4723SOL     OW15067   2.875   4.784   6.566
 4723SOL    HW115068   2.834   4.853   6.625
 4723SOL    HW215069   2.812   4.762   6.491
 4724SOL     OW15070   0.249   6.962   3.882
 4724SOL    HW115071   0.167   0.002   3.875
 4724SOL    HW215072   0.330   0.004   3.886
 4725SOL     OW15073   6.337   4.759   1.052
 4725SOL    HW115074   6.403   4.696   1.093
 4725SOL    HW215075   6.364   4.779   0.958
 4726SOL     OW15076   1.451   2.808   6.085
 4726SOL    HW115077   1.428   2.753   6.165
 4726SOL    HW215078   1.483   2.748   6.012
 4727SOL     OW15079   6.554   5.213   1.366
 4727SOL    HW115080   6.479   5.225   1.301
 4727SOL    HW215081   6.587   5.303   1.395
 4728SOL     OW15082   5.048   1.106   3.499
 4728SOL    HW115083   4.984   1.095   3.575
 4728SOL    HW215084   5.033   1.195   3.455
 4729SOL     OW15085   6.542   1.389   2.998
 4729SOL    HW115086   6.529   1.488   2.986
 4729SOL    HW215087   6.469   1.340   2.950
 4730SOL     OW15088   3.248   0.666   3.364
 4730SOL    HW115089   3.225   0.756   3.402
 4730SOL    HW215090   3.230   0.595   3.432
 4731SOL     OW15091   3.466   6.872   2.010
 4731SOL    HW115092   3.552   6.822   2.026
 4731SOL    HW215093   3.467   6.957   2.062
 4732SOL     OW15094   0.195   5.111   4.861
 4732SOL    HW115095   0.286   5.129   4.900
 4732SOL    HW215096   0.193   5.017   4.826
 4733SOL     OW15097   1.387   4.152   2.366
 4733SOL    HW115098   1.376   4.246   2.399
 4733SOL    HW215099   1.474   4.144   2.317
 4734SOL     OW15100   4.866   3.973   6.559
 4734SOL    HW115101   4.878   4.067   6.528
 4734SOL    HW215102   4.773   3.961   6.594
 4735SOL     OW15103   0.120   0.686   5.081
 4735SOL    HW115104   0.106   0.624   5.158
 4735SOL    HW215105   0.045   0.752   5.077
 4736SOL     OW15106   6.377   0.972   3.932
 4736SOL    HW115107   6.457   0.938   3.983
 4736SOL    HW215108   6.358   0.911   3.856
 4737SOL     OW15109   2.411   5.201   0.212
 4737SOL    HW115110   2.314   5.212   0.231
 4737SOL    HW215111   2.423   5.142   0.131
 4738SOL     OW15112   0.934   5.548   4.003
 4738SOL    HW115113   0.860   5.609   4.032
 4738SOL    HW215114   1.001   5.600   3.951
 4739SOL     OW15115   6.087   3.266   3.290
 4739SOL    HW115116   6.178   3.307   3.281
 4739SOL    HW215117   6.093   3.169   3.266
 4740SOL     OW15118   1.872   6.855   0.906
 4740SOL    HW115119   1.800   6.904   0.956
 4740SOL    HW215120   1.919   6.793   0.969
 4741SOL     OW15121   5.896   4.475   1.271
 4741SOL    HW115122   5.974   4.517   1.319
 4741SOL    HW215123   5.826   4.544   1.255
 4742SOL     OW15124   1.868   5.636   1.958
 4742SOL    HW115125   1.778   5.660   1.923
 4742SOL    HW215126   1.867   5.639   2.058
 4743SOL     OW15127   2.477   3.814   0.165
 4743SOL    HW115128   2.477   3.903   0.209
 4743SOL    HW215129   2.492   3.825   0.067
 4744SOL     OW15130   2.963   2.060   5.369
 4744SOL    HW115131   2.877   2.010   5.380
 4744SOL    HW215132   2.966   2.101   5.278
 4745SOL     OW15133   4.455   5.783   4.481
 4745SOL    HW115134   4.363   5.744   4.484
 4745SOL    HW215135   4.489   5.796   4.574
 4746SOL     OW15136   5.887   1.429   1.246
 4746SOL    HW115137   5.896   1.419   1.346
 4746SOL    HW215138   5.973   1.404   1.203
 4747SOL     OW15139   0.901   2.864   2.171
 4747SOL    HW115140   0.949   2.942   2.130
 4747SOL    HW215141   0.964   2.814   2.231
 4748SOL     OW15142   2.177   0.163   0.632
 4748SOL    HW115143   2.160   0.215   0.549
 4748SOL    HW215144   2.131   0.208   0.709
 4749SOL     OW15145   3.459   0.838   0.163
 4749SOL    HW115146   3.533   0.876   0.220
 4749SOL    HW215147   3.396   0.787   0.221
 4750SOL     OW15148   0.812   1.788   4.934
 4750SOL    HW115149   0.890   1.781   4.871
 4750SOL    HW215150   0.764   1.701   4.937
 4751SOL     OW15151   1.362   3.777   6.697
 4751SOL    HW115152   1.343   3.682   6.676
 4751SOL    HW215153   1.279   3.832   6.685
 4752SOL     OW15154   2.313   5.799   1.112
 4752SOL    HW115155   2.387   5.736   1.136
 4752SOL    HW215156   2.349   5.893   1.108
 4753SOL     OW15157   0.743   0.273   6.469
 4753SOL    HW115158   0.814   0.214   6.508
 4753SOL    HW215159   0.763   0.292   6.373
 4754SOL     OW15160   1.421   1.405   6.308
 4754SOL    HW115161   1.518   1.382   6.320
 4754SOL    HW215162   1.407   1.444   6.217
 4755SOL     OW15163   2.962   6.997   2.539
 4755SOL    HW115164   2.901   6.988   2.460
 4755SOL    HW215165   3.047   0.025   2.510
 4756SOL     OW15166   5.575   1.957   1.382
 4756SOL    HW115167   5.531   2.044   1.405
 4756SOL    HW215168   5.540   1.925   1.294
 4757SOL     OW15169   2.453   2.317   1.093
 4757SOL    HW115170   2.519   2.388   1.068
 4757SOL    HW215171   2.419   2.273   1.011
 4758SOL     OW15172   5.816   3.653   6.136
 4758SOL    HW115173   5.885   3.724   6.133
 4758SOL    HW215174   5.843   3.577   6.077
 4759SOL     OW15175   6.702   4.321   6.622
 4759SOL    HW115176   6.689   4.374   6.705
 4759SOL    HW215177   6.775   4.361   6.567
 4760SOL     OW15178   1.661   2.457   0.200
 4760SOL    HW115179   1.688   2.511   0.120
 4760SOL    HW215180   1.659   2.360   0.175
 4761SOL     OW15181   2.284   6.029   6.321
 4761SOL    HW115182   2.296   6.024   6.420
 4761SOL    HW215183   2.281   5.937   6.283
 4762SOL     OW15184   3.790   6.733   2.412
 4762SOL    HW115185   3.747   6.643   2.412
 4762SOL    HW215186   3.723   6.802   2.384
 4763SOL     OW15187   5.231   5.911   5.536
 4763SOL    HW115188   5.209   5.887   5.441
 4763SOL    HW215189   5.147   5.914   5.590
 4764SOL     OW15190   4.057   3.484   3.811
 4764SOL    HW115191   4.058   3.583   3.824
 4764SOL    HW215192   4.085   3.463   3.717
 4765SOL     OW15193   5.770   5.143   6.434
 4765SOL    HW115194   5.834   5.207   6.476
 4765SOL    HW215195   5.804   5.049   6.444
 4766SOL     OW15196   3.005   1.235   3.390
 4766SOL    HW115197   2.955   1.244   3.476
 4766SOL    HW215198   3.096   1.197   3.408
 4767SOL     OW15199   4.612   0.399   6.994
 4767SOL    HW115200   4.632   0.352   6.907
 4767SOL    HW215201   4.522   0.443   6.988
 4768SOL     OW15202   1.528   1.100   5.121
 4768SOL    HW115203   1.538   1.127   5.216
 4768SOL    HW215204   1.610   1.049   5.092
 4769SOL     OW15205   4.979   0.937   1.815
 4769SOL    HW115206   5.069   0.924   1.774
 4769SOL    HW215207   4.986   0.997   1.895
 4770SOL     OW15208   2.265   0.577   4.179
 4770SOL    HW115209   2.171   0.606   4.159
 4770SOL    HW215210   2.322   0.658   4.191
 4771SOL     OW15211   3.921   4.365   5.554
 4771SOL    HW115212   3.948   4.415   5.472
 4771SOL    HW215213   3.854   4.295   5.530
 4772SOL     OW15214   3.326   2.434   6.913
 4772SOL    HW115215   3.324   2.352   6.855
 4772SOL    HW215216   3.414   2.440   6.959
 4773SOL     OW15217   6.993   4.923   4.618
 4773SOL    HW115218   0.038   4.988   4.572
 4773SOL    HW215219   0.030   4.861   4.674
 4774SOL     OW15220   1.268   4.469   0.049
 4774SOL    HW115221   1.272   4.471   0.148
 4774SOL    HW215222   1.182   4.426   0.019
 4775SOL     OW15223   1.960   2.362   2.597
 4775SOL    HW115224   1.908   2.446   2.612
 4775SOL    HW215225   1.901   2.283   2.610
 4776SOL     OW15226   4.247   5.042   1.840
 4776SOL    HW115227   4.339   5.038   1.878
 4776SOL    HW215228   4.247   5.003   1.748
 4777SOL     OW15229   2.402   3.716   1.660
 4777SOL    HW115230   2.363   3.764   1.581
 4777SOL    HW215231   2.336   3.717   1.735
 4778SOL     OW15232   5.197   3.422   2.926
 4778SOL    HW115233   5.114   3.472   2.949
 4778SOL    HW215234   5.191   3.390   2.831
 4779SOL     OW15235   4.911   1.205   2.726
 4779SOL    HW115236   4.953   1.115   2.735
 4779SOL    HW215237   4.896   1.226   2.629
 4780SOL     OW15238   2.219   1.661   5.379
 4780SOL    HW115239   2.278   1.584   5.405
 4780SOL    HW215240   2.245   1.694   5.289
 4781SOL     OW15241   1.823   5.730   2.871
 4781SOL    HW115242   1.902   5.729   2.809
 4781SOL    HW215243   1.855   5.737   2.965
 4782SOL     OW15244   6.198   5.879   0.285
 4782SOL    HW115245   6.121   5.943   0.286
 4782SOL    HW215246   6.246   5.886   0.197
 4783SOL     OW15247   6.210   3.789   2.592
 4783SOL    HW115248   6.138   3.858   2.583
 4783SOL    HW215249   6.171   3.699   2.573
 4784SOL     OW15250   5.113   4.902   5.118
 4784SOL    HW115251   5.018   4.872   5.133
 4784SOL    HW215252   5.164   4.893   5.204
 4785SOL     OW15253   5.832   6.794   0.555
 4785SOL    HW115254   5.929   6.813   0.571
 4785SOL    HW215255   5.820   6.696   0.539
 4786SOL     OW15256   1.512   3.706   2.337
 4786SOL    HW115257   1.544   3.625   2.386
 4786SOL    HW215258   1.447   3.755   2.394
 4787SOL     OW15259   4.245   2.256   3.413
 4787SOL    HW115260   4.291   2.196   3.348
 4787SOL    HW215261   4.305   2.333   3.436
 4788SOL     OW15262   2.155   0.289   5.086
 4788SOL    HW115263   2.183   0.369   5.032
 4788SOL    HW215264   2.124   0.217   5.024
 4789SOL     OW15265   5.089   6.161   0.357
 4789SOL    HW115266   5.156   6.181   0.285
 4789SOL    HW215267   5.077   6.241   0.415
 4790SOL     OW15268   5.464   0.171   6.710
 4790SOL    HW115269   5.367   0.175   6.687
 4790SOL    HW215270   5.484   0.085   6.758
 4791SOL     OW15271   4.256   1.891   3.536
 4791SOL    HW115272   4.275   1.928   3.446
 4791SOL    HW215273   4.183   1.823   3.530
 4792SOL     OW15274   2.992   2.738   1.045
 4792SOL    HW115275   2.968   2.771   1.137
 4792SOL    HW215276   2.994   2.815   0.982
 4793SOL     OW15277   0.695   0.144   6.814
 4793SOL    HW115278   0.612   0.176   6.768
 4793SOL    HW215279   0.675   0.128   6.911
 4794SOL     OW15280   5.077   1.556   2.100
 4794SOL    HW115281   5.111   1.622   2.032
 4794SOL    HW215282   5.104   1.464   2.073
 4795SOL     OW15283   6.086   2.734   4.173
 4795SOL    HW115284   6.184   2.742   4.156
 4795SOL    HW215285   6.038   2.810   4.129
 4796SOL     OW15286   5.692   3.202   0.346
 4796SOL    HW115287   5.751   3.177   0.268
 4796SOL    HW215288   5.703   3.299   0.365
 4797SOL     OW15289   1.079   5.797   4.833
 4797SOL    HW115290   1.045   5.762   4.746
 4797SOL    HW215291   1.150   5.737   4.869
 4798SOL     OW15292   6.810   4.864   5.837
 4798SOL    HW115293   6.876   4.799   5.799
 4798SOL    HW215294   6.839   4.893   5.928
 4799SOL     OW15295   5.075   1.400   4.157
 4799SOL    HW115296   5.022   1.363   4.233
 4799SOL    HW215297   5.039   1.364   4.071
 4800SOL     OW15298   1.960   3.084   4.014
 4800SOL    HW115299   2.059   3.071   4.013
 4800SOL    HW215300   1.927   3.099   3.921
 4801SOL     OW15301   6.997   2.323   0.857
 4801SOL    HW115302   6.991   2.223   0.852
 4801SOL    HW215303   0.068   2.353   0.819
 4802SOL     OW15304   1.563   0.365   2.143
 4802SOL    HW115305   1.652   0.326   2.117
 4802SOL    HW215306   1.577   0.455   2.185
 4803SOL     OW15307   1.685   0.391   0.499
 4803SOL    HW115308   1.605   0.397   0.558
 4803SOL    HW215309   1.768   0.383   0.554
 4804SOL     OW15310   4.890   6.025   0.068
 4804SOL    HW115311   4.838   5.990   7.006
 4804SOL    HW215312   4.913   5.949   0.129
 4805SOL     OW15313   0.095   6.941   1.654
 4805SOL    HW115314   0.038   6.967   1.576
 4805SOL    HW215315   0.173   6.887   1.622
 4806SOL     OW15316   0.065   2.255   3.798
 4806SOL    HW115317   0.047   2.157   3.809
 4806SOL    HW215318   0.131   2.269   3.724
 4807SOL     OW15319   1.022   6.926   2.409
 4807SOL    HW115320   1.040   6.936   2.507
 4807SOL    HW215321   0.952   6.991   2.380
 4808SOL     OW15322   6.401   2.689   0.547
 4808SOL    HW115323   6.356   2.657   0.630
 4808SOL    HW215324   6.351   2.767   0.510
 4809SOL     OW15325   4.792   0.068   0.686
 4809SOL    HW115326   4.692   0.066   0.681
 4809SOL    HW215327   4.831   0.031   0.602
 4810SOL     OW15328   2.061   6.573   0.234
 4810SOL    HW115329   2.102   6.525   0.156
 4810SOL    HW215330   1.993   6.638   0.201
 4811SOL     OW15331   5.251   3.545   3.616
 4811SOL    HW115332   5.245   3.634   3.661
 4811SOL    HW215333   5.344   3.510   3.624
 4812SOL     OW15334   6.007   5.219   3.990
 4812SOL    HW115335   6.014   5.119   3.994
 4812SOL    HW215336   6.029   5.257   4.080
 4813SOL     OW15337   5.538   3.217   2.918
 4813SOL    HW115338   5.470   3.167   2.864
 4813SOL    HW215339   5.549   3.171   3.007
 4814SOL     OW15340   6.714   3.172   0.819
 4814SOL    HW115341   6.679   3.247   0.874
 4814SOL    HW215342   6.734   3.094   0.878
 4815SOL     OW15343   4.873   0.819   3.169
 4815SOL    HW115344   4.947   0.887   3.172
 4815SOL    HW215345   4.894   0.745   3.233
 4816SOL     OW15346   5.229   4.929   3.499
 4816SOL    HW115347   5.269   4.993   3.433
 4816SOL    HW215348   5.303   4.879   3.546
 4817SOL     OW15349   5.945   1.544   6.997
 4817SOL    HW115350   5.946   1.555   6.898
 4817SOL    HW215351   5.862   1.496   0.008
 4818SOL     OW15352   0.171   5.755   3.346
 4818SOL    HW115353   0.199   5.775   3.440
 4818SOL    HW215354   0.117   5.671   3.344
 4819SOL     OW15355   2.098   2.962   0.723
 4819SOL    HW115356   2.060   2.913   0.801
 4819SOL    HW215357   2.131   3.051   0.752
 4820SOL     OW15358   6.615   3.369   2.246
 4820SOL    HW115359   6.644   3.426   2.168
 4820SOL    HW215360   6.626   3.273   2.223
 4821SOL     OW15361   0.504   5.660   3.753
 4821SOL    HW115362   0.421   5.604   3.756
 4821SOL    HW215363   0.578   5.608   3.710
 4822SOL     OW15364   2.306   4.516   4.242
 4822SOL    HW115365   2.305   4.591   4.308
 4822SOL    HW215366   2.221   4.464   4.250
 4823SOL     OW15367   1.262   2.155   0.649
 4823SOL    HW115368   1.277   2.083   0.581
 4823SOL    HW215369   1.306   2.239   0.619
 4824SOL     OW15370   6.627   1.894   0.035
 4824SOL    HW115371   6.535   1.926   0.058
 4824SOL    HW215372   6.689   1.914   0.111
 4825SOL     OW15373   0.937   6.599   3.921
 4825SOL    HW115374   0.841   6.583   3.946
 4825SOL    HW215375   0.994   6.590   4.003
 4826SOL     OW15376   4.447   6.109   0.669
 4826SOL    HW115377   4.357   6.065   0.672
 4826SOL    HW215378   4.518   6.040   0.655
 4827SOL     OW15379   5.805   1.389   0.852
 4827SOL    HW115380   5.789   1.378   0.754
 4827SOL    HW215381   5.846   1.306   0.889
 4828SOL     OW15382   5.032   0.949   6.626
 4828SOL    HW115383   4.949   0.929   6.679
 4828SOL    HW215384   5.019   0.917   6.532
 4829SOL     OW15385   3.957   6.177   5.435
 4829SOL    HW115386   3.884   6.201   5.371
 4829SOL    HW215387   3.984   6.259   5.486
 4830SOL     OW15388   1.576   6.581   3.883
 4830SOL    HW115389   1.642   6.656   3.889
 4830SOL    HW215390   1.500   6.609   3.824
 4831SOL     OW15391   3.509   4.946   5.752
 4831SOL    HW115392   3.516   4.847   5.753
 4831SOL    HW215393   3.462   4.976   5.669
 4832SOL     OW15394   4.057   3.777   4.789
 4832SOL    HW115395   4.068   3.693   4.736
 4832SOL    HW215396   4.114   3.772   4.871
 4833SOL     OW15397   5.797   2.458   5.047
 4833SOL    HW115398   5.841   2.498   4.967
 4833SOL    HW215399   5.820   2.512   5.129
 4834SOL     OW15400   0.663   5.023   1.082
 4834SOL    HW115401   0.593   5.067   1.026
 4834SOL    HW215402   0.712   4.956   1.026
 4835SOL     OW15403   0.027   3.299   5.762
 4835SOL    HW115404   6.984   3.332   5.835
 4835SOL    HW215405   0.123   3.310   5.790
 4836SOL     OW15406   4.763   1.221   5.661
 4836SOL    HW115407   4.688   1.225   5.727
 4836SOL    HW215408   4.791   1.314   5.637
 4837SOL     OW15409   1.382   3.552   4.841
 4837SOL    HW115410   1.383   3.456   4.868
 4837SOL    HW215411   1.308   3.568   4.775
 4838SOL     OW15412   1.880   4.139   6.077
 4838SOL    HW115413   1.864   4.040   6.071
 4838SOL    HW215414   1.965   4.162   6.030
 4839SOL     OW15415   3.034   1.319   2.594
 4839SOL    HW115416   3.068   1.403   2.552
 4839SOL    HW215417   3.106   1.279   2.651
 4840SOL     OW15418   4.767   2.844   4.369
 4840SOL    HW115419   4.853   2.891   4.387
 4840SOL    HW215420   4.707   2.902   4.314
 4841SOL     OW15421   3.050   5.724   3.073
 4841SOL    HW115422   3.114   5.783   3.024
 4841SOL    HW215423   2.959   5.732   3.033
 4842SOL     OW15424   4.487   5.742   3.713
 4842SOL    HW115425   4.567   5.795   3.742
 4842SOL    HW215426   4.510   5.645   3.715
 4843SOL     OW15427   5.313   1.649   1.033
 4843SOL    HW115428   5.228   1.662   0.982
 4843SOL    HW215429   5.387   1.625   0.970
 4844SOL     OW15430   1.458   5.072   6.658
 4844SOL    HW115431   1.477   5.045   6.564
 4844SOL    HW215432   1.541   5.062   6.713
 4845SOL     OW15433   4.991   4.046   4.823
 4845SOL    HW115434   4.946   3.960   4.797
 4845SOL    HW215435   5.076   4.026   4.870
 4846SOL     OW15436   6.403   4.075   4.812
 4846SOL    HW115437   6.435   4.164   4.845
 4846SOL    HW215438   6.382   4.081   4.715
 4847SOL     OW15439   3.314   6.983   0.371
 4847SOL    HW115440   3.349   6.903   0.321
 4847SOL    HW215441   3.389   0.010   0.421
 4848SOL     OW15442   4.686   1.584   3.716
 4848SOL    HW115443   4.642   1.635   3.641
 4848SOL    HW215444   4.740   1.509   3.678
 4849SOL     OW15445   1.220   5.709   2.067
 4849SOL    HW115446   1.284   5.785   2.062
 4849SOL    HW215447   1.267   5.624   2.046
 4850SOL     OW15448   3.370   6.643   2.174
 4850SOL    HW115449   3.403   6.731   2.206
 4850SOL    HW215450   3.358   6.646   2.075
 4851SOL     OW15451   4.377   4.633   6.865
 4851SOL    HW115452   4.434   4.679   6.933
 4851SOL    HW215453   4.406   4.538   6.856
 4852SOL     OW15454   4.725   4.791   5.714
 4852SOL    HW115455   4.755   4.819   5.623
 4852SOL    HW215456   4.630   4.761   5.711
 4853SOL     OW15457   3.936   0.322   2.573
 4853SOL    HW115458   3.905   0.274   2.655
 4853SOL    HW215459   4.036   0.329   2.574
 4854SOL     OW15460   4.357   6.393   2.331
 4854SOL    HW115461   4.363   6.384   2.430
 4854SOL    HW215462   4.355   6.302   2.289
 4855SOL     OW15463   4.148   4.867   5.730
 4855SOL    HW115464   4.048   4.879   5.724
 4855SOL    HW215465   4.177   4.800   5.663
 4856SOL     OW15466   0.644   2.684   2.579
 4856SOL    HW115467   0.644   2.766   2.523
 4856SOL    HW215468   0.554   2.641   2.575
 4857SOL     OW15469   2.012   2.363   6.035
 4857SOL    HW115470   2.015   2.316   5.946
 4857SOL    HW215471   2.094   2.419   6.045
 4858SOL     OW15472   1.581   5.098   4.468
 4858SOL    HW115473   1.639   5.158   4.523
 4858SOL    HW215474   1.639   5.044   4.406
 4859SOL     OW15475   6.478   5.527   3.886
 4859SOL    HW115476   6.565   5.480   3.869
 4859SOL    HW215477   6.493   5.626   3.885
 4860SOL     OW15478   4.019   5.442   1.262
 4860SOL    HW115479   3.921   5.423   1.257
 4860SOL    HW215480   4.035   5.526   1.313
 4861SOL     OW15481   5.859   5.052   5.091
 4861SOL    HW115482   5.864   4.957   5.060
 4861SOL    HW215483   5.763   5.078   5.105
 4862SOL     OW15484   2.266   5.694   4.783
 4862SOL    HW115485   2.245   5.621   4.848
 4862SOL    HW215486   2.240   5.665   4.691
 4863SOL     OW15487   5.655   1.499   2.369
 4863SOL    HW115488   5.703   1.513   2.283
 4863SOL    HW215489   5.693   1.560   2.439
 4864SOL     OW15490   2.350   2.913   1.769
 4864SOL    HW115491   2.378   2.908   1.673
 4864SOL    HW215492   2.292   2.993   1.782
 4865SOL     OW15493   3.789   6.600   4.975
 4865SOL    HW115494   3.690   6.619   4.978
 4865SOL    HW215495   3.808   6.532   4.905
 4866SOL     OW15496   0.098   5.381   1.493
 4866SOL    HW115497   0.106   5.301   1.554
 4866SOL    HW215498   0.179   5.387   1.435
 4867SOL     OW15499   5.429   4.944   5.716
 4867SOL    HW115500   5.469   4.913   5.630
 4867SOL    HW215501   5.392   5.036   5.705
 4868SOL     OW15502   1.688   6.121   1.821
 4868SOL    HW115503   1.611   6.082   1.770
 4868SOL    HW215504   1.732   6.049   1.874
 4869SOL     OW15505   0.158   1.811   2.207
 4869SOL    HW115506   0.203   1.825   2.118
 4869SOL    HW215507   0.206   1.740   2.257
 4870SOL     OW15508   6.037   0.856   0.737
 4870SOL    HW115509   6.037   0.901   0.647
 4870SOL    HW215510   5.955   0.800   0.747
 4871SOL     OW15511   1.833   2.437   5.570
 4871SOL    HW115512   1.832   2.492   5.654
 4871SOL    HW215513   1.904   2.367   5.577
 4872SOL     OW15514   1.774   2.187   2.733
 4872SOL    HW115515   1.698   2.244   2.764
 4872SOL    HW215516   1.847   2.191   2.801
 4873SOL     OW15517   1.216   0.110   5.287
 4873SOL    HW115518   1.307   0.111   5.330
 4873SOL    HW215519   1.210   0.032   5.225
 4874SOL     OW15520   5.972   1.924   4.093
 4874SOL    HW115521   6.011   1.995   4.152
 4874SOL    HW215522   5.902   1.873   4.144
 4875SOL     OW15523   0.226   3.166   6.961
 4875SOL    HW115524   0.221   3.088   0.007
 4875SOL    HW215525   0.284   3.237   7.000
 4876SOL     OW15526   6.810   1.044   7.008
 4876SOL    HW115527   6.763   1.040   6.920
 4876SOL    HW215528   6.867   1.126   7.011
 4877SOL     OW15529   4.637   2.235   1.435
 4877SOL    HW115530   4.552   2.281   1.407
 4877SOL    HW215531   4.692   2.297   1.491
 4878SOL     OW15532   1.186   2.896   1.894
 4878SOL    HW115533   1.249   2.818   1.895
 4878SOL    HW215534   1.179   2.931   1.800
 4879SOL     OW15535   3.714   6.265   4.000
 4879SOL    HW115536   3.671   6.196   3.942
 4879SOL    HW215537   3.763   6.331   3.943
 4880SOL     OW15538   6.658   1.863   5.824
 4880SOL    HW115539   6.564   1.889   5.847
 4880SOL    HW215540   6.667   1.764   5.829
 4881SOL     OW15541   2.893   6.129   6.234
 4881SOL    HW115542   2.885   6.191   6.156
 4881SOL    HW215543   2.938   6.044   6.205
 4882SOL     OW15544   5.575   5.557   6.784
 4882SOL    HW115545   5.502   5.535   6.720
 4882SOL    HW215546   5.587   5.481   6.848
 4883SOL     OW15547   6.108   5.600   0.030
 4883SOL    HW115548   6.085   5.691   7.010
 4883SOL    HW215549   6.169   5.610   0.108
 4884SOL     OW15550   3.589   6.442   1.910
 4884SOL    HW115551   3.633   6.485   1.989
 4884SOL    HW215552   3.600   6.500   1.830
 4885SOL     OW15553   1.687   0.625   2.255
 4885SOL    HW115554   1.740   0.588   2.332
 4885SOL    HW215555   1.611   0.679   2.289
 4886SOL     OW15556   6.009   0.699   5.436
 4886SOL    HW115557   6.065   0.743   5.365
 4886SOL    HW215558   6.068   0.668   5.510
 4887SOL     OW15559   0.255   1.628   5.159
 4887SOL    HW115560   0.296   1.699   5.102
 4887SOL    HW215561   0.231   1.550   5.101
 4888SOL     OW15562   4.359   5.846   1.697
 4888SOL    HW115563   4.407   5.923   1.655
 4888SOL    HW215564   4.412   5.762   1.683
 4889SOL     OW15565   1.601   3.554   6.697
 4889SOL    HW115566   1.635   3.596   6.781
 4889SOL    HW215567   1.502   3.538   6.705
 4890SOL     OW15568   0.483   0.333   4.328
 4890SOL    HW115569   0.558   0.268   4.340
 4890SOL    HW215570   0.397   0.289   4.351
 4891SOL     OW15571   0.960   4.785   0.703
 4891SOL    HW115572   0.881   4.782   0.766
 4891SOL    HW215573   0.962   4.874   0.658
 4892SOL     OW15574   1.790   5.968   2.045
 4892SOL    HW115575   1.771   5.875   2.013
 4892SOL    HW215576   1.739   5.986   2.129
 4893SOL     OW15577   0.213   4.293   6.417
 4893SOL    HW115578   0.237   4.347   6.337
 4893SOL    HW215579   0.265   4.325   6.496
 4894SOL     OW15580   0.808   6.785   2.964
 4894SOL    HW115581   0.797   6.786   2.864
 4894SOL    HW215582   0.873   6.713   2.989
 4895SOL     OW15583   6.189   3.982   6.916
 4895SOL    HW115584   6.216   4.058   6.856
 4895SOL    HW215585   6.170   4.018   7.008
 4896SOL     OW15586   4.186   0.228   4.047
 4896SOL    HW115587   4.190   0.169   4.127
 4896SOL    HW215588   4.145   0.316   4.072
 4897SOL     OW15589   2.740   5.448   6.361
 4897SOL    HW115590   2.802   5.511   6.314
 4897SOL    HW215591   2.677   5.407   6.294
 4898SOL     OW15592   5.177   2.400   4.407
 4898SOL    HW115593   5.109   2.469   4.429
 4898SOL    HW215594   5.268   2.436   4.428
 4899SOL     OW15595   6.112   3.991   4.319
 4899SOL    HW115596   6.208   3.966   4.306
 4899SOL    HW215597   6.065   3.920   4.370
 4900SOL     OW15598   1.089   6.812   4.946
 4900SOL    HW115599   0.996   6.829   4.916
 4900SOL    HW215600   1.090   6.731   5.006
 4901SOL     OW15601   6.224   6.175   3.397
 4901SOL    HW115602   6.164   6.243   3.439
 4901SOL    HW215603   6.193   6.155   3.304
 4902SOL     OW15604   3.692   5.180   0.879
 4902SOL    HW115605   3.677   5.250   0.949
 4902SOL    HW215606   3.694   5.090   0.923
 4903SOL     OW15607   5.980   5.005   6.160
 4903SOL    HW115608   5.916   4.984   6.235
 4903SOL    HW215609   5.931   5.056   6.089
 4904SOL     OW15610   2.992   0.510   3.521
 4904SOL    HW115611   3.054   0.432   3.522
 4904SOL    HW215612   3.039   0.591   3.557
 4905SOL     OW15613   6.322   3.414   2.821
 4905SOL    HW115614   6.268   3.452   2.746
 4905SOL    HW215615   6.417   3.443   2.812
 4906SOL     OW15616   4.831   0.187   1.479
 4906SOL    HW115617   4.765   0.112   1.481
 4906SOL    HW215618   4.836   0.231   1.569
 4907SOL     OW15619   2.526   2.481   1.622
 4907SOL    HW115620   2.458   2.417   1.659
 4907SOL    HW215621   2.588   2.510   1.695
 4908SOL     OW15622   5.138   5.348   6.574
 4908SOL    HW115623   5.174   5.319   6.663
 4908SOL    HW215624   5.093   5.437   6.584
 4909SOL     OW15625   6.369   6.601   5.619
 4909SOL    HW115626   6.309   6.522   5.625
 4909SOL    HW215627   6.368   6.637   5.526
 4910SOL     OW15628   5.007   6.701   5.528
 4910SOL    HW115629   5.074   6.768   5.561
 4910SOL    HW215630   4.926   6.703   5.587
 4911SOL     OW15631   0.240   4.007   6.578
 4911SOL    HW115632   0.284   3.971   6.496
 4911SOL    HW215633   0.223   4.105   6.568
 4912SOL     OW15634   2.251   2.993   1.504
 4912SOL    HW115635   2.335   2.998   1.448
 4912SOL    HW215636   2.193   2.919   1.470
 4913SOL     OW15637   2.953   3.180   2.037
 4913SOL    HW115638   2.911   3.107   2.090
 4913SOL    HW215639   2.916   3.269   2.064
 4914SOL     OW15640   1.374   6.740   2.670
 4914SOL    HW115641   1.440   6.690   2.726
 4914SOL    HW215642   1.314   6.674   2.624
 4915SOL     OW15643   3.522   6.583   3.998
 4915SOL    HW115644   3.581   6.545   3.927
 4915SOL    HW215645   3.571   6.656   4.046
 4916SOL     OW15646   1.106   1.925   1.906
 4916SOL    HW115647   1.061   2.014   1.898
 4916SOL    HW215648   1.114   1.883   1.816
 4917SOL     OW15649   1.391   4.111   6.890
 4917SOL    HW115650   1.410   4.208   6.881
 4917SOL    HW215651   1.407   4.065   6.803
 4918SOL     OW15652   2.673   6.704   3.835
 4918SOL    HW115653   2.677   6.719   3.934
 4918SOL    HW215654   2.591   6.748   3.798
 4919SOL     OW15655   2.510   3.009   1.390
 4919SOL    HW115656   2.560   2.974   1.311
 4919SOL    HW215657   2.516   3.109   1.393
 4920SOL     OW15658   3.251   1.428   0.129
 4920SOL    HW115659   3.230   1.525   0.142
 4920SOL    HW215660   3.338   1.419   0.079
 4921SOL     OW15661   6.421   5.146   2.431
 4921SOL    HW115662   6.417   5.133   2.332
 4921SOL    HW215663   6.402   5.059   2.478
 4922SOL     OW15664   0.992   2.478   6.009
 4922SOL    HW115665   1.024   2.571   6.026
 4922SOL    HW215666   0.951   2.442   6.093
 4923SOL     OW15667   3.017   2.282   6.667
 4923SOL    HW115668   2.969   2.279   6.755
 4923SOL    HW215669   3.041   2.377   6.645
 4924SOL     OW15670   0.471   3.022   4.251
 4924SOL    HW115671   0.432   2.982   4.333
 4924SOL    HW215672   0.534   3.096   4.277
 4925SOL     OW15673   4.286   5.205   5.228
 4925SOL    HW115674   4.279   5.232   5.132
 4925SOL    HW215675   4.292   5.105   5.235
 4926SOL     OW15676   4.149   3.298   0.383
 4926SOL    HW115677   4.180   3.358   0.309
 4926SOL    HW215678   4.216   3.227   0.399
 4927SOL     OW15679   3.048   3.690   2.100
 4927SOL    HW115680   3.105   3.737   2.167
 4927SOL    HW215681   3.098   3.611   2.063
 4928SOL     OW15682   0.039   1.260   7.012
 4928SOL    HW115683   0.068   1.260   0.091
 4928SOL    HW215684   0.092   1.192   6.961
 4929SOL     OW15685   0.391   4.263   4.217
 4929SOL    HW115686   0.362   4.353   4.184
 4929SOL    HW215687   0.440   4.272   4.303
 4930SOL     OW15688   0.384   3.584   0.264
 4930SOL    HW115689   0.423   3.600   0.354
 4930SOL    HW215690   0.456   3.587   0.195
 4931SOL     OW15691   5.406   6.708   1.064
 4931SOL    HW115692   5.406   6.756   1.152
 4931SOL    HW215693   5.500   6.684   1.039
 4932SOL     OW15694   3.350   1.533   1.065
 4932SOL    HW115695   3.281   1.604   1.072
 4932SOL    HW215696   3.441   1.574   1.069
 4933SOL     OW15697   2.950   0.219   5.072
 4933SOL    HW115698   2.932   0.121   5.081
 4933SOL    HW215699   3.022   0.232   5.004
 4934SOL     OW15700   1.933   5.715   4.939
 4934SOL    HW115701   1.853   5.672   4.981
 4934SOL    HW215702   1.990   5.755   5.011
 4935SOL     OW15703   2.171   2.613   0.777
 4935SOL    HW115704   2.088   2.669   0.779
 4935SOL    HW215705   2.166   2.544   0.850
 4936SOL     OW15706   6.409   4.315   1.520
 4936SOL    HW115707   6.458   4.351   1.600
 4936SOL    HW215708   6.396   4.217   1.530
 4937SOL     OW15709   0.578   3.428   4.825
 4937SOL    HW115710   0.665   3.477   4.832
 4937SOL    HW215711   0.544   3.410   4.918
 4938SOL     OW15712   3.467   4.188   1.186
 4938SOL    HW115713   3.553   4.221   1.226
 4938SOL    HW215714   3.392   4.203   1.250
 4939SOL     OW15715   1.178   1.409   1.379
 4939SOL    HW115716   1.153   1.360   1.463
 4939SOL    HW215717   1.117   1.380   1.305
 4940SOL     OW15718   1.292   1.773   5.452
 4940SOL    HW115719   1.322   1.691   5.501
 4940SOL    HW215720   1.362   1.799   5.386
 4941SOL     OW15721   4.233   2.007   5.565
 4941SOL    HW115722   4.243   2.061   5.648
 4941SOL    HW215723   4.137   2.005   5.538
 4942SOL     OW15724   0.008   1.128   2.313
 4942SOL    HW115725   0.071   1.059   2.348
 4942SOL    HW215726   0.058   1.194   2.257
 4943SOL     OW15727   5.112   2.326   6.212
 4943SOL    HW115728   5.120   2.379   6.127
 4943SOL    HW215729   5.092   2.388   6.288
 4944SOL     OW15730   0.990   4.992   0.531
 4944SOL    HW115731   0.914   5.057   0.542
 4944SOL    HW215732   0.977   4.940   0.446
 4945SOL     OW15733   2.328   6.750   6.205
 4945SOL    HW115734   2.383   6.833   6.190
 4945SOL    HW215735   2.271   6.733   6.125
 4946SOL     OW15736   2.729   5.820   0.345
 4946SOL    HW115737   2.714   5.915   0.373
 4946SOL    HW215738   2.702   5.809   0.250
 4947SOL     OW15739   1.093   6.990   1.216
 4947SOL    HW115740   1.099   7.009   1.314
 4947SOL    HW215741   1.155   0.035   1.166
 4948SOL     OW15742   1.399   2.813   2.276
 4948SOL    HW115743   1.431   2.743   2.340
 4948SOL    HW215744   1.346   2.770   2.203
 4949SOL     OW15745   6.134   4.502   6.220
 4949SOL    HW115746   6.232   4.523   6.222
 4949SOL    HW215747   6.081   4.586   6.231
 4950SOL     OW15748   4.027   4.322   5.796
 4950SOL    HW115749   4.000   4.332   5.700
 4950SOL    HW215750   4.126   4.335   5.804
 4951SOL     OW15751   5.222   5.535   3.132
 4951SOL    HW115752   5.229   5.454   3.073
 4951SOL    HW215753   5.134   5.535   3.178
 4952SOL     OW15754   0.946   0.984   6.466
 4952SOL    HW115755   0.963   1.054   6.535
 4952SOL    HW215756   0.897   0.907   6.507
 4953SOL     OW15757   1.622   1.569   6.029
 4953SOL    HW115758   1.678   1.520   5.962
 4953SOL    HW215759   1.527   1.538   6.021
 4954SOL     OW15760   3.356   3.506   5.154
 4954SOL    HW115761   3.267   3.547   5.173
 4954SOL    HW215762   3.357   3.412   5.188
 4955SOL     OW15763   4.163   6.005   0.045
 4955SOL    HW115764   4.259   6.007   0.018
 4955SOL    HW215765   4.156   6.020   0.144
 4956SOL     OW15766   2.392   0.184   4.562
 4956SOL    HW115767   2.359   0.274   4.593
 4956SOL    HW215768   2.419   0.190   4.466
 4957SOL     OW15769   5.876   5.441   0.039
 4957SOL    HW115770   5.916   5.354   0.011
 4957SOL    HW215771   5.947   5.512   0.035
 4958SOL     OW15772   3.516   5.493   0.060
 4958SOL    HW115773   3.608   5.469   0.089
 4958SOL    HW215774   3.454   5.416   0.075
 4959SOL     OW15775   0.045   2.198   3.167
 4959SOL    HW115776   0.077   2.293   3.175
 4959SOL    HW215777   6.993   2.181   3.238
 4960SOL     OW15778   4.708   4.209   3.995
 4960SOL    HW115779   4.659   4.285   3.953
 4960SOL    HW215780   4.806   4.231   4.000
 4961SOL     OW15781   3.601   3.109   2.209
 4961SOL    HW115782   3.665   3.156   2.149
 4961SOL    HW215783   3.543   3.048   2.154
 4962SOL     OW15784   1.704   2.345   0.443
 4962SOL    HW115785   1.696   2.398   0.360
 4962SOL    HW215786   1.724   2.249   0.420
 4963SOL     OW15787   0.414   4.046   7.012
 4963SOL    HW115788   0.352   4.014   0.067
 4963SOL    HW215789   0.499   3.992   7.015
 4964SOL     OW15790   1.654   4.618   4.059
 4964SOL    HW115791   1.717   4.583   4.129
 4964SOL    HW215792   1.690   4.594   3.968
 4965SOL     OW15793   2.212   0.270   3.383
 4965SOL    HW115794   2.240   0.314   3.468
 4965SOL    HW215795   2.227   0.332   3.306
 4966SOL     OW15796   4.257   0.139   5.168
 4966SOL    HW115797   4.283   0.184   5.254
 4966SOL    HW215798   4.271   0.203   5.092
 4967SOL     OW15799   4.546   4.416   3.899
 4967SOL    HW115800   4.456   4.421   3.943
 4967SOL    HW215801   4.577   4.508   3.876
 4968SOL     OW15802   6.650   3.005   3.869
 4968SOL    HW115803   6.642   3.015   3.968
 4968SOL    HW215804   6.636   2.909   3.844
 4969SOL     OW15805   0.440   5.693   4.173
 4969SOL    HW115806   0.345   5.680   4.199
 4969SOL    HW215807   0.446   5.765   4.104
 4970SOL     OW15808   2.191   1.280   1.493
 4970SOL    HW115809   2.147   1.215   1.556
 4970SOL    HW215810   2.280   1.244   1.465
 4971SOL     OW15811   0.111   5.867   1.785
 4971SOL    HW115812   0.084   5.829   1.696
 4971SOL    HW215813   0.191   5.817   1.819
 4972SOL     OW15814   0.299   3.921   0.236
 4972SOL    HW115815   0.348   3.843   0.273
 4972SOL    HW215816   0.203   3.897   0.222
 4973SOL     OW15817   5.355   2.559   6.425
 4973SOL    HW115818   5.418   2.590   6.495
 4973SOL    HW215819   5.371   2.462   6.406
 4974SOL     OW15820   3.335   6.949   5.626
 4974SOL    HW115821   3.252   6.988   5.585
 4974SOL    HW215822   3.350   6.988   5.716
 4975SOL     OW15823   6.022   3.926   1.495
 4975SOL    HW115824   6.060   4.018   1.504
 4975SOL    HW215825   5.932   3.932   1.452
 4976SOL     OW15826   0.795   0.241   3.831
 4976SOL    HW115827   0.734   0.280   3.900
 4976SOL    HW215828   0.806   0.143   3.848
 4977SOL     OW15829   1.353   3.452   5.122
 4977SOL    HW115830   1.412   3.406   5.188
 4977SOL    HW215831   1.405   3.519   5.070
 4978SOL     OW15832   6.325   5.247   4.635
 4978SOL    HW115833   6.271   5.310   4.580
 4978SOL    HW215834   6.282   5.156   4.633
 4979SOL     OW15835   3.112   6.752   6.412
 4979SOL    HW115836   3.102   6.698   6.495
 4979SOL    HW215837   3.112   6.691   6.333
 4980SOL     OW15838   5.722   2.906   3.863
 4980SOL    HW115839   5.762   2.988   3.821
 4980SOL    HW215840   5.628   2.925   3.890
 4981SOL     OW15841   3.750   6.371   3.558
 4981SOL    HW115842   3.748   6.369   3.458
 4981SOL    HW215843   3.837   6.333   3.590
 4982SOL     OW15844   4.354   1.635   4.765
 4982SOL    HW115845   4.362   1.553   4.821
 4982SOL    HW215846   4.331   1.611   4.671
 4983SOL     OW15847   5.962   3.299   3.019
 4983SOL    HW115848   5.901   3.235   2.973
 4983SOL    HW215849   5.989   3.262   3.108
 4984SOL     OW15850   4.864   3.795   4.855
 4984SOL    HW115851   4.928   3.768   4.784
 4984SOL    HW215852   4.835   3.715   4.907
 4985SOL     OW15853   5.468   0.368   2.227
 4985SOL    HW115854   5.377   0.370   2.184
 4985SOL    HW215855   5.502   0.461   2.238
 4986SOL     OW15856   1.766   5.520   1.077
 4986SOL    HW115857   1.705   5.443   1.057
 4986SOL    HW215858   1.799   5.513   1.171
 4987SOL     OW15859   1.978   3.634   2.339
 4987SOL    HW115860   2.005   3.572   2.265
 4987SOL    HW215861   1.966   3.726   2.303
 4988SOL     OW15862   6.223   5.563   4.240
 4988SOL    HW115863   6.309   5.558   4.190
 4988SOL    HW215864   6.176   5.649   4.218
 4989SOL     OW15865   6.774   6.654   3.562
 4989SOL    HW115866   6.746   6.750   3.565
 4989SOL    HW215867   6.695   6.597   3.538
 4990SOL     OW15868   5.050   1.841   5.795
 4990SOL    HW115869   5.116   1.887   5.854
 4990SOL    HW215870   5.084   1.750   5.772
 4991SOL     OW15871   1.980   5.334   5.753
 4991SOL    HW115872   1.898   5.365   5.801
 4991SOL    HW215873   1.996   5.392   5.673
 4992SOL     OW15874   1.936   3.288   5.305
 4992SOL    HW115875   1.881   3.321   5.228
 4992SOL    HW215876   1.918   3.190   5.319
 4993SOL     OW15877   2.328   5.714   3.875
 4993SOL    HW115878   2.316   5.786   3.943
 4993SOL    HW215879   2.293   5.628   3.911
 4994SOL     OW15880   3.180   5.322   5.593
 4994SOL    HW115881   3.103   5.268   5.626
 4994SOL    HW215882   3.231   5.358   5.671
 4995SOL     OW15883   0.248   1.439   5.807
 4995SOL    HW115884   0.261   1.346   5.773
 4995SOL    HW215885   0.226   1.500   5.731
 4996SOL     OW15886   0.046   0.885   4.290
 4996SOL    HW115887   0.028   0.960   4.354
 4996SOL    HW215888   0.085   0.922   4.206
 4997SOL     OW15889   4.326   1.268   0.656
 4997SOL    HW115890   4.235   1.288   0.691
 4997SOL    HW215891   4.322   1.187   0.597
 4998SOL     OW15892   1.004   3.609   3.761
 4998SOL    HW115893   1.080   3.673   3.748
 4998SOL    HW215894   0.917   3.659   3.755
 4999SOL     OW15895   0.512   2.876   3.839
 4999SOL    HW115896   0.466   2.905   3.755
 4999SOL    HW215897   0.531   2.956   3.896
 5000SOL     OW15898   3.175   6.353   3.149
 5000SOL    HW115899   3.271   6.332   3.168
 5000SOL    HW215900   3.161   6.452   3.154
 5001SOL     OW15901   0.388   5.668   3.172
 5001SOL    HW115902   0.328   5.686   3.250
 5001SOL    HW215903   0.425   5.755   3.138
 5002SOL     OW15904   1.069   4.725   3.878
 5002SOL    HW115905   1.151   4.672   3.858
 5002SOL    HW215906   1.095   4.815   3.913
 5003SOL     OW15907   3.385   0.802   1.647
 5003SOL    HW115908   3.442   0.721   1.638
 5003SOL    HW215909   3.411   0.869   1.578
 5004SOL     OW15910   4.274   6.030   0.363
 5004SOL    HW115911   4.359   5.979   0.372
 5004SOL    HW215912   4.275   6.107   0.427
 5005SOL     OW15913   3.743   3.245   0.911
 5005SOL    HW115914   3.818   3.309   0.895
 5005SOL    HW215915   3.781   3.159   0.946
 5006SOL     OW15916   5.174   0.446   3.014
 5006SOL    HW115917   5.159   0.511   2.939
 5006SOL    HW215918   5.264   0.404   3.004
 5007SOL     OW15919   5.954   5.325   2.511
 5007SOL    HW115920   6.010   5.323   2.594
 5007SOL    HW215921   6.002   5.376   2.439
 5008SOL     OW15922   5.176   6.843   3.644
 5008SOL    HW115923   5.147   6.886   3.730
 5008SOL    HW215924   5.231   6.762   3.665
 5009SOL     OW15925   0.223   1.509   6.978
 5009SOL    HW115926   0.158   1.433   6.984
 5009SOL    HW215927   0.189   1.587   0.013
 5010SOL     OW15928   5.071   4.018   0.950
 5010SOL    HW115929   5.133   4.044   0.876
 5010SOL    HW215930   5.113   3.947   1.006
 5011SOL     OW15931   1.851   2.775   6.349
 5011SOL    HW115932   1.814   2.685   6.327
 5011SOL    HW215933   1.783   2.826   6.403
 5012SOL     OW15934   6.560   1.982   6.313
 5012SOL    HW115935   6.470   1.947   6.287
 5012SOL    HW215936   6.561   2.001   6.411
 5013SOL     OW15937   5.476   0.082   5.599
 5013SOL    HW115938   5.569   0.085   5.636
 5013SOL    HW215939   5.474   0.024   5.518
 5014SOL     OW15940   6.025   3.780   0.845
 5014SOL    HW115941   6.114   3.747   0.812
 5014SOL    HW215942   6.026   3.784   0.945
 5015SOL     OW15943   6.186   5.435   4.508
 5015SOL    HW115944   6.223   5.523   4.481
 5015SOL    HW215945   6.144   5.391   4.428
 5016SOL     OW15946   1.602   2.543   6.574
 5016SOL    HW115947   1.513   2.582   6.551
 5016SOL    HW215948   1.595   2.489   6.657
 5017SOL     OW15949   1.015   2.196   1.933
 5017SOL    HW115950   0.952   2.253   1.880
 5017SOL    HW215951   1.109   2.227   1.917
 5018SOL     OW15952   0.991   0.976   0.176
 5018SOL    HW115953   0.898   0.940   0.182
 5018SOL    HW215954   1.053   0.916   0.226
 5019SOL     OW15955   1.687   4.027   4.222
 5019SOL    HW115956   1.642   3.954   4.273
 5019SOL    HW215957   1.786   4.023   4.238
 5020SOL     OW15958   1.519   7.015   3.876
 5020SOL    HW115959   1.564   7.015   3.966
 5020SOL    HW215960   1.424   0.028   3.887
 5021SOL     OW15961   1.992   0.401   1.584
 5021SOL    HW115962   1.986   0.319   1.529
 5021SOL    HW215963   1.905   0.417   1.631
 5022SOL     OW15964   6.864   2.641   0.747
 5022SOL    HW115965   6.938   2.586   0.707
 5022SOL    HW215966   6.903   2.704   0.815
 5023SOL     OW15967   0.132   3.221   2.647
 5023SOL    HW115968   0.049   3.164   2.644
 5023SOL    HW215969   0.135   3.278   2.564
 5024SOL     OW15970   4.680   4.269   0.130
 5024SOL    HW115971   4.620   4.340   0.166
 5024SOL    HW215972   4.630   4.213   0.063
 5025SOL     OW15973   4.995   1.911   4.932
 5025SOL    HW115974   5.024   1.815   4.936
 5025SOL    HW215975   5.073   1.968   4.907
 5026SOL     OW15976   5.149   6.092   4.997
 5026SOL    HW115977   5.069   6.123   4.945
 5026SOL    HW215978   5.138   5.995   5.019
 5027SOL     OW15979   5.073   6.493   0.882
 5027SOL    HW115980   5.101   6.464   0.974
 5027SOL    HW215981   5.044   6.413   0.830
 5028SOL     OW15982   6.319   1.475   2.824
 5028SOL    HW115983   6.345   1.566   2.792
 5028SOL    HW215984   6.258   1.484   2.903
 5029SOL     OW15985   5.406   2.584   2.316
 5029SOL    HW115986   5.330   2.537   2.271
 5029SOL    HW215987   5.435   2.661   2.260
 5030SOL     OW15988   0.363   3.554   0.867
 5030SOL    HW115989   0.330   3.530   0.776
 5030SOL    HW215990   0.461   3.573   0.863
 5031SOL     OW15991   6.467   0.247   6.150
 5031SOL    HW115992   6.510   0.160   6.128
 5031SOL    HW215993   6.430   0.243   6.243
 5032SOL     OW15994   2.539   4.228   6.036
 5032SOL    HW115995   2.614   4.294   6.034
 5032SOL    HW215996   2.456   4.272   6.072
 5033SOL     OW15997   1.821   6.427   5.450
 5033SOL    HW115998   1.825   6.379   5.362
 5033SOL    HW215999   1.868   6.372   5.519
 5034SOL     OW16000   3.975   5.927   3.954
 5034SOL    HW116001   3.901   5.877   3.910
 5034SOL    HW216002   4.006   6.001   3.893
 5035SOL     OW16003   1.950   3.780   3.149
 5035SOL    HW116004   1.864   3.744   3.113
 5035SOL    HW216005   2.011   3.705   3.172
 5036SOL     OW16006   1.127   3.631   4.705
 5036SOL    HW116007   1.147   3.575   4.625
 5036SOL    HW216008   1.101   3.723   4.675
 5037SOL     OW16009   5.143   4.786   1.277
 5037SOL    HW116010   5.071   4.717   1.285
 5037SOL    HW216011   5.108   4.864   1.225
 5038SOL     OW16012   2.939   3.855   3.835
 5038SOL    HW116013   2.895   3.945   3.840
 5038SOL    HW216014   3.037   3.865   3.851
 5039SOL     OW16015   0.577   3.636   6.725
 5039SOL    HW116016   0.543   3.726   6.751
 5039SOL    HW216017   0.568   3.625   6.626
 5040SOL     OW16018   0.355   1.689   5.424
 5040SOL    HW116019   0.313   1.688   5.333
 5040SOL    HW216020   0.435   1.628   5.423
 5041SOL     OW16021   6.627   1.913   2.033
 5041SOL    HW116022   6.676   1.900   1.947
 5041SOL    HW216023   6.617   2.011   2.051
 5042SOL     OW16024   1.157   2.069   6.028
 5042SOL    HW116025   1.223   2.141   6.006
 5042SOL    HW216026   1.064   2.106   6.023
 5043SOL     OW16027   2.923   6.624   1.791
 5043SOL    HW116028   2.958   6.615   1.698
 5043SOL    HW216029   2.954   6.711   1.831
 5044SOL     OW16030   0.089   5.943   6.831
 5044SOL    HW116031   0.161   5.986   6.886
 5044SOL    HW216032   0.016   6.009   6.815
 5045SOL     OW16033   5.884   2.699   1.022
 5045SOL    HW116034   5.828   2.677   0.942
 5045SOL    HW216035   5.837   2.767   1.078
 5046SOL     OW16036   3.890   3.177   2.319
 5046SOL    HW116037   3.983   3.156   2.350
 5046SOL    HW216038   3.882   3.276   2.304
 5047SOL     OW16039   1.865   4.166   3.170
 5047SOL    HW116040   1.874   4.256   3.212
 5047SOL    HW216041   1.940   4.107   3.200
 5048SOL     OW16042   2.687   0.279   5.899
 5048SOL    HW116043   2.677   0.373   5.932
 5048SOL    HW216044   2.640   0.269   5.811
 5049SOL     OW16045   4.104   1.418   6.618
 5049SOL    HW116046   4.129   1.432   6.713
 5049SOL    HW216047   4.075   1.505   6.577
 5050SOL     OW16048   1.650   0.653   0.745
 5050SOL    HW116049   1.571   0.615   0.697
 5050SOL    HW216050   1.619   0.699   0.828
 5051SOL     OW16051   4.498   4.803   1.039
 5051SOL    HW116052   4.570   4.804   1.108
 5051SOL    HW216053   4.448   4.716   1.046
 5052SOL     OW16054   2.070   3.358   4.385
 5052SOL    HW116055   2.125   3.409   4.451
 5052SOL    HW216056   2.092   3.390   4.293
 5053SOL     OW16057   6.375   0.553   0.584
 5053SOL    HW116058   6.405   0.469   0.629
 5053SOL    HW216059   6.453   0.613   0.570
 5054SOL     OW16060   4.134   5.191   3.685
 5054SOL    HW116061   4.061   5.195   3.617
 5054SOL    HW216062   4.219   5.163   3.640
 5055SOL     OW16063   0.130   3.672   5.350
 5055SOL    HW116064   0.108   3.669   5.447
 5055SOL    HW216065   0.046   3.662   5.297
 5056SOL     OW16066   6.073   4.368   3.412
 5056SOL    HW116067   6.117   4.425   3.343
 5056SOL    HW216068   6.139   4.342   3.482
 5057SOL     OW16069   6.734   6.103   2.391
 5057SOL    HW116070   6.776   6.172   2.450
 5057SOL    HW216071   6.779   6.103   2.302
 5058SOL     OW16072   2.412   5.571   6.094
 5058SOL    HW116073   2.361   5.607   6.016
 5058SOL    HW216074   2.379   5.479   6.116
 5059SOL     OW16075   6.686   0.741   2.018
 5059SOL    HW116076   6.736   0.664   2.057
 5059SOL    HW216077   6.703   0.823   2.073
 5060SOL     OW16078   0.131   2.196   6.675
 5060SOL    HW116079   0.111   2.139   6.595
 5060SOL    HW216080   0.152   2.138   6.753
 5061SOL     OW16081   5.501   3.367   0.707
 5061SOL    HW116082   5.425   3.303   0.701
 5061SOL    HW216083   5.516   3.391   0.803
 5062SOL     OW16084   6.786   0.224   0.111
 5062SOL    HW116085   6.880   0.192   0.110
 5062SOL    HW216086   6.774   0.292   0.184
 5063SOL     OW16087   1.430   6.460   2.491
 5063SOL    HW116088   1.520   6.431   2.522
 5063SOL    HW216089   1.362   6.393   2.519
 5064SOL     OW16090   5.073   3.942   6.753
 5064SOL    HW116091   5.119   3.854   6.747
 5064SOL    HW216092   4.986   3.937   6.703
 5065SOL     OW16093   3.013   6.678   6.158
 5065SOL    HW116094   3.063   6.620   6.093
 5065SOL    HW216095   2.932   6.716   6.113
 5066SOL     OW16096   4.508   4.902   0.773
 5066SOL    HW116097   4.553   4.823   0.731
 5066SOL    HW216098   4.513   4.894   0.872
 5067SOL     OW16099   5.107   1.198   6.725
 5067SOL    HW116100   5.098   1.106   6.688
 5067SOL    HW216101   5.043   1.259   6.678
 5068SOL     OW16102   3.656   4.915   1.046
 5068SOL    HW116103   3.692   4.882   0.959
 5068SOL    HW216104   3.577   4.859   1.072
 5069SOL     OW16105   6.632   5.196   3.081
 5069SOL    HW116106   6.560   5.148   3.131
 5069SOL    HW216107   6.651   5.284   3.125
 5070SOL     OW16108   4.916   2.739   3.577
 5070SOL    HW116109   4.915   2.669   3.649
 5070SOL    HW216110   4.822   2.760   3.549
 5071SOL     OW16111   4.843   0.847   0.812
 5071SOL    HW116112   4.829   0.880   0.719
 5071SOL    HW216113   4.807   0.914   0.877
 5072SOL     OW16114   0.692   3.604   1.465
 5072SOL    HW116115   0.666   3.668   1.537
 5072SOL    HW216116   0.792   3.594   1.464
 5073SOL     OW16117   4.034   2.072   3.257
 5073SOL    HW116118   4.018   2.115   3.345
 5073SOL    HW216119   3.948   2.065   3.207
 5074SOL     OW16120   4.192   4.594   5.314
 5074SOL    HW116121   4.142   4.678   5.290
 5074SOL    HW216122   4.232   4.555   5.231
 5075SOL     OW16123   7.002   6.904   3.659
 5075SOL    HW116124   6.990   7.000   3.686
 5075SOL    HW216125   0.001   6.848   3.741
 5076SOL     OW16126   4.602   0.247   0.844
 5076SOL    HW116127   4.569   0.164   0.798
 5076SOL    HW216128   4.664   0.296   0.782
 5077SOL     OW16129   6.836   2.442   2.458
 5077SOL    HW116130   6.776   2.393   2.522
 5077SOL    HW216131   6.781   2.481   2.384
 5078SOL     OW16132   6.786   0.982   4.484
 5078SOL    HW116133   6.740   1.001   4.571
 5078SOL    HW216134   6.881   1.014   4.489
 5079SOL     OW16135   4.744   4.839   4.808
 5079SOL    HW116136   4.759   4.929   4.767
 5079SOL    HW216137   4.753   4.768   4.738
 5080SOL     OW16138   5.779   1.011   6.066
 5080SOL    HW116139   5.720   1.044   5.993
 5080SOL    HW216140   5.815   0.921   6.042
 5081SOL     OW16141   2.875   3.520   2.924
 5081SOL    HW116142   2.799   3.491   2.982
 5081SOL    HW216143   2.862   3.484   2.832
 5082SOL     OW16144   0.344   1.184   5.764
 5082SOL    HW116145   0.444   1.191   5.767
 5082SOL    HW216146   0.318   1.092   5.736
 5083SOL     OW16147   0.960   4.336   2.256
 5083SOL    HW116148   0.873   4.334   2.305
 5083SOL    HW216149   1.003   4.245   2.261
 5084SOL     OW16150   0.938   5.771   2.308
 5084SOL    HW116151   0.972   5.862   2.288
 5084SOL    HW216152   0.983   5.704   2.249
 5085SOL     OW16153   6.704   3.394   6.623
 5085SOL    HW116154   6.619   3.411   6.573
 5085SOL    HW216155   6.775   3.457   6.590
 5086SOL     OW16156   6.158   5.575   4.766
 5086SOL    HW116157   6.207   5.504   4.816
 5086SOL    HW216158   6.134   5.541   4.675
 5087SOL     OW16159   5.649   5.279   5.320
 5087SOL    HW116160   5.652   5.182   5.296
 5087SOL    HW216161   5.742   5.316   5.322
 5088SOL     OW16162   6.647   0.935   6.770
 5088SOL    HW116163   6.701   0.855   6.741
 5088SOL    HW216164   6.583   0.907   6.841
 5089SOL     OW16165   5.497   2.738   4.364
 5089SOL    HW116166   5.440   2.690   4.298
 5089SOL    HW216167   5.478   2.703   4.456
 5090SOL     OW16168   1.437   5.328   0.442
 5090SOL    HW116169   1.500   5.401   0.467
 5090SOL    HW216170   1.362   5.364   0.386
 5091SOL     OW16171   0.858   5.989   3.166
 5091SOL    HW116172   0.782   5.982   3.230
 5091SOL    HW216173   0.899   5.899   3.153
 5092SOL     OW16174   3.440   2.823   1.568
 5092SOL    HW116175   3.478   2.885   1.637
 5092SOL    HW216176   3.501   2.818   1.489
 5093SOL     OW16177   0.745   1.411   1.798
 5093SOL    HW116178   0.767   1.337   1.735
 5093SOL    HW216179   0.696   1.483   1.749
 5094SOL     OW16180   0.334   0.014   6.414
 5094SOL    HW116181   0.283   6.991   6.491
 5094SOL    HW216182   0.400   6.963   6.380
 5095SOL     OW16183   3.329   0.407   5.266
 5095SOL    HW116184   3.271   0.462   5.207
 5095SOL    HW216185   3.397   0.466   5.310
 5096SOL     OW16186   3.841   6.220   2.976
 5096SOL    HW116187   3.831   6.148   3.045
 5096SOL    HW216188   3.785   6.197   2.896
 5097SOL     OW16189   1.148   1.961   6.691
 5097SOL    HW116190   1.170   1.914   6.606
 5097SOL    HW216191   1.074   2.025   6.676
 5098SOL     OW16192   0.285   2.783   3.144
 5098SOL    HW116193   0.292   2.767   3.243
 5098SOL    HW216194   0.348   2.856   3.118
 5099SOL     OW16195   0.347   0.904   4.376
 5099SOL    HW116196   0.303   0.860   4.297
 5099SOL    HW216197   0.428   0.955   4.346
 5100SOL     OW16198   4.466   5.235   5.715
 5100SOL    HW116199   4.469   5.314   5.777
 5100SOL    HW216200   4.533   5.167   5.745
 5101SOL     OW16201   5.628   6.047   0.833
 5101SOL    HW116202   5.614   6.099   0.750
 5101SOL    HW216203   5.548   5.989   0.850
 5102SOL     OW16204   3.387   5.646   4.065
 5102SOL    HW116205   3.326   5.705   4.012
 5102SOL    HW216206   3.401   5.686   4.156
 5103SOL     OW16207   1.298   1.438   3.788
 5103SOL    HW116208   1.343   1.450   3.877
 5103SOL    HW216209   1.206   1.476   3.793
 5104SOL     OW16210   0.641   0.773   0.638
 5104SOL    HW116211   0.739   0.753   0.627
 5104SOL    HW216212   0.620   0.780   0.735
 5105SOL     OW16213   0.935   3.038   6.784
 5105SOL    HW116214   0.880   2.957   6.764
 5105SOL    HW216215   0.875   3.112   6.815
 5106SOL     OW16216   2.416   6.870   2.494
 5106SOL    HW116217   2.329   6.821   2.495
 5106SOL    HW216218   2.460   6.859   2.404
 5107SOL     OW16219   2.176   6.710   6.611
 5107SOL    HW116220   2.181   6.752   6.702
 5107SOL    HW216221   2.163   6.782   6.542
 5108SOL     OW16222   3.420   4.078   4.624
 5108SOL    HW116223   3.503   4.024   4.612
 5108SOL    HW216224   3.366   4.076   4.540
 5109SOL     OW16225   6.784   1.930   2.775
 5109SOL    HW116226   6.880   1.916   2.750
 5109SOL    HW216227   6.725   1.892   2.702
 5110SOL     OW16228   2.498   6.187   5.318
 5110SOL    HW116229   2.541   6.111   5.367
 5110SOL    HW216230   2.560   6.265   5.315
 5111SOL     OW16231   1.691   0.353   6.672
 5111SOL    HW116232   1.698   0.447   6.706
 5111SOL    HW216233   1.769   0.333   6.612
 5112SOL     OW16234   0.050   6.943   2.579
 5112SOL    HW116235   0.134   6.973   2.623
 5112SOL    HW216236   6.988   6.993   2.616
 5113SOL     OW16237   0.826   0.692   6.141
 5113SOL    HW116238   0.813   0.790   6.152
 5113SOL    HW216239   0.887   0.658   6.213
 5114SOL     OW16240   4.574   5.779   6.638
 5114SOL    HW116241   4.598   5.709   6.572
 5114SOL    HW216242   4.616   5.866   6.612
 5115SOL     OW16243   2.672   3.954   5.300
 5115SOL    HW116244   2.735   4.000   5.237
 5115SOL    HW216245   2.580   3.956   5.262
 5116SOL     OW16246   6.713   3.988   1.354
 5116SOL    HW116247   6.705   4.085   1.332
 5116SOL    HW216248   6.784   3.947   1.297
 5117SOL     OW16249   2.149   4.898   2.845
 5117SOL    HW116250   2.092   4.845   2.782
 5117SOL    HW216251   2.235   4.922   2.799
 5118SOL     OW16252   4.070   6.999   1.449
 5118SOL    HW116253   4.021   0.069   1.465
 5118SOL    HW216254   4.060   6.973   1.353
 5119SOL     OW16255   6.137   0.652   2.397
 5119SOL    HW116256   6.074   0.659   2.320
 5119SOL    HW216257   6.208   0.585   2.376
 5120SOL     OW16258   3.142   1.454   1.970
 5120SOL    HW116259   3.134   1.356   1.990
 5120SOL    HW216260   3.190   1.466   1.884
 5121SOL     OW16261   0.499   3.658   4.110
 5121SOL    HW116262   0.471   3.580   4.167
 5121SOL    HW216263   0.473   3.743   4.155
 5122SOL     OW16264   2.206   5.395   3.350
 5122SOL    HW116265   2.210   5.480   3.403
 5122SOL    HW216266   2.236   5.319   3.408
 5123SOL     OW16267   6.055   3.229   2.415
 5123SOL    HW116268   6.070   3.143   2.366
 5123SOL    HW216269   6.137   3.286   2.407
 5124SOL     OW16270   3.241   6.026   0.625
 5124SOL    HW116271   3.291   5.970   0.559
 5124SOL    HW216272   3.304   6.093   0.665
 5125SOL     OW16273   0.707   1.977   6.083
 5125SOL    HW116274   0.615   1.980   6.044
 5125SOL    HW216275   0.752   1.892   6.056
 5126SOL     OW16276   4.261   1.678   0.274
 5126SOL    HW116277   4.186   1.655   0.212
 5126SOL    HW216278   4.238   1.649   0.367
 5127SOL     OW16279   4.745   3.196   6.514
 5127SOL    HW116280   4.786   3.218   6.425
 5127SOL    HW216281   4.721   3.099   6.517
 5128SOL     OW16282   0.336   0.489   6.450
 5128SOL    HW116283   0.243   0.453   6.447
 5128SOL    HW216284   0.377   0.483   6.359
 5129SOL     OW16285   5.036   3.403   3.703
 5129SOL    HW116286   5.112   3.462   3.676
 5129SOL    HW216287   4.951   3.440   3.667
 5130SOL     OW16288   2.422   6.591   5.019
 5130SOL    HW116289   2.368   6.548   5.092
 5130SOL    HW216290   2.422   6.690   5.032
 5131SOL     OW16291   3.370   5.033   2.948
 5131SOL    HW116292   3.284   4.981   2.944
 5131SOL    HW216293   3.401   5.039   3.043
 5132SOL     OW16294   3.791   2.135   6.600
 5132SOL    HW116295   3.776   2.214   6.659
 5132SOL    HW216296   3.748   2.054   6.640
 5133SOL     OW16297   4.191   4.496   6.018
 5133SOL    HW116298   4.167   4.407   6.057
 5133SOL    HW216299   4.256   4.484   5.943
 5134SOL     OW16300   5.688   5.815   0.615
 5134SOL    HW116301   5.697   5.864   0.528
 5134SOL    HW216302   5.777   5.811   0.660
 5135SOL     OW16303   0.065   3.375   2.047
 5135SOL    HW116304   0.050   3.370   1.948
 5135SOL    HW216305   0.134   3.307   2.073
 5136SOL     OW16306   0.268   0.490   4.216
 5136SOL    HW116307   0.354   0.442   4.236
 5136SOL    HW216308   0.285   0.589   4.212
 5137SOL     OW16309   5.439   0.388   2.998
 5137SOL    HW116310   5.480   0.478   2.989
 5137SOL    HW216311   5.438   0.343   2.909
 5138SOL     OW16312   3.240   4.037   2.157
 5138SOL    HW116313   3.294   4.045   2.241
 5138SOL    HW216314   3.266   4.110   2.093
 5139SOL     OW16315   5.165   0.216   4.957
 5139SOL    HW116316   5.245   0.222   4.897
 5139SOL    HW216317   5.195   0.225   5.052
 5140SOL     OW16318   2.803   3.818   6.383
 5140SOL    HW116319   2.830   3.833   6.287
 5140SOL    HW216320   2.854   3.880   6.442
 5141SOL     OW16321   0.973   3.189   1.149
 5141SOL    HW116322   1.031   3.264   1.180
 5141SOL    HW216323   1.023   3.133   1.083
 5142SOL     OW16324   0.099   6.710   2.734
 5142SOL    HW116325   0.098   6.795   2.681
 5142SOL    HW216326   0.056   6.726   2.823
 5143SOL     OW16327   6.590   6.595   2.533
 5143SOL    HW116328   6.529   6.661   2.490
 5143SOL    HW216329   6.578   6.505   2.491
 5144SOL     OW16330   2.003   2.725   5.296
 5144SOL    HW116331   2.098   2.706   5.321
 5144SOL    HW216332   1.997   2.816   5.254
 5145SOL     OW16333   1.565   5.494   5.441
 5145SOL    HW116334   1.553   5.410   5.390
 5145SOL    HW216335   1.622   5.477   5.521
 5146SOL     OW16336   6.267   5.473   6.591
 5146SOL    HW116337   6.213   5.464   6.674
 5146SOL    HW216338   6.206   5.484   6.512
 5147SOL     OW16339   5.233   1.546   3.471
 5147SOL    HW116340   5.230   1.549   3.371
 5147SOL    HW216341   5.202   1.633   3.508
 5148SOL     OW16342   6.365   1.765   0.855
 5148SOL    HW116343   6.291   1.825   0.887
 5148SOL    HW216344   6.325   1.680   0.821
 5149SOL     OW16345   3.367   6.062   3.871
 5149SOL    HW116346   3.310   6.132   3.827
 5149SOL    HW216347   3.462   6.073   3.841
 5150SOL     OW16348   6.913   0.612   3.536
 5150SOL    HW116349   6.982   0.648   3.599
 5150SOL    HW216350   6.884   0.521   3.566
 5151SOL     OW16351   5.550   4.960   2.011
 5151SOL    HW116352   5.495   4.995   1.936
 5151SOL    HW216353   5.613   5.031   2.043
 5152SOL     OW16354   2.286   2.073   0.453
 5152SOL    HW116355   2.246   2.119   0.532
 5152SOL    HW216356   2.326   2.141   0.392
 5153SOL     OW16357   2.671   2.828   0.478
 5153SOL    HW116358   2.668   2.821   0.379
 5153SOL    HW216359   2.729   2.755   0.515
 5154SOL     OW16360   0.341   2.638   0.296
 5154SOL    HW116361   0.340   2.735   0.319
 5154SOL    HW216362   0.403   2.623   0.219
 5155SOL     OW16363   1.607   1.026   0.227
 5155SOL    HW116364   1.595   1.111   0.176
 5155SOL    HW216365   1.581   0.948   0.170
 5156SOL     OW16366   5.207   5.382   6.301
 5156SOL    HW116367   5.290   5.437   6.289
 5156SOL    HW216368   5.201   5.350   6.395
 5157SOL     OW16369   3.651   1.291   2.079
 5157SOL    HW116370   3.716   1.219   2.057
 5157SOL    HW216371   3.590   1.306   2.001
 5158SOL     OW16372   1.284   2.361   2.624
 5158SOL    HW116373   1.250   2.455   2.619
 5158SOL    HW216374   1.383   2.363   2.638
 5159SOL     OW16375   6.675   2.827   5.120
 5159SOL    HW116376   6.764   2.870   5.106
 5159SOL    HW216377   6.686   2.728   5.124
 5160SOL     OW16378   6.607   0.013   2.714
 5160SOL    HW116379   6.514   0.004   2.752
 5160SOL    HW216380   6.604   7.016   2.615
 5161SOL     OW16381   1.218   1.792   6.490
 5161SOL    HW116382   1.160   1.728   6.440
 5161SOL    HW216383   1.301   1.746   6.520
 5162SOL     OW16384   0.399   6.917   5.558
 5162SOL    HW116385   0.455   6.990   5.518
 5162SOL    HW216386   0.323   6.896   5.497
 5163SOL     OW16387   3.121   0.741   1.617
 5163SOL    HW116388   3.217   0.770   1.621
 5163SOL    HW216389   3.071   0.799   1.552
 5164SOL     OW16390   2.786   3.217   0.469
 5164SOL    HW116391   2.808   3.298   0.523
 5164SOL    HW216392   2.690   3.192   0.485
 5165SOL     OW16393   1.320   5.220   5.676
 5165SOL    HW116394   1.339   5.271   5.760
 5165SOL    HW216395   1.285   5.283   5.606
 5166SOL     OW16396   6.952   5.737   5.709
 5166SOL    HW116397   6.890   5.775   5.777
 5166SOL    HW216398   6.978   5.809   5.644
 5167SOL     OW16399   6.263   4.071   5.801
 5167SOL    HW116400   6.311   4.150   5.839
 5167SOL    HW216401   6.232   4.092   5.709
 5168SOL     OW16402   4.720   1.954   3.080
 5168SOL    HW116403   4.747   1.994   3.167
 5168SOL    HW216404   4.713   2.026   3.011
 5169SOL     OW16405   4.896   5.716   4.493
 5169SOL    HW116406   4.831   5.654   4.537
 5169SOL    HW216407   4.947   5.766   4.562
 5170SOL     OW16408   1.941   3.878   6.089
 5170SOL    HW116409   1.924   3.862   6.187
 5170SOL    HW216410   1.927   3.792   6.039
 5171SOL     OW16411   2.371   6.512   5.914
 5171SOL    HW116412   2.345   6.608   5.917
 5171SOL    HW216413   2.428   6.490   5.993
 5172SOL     OW16414   5.861   5.748   6.051
 5172SOL    HW116415   5.798   5.696   6.108
 5172SOL    HW216416   5.944   5.694   6.036
 5173SOL     OW16417   4.044   6.099   4.164
 5173SOL    HW116418   4.140   6.126   4.170
 5173SOL    HW216419   4.032   6.036   4.088
 5174SOL     OW16420   0.710   6.185   2.517
 5174SOL    HW116421   0.774   6.178   2.593
 5174SOL    HW216422   0.646   6.108   2.520
 5175SOL     OW16423   2.254   1.425   6.681
 5175SOL    HW116424   2.171   1.369   6.673
 5175SOL    HW216425   2.231   1.512   6.726
 5176SOL     OW16426   6.102   6.280   6.397
 5176SOL    HW116427   6.189   6.329   6.394
 5176SOL    HW216428   6.058   6.297   6.486
 5177SOL     OW16429   5.408   5.870   0.854
 5177SOL    HW116430   5.338   5.853   0.922
 5177SOL    HW216431   5.452   5.784   0.828
 5178SOL     OW16432   0.359   3.920   1.161
 5178SOL    HW116433   0.338   3.947   1.255
 5178SOL    HW216434   0.303   3.841   1.137
 5179SOL     OW16435   4.374   5.111   2.616
 5179SOL    HW116436   4.414   5.113   2.525
 5179SOL    HW216437   4.443   5.084   2.683
 5180SOL     OW16438   2.224   4.806   1.992
 5180SOL    HW116439   2.154   4.735   1.995
 5180SOL    HW216440   2.295   4.781   1.927
 5181SOL     OW16441   6.703   1.442   5.606
 5181SOL    HW116442   6.706   1.526   5.660
 5181SOL    HW216443   6.612   1.401   5.613
 5182SOL     OW16444   2.326   6.569   1.885
 5182SOL    HW116445   2.404   6.611   1.932
 5182SOL    HW216446   2.243   6.619   1.908
 5183SOL     OW16447   5.022   2.015   3.483
 5183SOL    HW116448   5.072   2.012   3.396
 5183SOL    HW216449   5.018   2.109   3.516
 5184SOL     OW16450   3.010   1.718   2.762
 5184SOL    HW116451   3.058   1.762   2.686
 5184SOL    HW216452   3.053   1.743   2.848
 5185SOL     OW16453   6.337   0.163   1.532
 5185SOL    HW116454   6.351   0.064   1.521
 5185SOL    HW216455   6.260   0.192   1.474
 5186SOL     OW16456   6.118   2.456   6.788
 5186SOL    HW116457   6.144   2.494   6.877
 5186SOL    HW216458   6.089   2.531   6.728
 5187SOL     OW16459   1.475   4.177   4.941
 5187SOL    HW116460   1.448   4.099   4.998
 5187SOL    HW216461   1.500   4.144   4.850
 5188SOL     OW16462   6.907   0.005   1.490
 5188SOL    HW116463   6.908   0.105   1.501
 5188SOL    HW216464   6.818   6.993   1.455
 5189SOL     OW16465   5.083   5.960   6.647
 5189SOL    HW116466   5.093   5.894   6.573
 5189SOL    HW216467   5.018   6.031   6.621
 5190SOL     OW16468   1.469   5.066   0.712
 5190SOL    HW116469   1.399   5.040   0.777
 5190SOL    HW216470   1.427   5.083   0.623
 5191SOL     OW16471   2.769   4.115   1.599
 5191SOL    HW116472   2.749   4.018   1.616
 5191SOL    HW216473   2.860   4.124   1.559
 5192SOL     OW16474   0.680   4.521   2.722
 5192SOL    HW116475   0.699   4.431   2.683
 5192SOL    HW216476   0.643   4.510   2.814
 5193SOL     OW16477   3.823   0.648   5.026
 5193SOL    HW116478   3.918   0.621   5.010
 5193SOL    HW216479   3.768   0.567   5.046
 5194SOL     OW16480   4.611   1.732   5.117
 5194SOL    HW116481   4.626   1.741   5.019
 5194SOL    HW216482   4.685   1.777   5.167
 5195SOL     OW16483   1.759   1.435   5.836
 5195SOL    HW116484   1.844   1.442   5.784
 5195SOL    HW216485   1.693   1.379   5.786
 5196SOL     OW16486   5.950   6.353   3.116
 5196SOL    HW116487   5.913   6.356   3.209
 5196SOL    HW216488   5.876   6.350   3.050
 5197SOL     OW16489   1.925   3.635   5.175
 5197SOL    HW116490   1.999   3.607   5.114
 5197SOL    HW216491   1.954   3.622   5.270
 5198SOL     OW16492   6.095   5.729   3.815
 5198SOL    HW116493   6.089   5.829   3.815
 5198SOL    HW216494   6.039   5.693   3.891
 5199SOL     OW16495   0.718   5.248   1.253
 5199SOL    HW116496   0.766   5.331   1.226
 5199SOL    HW216497   0.720   5.182   1.177
 5200SOL     OW16498   6.492   3.699   5.030
 5200SOL    HW116499   6.428   3.633   5.069
 5200SOL    HW216500   6.520   3.765   5.100
 5201SOL     OW16501   1.086   6.378   4.398
 5201SOL    HW116502   1.101   6.343   4.306
 5201SOL    HW216503   1.102   6.305   4.465
 5202SOL     OW16504   0.045   4.216   1.361
 5202SOL    HW116505   0.011   4.141   1.305
 5202SOL    HW216506   6.997   4.233   1.436
 5203SOL     OW16507   6.432   3.347   6.870
 5203SOL    HW116508   6.421   3.355   6.771
 5203SOL    HW216509   6.530   3.339   6.891
 5204SOL     OW16510   5.586   5.304   6.937
 5204SOL    HW116511   5.678   5.271   6.921
 5204SOL    HW216512   5.527   5.281   6.860
 5205SOL     OW16513   2.882   6.119   0.289
 5205SOL    HW116514   2.974   6.103   0.254
 5205SOL    HW216515   2.815   6.093   0.220
 5206SOL     OW16516   0.355   4.434   4.879
 5206SOL    HW116517   0.426   4.454   4.811
 5206SOL    HW216518   0.397   4.390   4.958
 5207SOL     OW16519   1.421   5.118   2.467
 5207SOL    HW116520   1.379   5.156   2.384
 5207SOL    HW216521   1.480   5.041   2.441
 5208SOL     OW16522   5.011   1.484   0.046
 5208SOL    HW116523   5.067   1.411   0.084
 5208SOL    HW216524   5.035   1.499   6.967
 5209SOL     OW16525   5.757   5.014   2.958
 5209SOL    HW116526   5.688   4.944   2.941
 5209SOL    HW216527   5.789   5.007   3.052
 5210SOL     OW16528   4.861   3.864   3.269
 5210SOL    HW116529   4.815   3.934   3.215
 5210SOL    HW216530   4.888   3.902   3.357
 5211SOL     OW16531   3.419   3.828   2.442
 5211SOL    HW116532   3.464   3.819   2.531
 5211SOL    HW216533   3.407   3.925   2.421
 5212SOL     OW16534   1.021   6.911   6.744
 5212SOL    HW116535   1.064   6.912   6.834
 5212SOL    HW216536   1.010   6.816   6.713
 5213SOL     OW16537   4.636   2.380   6.173
 5213SOL    HW116538   4.667   2.303   6.227
 5213SOL    HW216539   4.708   2.450   6.170
 5214SOL     OW16540   4.438   2.086   6.902
 5214SOL    HW116541   4.440   2.185   6.911
 5214SOL    HW216542   4.505   2.045   6.965
 5215SOL     OW16543   5.373   5.483   3.860
 5215SOL    HW116544   5.445   5.430   3.815
 5215SOL    HW216545   5.352   5.442   3.949
 5216SOL     OW16546   4.430   5.942   1.388
 5216SOL    HW116547   4.334   5.969   1.402
 5216SOL    HW216548   4.434   5.873   1.316
 5217SOL     OW16549   3.260   4.897   3.318
 5217SOL    HW116550   3.247   4.902   3.417
 5217SOL    HW216551   3.324   4.823   3.297
 5218SOL     OW16552   1.764   0.183   3.896
 5218SOL    HW116553   1.845   0.232   3.865
 5218SOL    HW216554   1.766   0.090   3.859
 5219SOL     OW16555   3.097   0.275   1.266
 5219SOL    HW116556   3.004   0.295   1.299
 5219SOL    HW216557   3.162   0.336   1.311
 5220SOL     OW16558   0.938   6.651   2.129
 5220SOL    HW116559   0.858   6.677   2.183
 5220SOL    HW216560   0.938   6.702   2.042
 5221SOL     OW16561   4.766   1.030   0.567
 5221SOL    HW116562   4.742   1.078   0.482
 5221SOL    HW216563   4.717   1.072   0.644
 5222SOL     OW16564   0.783   6.596   2.464
 5222SOL    HW116565   0.804   6.584   2.561
 5222SOL    HW216566   0.865   6.577   2.410
 5223SOL     OW16567   4.507   6.609   1.000
 5223SOL    HW116568   4.478   6.663   1.078
 5223SOL    HW216569   4.461   6.520   1.002
 5224SOL     OW16570   5.581   1.009   4.042
 5224SOL    HW116571   5.485   1.009   4.012
 5224SOL    HW216572   5.617   0.917   4.037
 5225SOL     OW16573   0.223   0.112   5.071
 5225SOL    HW116574   0.272   0.134   4.986
 5225SOL    HW216575   0.256   0.172   5.144
 5226SOL     OW16576   2.556   0.609   4.043
 5226SOL    HW116577   2.473   0.634   4.094
 5226SOL    HW216578   2.571   0.510   4.050
 5227SOL     OW16579   5.006   3.331   4.134
 5227SOL    HW116580   5.023   3.429   4.141
 5227SOL    HW216581   4.952   3.313   4.052
 5228SOL     OW16582   5.166   0.501   1.533
 5228SOL    HW116583   5.102   0.451   1.474
 5228SOL    HW216584   5.118   0.532   1.615
 5229SOL     OW16585   0.937   4.083   3.819
 5229SOL    HW116586   0.973   4.154   3.881
 5229SOL    HW216587   1.008   4.058   3.753
 5230SOL     OW16588   0.772   1.311   6.214
 5230SOL    HW116589   0.819   1.268   6.137
 5230SOL    HW216590   0.757   1.243   6.286
 5231SOL     OW16591   3.047   3.481   3.279
 5231SOL    HW116592   3.026   3.557   3.340
 5231SOL    HW216593   3.104   3.414   3.328
 5232SOL     OW16594   5.202   2.617   4.863
 5232SOL    HW116595   5.238   2.604   4.771
 5232SOL    HW216596   5.222   2.711   4.894
 5233SOL     OW16597   0.729   0.156   2.859
 5233SOL    HW116598   0.636   0.143   2.895
 5233SOL    HW216599   0.732   0.238   2.803
 5234SOL     OW16600   4.059   5.106   1.549
 5234SOL    HW116601   3.981   5.066   1.599
 5234SOL    HW216602   4.125   5.033   1.527
 5235SOL     OW16603   0.987   2.747   1.666
 5235SOL    HW116604   0.973   2.703   1.754
 5235SOL    HW216605   1.049   2.825   1.677
 5236SOL     OW16606   6.260   3.497   0.014
 5236SOL    HW116607   6.324   3.439   6.980
 5236SOL    HW216608   6.173   3.502   6.981
 5237SOL     OW16609   1.940   1.830   3.342
 5237SOL    HW116610   1.855   1.783   3.317
 5237SOL    HW216611   2.018   1.773   3.316
 5238SOL     OW16612   2.204   3.189   0.792
 5238SOL    HW116613   2.158   3.261   0.843
 5238SOL    HW216614   2.301   3.187   0.816
 5239SOL     OW16615   2.931   3.168   4.996
 5239SOL    HW116616   2.856   3.102   4.996
 5239SOL    HW216617   2.899   3.255   5.032
 5240SOL     OW16618   3.833   2.109   4.798
 5240SOL    HW116619   3.775   2.120   4.879
 5240SOL    HW216620   3.777   2.113   4.716
 5241SOL     OW16621   3.452   5.691   5.401
 5241SOL    HW116622   3.507   5.621   5.446
 5241SOL    HW216623   3.384   5.726   5.466
 5242SOL     OW16624   3.997   0.027   5.540
 5242SOL    HW116625   3.956   6.955   5.520
 5242SOL    HW216626   3.935   0.079   5.599
 5243SOL     OW16627   0.976   4.138   0.845
 5243SOL    HW116628   0.939   4.226   0.874
 5243SOL    HW216629   1.023   4.149   0.757
 5244SOL     OW16630   5.592   3.511   6.716
 5244SOL    HW116631   5.644   3.580   6.666
 5244SOL    HW216632   5.501   3.502   6.675
 5245SOL     OW16633   4.816   4.287   6.130
 5245SOL    HW116634   4.815   4.187   6.123
 5245SOL    HW216635   4.909   4.320   6.112
 5246SOL     OW16636   1.481   3.346   3.153
 5246SOL    HW116637   1.523   3.420   3.205
 5246SOL    HW216638   1.490   3.365   3.055
 5247SOL     OW16639   0.183   4.805   0.501
 5247SOL    HW116640   0.136   4.722   0.530
 5247SOL    HW216641   0.156   4.829   0.408
 5248SOL     OW16642   4.949   0.870   0.444
 5248SOL    HW116643   5.015   0.937   0.410
 5248SOL    HW216644   4.865   0.916   0.471
 5249SOL     OW16645   1.120   5.875   6.885
 5249SOL    HW116646   1.078   5.879   6.975
 5249SOL    HW216647   1.092   5.955   6.832
 5250SOL     OW16648   1.426   1.616   5.693
 5250SOL    HW116649   1.439   1.526   5.652
 5250SOL    HW216650   1.340   1.618   5.745
 5251SOL     OW16651   0.279   2.933   0.927
 5251SOL    HW116652   0.309   2.842   0.958
 5251SOL    HW216653   0.359   2.992   0.917
 5252SOL     OW16654   5.061   6.412   1.158
 5252SOL    HW116655   4.970   6.450   1.143
 5252SOL    HW216656   5.053   6.315   1.179
 5253SOL     OW16657   5.837   3.117   3.718
 5253SOL    HW116658   5.818   3.141   3.623
 5253SOL    HW216659   5.935   3.103   3.730
 5254SOL     OW16660   5.473   0.506   4.438
 5254SOL    HW116661   5.565   0.546   4.447
 5254SOL    HW216662   5.476   0.433   4.370
 5255SOL     OW16663   2.941   5.492   3.464
 5255SOL    HW116664   2.874   5.566   3.478
 5255SOL    HW216665   3.017   5.526   3.409
 5256SOL     OW16666   4.973   6.356   1.964
 5256SOL    HW116667   5.037   6.341   2.040
 5256SOL    HW216668   4.879   6.352   1.998
 5257SOL     OW16669   3.227   1.480   2.964
 5257SOL    HW116670   3.280   1.476   3.049
 5257SOL    HW216671   3.130   1.491   2.985
 5258SOL     OW16672   5.843   1.634   1.667
 5258SOL    HW116673   5.757   1.625   1.617
 5258SOL    HW216674   5.829   1.605   1.762
 5259SOL     OW16675   5.911   4.530   1.617
 5259SOL    HW116676   5.821   4.521   1.573
 5259SOL    HW216677   5.972   4.582   1.557
 5260SOL     OW16678   4.371   2.653   1.691
 5260SOL    HW116679   4.426   2.573   1.716
 5260SOL    HW216680   4.325   2.635   1.604
 5261SOL     OW16681   2.589   2.628   5.333
 5261SOL    HW116682   2.515   2.584   5.384
 5261SOL    HW216683   2.558   2.646   5.239
 5262SOL     OW16684   1.268   0.365   1.539
 5262SOL    HW116685   1.190   0.351   1.479
 5262SOL    HW216686   1.263   0.456   1.580
 5263SOL     OW16687   1.453   6.687   6.694
 5263SOL    HW116688   1.532   6.675   6.634
 5263SOL    HW216689   1.429   6.784   6.699
 5264SOL     OW16690   0.746   1.222   1.185
 5264SOL    HW116691   0.802   1.304   1.198
 5264SOL    HW216692   0.792   1.161   1.120
 5265SOL     OW16693   5.145   4.679   3.913
 5265SOL    HW116694   5.079   4.681   3.988
 5265SOL    HW216695   5.207   4.757   3.920
 5266SOL     OW16696   1.667   0.198   1.245
 5266SOL    HW116697   1.585   0.245   1.277
 5266SOL    HW216698   1.732   0.189   1.321
 5267SOL     OW16699   4.282   3.598   5.534
 5267SOL    HW116700   4.269   3.568   5.439
 5267SOL    HW216701   4.193   3.615   5.575
 5268SOL     OW16702   5.679   5.166   5.714
 5268SOL    HW116703   5.736   5.097   5.670
 5268SOL    HW216704   5.667   5.143   5.810
 5269SOL     OW16705   1.956   5.098   5.656
 5269SOL    HW116706   2.010   5.090   5.572
 5269SOL    HW216707   1.974   5.186   5.699
 5270SOL     OW16708   6.709   2.192   3.588
 5270SOL    HW116709   6.696   2.126   3.662
 5270SOL    HW216710   6.632   2.255   3.586
 5271SOL     OW16711   5.456   3.614   5.577
 5271SOL    HW116712   5.462   3.628   5.676
 5271SOL    HW216713   5.474   3.700   5.531
 5272SOL     OW16714   2.453   1.957   3.751
 5272SOL    HW116715   2.477   2.004   3.666
 5272SOL    HW216716   2.365   1.992   3.784
 5273SOL     OW16717   6.551   0.427   5.470
 5273SOL    HW116718   6.514   0.341   5.506
 5273SOL    HW216719   6.481   0.471   5.413
 5274SOL     OW16720   0.151   5.382   4.400
 5274SOL    HW116721   0.250   5.390   4.389
 5274SOL    HW216722   0.131   5.346   4.492
 5275SOL     OW16723   2.107   6.491   6.940
 5275SOL    HW116724   2.096   6.475   6.842
 5275SOL    HW216725   2.181   6.557   6.954
 5276SOL     OW16726   0.744   6.971   0.496
 5276SOL    HW116727   0.763   0.049   0.524
 5276SOL    HW216728   0.768   6.960   0.400
 5277SOL     OW16729   0.154   1.252   2.150
 5277SOL    HW116730   0.228   1.320   2.158
 5277SOL    HW216731   0.122   1.250   2.055
 5278SOL     OW16732   0.780   4.298   6.075
 5278SOL    HW116733   0.866   4.350   6.076
 5278SOL    HW216734   0.789   4.219   6.135
 5279SOL     OW16735   2.350   6.643   6.978
 5279SOL    HW116736   2.322   6.736   7.004
 5279SOL    HW216737   2.416   6.649   6.903
 5280SOL     OW16738   4.313   6.747   5.724
 5280SOL    HW116739   4.398   6.732   5.773
 5280SOL    HW216740   4.236   6.718   5.781
 5281SOL     OW16741   2.969   6.997   5.173
 5281SOL    HW116742   2.890   6.949   5.213
 5281SOL    HW216743   3.038   7.012   5.244
 5282SOL     OW16744   0.401   6.610   0.413
 5282SOL    HW116745   0.335   6.558   0.360
 5282SOL    HW216746   0.478   6.551   0.438
 5283SOL     OW16747   1.587   0.901   3.902
 5283SOL    HW116748   1.617   0.997   3.904
 5283SOL    HW216749   1.488   0.898   3.887
 5284SOL     OW16750   5.007   2.951   2.155
 5284SOL    HW116751   5.091   2.929   2.106
 5284SOL    HW216752   4.948   3.006   2.097
 5285SOL     OW16753   1.673   2.032   4.390
 5285SOL    HW116754   1.750   2.078   4.435
 5285SOL    HW216755   1.707   1.974   4.316
 5286SOL     OW16756   6.625   3.144   1.116
 5286SOL    HW116757   6.540   3.184   1.082
 5286SOL    HW216758   6.630   3.048   1.090
 5287SOL     OW16759   0.739   5.352   1.841
 5287SOL    HW116760   0.812   5.374   1.777
 5287SOL    HW216761   0.778   5.327   1.929
 5288SOL     OW16762   4.021   0.653   1.829
 5288SOL    HW116763   4.076   0.606   1.760
 5288SOL    HW216764   4.067   0.649   1.917
 5289SOL     OW16765   2.258   4.795   5.684
 5289SOL    HW116766   2.333   4.823   5.744
 5289SOL    HW216767   2.288   4.718   5.628
 5290SOL     OW16768   1.553   3.055   4.899
 5290SOL    HW116769   1.588   2.978   4.845
 5290SOL    HW216770   1.490   3.109   4.843
 5291SOL     OW16771   2.886   4.912   4.354
 5291SOL    HW116772   2.827   4.831   4.350
 5291SOL    HW216773   2.838   4.986   4.402
 5292SOL     OW16774   0.231   3.899   4.819
 5292SOL    HW116775   0.259   3.994   4.834
 5292SOL    HW216776   0.305   3.849   4.773
 5293SOL     OW16777   2.207   0.281   3.973
 5293SOL    HW116778   2.277   0.210   3.973
 5293SOL    HW216779   2.196   0.318   3.881
 5294SOL     OW16780   4.923   0.031   4.488
 5294SOL    HW116781   4.893   0.019   4.393
 5294SOL    HW216782   4.954   6.960   4.524
 5295SOL     OW16783   2.188   0.816   1.518
 5295SOL    HW116784   2.119   0.885   1.539
 5295SOL    HW216785   2.143   0.735   1.480
 5296SOL     OW16786   4.757   4.941   2.009
 5296SOL    HW116787   4.844   4.985   2.033
 5296SOL    HW216788   4.773   4.870   1.941
 5297SOL     OW16789   3.605   5.722   6.166
 5297SOL    HW116790   3.564   5.767   6.087
 5297SOL    HW216791   3.538   5.717   6.240
 5298SOL     OW16792   2.874   1.932   0.335
 5298SOL    HW116793   2.806   2.004   0.321
 5298SOL    HW216794   2.841   1.847   0.295
 5299SOL     OW16795   2.537   0.729   1.801
 5299SOL    HW116796   2.530   0.783   1.885
 5299SOL    HW216797   2.497   0.780   1.725
 5300SOL     OW16798   3.312   5.331   6.765
 5300SOL    HW116799   3.411   5.338   6.770
 5300SOL    HW216800   3.271   5.414   6.803
 5301SOL     OW16801   6.080   6.976   5.614
 5301SOL    HW116802   6.027   6.891   5.611
 5301SOL    HW216803   6.154   6.972   5.547
 5302SOL     OW16804   4.811   5.471   2.854
 5302SOL    HW116805   4.777   5.565   2.850
 5302SOL    HW216806   4.750   5.416   2.911
 5303SOL     OW16807   1.322   5.832   5.603
 5303SOL    HW116808   1.263   5.883   5.540
 5303SOL    HW216809   1.286   5.739   5.615
 5304SOL     OW16810   0.881   0.731   2.973
 5304SOL    HW116811   0.889   0.668   2.896
 5304SOL    HW216812   0.855   0.680   3.055
 5305SOL     OW16813   0.123   5.402   4.818
 5305SOL    HW116814   0.083   5.341   4.886
 5305SOL    HW216815   0.051   5.442   4.761
 5306SOL     OW16816   0.893   2.171   6.024
 5306SOL    HW116817   0.835   2.100   6.064
 5306SOL    HW216818   0.875   2.176   5.926
 5307SOL     OW16819   7.003   1.323   1.544
 5307SOL    HW116820   6.914   1.317   1.499
 5307SOL    HW216821   6.991   1.364   1.635
 5308SOL     OW16822   1.582   4.350   2.627
 5308SOL    HW116823   1.673   4.390   2.616
 5308SOL    HW216824   1.567   4.281   2.557
 5309SOL     OW16825   5.838   5.980   3.540
 5309SOL    HW116826   5.761   5.917   3.528
 5309SOL    HW216827   5.819   6.043   3.615
 5310SOL     OW16828   6.344   2.375   3.334
 5310SOL    HW116829   6.367   2.436   3.259
 5310SOL    HW216830   6.282   2.421   3.397
 5311SOL     OW16831   5.969   0.266   0.133
 5311SOL    HW116832   5.988   0.268   0.231
 5311SOL    HW216833   6.002   0.350   0.090
 5312SOL     OW16834   6.078   6.444   0.746
 5312SOL    HW116835   6.012   6.474   0.678
 5312SOL    HW216836   6.152   6.395   0.702
 5313SOL     OW16837   1.243   0.128   5.652
 5313SOL    HW116838   1.183   0.068   5.705
 5313SOL    HW216839   1.188   0.181   5.587
 5314SOL     OW16840   5.777   2.098   1.657
 5314SOL    HW116841   5.728   2.104   1.745
 5314SOL    HW216842   5.857   2.039   1.667
 5315SOL     OW16843   4.127   2.277   3.643
 5315SOL    HW116844   4.187   2.335   3.697
 5315SOL    HW216845   4.166   2.265   3.551
 5316SOL     OW16846   0.601   2.777   4.806
 5316SOL    HW116847   0.662   2.785   4.884
 5316SOL    HW216848   0.642   2.715   4.739
 5317SOL     OW16849   5.763   2.948   6.432
 5317SOL    HW116850   5.778   2.851   6.454
 5317SOL    HW216851   5.677   2.978   6.473
 5318SOL     OW16852   0.481   3.723   5.693
 5318SOL    HW116853   0.453   3.759   5.604
 5318SOL    HW216854   0.575   3.748   5.712
 5319SOL     OW16855   3.397   5.974   2.436
 5319SOL    HW116856   3.368   6.069   2.435
 5319SOL    HW216857   3.332   5.919   2.383
 5320SOL     OW16858   4.510   5.726   1.210
 5320SOL    HW116859   4.544   5.644   1.257
 5320SOL    HW216860   4.457   5.698   1.129
 5321SOL     OW16861   1.371   4.044   5.540
 5321SOL    HW116862   1.457   4.087   5.510
 5321SOL    HW216863   1.324   4.004   5.461
 5322SOL     OW16864   3.881   6.454   2.219
 5322SOL    HW116865   3.905   6.394   2.295
 5322SOL    HW216866   3.788   6.490   2.233
 5323SOL     OW16867   4.282   0.311   6.124
 5323SOL    HW116868   4.294   0.355   6.035
 5323SOL    HW216869   4.295   0.379   6.197
 5324SOL     OW16870   1.626   1.802   1.486
 5324SOL    HW116871   1.646   1.814   1.389
 5324SOL    HW216872   1.533   1.767   1.496
 5325SOL     OW16873   2.124   2.533   4.970
 5325SOL    HW116874   2.127   2.460   4.901
 5325SOL    HW216875   2.056   2.601   4.944
 5326SOL     OW16876   6.079   0.299   0.910
 5326SOL    HW116877   6.009   0.228   0.923
 5326SOL    HW216878   6.165   0.269   0.950
 5327SOL     OW16879   0.299   2.760   5.602
 5327SOL    HW116880   0.342   2.758   5.692
 5327SOL    HW216881   0.266   2.853   5.583
 5328SOL     OW16882   5.069   5.197   0.253
 5328SOL    HW116883   5.046   5.238   0.164
 5328SOL    HW216884   5.124   5.261   0.306
 5329SOL     OW16885   2.431   6.543   6.355
 5329SOL    HW116886   2.363   6.477   6.389
 5329SOL    HW216887   2.384   6.612   6.300
 5330SOL     OW16888   2.599   4.738   1.012
 5330SOL    HW116889   2.695   4.759   1.030
 5330SOL    HW216890   2.593   4.649   0.967
 5331SOL     OW16891   6.452   1.070   6.631
 5331SOL    HW116892   6.452   1.166   6.660
 5331SOL    HW216893   6.523   1.020   6.681
 5332SOL     OW16894   0.143   5.146   1.648
 5332SOL    HW116895   0.203   5.179   1.721
 5332SOL    HW216896   0.058   5.112   1.689
 5333SOL     OW16897   1.242   6.034   5.349
 5333SOL    HW116898   1.257   5.953   5.293
 5333SOL    HW216899   1.180   6.012   5.424
 5334SOL     OW16900   3.707   6.784   4.764
 5334SOL    HW116901   3.656   6.766   4.849
 5334SOL    HW216902   3.800   6.812   4.787
 5335SOL     OW16903   0.013   5.766   0.078
 5335SOL    HW116904   0.042   5.829   0.006
 5335SOL    HW216905   0.017   5.812   0.166
 5336SOL     OW16906   1.149   4.502   1.419
 5336SOL    HW116907   1.135   4.440   1.342
 5336SOL    HW216908   1.167   4.594   1.385
 5337SOL     OW16909   5.000   4.114   1.192
 5337SOL    HW116910   4.978   4.129   1.096
 5337SOL    HW216911   5.052   4.029   1.201
 5338SOL     OW16912   5.791   2.501   0.060
 5338SOL    HW116913   5.798   2.589   0.013
 5338SOL    HW216914   5.832   2.430   0.003
 5339SOL     OW16915   6.080   0.527   1.891
 5339SOL    HW116916   6.032   0.611   1.915
 5339SOL    HW216917   6.029   0.448   1.925
 5340SOL     OW16918   5.422   2.348   6.090
 5340SOL    HW116919   5.357   2.406   6.140
 5340SOL    HW216920   5.409   2.362   5.991
 5341SOL     OW16921   4.683   0.584   0.460
 5341SOL    HW116922   4.707   0.609   0.366
 5341SOL    HW216923   4.707   0.488   0.475
 5342SOL     OW16924   2.725   1.093   6.222
 5342SOL    HW116925   2.748   1.140   6.307
 5342SOL    HW216926   2.648   1.140   6.178
 5343SOL     OW16927   3.444   4.013   1.804
 5343SOL    HW116928   3.359   4.066   1.794
 5343SOL    HW216929   3.445   3.969   1.894
 5344SOL     OW16930   2.298   2.773   2.661
 5344SOL    HW116931   2.374   2.794   2.600
 5344SOL    HW216932   2.239   2.853   2.670
 5345SOL     OW16933   4.774   0.481   2.907
 5345SOL    HW116934   4.703   0.528   2.960
 5345SOL    HW216935   4.732   0.412   2.849
 5346SOL     OW16936   2.708   0.148   3.574
 5346SOL    HW116937   2.710   0.240   3.536
 5346SOL    HW216938   2.777   0.140   3.647
 5347SOL     OW16939   6.730   1.826   1.811
 5347SOL    HW116940   6.754   1.739   1.767
 5347SOL    HW216941   6.634   1.847   1.792
 5348SOL     OW16942   6.766   1.408   0.629
 5348SOL    HW116943   6.766   1.501   0.593
 5348SOL    HW216944   6.688   1.395   0.689
 5349SOL     OW16945   6.293   0.184   1.082
 5349SOL    HW116946   6.367   0.150   1.025
 5349SOL    HW216947   6.258   0.109   1.139
 5350SOL     OW16948   2.718   0.606   6.587
 5350SOL    HW116949   2.784   0.620   6.513
 5350SOL    HW216950   2.725   0.512   6.621
 5351SOL     OW16951   4.233   0.684   2.010
 5351SOL    HW116952   4.195   0.617   2.073
 5351SOL    HW216953   4.205   0.776   2.038
 5352SOL     OW16954   3.471   6.220   3.493
 5352SOL    HW116955   3.560   6.265   3.503
 5352SOL    HW216956   3.398   6.288   3.495
 5353SOL     OW16957   5.984   0.313   5.834
 5353SOL    HW116958   6.008   0.356   5.921
 5353SOL    HW216959   5.886   0.319   5.820
 5354SOL     OW16960   1.660   3.402   0.801
 5354SOL    HW116961   1.664   3.303   0.786
 5354SOL    HW216962   1.606   3.444   0.728
 5355SOL     OW16963   4.259   1.462   6.041
 5355SOL    HW116964   4.234   1.503   6.130
 5355SOL    HW216965   4.357   1.473   6.026
 5356SOL     OW16966   6.157   3.369   0.636
 5356SOL    HW116967   6.221   3.445   0.635
 5356SOL    HW216968   6.202   3.288   0.673
 5357SOL     OW16969   4.163   6.022   0.653
 5357SOL    HW116970   4.190   6.014   0.749
 5357SOL    HW216971   4.131   5.934   0.620
 5358SOL     OW16972   5.085   4.413   1.652
 5358SOL    HW116973   5.024   4.407   1.573
 5358SOL    HW216974   5.079   4.329   1.705
 5359SOL     OW16975   3.189   0.078   6.969
 5359SOL    HW116976   3.200   0.116   0.045
 5359SOL    HW216977   3.104   0.025   6.966
 5360SOL     OW16978   4.443   0.809   0.152
 5360SOL    HW116979   4.443   0.731   0.214
 5360SOL    HW216980   4.349   0.826   0.120
 5361SOL     OW16981   1.564   0.855   6.275
 5361SOL    HW116982   1.637   0.826   6.214
 5361SOL    HW216983   1.567   0.801   6.359
 5362SOL     OW16984   4.082   5.480   3.383
 5362SOL    HW116985   4.177   5.490   3.415
 5362SOL    HW216986   4.041   5.399   3.426
 5363SOL     OW16987   0.712   5.341   4.612
 5363SOL    HW116988   0.677   5.247   4.604
 5363SOL    HW216989   0.664   5.389   4.685
 5364SOL     OW16990   1.091   6.094   6.736
 5364SOL    HW116991   1.034   6.174   6.721
 5364SOL    HW216992   1.188   6.119   6.729
 5365SOL     OW16993   3.676   2.005   6.327
 5365SOL    HW116994   3.714   1.915   6.308
 5365SOL    HW216995   3.749   2.073   6.330
 5366SOL     OW16996   3.259   4.101   6.362
 5366SOL    HW116997   3.341   4.114   6.306
 5366SOL    HW216998   3.193   4.045   6.313
 5367SOL     OW16999   0.527   4.508   0.802
 5367SOL    HW117000   0.452   4.443   0.809
 5367SOL    HW217001   0.511   4.584   0.865
 5368SOL     OW17002   0.501   0.560   3.838
 5368SOL    HW117003   0.537   0.533   3.749
 5368SOL    HW217004   0.480   0.479   3.892
 5369SOL     OW17005   1.984   3.423   2.114
 5369SOL    HW117006   2.074   3.451   2.080
 5369SOL    HW217007   1.914   3.481   2.073
 5370SOL     OW17008   3.773   2.948   1.336
 5370SOL    HW117009   3.754   3.017   1.266
 5370SOL    HW217010   3.763   2.988   1.427
 5371SOL     OW17011   1.762   3.831   4.968
 5371SOL    HW117012   1.737   3.878   5.053
 5371SOL    HW217013   1.860   3.841   4.951
 5372SOL     OW17014   3.178   6.129   2.733
 5372SOL    HW117015   3.139   6.182   2.808
 5372SOL    HW217016   3.145   6.165   2.646
 5373SOL     OW17017   1.779   5.213   4.125
 5373SOL    HW117018   1.725   5.295   4.143
 5373SOL    HW217019   1.757   5.142   4.192
 5374SOL     OW17020   3.032   2.730   0.616
 5374SOL    HW117021   3.108   2.787   0.647
 5374SOL    HW217022   3.065   2.637   0.598
 5375SOL     OW17023   0.758   3.731   5.012
 5375SOL    HW117024   0.828   3.660   5.004
 5375SOL    HW217025   0.671   3.695   4.978
 5376SOL     OW17026   3.147   4.465   6.356
 5376SOL    HW117027   3.101   4.389   6.310
 5376SOL    HW217028   3.110   4.475   6.449
 5377SOL     OW17029   0.312   1.850   1.993
 5377SOL    HW117030   0.266   1.906   1.924
 5377SOL    HW217031   0.409   1.874   1.995
 5378SOL     OW17032   5.155   6.959   0.072
 5378SOL    HW117033   5.206   6.900   0.009
 5378SOL    HW217034   5.075   6.996   0.024
 5379SOL     OW17035   0.219   6.602   0.968
 5379SOL    HW117036   0.233   6.521   0.911
 5379SOL    HW217037   0.261   6.681   0.925
 5380SOL     OW17038   1.959   1.177   4.593
 5380SOL    HW117039   1.875   1.228   4.576
 5380SOL    HW217040   1.980   1.179   4.691
 5381SOL     OW17041   5.800   3.667   1.824
 5381SOL    HW117042   5.884   3.717   1.803
 5381SOL    HW217043   5.768   3.692   1.916
 5382SOL     OW17044   1.667   6.902   1.764
 5382SOL    HW117045   1.605   6.981   1.769
 5382SOL    HW217046   1.698   6.879   1.856
 5383SOL     OW17047   2.130   1.957   4.668
 5383SOL    HW117048   2.162   2.017   4.595
 5383SOL    HW217049   2.081   2.010   4.737
 5384SOL     OW17050   5.420   6.677   4.426
 5384SOL    HW117051   5.484   6.748   4.455
 5384SOL    HW217052   5.361   6.651   4.503
 5385SOL     OW17053   3.482   4.108   3.073
 5385SOL    HW117054   3.580   4.122   3.092
 5385SOL    HW217055   3.471   4.078   2.978
 5386SOL     OW17056   5.712   0.016   5.735
 5386SOL    HW117057   5.709   0.025   5.834
 5386SOL    HW217058   5.805   7.010   5.706
 5387SOL     OW17059   3.481   4.880   1.460
 5387SOL    HW117060   3.413   4.938   1.416
 5387SOL    HW217061   3.573   4.913   1.438
 5388SOL     OW17062   6.056   5.863   3.058
 5388SOL    HW117063   6.010   5.776   3.077
 5388SOL    HW217064   6.097   5.861   2.968
 5389SOL     OW17065   5.539   2.487   1.410
 5389SOL    HW117066   5.609   2.428   1.449
 5389SOL    HW217067   5.520   2.460   1.316
 5390SOL     OW17068   6.378   5.056   5.837
 5390SOL    HW117069   6.420   5.135   5.882
 5390SOL    HW217070   6.287   5.040   5.876
 5391SOL     OW17071   3.582   3.668   6.742
 5391SOL    HW117072   3.491   3.636   6.718
 5391SOL    HW217073   3.649   3.630   6.678
 5392SOL     OW17074   0.172   2.828   2.865
 5392SOL    HW117075   0.211   2.808   2.955
 5392SOL    HW217076   0.073   2.810   2.867
 5393SOL     OW17077   6.435   6.634   6.067
 5393SOL    HW117078   6.360   6.660   6.129
 5393SOL    HW217079   6.411   6.659   5.974
 5394SOL     OW17080   2.181   3.753   5.764
 5394SOL    HW117081   2.264   3.706   5.793
 5394SOL    HW217082   2.197   3.800   5.678
 5395SOL     OW17083   4.391   0.233   1.386
 5395SOL    HW117084   4.457   0.281   1.328
 5395SOL    HW217085   4.384   0.137   1.356
 5396SOL     OW17086   4.477   2.422   1.804
 5396SOL    HW117087   4.430   2.352   1.858
 5396SOL    HW217088   4.558   2.382   1.761
 5397SOL     OW17089   0.984   2.608   1.924
 5397SOL    HW117090   1.069   2.620   1.976
 5397SOL    HW217091   0.906   2.631   1.982
 5398SOL     OW17092   3.315   3.030   2.562
 5398SOL    HW117093   3.288   3.053   2.655
 5398SOL    HW217094   3.379   3.099   2.528
 5399SOL     OW17095   0.988   5.468   0.077
 5399SOL    HW117096   1.017   5.498   7.002
 5399SOL    HW217097   0.888   5.476   0.084
 5400SOL     OW17098   2.263   3.158   6.953
 5400SOL    HW117099   2.188   3.165   0.001
 5400SOL    HW217100   2.246   3.082   6.890
 5401SOL     OW17101   6.529   1.933   0.726
 5401SOL    HW117102   6.472   1.875   0.785
 5401SOL    HW217103   6.625   1.913   0.742
 5402SOL     OW17104   1.262   6.205   2.335
 5402SOL    HW117105   1.283   6.266   2.258
 5402SOL    HW217106   1.334   6.136   2.343
 5403SOL     OW17107   6.014   2.691   6.732
 5403SOL    HW117108   6.108   2.712   6.704
 5403SOL    HW217109   5.992   2.743   6.815
 5404SOL     OW17110   1.247   3.147   3.314
 5404SOL    HW117111   1.247   3.212   3.390
 5404SOL    HW217112   1.339   3.142   3.275
 5405SOL     OW17113   0.101   4.368   5.186
 5405SOL    HW117114   0.041   4.439   5.150
 5405SOL    HW217115   0.113   4.297   5.116
 5406SOL     OW17116   1.251   0.025   3.951
 5406SOL    HW117117   1.245   6.945   3.978
 5406SOL    HW217118   1.202   0.039   3.865
 5407SOL     OW17119   4.164   3.394   6.760
 5407SOL    HW117120   4.232   3.350   6.818
 5407SOL    HW217121   4.181   3.493   6.758
 5408SOL     OW17122   3.470   1.088   6.844
 5408SOL    HW117123   3.559   1.069   6.804
 5408SOL    HW217124   3.415   1.004   6.845
 5409SOL     OW17125   4.913   0.513   2.138
 5409SOL    HW117126   4.865   0.586   2.089
 5409SOL    HW217127   4.865   0.426   2.125
 5410SOL     OW17128   1.472   2.606   3.539
 5410SOL    HW117129   1.451   2.637   3.446
 5410SOL    HW217130   1.393   2.559   3.578
 5411SOL     OW17131   2.174   4.680   4.906
 5411SOL    HW117132   2.211   4.588   4.913
 5411SOL    HW217133   2.113   4.697   4.983
 5412SOL     OW17134   6.271   2.055   2.066
 5412SOL    HW117135   6.233   1.998   1.992
 5412SOL    HW217136   6.341   2.116   2.028
 5413SOL     OW17137   1.666   6.752   2.471
 5413SOL    HW117138   1.566   6.755   2.462
 5413SOL    HW217139   1.695   6.822   2.536
 5414SOL     OW17140   3.858   0.455   5.425
 5414SOL    HW117141   3.922   0.382   5.402
 5414SOL    HW217142   3.778   0.416   5.470
 5415SOL     OW17143   6.458   3.613   2.634
 5415SOL    HW117144   6.386   3.684   2.635
 5415SOL    HW217145   6.500   3.608   2.724
 5416SOL     OW17146   3.947   5.337   4.165
 5416SOL    HW117147   4.016   5.397   4.126
 5416SOL    HW217148   3.988   5.281   4.237
 5417SOL     OW17149   3.117   0.092   5.998
 5417SOL    HW117150   3.117   7.011   5.977
 5417SOL    HW217151   3.046   0.139   5.945
 5418SOL     OW17152   3.662   1.134   3.673
 5418SOL    HW117153   3.632   1.066   3.607
 5418SOL    HW217154   3.620   1.116   3.762
 5419SOL     OW17155   3.474   3.915   6.802
 5419SOL    HW117156   3.530   3.839   6.768
 5419SOL    HW217157   3.466   3.985   6.731
 5420SOL     OW17158   0.621   2.422   3.104
 5420SOL    HW117159   0.657   2.483   3.174
 5420SOL    HW217160   0.645   2.457   3.014
 5421SOL     OW17161   1.949   2.369   0.580
 5421SOL    HW117162   1.860   2.344   0.542
 5421SOL    HW217163   1.946   2.360   0.680
 5422SOL     OW17164   0.807   3.764   0.141
 5422SOL    HW117165   0.818   3.665   0.138
 5422SOL    HW217166   0.889   3.808   0.105
 5423SOL     OW17167   5.116   3.064   5.676
 5423SOL    HW117168   5.192   3.084   5.615
 5423SOL    HW217169   5.040   3.025   5.623
 5424SOL     OW17170   5.317   3.448   5.392
 5424SOL    HW117171   5.294   3.505   5.313
 5424SOL    HW217172   5.377   3.499   5.453
 5425SOL     OW17173   5.278   0.910   4.997
 5425SOL    HW117174   5.342   0.836   4.974
 5425SOL    HW217175   5.298   0.989   4.939
 5426SOL     OW17176   0.470   6.764   5.138
 5426SOL    HW117177   0.463   6.862   5.156
 5426SOL    HW217178   0.421   6.713   5.209
 5427SOL     OW17179   4.172   6.933   6.980
 5427SOL    HW117180   4.128   6.876   0.034
 5427SOL    HW217181   4.136   6.907   6.890
 5428SOL     OW17182   1.863   1.202   0.071
 5428SOL    HW117183   1.954   1.214   0.030
 5428SOL    HW217184   1.811   1.286   0.060
 5429SOL     OW17185   0.829   2.305   6.276
 5429SOL    HW117186   0.845   2.274   6.182
 5429SOL    HW217187   0.732   2.323   6.290
 5430SOL     OW17188   1.920   2.769   5.632
 5430SOL    HW117189   1.960   2.703   5.695
 5430SOL    HW217190   1.855   2.723   5.572
 5431SOL     OW17191   3.791   5.718   4.807
 5431SOL    HW117192   3.702   5.763   4.793
 5431SOL    HW217193   3.861   5.788   4.822
 5432SOL     OW17194   5.708   5.348   0.953
 5432SOL    HW117195   5.614   5.322   0.972
 5432SOL    HW217196   5.765   5.333   1.034
 5433SOL     OW17197   0.315   1.690   4.084
 5433SOL    HW117198   0.232   1.690   4.028
 5433SOL    HW217199   0.299   1.744   4.166
 5434SOL     OW17200   2.304   6.857   5.326
 5434SOL    HW117201   2.323   6.845   5.228
 5434SOL    HW217202   2.330   6.774   5.375
 5435SOL     OW17203   5.180   1.642   1.857
 5435SOL    HW117204   5.180   1.740   1.834
 5435SOL    HW217205   5.181   1.588   1.772
 5436SOL     OW17206   5.738   3.977   2.806
 5436SOL    HW117207   5.689   3.897   2.771
 5436SOL    HW217208   5.678   4.030   2.866
 5437SOL     OW17209   3.805   4.705   6.318
 5437SOL    HW117210   3.734   4.746   6.260
 5437SOL    HW217211   3.865   4.778   6.352
 5438SOL     OW17212   6.821   0.681   1.184
 5438SOL    HW117213   6.724   0.656   1.184
 5438SOL    HW217214   6.834   0.763   1.129
 5439SOL     OW17215   1.484   2.967   0.754
 5439SOL    HW117216   1.471   2.954   0.656
 5439SOL    HW217217   1.498   2.878   0.798
 5440SOL     OW17218   1.821   1.047   1.404
 5440SOL    HW117219   1.823   0.977   1.475
 5440SOL    HW217220   1.792   1.134   1.444
 5441SOL     OW17221   3.804   1.838   4.040
 5441SOL    HW117222   3.813   1.936   4.059
 5441SOL    HW217223   3.716   1.805   4.074
 5442SOL     OW17224   3.576   0.947   1.981
 5442SOL    HW117225   3.656   1.007   1.986
 5442SOL    HW217226   3.503   0.994   1.931
 5443SOL     OW17227   2.076   6.518   6.027
 5443SOL    HW117228   2.005   6.501   5.958
 5443SOL    HW217229   2.131   6.597   5.999
 5444SOL     OW17230   0.346   0.936   3.219
 5444SOL    HW117231   0.318   0.880   3.141
 5444SOL    HW217232   0.370   0.876   3.295
 5445SOL     OW17233   6.335   3.326   2.076
 5445SOL    HW117234   6.268   3.358   2.009
 5445SOL    HW217235   6.306   3.353   2.168
 5446SOL     OW17236   6.683   5.570   5.835
 5446SOL    HW117237   6.651   5.578   5.740
 5446SOL    HW217238   6.704   5.661   5.871
 5447SOL     OW17239   2.869   2.200   0.957
 5447SOL    HW117240   2.941   2.151   0.907
 5447SOL    HW217241   2.804   2.240   0.893
 5448SOL     OW17242   5.893   1.716   6.498
 5448SOL    HW117243   5.922   1.809   6.476
 5448SOL    HW217244   5.930   1.652   6.430
 5449SOL     OW17245   0.402   2.589   6.688
 5449SOL    HW117246   0.374   2.676   6.647
 5449SOL    HW217247   0.333   2.519   6.668
 5450SOL     OW17248   2.343   6.046   0.728
 5450SOL    HW117249   2.402   6.076   0.653
 5450SOL    HW217250   2.356   5.948   0.744
 5451SOL     OW17251   2.413   0.435   2.938
 5451SOL    HW117252   2.360   0.425   2.854
 5451SOL    HW217253   2.488   0.500   2.922
 5452SOL     OW17254   2.422   3.610   5.663
 5452SOL    HW117255   2.415   3.513   5.684
 5452SOL    HW217256   2.432   3.622   5.564
 5453SOL     OW17257   0.743   5.070   5.982
 5453SOL    HW117258   0.799   5.018   6.046
 5453SOL    HW217259   0.699   5.146   6.031
 5454SOL     OW17260   0.566   4.020   4.958
 5454SOL    HW117261   0.475   4.054   4.937
 5454SOL    HW217262   0.560   3.929   4.998
 5455SOL     OW17263   6.560   2.268   0.478
 5455SOL    HW117264   6.551   2.367   0.463
 5455SOL    HW217265   6.615   2.252   0.559
 5456SOL     OW17266   3.431   6.813   1.740
 5456SOL    HW117267   3.405   6.801   1.836
 5456SOL    HW217268   3.504   6.749   1.717
 5457SOL     OW17269   6.247   3.715   0.712
 5457SOL    HW117270   6.277   3.661   0.634
 5457SOL    HW217271   6.327   3.752   0.760
 5458SOL     OW17272   1.599   4.198   5.993
 5458SOL    HW117273   1.693   4.188   6.026
 5458SOL    HW217274   1.599   4.200   5.893
 5459SOL     OW17275   2.218   4.283   5.747
 5459SOL    HW117276   2.122   4.312   5.749
 5459SOL    HW217277   2.226   4.193   5.789
 5460SOL     OW17278   3.953   0.025   3.558
 5460SOL    HW117279   3.936   0.088   3.634
 5460SOL    HW217280   3.866   7.001   3.529
 5461SOL     OW17281   4.384   6.762   4.949
 5461SOL    HW117282   4.446   6.774   4.871
 5461SOL    HW217283   4.422   6.694   5.012
 5462SOL     OW17284   0.282   0.514   1.390
 5462SOL    HW117285   0.242   0.442   1.447
 5462SOL    HW217286   0.211   0.552   1.330
 5463SOL     OW17287   0.033   3.430   0.782
 5463SOL    HW117288   0.055   3.335   0.802
 5463SOL    HW217289   7.006   3.472   0.862
 5464SOL     OW17290   1.736   6.272   4.427
 5464SOL    HW117291   1.818   6.327   4.441
 5464SOL    HW217292   1.684   6.267   4.512
 5465SOL     OW17293   2.796   5.689   6.727
 5465SOL    HW117294   2.864   5.718   6.794
 5465SOL    HW217295   2.744   5.612   6.763
 5466SOL     OW17296   5.543   5.512   4.634
 5466SOL    HW117297   5.498   5.442   4.579
 5466SOL    HW217298   5.538   5.488   4.731
 5467SOL     OW17299   5.893   1.555   2.197
 5467SOL    HW117300   5.942   1.554   2.110
 5467SOL    HW217301   5.883   1.462   2.232
 5468SOL     OW17302   4.487   1.178   6.058
 5468SOL    HW117303   4.483   1.222   5.968
 5468SOL    HW217304   4.443   1.237   6.125
 5469SOL     OW17305   4.963   4.555   1.902
 5469SOL    HW117306   4.893   4.486   1.922
 5469SOL    HW217307   5.033   4.515   1.843
 5470SOL     OW17308   0.657   4.996   3.429
 5470SOL    HW117309   0.701   4.918   3.385
 5470SOL    HW217310   0.726   5.063   3.455
 5471SOL     OW17311   6.258   4.391   2.422
 5471SOL    HW117312   6.223   4.386   2.329
 5471SOL    HW217313   6.184   4.378   2.487
 5472SOL     OW17314   3.737   5.182   5.124
 5472SOL    HW117315   3.832   5.214   5.118
 5472SOL    HW217316   3.709   5.145   5.035
 5473SOL     OW17317   1.564   4.283   3.786
 5473SOL    HW117318   1.560   4.255   3.882
 5473SOL    HW217319   1.475   4.267   3.743
 5474SOL     OW17320   1.208   6.011   3.168
 5474SOL    HW117321   1.273   6.087   3.175
 5474SOL    HW217322   1.122   6.045   3.129
 5475SOL     OW17323   3.256   2.832   1.902
 5475SOL    HW117324   3.197   2.878   1.836
 5475SOL    HW217325   3.246   2.875   1.992
 5476SOL     OW17326   1.957   3.326   6.922
 5476SOL    HW117327   1.954   3.276   7.009
 5476SOL    HW217328   1.933   3.264   6.847
 5477SOL     OW17329   2.182   2.509   2.730
 5477SOL    HW117330   2.185   2.604   2.698
 5477SOL    HW217331   2.159   2.449   2.653
 5478SOL     OW17332   6.920   5.489   5.630
 5478SOL    HW117333   6.915   5.586   5.654
 5478SOL    HW217334   6.884   5.435   5.706
 5479SOL     OW17335   4.698   6.889   5.427
 5479SOL    HW117336   4.702   6.883   5.327
 5479SOL    HW217337   4.781   6.852   5.466
 5480SOL     OW17338   0.793   2.225   5.418
 5480SOL    HW117339   0.736   2.241   5.498
 5480SOL    HW217340   0.889   2.236   5.443
 5481SOL     OW17341   4.199   6.531   3.795
 5481SOL    HW117342   4.151   6.575   3.871
 5481SOL    HW217343   4.237   6.602   3.735
 5482SOL     OW17344   1.633   5.786   1.940
 5482SOL    HW117345   1.606   5.773   1.844
 5482SOL    HW217346   1.556   5.822   1.991
 5483SOL     OW17347   0.955   2.236   6.513
 5483SOL    HW117348   0.888   2.281   6.455
 5483SOL    HW217349   0.936   2.138   6.516
 5484SOL     OW17350   5.405   0.258   4.837
 5484SOL    HW117351   5.403   0.353   4.804
 5484SOL    HW217352   5.491   0.241   4.886
 5485SOL     OW17353   3.706   0.428   4.511
 5485SOL    HW117354   3.780   0.484   4.474
 5485SOL    HW217355   3.740   0.337   4.533
 5486SOL     OW17356   3.371   5.046   3.847
 5486SOL    HW117357   3.362   5.049   3.947
 5486SOL    HW217358   3.465   5.021   3.823
 5487SOL     OW17359   3.115   5.776   5.251
 5487SOL    HW117360   3.170   5.692   5.254
 5487SOL    HW217361   3.144   5.832   5.173
 5488SOL     OW17362   4.973   2.026   6.675
 5488SOL    HW117363   4.967   2.109   6.620
 5488SOL    HW217364   4.998   2.050   6.769
 5489SOL     OW17365   0.360   2.570   4.243
 5489SOL    HW117366   0.407   2.626   4.176
 5489SOL    HW217367   0.300   2.505   4.197
 5490SOL     OW17368   0.748   4.786   2.320
 5490SOL    HW117369   0.702   4.726   2.255
 5490SOL    HW217370   0.717   4.880   2.308
 5491SOL     OW17371   5.862   3.965   0.710
 5491SOL    HW117372   5.907   3.976   0.621
 5491SOL    HW217373   5.919   3.909   0.769
 5492SOL     OW17374   0.253   1.633   6.544
 5492SOL    HW117375   0.334   1.691   6.550
 5492SOL    HW217376   0.235   1.610   6.448
 5493SOL     OW17377   4.142   4.202   6.921
 5493SOL    HW117378   4.048   4.230   6.903
 5493SOL    HW217379   4.172   4.139   6.849
 5494SOL     OW17380   5.955   2.564   5.256
 5494SOL    HW117381   6.005   2.483   5.286
 5494SOL    HW217382   5.898   2.598   5.331
 5495SOL     OW17383   6.017   0.308   0.399
 5495SOL    HW117384   5.918   0.303   0.412
 5495SOL    HW217385   6.046   0.404   0.399
 5496SOL     OW17386   3.956   6.751   6.019
 5496SOL    HW117387   3.934   6.846   6.039
 5496SOL    HW217388   4.050   6.732   6.047
 5497SOL     OW17389   0.822   0.495   5.503
 5497SOL    HW117390   0.862   0.457   5.587
 5497SOL    HW217391   0.878   0.468   5.425
 5498SOL     OW17392   0.881   5.458   1.397
 5498SOL    HW117393   0.933   5.470   1.312
 5498SOL    HW217394   0.791   5.502   1.387
 5499SOL     OW17395   2.305   0.325   3.653
 5499SOL    HW117396   2.282   0.413   3.695
 5499SOL    HW217397   2.228   0.263   3.662
 5500SOL     OW17398   2.077   6.541   1.523
 5500SOL    HW117399   1.997   6.488   1.494
 5500SOL    HW217400   2.060   6.580   1.613
 5501SOL     OW17401   4.847   3.233   7.000
 5501SOL    HW117402   4.773   3.183   6.956
 5501SOL    HW217403   4.844   3.329   6.969
 5502SOL     OW17404   4.570   3.298   6.706
 5502SOL    HW117405   4.649   3.275   6.650
 5502SOL    HW217406   4.511   3.218   6.715
 5503SOL     OW17407   5.899   3.425   1.220
 5503SOL    HW117408   5.935   3.378   1.139
 5503SOL    HW217409   5.800   3.414   1.224
 5504SOL     OW17410   3.154   1.984   0.146
 5504SOL    HW117411   3.184   2.004   0.053
 5504SOL    HW217412   3.202   2.045   0.210
 5505SOL     OW17413   2.463   4.874   2.147
 5505SOL    HW117414   2.380   4.829   2.113
 5505SOL    HW217415   2.494   4.940   2.079
 5506SOL     OW17416   6.476   2.439   5.939
 5506SOL    HW117417   6.468   2.464   5.842
 5506SOL    HW217418   6.527   2.511   5.987
 5507SOL     OW17419   4.137   6.594   0.765
 5507SOL    HW117420   4.052   6.624   0.808
 5507SOL    HW217421   4.197   6.673   0.751
 5508SOL     OW17422   6.764   1.330   6.568
 5508SOL    HW117423   6.857   1.308   6.595
 5508SOL    HW217424   6.733   1.412   6.617
 5509SOL     OW17425   6.498   3.957   6.924
 5509SOL    HW117426   6.410   3.980   6.883
 5509SOL    HW217427   6.511   3.858   6.922
 5510SOL     OW17428   5.250   6.059   6.851
 5510SOL    HW117429   5.186   6.040   6.776
 5510SOL    HW217430   5.299   5.975   6.875
 5511SOL     OW17431   1.015   2.559   6.328
 5511SOL    HW117432   0.946   2.494   6.362
 5511SOL    HW217433   1.101   2.510   6.312
 5512SOL     OW17434   2.567   0.183   2.364
 5512SOL    HW117435   2.597   0.256   2.425
 5512SOL    HW217436   2.635   0.110   2.364
 5513SOL     OW17437   3.727   4.355   6.554
 5513SOL    HW117438   3.824   4.374   6.573
 5513SOL    HW217439   3.685   4.435   6.513
 5514SOL     OW17440   3.656   0.989   0.559
 5514SOL    HW117441   3.565   1.003   0.598
 5514SOL    HW217442   3.725   1.005   0.629
 5515SOL     OW17443   3.205   5.222   2.538
 5515SOL    HW117444   3.291   5.242   2.492
 5515SOL    HW217445   3.139   5.187   2.472
 5516SOL     OW17446   1.348   2.296   5.907
 5516SOL    HW117447   1.367   2.393   5.889
 5516SOL    HW217448   1.419   2.240   5.865
 5517SOL     OW17449   0.817   1.971   3.820
 5517SOL    HW117450   0.870   1.998   3.740
 5517SOL    HW217451   0.848   1.882   3.852
 5518SOL     OW17452   4.579   4.541   5.898
 5518SOL    HW117453   4.644   4.501   5.834
 5518SOL    HW217454   4.519   4.605   5.850
 5519SOL     OW17455   5.517   2.568   5.808
 5519SOL    HW117456   5.490   2.651   5.856
 5519SOL    HW217457   5.438   2.507   5.800
 5520SOL     OW17458   5.192   6.143   1.459
 5520SOL    HW117459   5.094   6.154   1.446
 5520SOL    HW217460   5.232   6.107   1.375
 5521SOL     OW17461   4.533   6.895   2.082
 5521SOL    HW117462   4.484   6.829   2.139
 5521SOL    HW217463   4.512   6.988   2.115
 5522SOL     OW17464   5.096   6.436   0.111
 5522SOL    HW117465   5.130   6.344   0.088
 5522SOL    HW217466   4.996   6.433   0.117
 5523SOL     OW17467   5.110   2.149   0.627
 5523SOL    HW117468   5.144   2.234   0.667
 5523SOL    HW217469   5.014   2.136   0.655
 5524SOL     OW17470   2.770   1.308   3.231
 5524SOL    HW117471   2.686   1.256   3.243
 5524SOL    HW217472   2.843   1.268   3.286
 5525SOL     OW17473   6.817   1.587   1.688
 5525SOL    HW117474   6.836   1.501   1.735
 5525SOL    HW217475   6.890   1.606   1.623
 5526SOL     OW17476   5.369   4.402   4.223
 5526SOL    HW117477   5.341   4.444   4.136
 5526SOL    HW217478   5.467   4.380   4.220
 5527SOL     OW17479   6.434   0.363   2.605
 5527SOL    HW117480   6.385   0.298   2.549
 5527SOL    HW217481   6.370   0.426   2.648
 5528SOL     OW17482   1.203   1.696   0.133
 5528SOL    HW117483   1.163   1.641   0.060
 5528SOL    HW217484   1.175   1.792   0.122
 5529SOL     OW17485   3.476   0.378   1.757
 5529SOL    HW117486   3.485   0.473   1.728
 5529SOL    HW217487   3.437   0.323   1.684
 5530SOL     OW17488   0.930   1.449   1.207
 5530SOL    HW117489   0.953   1.417   1.116
 5530SOL    HW217490   0.994   1.520   1.235
 5531SOL     OW17491   1.673   4.745   0.157
 5531SOL    HW117492   1.756   4.697   0.184
 5531SOL    HW217493   1.604   4.735   0.229
 5532SOL     OW17494   0.058   4.160   6.248
 5532SOL    HW117495   0.028   4.215   6.169
 5532SOL    HW217496   0.102   4.220   6.315
 5533SOL     OW17497   3.687   0.957   2.915
 5533SOL    HW117498   3.607   0.914   2.957
 5533SOL    HW217499   3.662   1.047   2.878
 5534SOL     OW17500   1.590   0.348   4.472
 5534SOL    HW117501   1.617   0.377   4.380
 5534SOL    HW217502   1.645   0.396   4.540
 5535SOL     OW17503   0.536   1.880   2.571
 5535SOL    HW117504   0.521   1.933   2.488
 5535SOL    HW217505   0.449   1.862   2.616
 5536SOL     OW17506   4.500   6.858   4.678
 5536SOL    HW117507   4.541   6.942   4.713
 5536SOL    HW217508   4.562   6.815   4.612
 5537SOL     OW17509   2.509   2.571   3.031
 5537SOL    HW117510   2.559   2.638   2.975
 5537SOL    HW217511   2.425   2.613   3.067
 5538SOL     OW17512   4.420   5.775   4.114
 5538SOL    HW117513   4.362   5.727   4.180
 5538SOL    HW217514   4.502   5.722   4.096
 5539SOL     OW17515   2.358   4.199   7.004
 5539SOL    HW117516   2.377   4.112   6.957
 5539SOL    HW217517   2.381   4.275   6.943
 5540SOL     OW17518   3.762   5.573   1.156
 5540SOL    HW117519   3.679   5.518   1.159
 5540SOL    HW217520   3.762   5.637   1.233
 5541SOL     OW17521   4.790   0.469   6.184
 5541SOL    HW117522   4.745   0.493   6.097
 5541SOL    HW217523   4.853   0.393   6.168
 5542SOL     OW17524   5.257   4.666   6.058
 5542SOL    HW117525   5.312   4.585   6.035
 5542SOL    HW217526   5.279   4.696   6.151
 5543SOL     OW17527   0.439   1.819   5.031
 5543SOL    HW117528   0.527   1.807   5.075
 5543SOL    HW217529   0.441   1.781   4.939
 5544SOL     OW17530   5.678   0.481   6.775
 5544SOL    HW117531   5.731   0.548   6.828
 5544SOL    HW217532   5.739   0.407   6.746
 5545SOL     OW17533   2.350   2.018   2.152
 5545SOL    HW117534   2.291   2.094   2.126
 5545SOL    HW217535   2.381   2.030   2.247
 5546SOL     OW17536   3.961   5.668   5.224
 5546SOL    HW117537   4.040   5.616   5.255
 5546SOL    HW217538   3.979   5.766   5.233
 5547SOL     OW17539   3.445   5.434   3.881
 5547SOL    HW117540   3.543   5.413   3.872
 5547SOL    HW217541   3.427   5.470   3.972
 5548SOL     OW17542   6.978   1.713   4.859
 5548SOL    HW117543   6.913   1.660   4.914
 5548SOL    HW217544   6.959   1.810   4.869
 5549SOL     OW17545   3.674   5.340   6.500
 5549SOL    HW117546   3.762   5.297   6.477
 5549SOL    HW217547   3.623   5.357   6.416
 5550SOL     OW17548   2.722   6.339   2.763
 5550SOL    HW117549   2.757   6.428   2.792
 5550SOL    HW217550   2.723   6.276   2.841
 5551SOL     OW17551   0.885   1.263   2.264
 5551SOL    HW117552   0.905   1.326   2.189
 5551SOL    HW217553   0.874   1.314   2.349
 5552SOL     OW17554   2.102   2.625   2.952
 5552SOL    HW117555   2.167   2.688   2.995
 5552SOL    HW217556   2.145   2.583   2.872
 5553SOL     OW17557   4.917   6.127   6.142
 5553SOL    HW117558   4.900   6.204   6.203
 5553SOL    HW217559   4.905   6.041   6.193
 5554SOL     OW17560   3.430   0.717   4.427
 5554SOL    HW117561   3.446   0.651   4.354
 5554SOL    HW217562   3.470   0.682   4.512
 5555SOL     OW17563   1.116   6.092   1.469
 5555SOL    HW117564   1.034   6.043   1.439
 5555SOL    HW217565   1.139   6.064   1.562
 5556SOL     OW17566   0.081   1.010   5.219
 5556SOL    HW117567   0.058   1.064   5.300
 5556SOL    HW217568   0.023   0.928   5.215
 5557SOL     OW17569   3.565   0.739   2.203
 5557SOL    HW117570   3.660   0.732   2.234
 5557SOL    HW217571   3.562   0.793   2.119
 5558SOL     OW17572   5.069   2.419   5.610
 5558SOL    HW117573   5.010   2.340   5.623
 5558SOL    HW217574   5.018   2.503   5.630
 5559SOL     OW17575   2.797   0.360   0.846
 5559SOL    HW117576   2.866   0.392   0.781
 5559SOL    HW217577   2.774   0.434   0.909
 5560SOL     OW17578   6.915   1.348   4.885
 5560SOL    HW117579   6.956   1.282   4.947
 5560SOL    HW217580   6.979   1.370   4.812
 5561SOL     OW17581   1.528   4.369   1.887
 5561SOL    HW117582   1.528   4.455   1.837
 5561SOL    HW217583   1.595   4.374   1.961
 5562SOL     OW17584   3.684   2.409   0.037
 5562SOL    HW117585   3.751   2.480   0.057
 5562SOL    HW217586   3.707   2.326   0.088
 5563SOL     OW17587   3.817   4.481   1.198
 5563SOL    HW117588   3.726   4.484   1.157
 5563SOL    HW217589   3.809   4.488   1.297
 5564SOL     OW17590   6.047   1.491   2.734
 5564SOL    HW117591   6.143   1.497   2.762
 5564SOL    HW217592   6.034   1.409   2.678
 5565SOL     OW17593   1.353   3.019   5.878
 5565SOL    HW117594   1.386   2.995   5.969
 5565SOL    HW217595   1.360   2.939   5.817
 5566SOL     OW17596   2.471   4.063   0.240
 5566SOL    HW117597   2.381   4.088   0.277
 5566SOL    HW217598   2.484   4.110   0.153
 5567SOL     OW17599   1.390   5.353   3.288
 5567SOL    HW117600   1.481   5.371   3.252
 5567SOL    HW217601   1.380   5.398   3.377
 5568SOL     OW17602   3.825   2.672   6.972
 5568SOL    HW117603   3.798   2.767   6.958
 5568SOL    HW217604   3.924   2.666   6.985
 5569SOL     OW17605   4.763   1.852   6.737
 5569SOL    HW117606   4.830   1.919   6.704
 5569SOL    HW217607   4.748   1.865   6.835
 5570SOL     OW17608   1.363   2.450   6.163
 5570SOL    HW117609   1.298   2.423   6.233
 5570SOL    HW217610   1.314   2.490   6.085
 5571SOL     OW17611   0.529   4.287   6.360
 5571SOL    HW117612   0.595   4.360   6.342
 5571SOL    HW217613   0.464   4.318   6.430
 5572SOL     OW17614   0.619   2.878   6.078
 5572SOL    HW117615   0.662   2.966   6.097
 5572SOL    HW217616   0.523   2.881   6.104
 5573SOL     OW17617   6.838   3.696   5.982
 5573SOL    HW117618   6.739   3.703   5.975
 5573SOL    HW217619   6.881   3.766   5.925
 5574SOL     OW17620   2.046   6.279   4.611
 5574SOL    HW117621   1.987   6.234   4.677
 5574SOL    HW217622   2.005   6.365   4.582
 5575SOL     OW17623   1.099   1.531   2.813
 5575SOL    HW117624   1.123   1.462   2.745
 5575SOL    HW217625   1.088   1.620   2.768
 5576SOL     OW17626   5.395   6.576   5.355
 5576SOL    HW117627   5.319   6.557   5.416
 5576SOL    HW217628   5.366   6.567   5.260
 5577SOL     OW17629   1.461   4.450   4.794
 5577SOL    HW117630   1.366   4.426   4.816
 5577SOL    HW217631   1.522   4.380   4.830
 5578SOL     OW17632   4.098   1.877   6.156
 5578SOL    HW117633   4.196   1.862   6.143
 5578SOL    HW217634   4.069   1.956   6.101
 5579SOL     OW17635   4.854   4.496   2.398
 5579SOL    HW117636   4.948   4.462   2.399
 5579SOL    HW217637   4.792   4.422   2.372
 5580SOL     OW17638   6.083   1.232   1.931
 5580SOL    HW117639   6.087   1.140   1.892
 5580SOL    HW217640   6.176   1.265   1.947
 5581SOL     OW17641   2.965   3.157   0.733
 5581SOL    HW117642   2.969   3.096   0.654
 5581SOL    HW217643   3.049   3.212   0.737
 5582SOL     OW17644   2.957   3.564   3.772
 5582SOL    HW117645   3.043   3.575   3.724
 5582SOL    HW217646   2.913   3.654   3.784
 5583SOL     OW17647   4.049   0.763   6.774
 5583SOL    HW117648   4.079   0.683   6.724
 5583SOL    HW217649   3.980   0.812   6.721
 5584SOL     OW17650   5.020   3.061   4.152
 5584SOL    HW117651   5.075   3.028   4.075
 5584SOL    HW217652   5.024   3.161   4.154
 5585SOL     OW17653   0.574   0.590   3.497
 5585SOL    HW117654   0.597   0.496   3.520
 5585SOL    HW217655   0.621   0.616   3.412
 5586SOL     OW17656   1.656   0.797   6.803
 5586SOL    HW117657   1.715   0.878   6.799
 5586SOL    HW217658   1.707   0.721   6.843
 5587SOL     OW17659   3.845   6.378   3.267
 5587SOL    HW117660   3.789   6.310   3.219
 5587SOL    HW217661   3.938   6.343   3.276
 5588SOL     OW17662   5.002   6.255   6.820
 5588SOL    HW117663   4.930   6.321   6.838
 5588SOL    HW217664   5.047   6.230   6.906
 5589SOL     OW17665   1.553   3.186   7.012
 5589SOL    HW117666   1.456   3.199   6.995
 5589SOL    HW217667   1.590   3.267   0.042
 5590SOL     OW17668   6.467   0.328   3.176
 5590SOL    HW117669   6.503   0.256   3.117
 5590SOL    HW217670   6.542   0.386   3.208
 5591SOL     OW17671   5.164   0.738   6.777
 5591SOL    HW117672   5.136   0.829   6.747
 5591SOL    HW217673   5.173   0.737   6.876
 5592SOL     OW17674   1.338   3.164   2.873
 5592SOL    HW117675   1.407   3.092   2.873
 5592SOL    HW217676   1.378   3.250   2.906
 5593SOL     OW17677   2.163   3.540   5.028
 5593SOL    HW117678   2.181   3.448   5.062
 5593SOL    HW217679   2.188   3.546   4.932
 5594SOL     OW17680   2.797   1.320   5.898
 5594SOL    HW117681   2.726   1.368   5.847
 5594SOL    HW217682   2.785   1.221   5.887
 5595SOL     OW17683   6.734   3.097   6.861
 5595SOL    HW117684   6.715   3.187   6.900
 5595SOL    HW217685   6.818   3.101   6.807
 5596SOL     OW17686   4.893   3.617   4.433
 5596SOL    HW117687   4.980   3.567   4.434
 5596SOL    HW217688   4.817   3.552   4.431
 5597SOL     OW17689   0.402   1.465   6.755
 5597SOL    HW117690   0.348   1.465   6.839
 5597SOL    HW217691   0.357   1.522   6.686
 5598SOL     OW17692   6.395   0.188   3.397
 5598SOL    HW117693   6.420   0.214   3.304
 5598SOL    HW217694   6.442   0.247   3.462
 5599SOL     OW17695   5.469   3.492   3.198
 5599SOL    HW117696   5.394   3.540   3.244
 5599SOL    HW217697   5.437   3.401   3.170
 5600SOL     OW17698   1.824   3.141   2.146
 5600SOL    HW117699   1.782   3.161   2.057
 5600SOL    HW217700   1.913   3.186   2.152
 5601SOL     OW17701   5.677   2.373   6.182
 5601SOL    HW117702   5.585   2.345   6.152
 5601SOL    HW217703   5.668   2.440   6.256
 5602SOL     OW17704   6.142   1.562   3.043
 5602SOL    HW117705   6.149   1.487   3.108
 5602SOL    HW217706   6.046   1.578   3.021
 5603SOL     OW17707   3.500   1.632   6.224
 5603SOL    HW117708   3.509   1.536   6.250
 5603SOL    HW217709   3.467   1.638   6.129
 5604SOL     OW17710   1.428   4.721   3.300
 5604SOL    HW117711   1.491   4.732   3.377
 5604SOL    HW217712   1.348   4.668   3.329
 5605SOL     OW17713   3.231   6.458   4.586
 5605SOL    HW117714   3.162   6.512   4.536
 5605SOL    HW217715   3.217   6.468   4.684
 5606SOL     OW17716   4.539   3.803   1.202
 5606SOL    HW117717   4.450   3.761   1.219
 5606SOL    HW217718   4.602   3.780   1.277
 5607SOL     OW17719   1.193   2.094   2.449
 5607SOL    HW117720   1.126   2.111   2.377
 5607SOL    HW217721   1.223   2.182   2.487
 5608SOL     OW17722   6.464   6.792   3.539
 5608SOL    HW117723   6.436   6.789   3.443
 5608SOL    HW217724   6.559   6.822   3.546
 5609SOL     OW17725   6.494   1.162   0.407
 5609SOL    HW117726   6.568   1.159   0.474
 5609SOL    HW217727   6.466   1.257   0.393
 5610SOL     OW17728   5.700   6.598   6.494
 5610SOL    HW117729   5.692   6.667   6.421
 5610SOL    HW217730   5.611   6.585   6.537
 5611SOL     OW17731   6.595   3.872   1.057
 5611SOL    HW117732   6.541   3.928   0.993
 5611SOL    HW217733   6.584   3.907   1.150
 5612SOL     OW17734   4.856   2.570   1.438
 5612SOL    HW117735   4.826   2.589   1.344
 5612SOL    HW217736   4.938   2.512   1.436
 5613SOL     OW17737   6.611   5.244   5.504
 5613SOL    HW117738   6.524   5.204   5.476
 5613SOL    HW217739   6.640   5.202   5.590
 5614SOL     OW17740   5.862   2.582   4.784
 5614SOL    HW117741   5.778   2.637   4.786
 5614SOL    HW217742   5.838   2.487   4.767
 5615SOL     OW17743   0.526   3.633   2.535
 5615SOL    HW117744   0.558   3.538   2.533
 5615SOL    HW217745   0.552   3.679   2.451
 5616SOL     OW17746   1.763   3.021   1.591
 5616SOL    HW117747   1.807   3.106   1.620
 5616SOL    HW217748   1.807   2.988   1.508
 5617SOL     OW17749   0.626   5.127   5.124
 5617SOL    HW117750   0.685   5.051   5.098
 5617SOL    HW217751   0.591   5.112   5.217
 5618SOL     OW17752   5.097   0.998   2.769
 5618SOL    HW117753   5.118   0.902   2.783
 5618SOL    HW217754   5.135   1.028   2.682
 5619SOL     OW17755   2.980   3.783   4.085
 5619SOL    HW117756   3.020   3.868   4.121
 5619SOL    HW217757   2.946   3.799   3.992
 5620SOL     OW17758   4.645   5.075   5.256
 5620SOL    HW117759   4.585   5.008   5.211
 5620SOL    HW217760   4.614   5.167   5.235
 5621SOL     OW17761   0.878   3.271   6.936
 5621SOL    HW117762   0.839   3.318   6.857
 5621SOL    HW217763   0.876   3.332   7.015
 5622SOL     OW17764   5.927   5.567   3.018
 5622SOL    HW117765   5.833   5.532   3.017
 5622SOL    HW217766   5.981   5.517   2.950
 5623SOL     OW17767   4.709   4.972   3.177
 5623SOL    HW117768   4.758   5.053   3.144
 5623SOL    HW217769   4.760   4.890   3.152
 5624SOL     OW17770   5.135   3.882   3.954
 5624SOL    HW117771   5.195   3.928   4.019
 5624SOL    HW217772   5.085   3.809   4.002
 5625SOL     OW17773   3.348   6.877   6.433
 5625SOL    HW117774   3.416   6.806   6.415
 5625SOL    HW217775   3.256   6.837   6.433
 5626SOL     OW17776   2.141   4.720   5.930
 5626SOL    HW117777   2.164   4.768   5.845
 5626SOL    HW217778   2.043   4.730   5.949
 5627SOL     OW17779   1.231   5.096   0.866
 5627SOL    HW117780   1.297   5.171   0.877
 5627SOL    HW217781   1.176   5.111   0.784
 5628SOL     OW17782   0.939   2.807   0.165
 5628SOL    HW117783   0.876   2.735   0.193
 5628SOL    HW217784   0.995   2.773   0.089
 5629SOL     OW17785   0.326   3.320   4.057
 5629SOL    HW117786   0.325   3.369   4.144
 5629SOL    HW217787   0.249   3.257   4.053
 5630SOL     OW17788   1.123   4.831   0.097
 5630SOL    HW117789   1.139   4.842   7.015
 5630SOL    HW217790   1.199   4.872   0.148
 5631SOL     OW17791   3.822   0.549   2.921
 5631SOL    HW117792   3.737   0.528   2.969
 5631SOL    HW217793   3.802   0.584   2.830
 5632SOL     OW17794   3.233   0.083   6.679
 5632SOL    HW117795   3.323   0.117   6.649
 5632SOL    HW217796   3.219   0.107   6.775
 5633SOL     OW17797   1.728   5.557   5.078
 5633SOL    HW117798   1.694   5.559   4.984
 5633SOL    HW217799   1.754   5.463   5.101
 5634SOL     OW17800   2.756   0.183   1.948
 5634SOL    HW117801   2.817   0.246   1.900
 5634SOL    HW217802   2.747   0.098   1.895
 5635SOL     OW17803   3.657   0.054   2.152
 5635SOL    HW117804   3.684   6.993   2.094
 5635SOL    HW217805   3.738   0.106   2.180
 5636SOL     OW17806   5.150   0.485   4.444
 5636SOL    HW117807   5.248   0.506   4.452
 5636SOL    HW217808   5.106   0.554   4.387
 5637SOL     OW17809   5.673   0.140   5.234
 5637SOL    HW117810   5.583   0.099   5.219
 5637SOL    HW217811   5.689   0.150   5.332
 5638SOL     OW17812   1.141   5.585   6.863
 5638SOL    HW117813   1.124   5.683   6.853
 5638SOL    HW217814   1.240   5.568   6.869
 5639SOL     OW17815   3.023   6.865   1.856
 5639SOL    HW117816   3.038   6.911   1.768
 5639SOL    HW217817   3.059   6.922   1.929
 5640SOL     OW17818   3.600   6.849   4.111
 5640SOL    HW117819   3.641   6.936   4.086
 5640SOL    HW217820   3.658   6.804   4.180
 5641SOL     OW17821   6.515   5.059   3.298
 5641SOL    HW117822   6.548   5.018   3.384
 5641SOL    HW217823   6.420   5.033   3.283
 5642SOL     OW17824   2.384   1.743   6.407
 5642SOL    HW117825   2.403   1.833   6.368
 5642SOL    HW217826   2.440   1.728   6.488
 5643SOL     OW17827   5.028   3.118   3.362
 5643SOL    HW117828   5.051   3.205   3.318
 5643SOL    HW217829   5.105   3.088   3.418
 5644SOL     OW17830   3.302   0.646   5.987
 5644SOL    HW117831   3.396   0.612   5.993
 5644SOL    HW217832   3.302   0.744   5.970
 5645SOL     OW17833   6.242   6.392   3.911
 5645SOL    HW117834   6.146   6.367   3.899
 5645SOL    HW217835   6.267   6.460   3.843
 5646SOL     OW17836   6.845   0.671   2.576
 5646SOL    HW117837   6.823   0.575   2.594
 5646SOL    HW217838   6.762   0.726   2.581
 5647SOL     OW17839   6.098   3.748   5.970
 5647SOL    HW117840   6.139   3.765   6.060
 5647SOL    HW217841   6.058   3.833   5.936
 5648SOL     OW17842   1.509   1.743   4.030
 5648SOL    HW117843   1.414   1.721   4.052
 5648SOL    HW217844   1.513   1.784   3.939
 5649SOL     OW17845   6.888   0.423   4.383
 5649SOL    HW117846   6.875   0.500   4.320
 5649SOL    HW217847   6.948   0.451   4.458
 5650SOL     OW17848   6.227   4.941   5.206
 5650SOL    HW117849   6.320   4.918   5.176
 5650SOL    HW217850   6.161   4.880   5.162
 5651SOL     OW17851   6.002   0.492   2.588
 5651SOL    HW117852   6.051   0.553   2.526
 5651SOL    HW217853   6.010   0.526   2.681
 5652SOL     OW17854   4.884   4.403   0.254
 5652SOL    HW117855   4.838   4.433   0.338
 5652SOL    HW217856   4.816   4.363   0.192
 5653SOL     OW17857   2.246   5.922   0.105
 5653SOL    HW117858   2.152   5.951   0.123
 5653SOL    HW217859   2.273   5.953   0.014
 5654SOL     OW17860   2.187   6.921   0.618
 5654SOL    HW117861   2.167   0.003   0.628
 5654SOL    HW217862   2.208   6.882   0.707
 5655SOL     OW17863   6.379   5.618   2.660
 5655SOL    HW117864   6.348   5.525   2.644
 5655SOL    HW217865   6.302   5.675   2.690
 5656SOL     OW17866   3.481   5.101   5.993
 5656SOL    HW117867   3.543   5.177   6.014
 5656SOL    HW217868   3.502   5.064   5.903
 5657SOL     OW17869   4.588   5.162   2.124
 5657SOL    HW117870   4.561   5.236   2.063
 5657SOL    HW217871   4.664   5.112   2.084
 5658SOL     OW17872   4.499   6.407   6.196
 5658SOL    HW117873   4.427   6.401   6.265
 5658SOL    HW217874   4.550   6.492   6.207
 5659SOL     OW17875   3.753   4.087   2.042
 5659SOL    HW117876   3.800   4.121   2.124
 5659SOL    HW217877   3.717   3.996   2.059
 5660SOL     OW17878   6.499   5.799   1.595
 5660SOL    HW117879   6.429   5.777   1.663
 5660SOL    HW217880   6.459   5.801   1.504
 5661SOL     OW17881   6.394   6.017   4.463
 5661SOL    HW117882   6.443   5.990   4.546
 5661SOL    HW217883   6.459   6.025   4.387
 5662SOL     OW17884   1.641   4.191   4.711
 5662SOL    HW117885   1.720   4.253   4.716
 5662SOL    HW217886   1.664   4.112   4.655
 5663SOL     OW17887   2.301   3.587   0.884
 5663SOL    HW117888   2.379   3.526   0.894
 5663SOL    HW217889   2.319   3.672   0.932
 5664SOL     OW17890   6.303   6.617   1.717
 5664SOL    HW117891   6.295   6.693   1.651
 5664SOL    HW217892   6.227   6.554   1.704
 5665SOL     OW17893   2.042   1.018   5.678
 5665SOL    HW117894   2.071   1.066   5.761
 5665SOL    HW217895   1.994   1.081   5.618
 5666SOL     OW17896   5.540   5.749   6.381
 5666SOL    HW117897   5.481   5.804   6.440
 5666SOL    HW217898   5.629   5.794   6.372
 5667SOL     OW17899   5.609   4.449   2.438
 5667SOL    HW117900   5.558   4.522   2.391
 5667SOL    HW217901   5.587   4.451   2.536
 5668SOL     OW17902   6.637   2.279   6.958
 5668SOL    HW117903   6.677   2.278   6.867
 5668SOL    HW217904   6.704   2.315   0.007
 5669SOL     OW17905   6.795   2.471   4.785
 5669SOL    HW117906   6.808   2.546   4.719
 5669SOL    HW217907   6.803   2.507   4.878
 5670SOL     OW17908   1.398   3.360   1.994
 5670SOL    HW117909   1.453   3.443   2.007
 5670SOL    HW217910   1.422   3.318   1.906
 5671SOL     OW17911   1.240   0.812   5.715
 5671SOL    HW117912   1.249   0.846   5.621
 5671SOL    HW217913   1.251   0.712   5.715
 5672SOL     OW17914   4.240   4.587   5.617
 5672SOL    HW117915   4.251   4.489   5.628
 5672SOL    HW217916   4.230   4.609   5.520
 5673SOL     OW17917   1.824   6.753   1.614
 5673SOL    HW117918   1.761   6.813   1.663
 5673SOL    HW217919   1.842   6.671   1.669
 5674SOL     OW17920   1.110   3.090   0.916
 5674SOL    HW117921   1.177   3.155   0.880
 5674SOL    HW217922   1.036   3.080   0.850
 5675SOL     OW17923   4.334   0.997   5.745
 5675SOL    HW117924   4.294   0.924   5.690
 5675SOL    HW217925   4.327   0.974   5.842
 5676SOL     OW17926   2.205   6.412   2.367
 5676SOL    HW117927   2.199   6.422   2.466
 5676SOL    HW217928   2.261   6.485   2.329
 5677SOL     OW17929   6.551   0.048   2.434
 5677SOL    HW117930   6.637   0.005   2.407
 5677SOL    HW217931   6.552   0.144   2.408
 5678SOL     OW17932   1.217   5.214   3.154
 5678SOL    HW117933   1.288   5.262   3.205
 5678SOL    HW217934   1.139   5.196   3.214
 5679SOL     OW17935   3.857   5.773   5.613
 5679SOL    HW117936   3.907   5.754   5.528
 5679SOL    HW217937   3.870   5.869   5.638
 5680SOL     OW17938   1.995   6.508   6.511
 5680SOL    HW117939   2.041   6.589   6.547
 5680SOL    HW217940   1.904   6.533   6.479
 5681SOL     OW17941   2.765   3.681   6.892
 5681SOL    HW117942   2.718   3.695   6.805
 5681SOL    HW217943   2.832   3.607   6.881
 5682SOL     OW17944   1.852   3.526   4.493
 5682SOL    HW117945   1.919   3.457   4.466
 5682SOL    HW217946   1.811   3.567   4.412
 5683SOL     OW17947   4.113   2.905   5.386
 5683SOL    HW117948   4.159   2.976   5.438
 5683SOL    HW217949   4.068   2.945   5.306
 5684SOL     OW17950   3.263   3.991   3.188
 5684SOL    HW117951   3.335   4.056   3.162
 5684SOL    HW217952   3.270   3.910   3.130
 5685SOL     OW17953   0.261   6.295   1.393
 5685SOL    HW117954   0.223   6.330   1.308
 5685SOL    HW217955   0.188   6.255   1.449
 5686SOL     OW17956   3.389   4.729   6.516
 5686SOL    HW117957   3.297   4.720   6.478
 5686SOL    HW217958   3.384   4.720   6.616
 5687SOL     OW17959   4.550   6.202   6.504
 5687SOL    HW117960   4.592   6.293   6.501
 5687SOL    HW217961   4.452   6.211   6.523
 5688SOL     OW17962   5.390   1.506   2.447
 5688SOL    HW117963   5.374   1.601   2.474
 5688SOL    HW217964   5.480   1.499   2.404
 5689SOL     OW17965   3.736   3.203   5.470
 5689SOL    HW117966   3.685   3.174   5.388
 5689SOL    HW217967   3.791   3.127   5.503
 5690SOL     OW17968   3.882   0.600   3.247
 5690SOL    HW117969   3.838   0.603   3.157
 5690SOL    HW217970   3.842   0.669   3.306
 5691SOL     OW17971   3.470   0.371   4.375
 5691SOL    HW117972   3.554   0.396   4.423
 5691SOL    HW217973   3.395   0.361   4.440
 5692SOL     OW17974   5.770   2.759   6.984
 5692SOL    HW117975   5.715   2.822   0.022
 5692SOL    HW217976   5.729   2.747   6.894
 5693SOL     OW17977   5.311   2.839   1.728
 5693SOL    HW117978   5.269   2.856   1.639
 5693SOL    HW217979   5.377   2.764   1.720
 5694SOL     OW17980   1.269   2.478   4.612
 5694SOL    HW117981   1.214   2.458   4.694
 5694SOL    HW217982   1.360   2.438   4.623
 5695SOL     OW17983   1.890   3.994   3.447
 5695SOL    HW117984   1.816   4.033   3.502
 5695SOL    HW217985   1.968   3.973   3.507
 5696SOL     OW17986   3.153   1.645   6.570
 5696SOL    HW117987   3.082   1.716   6.575
 5696SOL    HW217988   3.117   1.559   6.606
 5697SOL     OW17989   6.722   3.607   0.153
 5697SOL    HW117990   6.694   3.653   0.238
 5697SOL    HW217991   6.659   3.632   0.080
 5698SOL     OW17992   1.671   4.116   3.586
 5698SOL    HW117993   1.663   4.191   3.651
 5698SOL    HW217994   1.587   4.062   3.587
 5699SOL     OW17995   0.964   2.197   4.873
 5699SOL    HW117996   0.979   2.182   4.970
 5699SOL    HW217997   1.015   2.129   4.820
 5700SOL     OW17998   1.709   4.759   4.420
 5700SOL    HW117999   1.722   4.762   4.519
 5700SOL    HW218000   1.655   4.678   4.397
 5701SOL     OW18001   4.885   3.034   3.130
 5701SOL    HW118002   4.873   2.936   3.147
 5701SOL    HW218003   4.959   3.069   3.187
 5702SOL     OW18004   3.660   0.288   0.224
 5702SOL    HW118005   3.640   0.299   0.322
 5702SOL    HW218006   3.718   0.208   0.211
 5703SOL     OW18007   4.962   4.274   2.127
 5703SOL    HW118008   4.901   4.315   2.059
 5703SOL    HW218009   4.907   4.235   2.201
 5704SOL     OW18010   5.107   4.444   3.417
 5704SOL    HW118011   5.193   4.446   3.468
 5704SOL    HW218012   5.031   4.437   3.481
 5705SOL     OW18013   6.732   1.278   3.897
 5705SOL    HW118014   6.644   1.264   3.852
 5705SOL    HW218015   6.717   1.321   3.986
 5706SOL     OW18016   2.161   1.412   0.078
 5706SOL    HW118017   2.238   1.383   0.135
 5706SOL    HW218018   2.148   1.346   0.003
 5707SOL     OW18019   3.904   1.457   0.792
 5707SOL    HW118020   3.918   1.543   0.841
 5707SOL    HW218021   3.900   1.475   0.694
 5708SOL     OW18022   0.826   6.891   0.782
 5708SOL    HW118023   0.766   6.811   0.790
 5708SOL    HW218024   0.820   6.929   0.690
 5709SOL     OW18025   0.987   2.622   1.218
 5709SOL    HW118026   1.024   2.712   1.198
 5709SOL    HW218027   0.957   2.579   1.133
 5710SOL     OW18028   3.732   4.866   0.033
 5710SOL    HW118029   3.694   4.813   6.973
 5710SOL    HW218030   3.723   4.964   0.013
 5711SOL     OW18031   5.380   1.237   5.054
 5711SOL    HW118032   5.395   1.331   5.023
 5711SOL    HW218033   5.455   1.179   5.022
 5712SOL     OW18034   6.110   6.860   6.575
 5712SOL    HW118035   6.066   6.915   6.504
 5712SOL    HW218036   6.148   6.921   6.645
 5713SOL     OW18037   0.438   3.309   2.666
 5713SOL    HW118038   0.488   3.350   2.590
 5713SOL    HW218039   0.344   3.290   2.638
 5714SOL     OW18040   2.086   0.711   6.919
 5714SOL    HW118041   2.010   0.700   6.983
 5714SOL    HW218042   2.076   0.646   6.844
 5715SOL     OW18043   0.847   6.617   3.399
 5715SOL    HW118044   0.900   6.619   3.314
 5715SOL    HW218045   0.764   6.672   3.387
 5716SOL     OW18046   2.230   2.312   5.426
 5716SOL    HW118047   2.214   2.333   5.330
 5716SOL    HW218048   2.148   2.270   5.465
 5717SOL     OW18049   0.873   3.098   5.741
 5717SOL    HW118050   0.969   3.124   5.747
 5717SOL    HW218051   0.864   3.016   5.684
 5718SOL     OW18052   3.137   5.660   6.129
 5718SOL    HW118053   3.197   5.724   6.080
 5718SOL    HW218054   3.189   5.578   6.153
 5719SOL     OW18055   2.384   0.953   0.200
 5719SOL    HW118056   2.416   0.983   0.111
 5719SOL    HW218057   2.340   0.863   0.191
 5720SOL     OW18058   2.048   5.678   3.749
 5720SOL    HW118059   2.132   5.732   3.762
 5720SOL    HW218060   1.968   5.736   3.766
 5721SOL     OW18061   6.902   4.647   6.899
 5721SOL    HW118062   6.832   4.578   6.881
 5721SOL    HW218063   6.866   4.738   6.876
 5722SOL     OW18064   5.337   1.090   4.802
 5722SOL    HW118065   5.291   1.178   4.808
 5722SOL    HW218066   5.435   1.102   4.817
 5723SOL     OW18067   0.006   4.535   1.207
 5723SOL    HW118068   6.957   4.593   1.256
 5723SOL    HW218069   6.991   4.440   1.210
 5724SOL     OW18070   4.918   2.789   5.806
 5724SOL    HW118071   4.901   2.861   5.873
 5724SOL    HW218072   4.879   2.814   5.718
 5725SOL     OW18073   5.649   6.711   5.637
 5725SOL    HW118074   5.650   6.615   5.665
 5725SOL    HW218075   5.632   6.768   5.717
 5726SOL     OW18076   3.838   5.004   5.758
 5726SOL    HW118077   3.748   4.976   5.726
 5726SOL    HW218078   3.852   5.101   5.739
 5727SOL     OW18079   5.900   2.367   3.801
 5727SOL    HW118080   5.924   2.464   3.804
 5727SOL    HW218081   5.896   2.330   3.894
 5728SOL     OW18082   3.979   0.728   4.611
 5728SOL    HW118083   3.964   0.822   4.579
 5728SOL    HW218084   3.911   0.705   4.680
 5729SOL     OW18085   2.174   2.248   4.223
 5729SOL    HW118086   2.077   2.232   4.204
 5729SOL    HW218087   2.212   2.309   4.153
 5730SOL     OW18088   4.101   4.594   6.822
 5730SOL    HW118089   4.078   4.650   6.902
 5730SOL    HW218090   4.200   4.588   6.813
 5731SOL     OW18091   4.483   1.254   5.155
 5731SOL    HW118092   4.547   1.288   5.224
 5731SOL    HW218093   4.393   1.238   5.197
 5732SOL     OW18094   5.681   4.712   4.053
 5732SOL    HW118095   5.650   4.618   4.042
 5732SOL    HW218096   5.665   4.763   3.969
 5733SOL     OW18097   2.341   6.862   1.647
 5733SOL    HW118098   2.417   6.810   1.686
 5733SOL    HW218099   2.364   6.959   1.643
 5734SOL     OW18100   1.758   0.027   5.835
 5734SOL    HW118101   1.777   0.037   5.738
 5734SOL    HW218102   1.665   7.008   5.847
 5735SOL     OW18103   5.341   1.500   0.611
 5735SOL    HW118104   5.283   1.574   0.579
 5735SOL    HW218105   5.437   1.522   0.591
 5736SOL     OW18106   5.180   3.702   6.783
 5736SOL    HW118107   5.269   3.658   6.792
 5736SOL    HW218108   5.138   3.674   6.697
 5737SOL     OW18109   5.147   6.223   2.482
 5737SOL    HW118110   5.184   6.169   2.558
 5737SOL    HW218111   5.065   6.271   2.512
 5738SOL     OW18112   3.017   1.099   1.375
 5738SOL    HW118113   2.921   1.123   1.359
 5738SOL    HW218114   3.038   1.107   1.472
 5739SOL     OW18115   1.898   1.197   5.540
 5739SOL    HW118116   1.844   1.148   5.472
 5739SOL    HW218117   1.932   1.282   5.502
 5740SOL     OW18118   4.885   3.351   2.746
 5740SOL    HW118119   4.839   3.276   2.792
 5740SOL    HW218120   4.947   3.315   2.676
 5741SOL     OW18121   1.584   3.292   4.063
 5741SOL    HW118122   1.575   3.198   4.033
 5741SOL    HW218123   1.680   3.318   4.068
 5742SOL     OW18124   5.750   5.161   2.132
 5742SOL    HW118125   5.833   5.150   2.187
 5742SOL    HW218126   5.689   5.227   2.176
 5743SOL     OW18127   4.265   6.252   6.810
 5743SOL    HW118128   4.323   6.197   6.871
 5743SOL    HW218129   4.228   6.330   6.861
 5744SOL     OW18130   5.403   6.209   3.142
 5744SOL    HW118131   5.435   6.283   3.200
 5744SOL    HW218132   5.322   6.167   3.183
 5745SOL     OW18133   0.932   3.802   2.441
 5745SOL    HW118134   0.975   3.887   2.470
 5745SOL    HW218135   1.003   3.735   2.418
 5746SOL     OW18136   5.514   0.362   3.258
 5746SOL    HW118137   5.553   0.273   3.279
 5746SOL    HW218138   5.481   0.363   3.163
 5747SOL     OW18139   2.395   6.716   1.412
 5747SOL    HW118140   2.364   6.779   1.484
 5747SOL    HW218141   2.315   6.682   1.362
 5748SOL     OW18142   6.364   6.603   6.969
 5748SOL    HW118143   6.438   6.659   7.006
 5748SOL    HW218144   6.366   6.513   7.012
 5749SOL     OW18145   2.067   6.348   6.712
 5749SOL    HW118146   2.011   6.266   6.713
 5749SOL    HW218147   2.035   6.410   6.640
 5750SOL     OW18148   6.446   2.545   3.992
 5750SOL    HW118149   6.359   2.515   3.953
 5750SOL    HW218150   6.431   2.579   4.085
 5751SOL     OW18151   0.391   3.512   3.879
 5751SOL    HW118152   0.409   3.585   3.946
 5751SOL    HW218153   0.365   3.429   3.927
 5752SOL     OW18154   6.006   1.079   6.878
 5752SOL    HW118155   5.916   1.094   6.836
 5752SOL    HW218156   6.040   1.166   6.915
 5753SOL     OW18157   3.836   3.567   4.502
 5753SOL    HW118158   3.888   3.490   4.463
 5753SOL    HW218159   3.782   3.609   4.430
 5754SOL     OW18160   6.262   6.720   0.859
 5754SOL    HW118161   6.176   6.767   0.879
 5754SOL    HW218162   6.242   6.630   0.819
 5755SOL     OW18163   0.499   3.042   6.453
 5755SOL    HW118164   0.499   3.107   6.529
 5755SOL    HW218165   0.458   3.086   6.373
 5756SOL     OW18166   6.486   6.439   1.535
 5756SOL    HW118167   6.571   6.444   1.588
 5756SOL    HW218168   6.417   6.499   1.577
 5757SOL     OW18169   1.015   1.469   3.804
 5757SOL    HW118170   0.946   1.525   3.757
 5757SOL    HW218171   1.032   1.386   3.751
 5758SOL     OW18172   6.551   6.788   2.920
 5758SOL    HW118173   6.469   6.748   2.879
 5758SOL    HW218174   6.632   6.745   2.880
 5759SOL     OW18175   1.828   6.423   3.171
 5759SOL    HW118176   1.780   6.379   3.247
 5759SOL    HW218177   1.842   6.357   3.098
 5760SOL     OW18178   0.488   2.047   0.188
 5760SOL    HW118179   0.586   2.048   0.203
 5760SOL    HW218180   0.468   2.066   0.092
 5761SOL     OW18181   6.622   6.324   5.130
 5761SOL    HW118182   6.613   6.324   5.229
 5761SOL    HW218183   6.716   6.350   5.105
 5762SOL     OW18184   0.606   5.688   5.559
 5762SOL    HW118185   0.567   5.737   5.637
 5762SOL    HW218186   0.535   5.670   5.492
 5763SOL     OW18187   5.026   0.678   0.275
 5763SOL    HW118188   5.120   0.648   0.290
 5763SOL    HW218189   5.001   0.746   0.345
 5764SOL     OW18190   3.938   6.444   4.109
 5764SOL    HW118191   3.898   6.353   4.103
 5764SOL    HW218192   4.038   6.436   4.116
 5765SOL     OW18193   7.007   6.099   2.620
 5765SOL    HW118194   0.007   6.001   2.638
 5765SOL    HW218195   6.924   6.128   2.668
 5766SOL     OW18196   0.823   0.943   4.306
 5766SOL    HW118197   0.876   0.955   4.222
 5766SOL    HW218198   0.882   0.905   4.377
 5767SOL     OW18199   5.969   6.585   0.103
 5767SOL    HW118200   5.952   6.607   0.007
 5767SOL    HW218201   5.943   6.662   0.161
 5768SOL     OW18202   1.313   1.102   4.993
 5768SOL    HW118203   1.406   1.102   5.030
 5768SOL    HW218204   1.313   1.053   4.905
 5769SOL     OW18205   0.785   2.488   5.831
 5769SOL    HW118206   0.806   2.393   5.809
 5769SOL    HW218207   0.869   2.535   5.860
 5770SOL     OW18208   1.566   4.622   2.262
 5770SOL    HW118209   1.545   4.655   2.171
 5770SOL    HW218210   1.482   4.616   2.316
 5771SOL     OW18211   2.829   5.759   2.906
 5771SOL    HW118212   2.736   5.762   2.942
 5771SOL    HW218213   2.829   5.718   2.815
 5772SOL     OW18214   2.826   0.549   3.185
 5772SOL    HW118215   2.791   0.635   3.151
 5772SOL    HW218216   2.879   0.565   3.269
 5773SOL     OW18217   5.828   0.883   4.376
 5773SOL    HW118218   5.814   0.787   4.401
 5773SOL    HW218219   5.752   0.914   4.319
 5774SOL     OW18220   0.921   6.220   3.391
 5774SOL    HW118221   0.871   6.139   3.360
 5774SOL    HW218222   0.859   6.282   3.439
 5775SOL     OW18223   5.576   5.047   2.366
 5775SOL    HW118224   5.553   5.099   2.284
 5775SOL    HW218225   5.520   5.080   2.443
 5776SOL     OW18226   3.677   0.555   3.994
 5776SOL    HW118227   3.750   0.492   3.964
 5776SOL    HW218228   3.591   0.505   4.001
 5777SOL     OW18229   0.876   0.595   1.515
 5777SOL    HW118230   0.928   0.529   1.461
 5777SOL    HW218231   0.926   0.616   1.599
 5778SOL     OW18232   0.283   0.998   0.248
 5778SOL    HW118233   0.269   1.097   0.250
 5778SOL    HW218234   0.327   0.972   0.162
 5779SOL     OW18235   5.920   1.812   0.904
 5779SOL    HW118236   5.891   1.737   0.965
 5779SOL    HW218237   5.907   1.899   0.951
 5780SOL     OW18238   5.219   5.259   4.552
 5780SOL    HW118239   5.222   5.244   4.650
 5780SOL    HW218240   5.311   5.273   4.517
 5781SOL     OW18241   1.603   6.039   5.960
 5781SOL    HW118242   1.667   6.008   5.889
 5781SOL    HW218243   1.619   5.989   6.044
 5782SOL     OW18244   6.193   0.748   0.475
 5782SOL    HW118245   6.121   0.690   0.438
 5782SOL    HW218246   6.230   0.706   0.558
 5783SOL     OW18247   2.546   2.609   6.412
 5783SOL    HW118248   2.626   2.552   6.431
 5783SOL    HW218249   2.563   2.702   6.445
 5784SOL     OW18250   6.721   6.596   0.194
 5784SOL    HW118251   6.811   6.627   0.163
 5784SOL    HW218252   6.708   6.620   0.290
 5785SOL     OW18253   1.503   1.886   1.753
 5785SOL    HW118254   1.421   1.834   1.729
 5785SOL    HW218255   1.571   1.876   1.680
 5786SOL     OW18256   6.337   5.748   1.803
 5786SOL    HW118257   6.301   5.684   1.871
 5786SOL    HW218258   6.320   5.842   1.832
 5787SOL     OW18259   1.830   3.311   6.479
 5787SOL    HW118260   1.923   3.292   6.449
 5787SOL    HW218261   1.799   3.397   6.438
 5788SOL     OW18262   3.487   0.218   3.801
 5788SOL    HW118263   3.395   0.218   3.763
 5788SOL    HW218264   3.485   0.249   3.896
 5789SOL     OW18265   2.998   4.855   5.813
 5789SOL    HW118266   3.064   4.780   5.815
 5789SOL    HW218267   3.044   4.938   5.781
 5790SOL     OW18268   1.560   4.171   4.038
 5790SOL    HW118269   1.614   4.141   4.117
 5790SOL    HW218270   1.500   4.246   4.065
 5791SOL     OW18271   1.624   0.635   3.262
 5791SOL    HW118272   1.642   0.733   3.252
 5791SOL    HW218273   1.710   0.584   3.258
 5792SOL     OW18274   0.090   2.518   2.836
 5792SOL    HW118275   0.187   2.504   2.856
 5792SOL    HW218276   0.037   2.443   2.875
 5793SOL     OW18277   6.418   0.852   4.731
 5793SOL    HW118278   6.475   0.789   4.785
 5793SOL    HW218279   6.322   0.836   4.752
 5794SOL     OW18280   6.702   4.041   6.561
 5794SOL    HW118281   6.775   4.029   6.493
 5794SOL    HW218282   6.705   4.135   6.596
 5795SOL     OW18283   6.403   4.612   6.684
 5795SOL    HW118284   6.431   4.688   6.625
 5795SOL    HW218285   6.315   4.633   6.727
 5796SOL     OW18286   2.703   2.404   0.790
 5796SOL    HW118287   2.781   2.451   0.830
 5796SOL    HW218288   2.689   2.436   0.696
 5797SOL     OW18289   3.087   2.722   5.407
 5797SOL    HW118290   2.999   2.692   5.372
 5797SOL    HW218291   3.157   2.654   5.386
 5798SOL     OW18292   6.543   5.350   4.401
 5798SOL    HW118293   6.636   5.360   4.437
 5798SOL    HW218294   6.494   5.282   4.455
 5799SOL     OW18295   5.653   1.125   4.298
 5799SOL    HW118296   5.689   1.214   4.273
 5799SOL    HW218297   5.634   1.072   4.215
 5800SOL     OW18298   5.941   5.670   6.560
 5800SOL    HW118299   5.962   5.587   6.508
 5800SOL    HW218300   5.921   5.645   6.655
 5801SOL     OW18301   1.748   1.182   2.757
 5801SOL    HW118302   1.730   1.170   2.855
 5801SOL    HW218303   1.748   1.093   2.712
 5802SOL     OW18304   0.362   2.645   4.784
 5802SOL    HW118305   0.427   2.720   4.776
 5802SOL    HW218306   0.273   2.680   4.812
 5803SOL     OW18307   1.626   5.027   1.002
 5803SOL    HW118308   1.699   4.960   1.016
 5803SOL    HW218309   1.538   4.981   1.006
 5804SOL     OW18310   0.301   2.276   6.253
 5804SOL    HW118311   0.326   2.279   6.157
 5804SOL    HW218312   0.213   2.323   6.267
 5805SOL     OW18313   5.633   3.201   6.725
 5805SOL    HW118314   5.593   3.293   6.727
 5805SOL    HW218315   5.729   3.207   6.700
 5806SOL     OW18316   6.490   6.998   6.466
 5806SOL    HW118317   6.501   0.081   6.465
 5806SOL    HW218318   6.488   6.965   6.560
 5807SOL     OW18319   2.923   3.653   1.559
 5807SOL    HW118320   2.970   3.731   1.600
 5807SOL    HW218321   2.832   3.645   1.600
 5808SOL     OW18322   6.320   1.404   3.682
 5808SOL    HW118323   6.273   1.491   3.695
 5808SOL    HW218324   6.273   1.333   3.734
 5809SOL     OW18325   0.370   2.737   3.396
 5809SOL    HW118326   0.411   2.657   3.440
 5809SOL    HW218327   0.289   2.765   3.448
 5810SOL     OW18328   2.812   2.267   2.811
 5810SOL    HW118329   2.889   2.234   2.865
 5810SOL    HW218330   2.841   2.279   2.716
 5811SOL     OW18331   3.130   7.003   2.259
 5811SOL    HW118332   3.150   0.042   2.340
 5811SOL    HW218333   3.055   0.029   2.208
 5812SOL     OW18334   4.289   0.613   4.849
 5812SOL    HW118335   4.213   0.590   4.910
 5812SOL    HW218336   4.376   0.589   4.893
 5813SOL     OW18337   1.724   1.432   5.299
 5813SOL    HW118338   1.665   1.499   5.253
 5813SOL    HW218339   1.672   1.348   5.317
 5814SOL     OW18340   0.316   5.392   1.339
 5814SOL    HW118341   0.398   5.376   1.392
 5814SOL    HW218342   0.331   5.468   1.276
 5815SOL     OW18343   4.009   0.157   3.838
 5815SOL    HW118344   4.075   0.104   3.891
 5815SOL    HW218345   4.052   0.189   3.753
 5816SOL     OW18346   5.111   6.557   0.360
 5816SOL    HW118347   5.149   6.559   0.267
 5816SOL    HW218348   5.078   6.648   0.384
 5817SOL     OW18349   6.059   2.716   6.297
 5817SOL    HW118350   6.133   2.784   6.296
 5817SOL    HW218351   6.052   2.673   6.206
 5818SOL     OW18352   6.781   6.205   5.506
 5818SOL    HW118353   6.745   6.136   5.569
 5818SOL    HW218354   6.707   6.265   5.475
 5819SOL     OW18355   6.096   0.178   0.624
 5819SOL    HW118356   6.070   0.231   0.543
 5819SOL    HW218357   6.120   0.240   0.698
 5820SOL     OW18358   5.775   4.755   1.942
 5820SOL    HW118359   5.774   4.686   2.015
 5820SOL    HW218360   5.681   4.772   1.911
 5821SOL     OW18361   3.169   0.157   2.476
 5821SOL    HW118362   3.120   0.244   2.473
 5821SOL    HW218363   3.263   0.172   2.505
 5822SOL     OW18364   0.582   1.111   2.365
 5822SOL    HW118365   0.531   1.125   2.450
 5822SOL    HW218366   0.592   1.198   2.317
 5823SOL     OW18367   1.909   2.816   4.106
 5823SOL    HW118368   1.899   2.911   4.074
 5823SOL    HW218369   1.818   2.776   4.120
 5824SOL     OW18370   4.635   0.510   4.146
 5824SOL    HW118371   4.587   0.555   4.221
 5824SOL    HW218372   4.720   0.559   4.126
 5825SOL     OW18373   3.530   1.413   1.834
 5825SOL    HW118374   3.574   1.493   1.874
 5825SOL    HW218375   3.449   1.441   1.782
 5826SOL     OW18376   0.280   6.640   3.797
 5826SOL    HW118377   0.254   6.618   3.703
 5826SOL    HW218378   0.262   6.737   3.815
 5827SOL     OW18379   2.007   4.597   5.646
 5827SOL    HW118380   2.083   4.537   5.623
 5827SOL    HW218381   1.961   4.562   5.727
 5828SOL     OW18382   6.360   2.307   1.160
 5828SOL    HW118383   6.392   2.400   1.175
 5828SOL    HW218384   6.436   2.243   1.173
 5829SOL     OW18385   1.713   2.072   1.851
 5829SOL    HW118386   1.636   2.008   1.850
 5829SOL    HW218387   1.679   2.165   1.836
 5830SOL     OW18388   2.317   0.712   5.376
 5830SOL    HW118389   2.408   0.705   5.418
 5830SOL    HW218390   2.249   0.726   5.447
 5831SOL     OW18391   5.353   5.682   2.730
 5831SOL    HW118392   5.423   5.751   2.746
 5831SOL    HW218393   5.388   5.592   2.756
 5832SOL     OW18394   3.890   3.333   4.392
 5832SOL    HW118395   3.948   3.265   4.347
 5832SOL    HW218396   3.794   3.316   4.368
 5833SOL     OW18397   3.387   3.245   4.717
 5833SOL    HW118398   3.459   3.205   4.661
 5833SOL    HW218399   3.305   3.258   4.661
 5834SOL     OW18400   6.066   0.735   0.136
 5834SOL    HW118401   6.151   0.754   0.186
 5834SOL    HW218402   6.059   0.797   0.058
 5835SOL     OW18403   5.286   2.940   4.558
 5835SOL    HW118404   5.256   3.026   4.516
 5835SOL    HW218405   5.343   2.959   4.637
 5836SOL     OW18406   3.236   6.769   3.051
 5836SOL    HW118407   3.155   6.799   3.002
 5836SOL    HW218408   3.316   6.776   2.991
 5837SOL     OW18409   4.294   4.340   5.841
 5837SOL    HW118410   4.353   4.304   5.914
 5837SOL    HW218411   4.349   4.355   5.758
 5838SOL     OW18412   0.945   0.813   5.779
 5838SOL    HW118413   0.890   0.863   5.712
 5838SOL    HW218414   1.041   0.811   5.749
 5839SOL     OW18415   6.855   2.312   2.069
 5839SOL    HW118416   6.763   2.285   2.096
 5839SOL    HW218417   6.918   2.236   2.084
 5840SOL     OW18418   3.361   5.412   0.480
 5840SOL    HW118419   3.387   5.430   0.574
 5840SOL    HW218420   3.438   5.373   0.430
 5841SOL     OW18421   5.918   2.394   3.360
 5841SOL    HW118422   5.852   2.436   3.422
 5841SOL    HW218423   5.915   2.440   3.271
 5842SOL     OW18424   3.797   2.615   0.919
 5842SOL    HW118425   3.866   2.683   0.943
 5842SOL    HW218426   3.753   2.640   0.832
 5843SOL     OW18427   1.119   2.992   1.366
 5843SOL    HW118428   1.181   3.002   1.288
 5843SOL    HW218429   1.043   3.057   1.356
 5844SOL     OW18430   1.672   6.405   6.625
 5844SOL    HW118431   1.716   6.317   6.644
 5844SOL    HW218432   1.574   6.391   6.608
 5845SOL     OW18433   2.126   2.753   4.587
 5845SOL    HW118434   2.119   2.704   4.500
 5845SOL    HW218435   2.184   2.702   4.649
 5846SOL     OW18436   6.984   3.620   6.704
 5846SOL    HW118437   0.059   3.610   6.745
 5846SOL    HW218438   6.979   3.566   6.620
 5847SOL     OW18439   1.153   2.115   4.229
 5847SOL    HW118440   1.157   2.203   4.182
 5847SOL    HW218441   1.240   2.068   4.219
 5848SOL     OW18442   1.059   4.624   3.619
 5848SOL    HW118443   0.984   4.618   3.553
 5848SOL    HW218444   1.022   4.622   3.711
 5849SOL     OW18445   2.990   6.876   5.875
 5849SOL    HW118446   2.901   6.876   5.920
 5849SOL    HW218447   3.033   6.786   5.887
 5850SOL     OW18448   0.893   4.538   2.960
 5850SOL    HW118449   0.798   4.516   2.985
 5850SOL    HW218450   0.953   4.518   3.038
 5851SOL     OW18451   5.570   3.203   1.964
 5851SOL    HW118452   5.641   3.150   1.919
 5851SOL    HW218453   5.481   3.180   1.924
 5852SOL     OW18454   3.983   6.746   3.215
 5852SOL    HW118455   4.068   6.694   3.223
 5852SOL    HW218456   4.004   6.843   3.207
 5853SOL     OW18457   4.997   4.207   5.169
 5853SOL    HW118458   5.068   4.216   5.099
 5853SOL    HW218459   4.931   4.137   5.142
 5854SOL     OW18460   0.981   1.445   6.680
 5854SOL    HW118461   1.036   1.523   6.708
 5854SOL    HW218462   0.888   1.475   6.660
 5855SOL     OW18463   1.600   1.799   4.795
 5855SOL    HW118464   1.593   1.896   4.821
 5855SOL    HW218465   1.588   1.742   4.876
 5856SOL     OW18466   1.229   5.416   3.539
 5856SOL    HW118467   1.149   5.474   3.523
 5856SOL    HW218468   1.206   5.343   3.604
 5857SOL     OW18469   0.487   2.574   5.493
 5857SOL    HW118470   0.410   2.624   5.534
 5857SOL    HW218471   0.523   2.625   5.415
 5858SOL     OW18472   3.041   6.590   3.492
 5858SOL    HW118473   2.953   6.577   3.538
 5858SOL    HW218474   3.048   6.683   3.458
 5859SOL     OW18475   5.771   5.369   1.591
 5859SOL    HW118476   5.732   5.387   1.681
 5859SOL    HW218477   5.757   5.273   1.568
 5860SOL     OW18478   0.022   4.025   0.709
 5860SOL    HW118479   0.055   4.119   0.710
 5860SOL    HW218480   0.008   3.994   0.803
 5861SOL     OW18481   6.183   1.218   3.800
 5861SOL    HW118482   6.144   1.129   3.775
 5861SOL    HW218483   6.193   1.223   3.899
 5862SOL     OW18484   5.152   5.252   3.966
 5862SOL    HW118485   5.165   5.169   4.021
 5862SOL    HW218486   5.115   5.324   4.024
 5863SOL     OW18487   2.079   1.735   0.745
 5863SOL    HW118488   2.098   1.669   0.818
 5863SOL    HW218489   2.166   1.770   0.710
 5864SOL     OW18490   4.454   5.182   0.766
 5864SOL    HW118491   4.443   5.094   0.812
 5864SOL    HW218492   4.438   5.171   0.668
 5865SOL     OW18493   4.276   0.932   2.962
 5865SOL    HW118494   4.204   0.885   3.012
 5865SOL    HW218495   4.333   0.866   2.914
 5866SOL     OW18496   3.521   1.380   6.914
 5866SOL    HW118497   3.528   1.280   6.905
 5866SOL    HW218498   3.450   1.414   6.852
 5867SOL     OW18499   6.366   2.946   1.414
 5867SOL    HW118500   6.431   3.015   1.380
 5867SOL    HW218501   6.405   2.900   1.494
 5868SOL     OW18502   0.717   6.692   4.843
 5868SOL    HW118503   0.755   6.783   4.824
 5868SOL    HW218504   0.617   6.697   4.844
 5869SOL     OW18505   2.524   4.641   3.964
 5869SOL    HW118506   2.619   4.612   3.964
 5869SOL    HW218507   2.499   4.674   4.055
 5870SOL     OW18508   4.780   5.757   4.049
 5870SOL    HW118509   4.734   5.743   4.137
 5870SOL    HW218510   4.873   5.719   4.055
 5871SOL     OW18511   3.081   3.605   0.663
 5871SOL    HW118512   3.103   3.577   0.757
 5871SOL    HW218513   3.068   3.704   0.660
 5872SOL     OW18514   4.480   5.443   3.879
 5872SOL    HW118515   4.386   5.442   3.846
 5872SOL    HW218516   4.480   5.456   3.979
 5873SOL     OW18517   1.916   2.895   0.019
 5873SOL    HW118518   1.976   2.836   6.982
 5873SOL    HW218519   1.886   2.847   0.102
 5874SOL     OW18520   0.672   4.562   6.357
 5874SOL    HW118521   0.758   4.516   6.338
 5874SOL    HW218522   0.655   4.632   6.287
 5875SOL     OW18523   3.444   2.519   0.809
 5875SOL    HW118524   3.483   2.440   0.761
 5875SOL    HW218525   3.468   2.514   0.906
 5876SOL     OW18526   4.485   3.981   6.190
 5876SOL    HW118527   4.480   3.888   6.155
 5876SOL    HW218528   4.396   4.026   6.179
 5877SOL     OW18529   5.503   0.323   2.501
 5877SOL    HW118530   5.463   0.345   2.412
 5877SOL    HW218531   5.585   0.379   2.515
 5878SOL     OW18532   5.089   3.745   2.830
 5878SOL    HW118533   5.181   3.757   2.792
 5878SOL    HW218534   5.023   3.737   2.755
 5879SOL     OW18535   3.107   4.587   5.320
 5879SOL    HW118536   3.021   4.571   5.272
 5879SOL    HW218537   3.164   4.505   5.316
 5880SOL     OW18538   5.970   2.480   0.325
 5880SOL    HW118539   6.068   2.463   0.332
 5880SOL    HW218540   5.954   2.554   0.259
 5881SOL     OW18541   1.441   6.000   2.430
 5881SOL    HW118542   1.448   5.903   2.451
 5881SOL    HW218543   1.509   6.050   2.483
 5882SOL     OW18544   1.601   5.268   5.289
 5882SOL    HW118545   1.673   5.322   5.245
 5882SOL    HW218546   1.630   5.173   5.296
 5883SOL     OW18547   0.327   5.459   6.864
 5883SOL    HW118548   0.293   5.551   6.845
 5883SOL    HW218549   0.254   5.403   6.902
 5884SOL     OW18550   6.759   1.031   2.654
 5884SOL    HW118551   6.780   1.096   2.727
 5884SOL    HW218552   6.844   0.989   2.621
 5885SOL     OW18553   6.979   5.848   1.548
 5885SOL    HW118554   0.008   5.933   1.518
 5885SOL    HW218555   6.889   5.870   1.586
 5886SOL     OW18556   2.122   4.503   3.457
 5886SOL    HW118557   2.157   4.592   3.428
 5886SOL    HW218558   2.134   4.493   3.556
 5887SOL     OW18559   2.935   3.663   0.391
 5887SOL    HW118560   2.894   3.573   0.376
 5887SOL    HW218561   2.897   3.704   0.474
 5888SOL     OW18562   2.610   5.755   1.385
 5888SOL    HW118563   2.637   5.843   1.346
 5888SOL    HW218564   2.667   5.735   1.464
 5889SOL     OW18565   4.990   1.859   2.488
 5889SOL    HW118566   4.906   1.859   2.432
 5889SOL    HW218567   4.993   1.775   2.541
 5890SOL     OW18568   2.650   4.641   3.542
 5890SOL    HW118569   2.709   4.721   3.526
 5890SOL    HW218570   2.656   4.579   3.465
 5891SOL     OW18571   2.355   3.133   6.563
 5891SOL    HW118572   2.257   3.150   6.563
 5891SOL    HW218573   2.373   3.035   6.551
 5892SOL     OW18574   1.150   2.424   0.228
 5892SOL    HW118575   1.166   2.517   0.193
 5892SOL    HW218576   1.059   2.420   0.269
 5893SOL     OW18577   0.627   6.017   1.686
 5893SOL    HW118578   0.673   6.036   1.599
 5893SOL    HW218579   0.528   6.022   1.672
 5894SOL     OW18580   2.758   5.053   6.687
 5894SOL    HW118581   2.734   5.064   6.590
 5894SOL    HW218582   2.747   5.141   6.733
 5895SOL     OW18583   6.210   3.386   3.887
 5895SOL    HW118584   6.216   3.307   3.826
 5895SOL    HW218585   6.274   3.375   3.963
 5896SOL     OW18586   5.815   2.561   1.648
 5896SOL    HW118587   5.792   2.475   1.604
 5896SOL    HW218588   5.856   2.623   1.581
 5897SOL     OW18589   3.433   2.965   0.536
 5897SOL    HW118590   3.402   2.879   0.577
 5897SOL    HW218591   3.501   2.946   0.466
 5898SOL     OW18592   3.082   1.029   0.015
 5898SOL    HW118593   3.008   0.971   6.999
 5898SOL    HW218594   3.169   0.978   0.010
 5899SOL     OW18595   0.363   6.876   6.801
 5899SOL    HW118596   0.322   6.793   6.839
 5899SOL    HW218597   0.453   6.854   6.763
 5900SOL     OW18598   5.727   6.708   2.484
 5900SOL    HW118599   5.640   6.731   2.440
 5900SOL    HW218600   5.795   6.778   2.461
 5901SOL     OW18601   2.130   0.822   4.951
 5901SOL    HW118602   2.154   0.908   4.907
 5901SOL    HW218603   2.076   0.766   4.887
 5902SOL     OW18604   3.763   3.839   5.969
 5902SOL    HW118605   3.695   3.784   5.922
 5902SOL    HW218606   3.721   3.885   6.047
 5903SOL     OW18607   6.139   2.249   4.938
 5903SOL    HW118608   6.053   2.239   4.988
 5903SOL    HW218609   6.189   2.162   4.941
 5904SOL     OW18610   6.971   5.018   1.774
 5904SOL    HW118611   6.887   4.966   1.760
 5904SOL    HW218612   0.019   4.965   1.829
 5905SOL     OW18613   6.559   2.452   4.627
 5905SOL    HW118614   6.625   2.443   4.702
 5905SOL    HW218615   6.507   2.536   4.639
 5906SOL     OW18616   4.646   0.803   5.718
 5906SOL    HW118617   4.625   0.875   5.785
 5906SOL    HW218618   4.685   0.845   5.636
 5907SOL     OW18619   0.958   3.382   6.320
 5907SOL    HW118620   1.008   3.298   6.340
 5907SOL    HW218621   0.985   3.417   6.231
 5908SOL     OW18622   4.609   3.704   6.789
 5908SOL    HW118623   4.660   3.767   6.847
 5908SOL    HW218624   4.649   3.702   6.698
 5909SOL     OW18625   5.681   5.609   3.467
 5909SOL    HW118626   5.645   5.702   3.458
 5909SOL    HW218627   5.647   5.568   3.552
 5910SOL     OW18628   2.721   4.559   1.465
 5910SOL    HW118629   2.805   4.611   1.482
 5910SOL    HW218630   2.718   4.478   1.524
 5911SOL     OW18631   5.959   0.615   5.725
 5911SOL    HW118632   6.042   0.576   5.685
 5911SOL    HW218633   5.967   0.715   5.729
 5912SOL     OW18634   0.634   3.238   5.808
 5912SOL    HW118635   0.713   3.190   5.770
 5912SOL    HW218636   0.602   3.306   5.742
 5913SOL     OW18637   2.182   2.603   4.347
 5913SOL    HW118638   2.125   2.572   4.271
 5913SOL    HW218639   2.279   2.591   4.323
 5914SOL     OW18640   1.119   5.764   0.376
 5914SOL    HW118641   1.086   5.675   0.409
 5914SOL    HW218642   1.086   5.836   0.436
 5915SOL     OW18643   5.816   3.764   4.133
 5915SOL    HW118644   5.792   3.724   4.044
 5915SOL    HW218645   5.745   3.742   4.199
 5916SOL     OW18646   3.292   0.604   6.770
 5916SOL    HW118647   3.301   0.525   6.831
 5916SOL    HW218648   3.200   0.605   6.731
 5917SOL     OW18649   3.973   3.896   2.159
 5917SOL    HW118650   4.003   3.936   2.246
 5917SOL    HW218651   3.875   3.875   2.165
 5918SOL     OW18652   2.778   2.105   4.144
 5918SOL    HW118653   2.868   2.139   4.117
 5918SOL    HW218654   2.789   2.021   4.196
 5919SOL     OW18655   1.727   1.955   6.877
 5919SOL    HW118656   1.807   1.941   6.935
 5919SOL    HW218657   1.752   1.939   6.781
 5920SOL     OW18658   2.950   5.144   6.958
 5920SOL    HW118659   2.870   5.087   6.976
 5920SOL    HW218660   2.997   5.111   6.876
 5921SOL     OW18661   3.961   5.566   4.975
 5921SOL    HW118662   3.878   5.594   4.926
 5921SOL    HW218663   3.966   5.614   5.062
 5922SOL     OW18664   6.374   5.109   2.164
 5922SOL    HW118665   6.385   5.031   2.103
 5922SOL    HW218666   6.429   5.185   2.131
 5923SOL     OW18667   0.721   1.113   3.022
 5923SOL    HW118668   0.773   1.194   2.995
 5923SOL    HW218669   0.724   1.103   3.122
 5924SOL     OW18670   5.761   1.810   4.643
 5924SOL    HW118671   5.842   1.804   4.701
 5924SOL    HW218672   5.764   1.894   4.590
 5925SOL     OW18673   6.626   5.771   0.686
 5925SOL    HW118674   6.626   5.819   0.598
 5925SOL    HW218675   6.607   5.836   0.759
 5926SOL     OW18676   3.355   6.102   2.072
 5926SOL    HW118677   3.324   6.158   2.148
 5926SOL    HW218678   3.450   6.124   2.050
 5927SOL     OW18679   2.046   4.911   1.338
 5927SOL    HW118680   1.979   4.868   1.399
 5927SOL    HW218681   2.031   5.010   1.338
 5928SOL     OW18682   0.698   6.038   0.721
 5928SOL    HW118683   0.632   5.992   0.660
 5928SOL    HW218684   0.790   6.026   0.684
 5929SOL     OW18685   0.395   6.676   5.700
 5929SOL    HW118686   0.374   6.615   5.624
 5929SOL    HW218687   0.399   6.770   5.668
 5930SOL     OW18688   6.104   1.458   5.331
 5930SOL    HW118689   6.076   1.498   5.418
 5930SOL    HW218690   6.031   1.468   5.264
 5931SOL     OW18691   5.297   5.040   0.902
 5931SOL    HW118692   5.301   4.944   0.872
 5931SOL    HW218693   5.204   5.061   0.933
 5932SOL     OW18694   2.294   0.294   6.988
 5932SOL    HW118695   2.392   0.303   6.971
 5932SOL    HW218696   2.245   0.297   6.902
 5933SOL     OW18697   5.856   2.905   2.798
 5933SOL    HW118698   5.836   2.994   2.840
 5933SOL    HW218699   5.946   2.909   2.753
 5934SOL     OW18700   4.156   3.257   2.374
 5934SOL    HW118701   4.253   3.233   2.371
 5934SOL    HW218702   4.145   3.355   2.355
 5935SOL     OW18703   3.485   2.922   3.165
 5935SOL    HW118704   3.546   2.934   3.087
 5935SOL    HW218705   3.521   2.973   3.243
 5936SOL     OW18706   6.891   6.130   6.746
 5936SOL    HW118707   6.836   6.202   6.704
 5936SOL    HW218708   6.836   6.048   6.759
 5937SOL     OW18709   0.757   4.288   0.092
 5937SOL    HW118710   0.800   4.356   0.033
 5937SOL    HW218711   0.771   4.313   0.188
 5938SOL     OW18712   2.599   4.522   0.365
 5938SOL    HW118713   2.520   4.486   0.315
 5938SOL    HW218714   2.582   4.618   0.390
 5939SOL     OW18715   1.469   0.743   2.339
 5939SOL    HW118716   1.396   0.690   2.383
 5939SOL    HW218717   1.441   0.839   2.334
 5940SOL     OW18718   3.837   4.825   3.487
 5940SOL    HW118719   3.745   4.829   3.448
 5940SOL    HW218720   3.904   4.815   3.413
 5941SOL     OW18721   6.165   2.490   3.529
 5941SOL    HW118722   6.114   2.464   3.447
 5941SOL    HW218723   6.166   2.414   3.593
 5942SOL     OW18724   6.623   1.015   4.680
 5942SOL    HW118725   6.536   0.969   4.700
 5942SOL    HW218726   6.635   1.091   4.744
 5943SOL     OW18727   1.610   5.306   1.040
 5943SOL    HW118728   1.646   5.213   1.044
 5943SOL    HW218729   1.538   5.311   0.971
 5944SOL     OW18730   5.541   2.596   2.558
 5944SOL    HW118731   5.483   2.584   2.477
 5944SOL    HW218732   5.487   2.581   2.641
 5945SOL     OW18733   6.899   5.665   6.503
 5945SOL    HW118734   6.849   5.583   6.530
 5945SOL    HW218735   6.963   5.690   6.576
 5946SOL     OW18736   3.759   2.772   5.323
 5946SOL    HW118737   3.815   2.692   5.343
 5946SOL    HW218738   3.662   2.745   5.322
 5947SOL     OW18739   4.842   3.982   2.392
 5947SOL    HW118740   4.825   3.884   2.383
 5947SOL    HW218741   4.781   4.033   2.332
 5948SOL     OW18742   3.637   5.317   3.135
 5948SOL    HW118743   3.541   5.311   3.162
 5948SOL    HW218744   3.653   5.258   3.056
 5949SOL     OW18745   4.688   4.670   3.255
 5949SOL    HW118746   4.710   4.678   3.352
 5949SOL    HW218747   4.614   4.604   3.242
 5950SOL     OW18748   6.608   2.418   4.347
 5950SOL    HW118749   6.571   2.325   4.350
 5950SOL    HW218750   6.613   2.455   4.440
 5951SOL     OW18751   1.984   0.418   4.088
 5951SOL    HW118752   1.997   0.517   4.091
 5951SOL    HW218753   2.071   0.374   4.064
 5952SOL     OW18754   0.528   5.895   4.756
 5952SOL    HW118755   0.615   5.942   4.760
 5952SOL    HW218756   0.457   5.959   4.727
 5953SOL     OW18757   0.462   3.280   6.276
 5953SOL    HW118758   0.471   3.265   6.178
 5953SOL    HW218759   0.552   3.292   6.317
 5954SOL     OW18760   1.570   4.749   6.423
 5954SOL    HW118761   1.536   4.692   6.499
 5954SOL    HW218762   1.501   4.752   6.351
 5955SOL     OW18763   4.549   4.982   2.779
 5955SOL    HW118764   4.601   4.896   2.785
 5955SOL    HW218765   4.608   5.058   2.806
 5956SOL     OW18766   0.190   2.313   0.076
 5956SOL    HW118767   0.188   2.408   0.108
 5956SOL    HW218768   0.146   2.254   0.144
 5957SOL     OW18769   4.251   7.009   5.624
 5957SOL    HW118770   4.264   6.914   5.651
 5957SOL    HW218771   4.154   0.011   5.610
 5958SOL     OW18772   1.022   5.239   2.405
 5958SOL    HW118773   0.967   5.321   2.393
 5958SOL    HW218774   1.007   5.202   2.497
 5959SOL     OW18775   1.837   1.063   6.281
 5959SOL    HW118776   1.839   1.057   6.381
 5959SOL    HW218777   1.799   0.978   6.244
 5960SOL     OW18778   3.559   6.234   5.771
 5960SOL    HW118779   3.603   6.171   5.706
 5960SOL    HW218780   3.462   6.243   5.749
 5961SOL     OW18781   2.460   1.079   5.482
 5961SOL    HW118782   2.525   1.143   5.522
 5961SOL    HW218783   2.388   1.130   5.435
 5962SOL     OW18784   5.404   4.193   1.973
 5962SOL    HW118785   5.474   4.138   2.019
 5962SOL    HW218786   5.424   4.197   1.875
 5963SOL     OW18787   4.091   4.320   1.583
 5963SOL    HW118788   4.043   4.304   1.497
 5963SOL    HW218789   4.166   4.255   1.591
 5964SOL     OW18790   1.286   3.443   5.822
 5964SOL    HW118791   1.353   3.370   5.804
 5964SOL    HW218792   1.333   3.521   5.863
 5965SOL     OW18793   2.228   2.064   3.887
 5965SOL    HW118794   2.135   2.036   3.866
 5965SOL    HW218795   2.227   2.140   3.952
 5966SOL     OW18796   1.822   5.854   4.270
 5966SOL    HW118797   1.758   5.803   4.212
 5966SOL    HW218798   1.873   5.919   4.214
 5967SOL     OW18799   4.581   5.554   1.989
 5967SOL    HW118800   4.516   5.483   1.962
 5967SOL    HW218801   4.540   5.610   2.061
 5968SOL     OW18802   0.551   1.343   4.222
 5968SOL    HW118803   0.479   1.400   4.261
 5968SOL    HW218804   0.640   1.387   4.234
 5969SOL     OW18805   6.219   2.032   2.811
 5969SOL    HW118806   6.284   1.956   2.811
 5969SOL    HW218807   6.262   2.113   2.849
 5970SOL     OW18808   2.118   3.614   3.506
 5970SOL    HW118809   2.033   3.597   3.555
 5970SOL    HW218810   2.127   3.712   3.487
 5971SOL     OW18811   3.252   5.802   3.419
 5971SOL    HW118812   3.308   5.749   3.356
 5971SOL    HW218813   3.209   5.878   3.370
 5972SOL     OW18814   5.711   0.629   1.601
 5972SOL    HW118815   5.731   0.531   1.610
 5972SOL    HW218816   5.744   0.660   1.512
 5973SOL     OW18817   2.196   4.351   3.218
 5973SOL    HW118818   2.129   4.385   3.284
 5973SOL    HW218819   2.148   4.318   3.136
 5974SOL     OW18820   0.727   4.087   6.354
 5974SOL    HW118821   0.643   4.139   6.345
 5974SOL    HW218822   0.746   4.069   6.451
 5975SOL     OW18823   2.268   2.503   6.024
 5975SOL    HW118824   2.238   2.593   6.055
 5975SOL    HW218825   2.328   2.462   6.093
 5976SOL     OW18826   3.587   3.066   4.650
 5976SOL    HW118827   3.533   2.982   4.642
 5976SOL    HW218828   3.656   3.055   4.721
 5977SOL     OW18829   0.559   3.585   2.965
 5977SOL    HW118830   0.589   3.492   2.945
 5977SOL    HW218831   0.621   3.627   3.031
 5978SOL     OW18832   4.855   5.376   2.292
 5978SOL    HW118833   4.826   5.394   2.386
 5978SOL    HW218834   4.855   5.461   2.240
 5979SOL     OW18835   0.739   1.180   1.620
 5979SOL    HW118836   0.749   1.097   1.675
 5979SOL    HW218837   0.769   1.162   1.526
 5980SOL     OW18838   5.802   2.862   5.978
 5980SOL    HW118839   5.714   2.832   6.016
 5980SOL    HW218840   5.865   2.885   6.053
 5981SOL     OW18841   3.664   2.045   0.557
 5981SOL    HW118842   3.602   2.006   0.625
 5981SOL    HW218843   3.613   2.064   0.473
 5982SOL     OW18844   6.136   2.550   0.028
 5982SOL    HW118845   6.050   2.599   0.046
 5982SOL    HW218846   6.177   2.524   0.116
 5983SOL     OW18847   1.159   0.479   5.011
 5983SOL    HW118848   1.118   0.554   5.062
 5983SOL    HW218849   1.138   0.392   5.056
 5984SOL     OW18850   0.894   0.127   6.034
 5984SOL    HW118851   0.864   0.108   5.940
 5984SOL    HW218852   0.993   0.120   6.039
 5985SOL     OW18853   5.836   3.181   4.095
 5985SOL    HW118854   5.761   3.163   4.159
 5985SOL    HW218855   5.894   3.100   4.088
 5986SOL     OW18856   2.998   3.751   2.814
 5986SOL    HW118857   3.015   3.750   2.716
 5986SOL    HW218858   2.926   3.685   2.836
 5987SOL     OW18859   4.582   0.277   5.724
 5987SOL    HW118860   4.659   0.225   5.687
 5987SOL    HW218861   4.613   0.370   5.748
 5988SOL     OW18862   3.800   0.119   5.689
 5988SOL    HW118863   3.738   0.046   5.717
 5988SOL    HW218864   3.840   0.161   5.771
 5989SOL     OW18865   2.983   1.603   0.132
 5989SOL    HW118866   3.075   1.617   0.094
 5989SOL    HW218867   2.990   1.563   0.223
 5990SOL     OW18868   3.700   5.142   2.953
 5990SOL    HW118869   3.799   5.137   2.938
 5990SOL    HW218870   3.667   5.053   2.986
 5991SOL     OW18871   3.425   5.081   3.190
 5991SOL    HW118872   3.395   5.177   3.193
 5991SOL    HW218873   3.367   5.026   3.249
 5992SOL     OW18874   4.325   1.980   4.042
 5992SOL    HW118875   4.297   1.926   4.122
 5992SOL    HW218876   4.273   1.950   3.962
 5993SOL     OW18877   2.546   5.391   3.781
 5993SOL    HW118878   2.607   5.404   3.703
 5993SOL    HW218879   2.464   5.343   3.751
 5994SOL     OW18880   5.875   2.321   0.980
 5994SOL    HW118881   5.787   2.359   0.953
 5994SOL    HW218882   5.941   2.335   0.906
 5995SOL     OW18883   0.568   3.846   1.607
 5995SOL    HW118884   0.554   3.920   1.673
 5995SOL    HW218885   0.577   3.885   1.515
 5996SOL     OW18886   1.331   5.821   5.940
 5996SOL    HW118887   1.364   5.786   5.852
 5996SOL    HW218888   1.372   5.769   6.014
 5997SOL     OW18889   0.397   0.771   1.400
 5997SOL    HW118890   0.459   0.787   1.323
 5997SOL    HW218891   0.361   0.678   1.395
 5998SOL     OW18892   4.910   2.718   3.113
 5998SOL    HW118893   4.947   2.764   3.194
 5998SOL    HW218894   4.965   2.740   3.033
 5999SOL     OW18895   2.283   2.791   3.074
 5999SOL    HW118896   2.256   2.882   3.045
 5999SOL    HW218897   2.329   2.796   3.162
 6000SOL     OW18898   4.871   0.812   3.569
 6000SOL    HW118899   4.777   0.785   3.545
 6000SOL    HW218900   4.871   0.903   3.609
 6001SOL     OW18901   6.397   1.423   0.387
 6001SOL    HW118902   6.401   1.523   0.383
 6001SOL    HW218903   6.333   1.395   0.459
 6002SOL     OW18904   1.610   0.067   2.153
 6002SOL    HW118905   1.550   0.119   2.213
 6002SOL    HW218906   1.579   6.989   2.147
 6003SOL     OW18907   5.029   4.274   4.008
 6003SOL    HW118908   5.095   4.257   3.935
 6003SOL    HW218909   5.074   4.267   4.097
 6004SOL     OW18910   0.033   3.376   1.757
 6004SOL    HW118911   0.115   3.344   1.708
 6004SOL    HW218912   0.016   3.472   1.735
 6005SOL     OW18913   1.597   6.040   2.201
 6005SOL    HW118914   1.578   5.998   2.290
 6005SOL    HW218915   1.597   6.139   2.211
 6006SOL     OW18916   2.816   5.551   0.137
 6006SOL    HW118917   2.820   5.511   0.045
 6006SOL    HW218918   2.792   5.480   0.203
 6007SOL     OW18919   5.364   3.590   4.378
 6007SOL    HW118920   5.293   3.532   4.419
 6007SOL    HW218921   5.433   3.612   4.447
 6008SOL     OW18922   4.839   4.230   1.644
 6008SOL    HW118923   4.746   4.199   1.624
 6008SOL    HW218924   4.838   4.287   1.726
 6009SOL     OW18925   4.864   1.813   5.242
 6009SOL    HW118926   4.901   1.724   5.217
 6009SOL    HW218927   4.938   1.880   5.248
 6010SOL     OW18928   1.933   4.459   3.178
 6010SOL    HW118929   1.850   4.452   3.122
 6010SOL    HW218930   1.999   4.519   3.133
 6011SOL     OW18931   6.204   2.058   1.727
 6011SOL    HW118932   6.197   1.958   1.730
 6011SOL    HW218933   6.294   2.084   1.692
 6012SOL     OW18934   0.253   2.916   1.482
 6012SOL    HW118935   0.340   2.953   1.448
 6012SOL    HW218936   0.260   2.817   1.489
 6013SOL     OW18937   5.415   0.265   2.774
 6013SOL    HW118938   5.444   0.292   2.682
 6013SOL    HW218939   5.320   0.236   2.771
 6014SOL     OW18940   6.378   0.648   1.078
 6014SOL    HW118941   6.462   0.631   1.025
 6014SOL    HW218942   6.320   0.713   1.028
 6015SOL     OW18943   5.785   0.277   3.942
 6015SOL    HW118944   5.688   0.297   3.933
 6015SOL    HW218945   5.801   0.181   3.918
 6016SOL     OW18946   2.195   0.268   5.373
 6016SOL    HW118947   2.279   0.319   5.390
 6016SOL    HW218948   2.181   0.260   5.274
 6017SOL     OW18949   0.398   3.857   2.660
 6017SOL    HW118950   0.346   3.818   2.737
 6017SOL    HW218951   0.418   3.785   2.593
 6018SOL     OW18952   3.008   5.151   1.364
 6018SOL    HW118953   3.063   5.150   1.448
 6018SOL    HW218954   3.046   5.218   1.301
 6019SOL     OW18955   6.562   6.269   3.308
 6019SOL    HW118956   6.585   6.296   3.214
 6019SOL    HW218957   6.464   6.255   3.315
 6020SOL     OW18958   1.678   6.580   2.730
 6020SOL    HW118959   1.669   6.487   2.694
 6020SOL    HW218960   1.685   6.644   2.654
 6021SOL     OW18961   3.994   0.639   3.628
 6021SOL    HW118962   3.920   0.663   3.690
 6021SOL    HW218963   3.979   0.547   3.590
 6022SOL     OW18964   3.937   0.965   5.202
 6022SOL    HW118965   4.009   1.020   5.245
 6022SOL    HW218966   3.930   0.877   5.248
 6023SOL     OW18967   0.260   2.155   2.244
 6023SOL    HW118968   0.311   2.223   2.190
 6023SOL    HW218969   0.259   2.184   2.340
 6024SOL     OW18970   6.570   5.571   2.854
 6024SOL    HW118971   6.545   5.598   2.947
 6024SOL    HW218972   6.500   5.602   2.790
 6025SOL     OW18973   4.369   2.060   2.659
 6025SOL    HW118974   4.325   2.006   2.588
 6025SOL    HW218975   4.298   2.101   2.718
 6026SOL     OW18976   0.618   4.349   5.562
 6026SOL    HW118977   0.651   4.275   5.503
 6026SOL    HW218978   0.633   4.325   5.658
 6027SOL     OW18979   3.991   3.637   0.588
 6027SOL    HW118980   3.894   3.621   0.569
 6027SOL    HW218981   4.001   3.700   0.665
 6028SOL     OW18982   0.936   4.469   6.966
 6028SOL    HW118983   0.848   4.516   6.961
 6028SOL    HW218984   0.976   4.465   6.874
 6029SOL     OW18985   1.200   5.318   1.645
 6029SOL    HW118986   1.232   5.334   1.552
 6029SOL    HW218987   1.101   5.329   1.648
 6030SOL     OW18988   1.931   6.582   1.805
 6030SOL    HW118989   1.918   6.486   1.780
 6030SOL    HW218990   1.975   6.587   1.895
 6031SOL     OW18991   4.887   1.276   4.345
 6031SOL    HW118992   4.932   1.311   4.427
 6031SOL    HW218993   4.790   1.299   4.347
 6032SOL     OW18994   0.518   3.050   2.206
 6032SOL    HW118995   0.472   2.962   2.197
 6032SOL    HW218996   0.451   3.122   2.223
 6033SOL     OW18997   0.565   6.954   4.488
 6033SOL    HW118998   0.633   0.008   4.510
 6033SOL    HW218999   0.609   6.881   4.435
 6034SOL     OW19000   2.409   4.443   4.904
 6034SOL    HW119001   2.361   4.422   4.989
 6034SOL    HW219002   2.421   4.359   4.851
 6035SOL     OW19003   5.314   0.096   3.675
 6035SOL    HW119004   5.230   0.063   3.718
 6035SOL    HW219005   5.294   0.126   3.582
 6036SOL     OW19006   6.787   0.541   4.664
 6036SOL    HW119007   6.879   0.524   4.629
 6036SOL    HW219008   6.742   0.610   4.608
 6037SOL     OW19009   0.414   5.672   4.634
 6037SOL    HW119010   0.421   5.584   4.681
 6037SOL    HW219011   0.471   5.740   4.680
 6038SOL     OW19012   6.340   4.198   6.799
 6038SOL    HW119013   6.393   4.137   6.741
 6038SOL    HW219014   6.402   4.251   6.857
 6039SOL     OW19015   4.103   3.254   4.568
 6039SOL    HW119016   4.147   3.271   4.479
 6039SOL    HW219017   4.018   3.203   4.553
 6040SOL     OW19018   1.171   0.979   1.256
 6040SOL    HW119019   1.177   1.075   1.281
 6040SOL    HW219020   1.220   0.964   1.169
 6041SOL     OW19021   0.382   2.925   0.323
 6041SOL    HW119022   0.402   3.001   0.385
 6041SOL    HW219023   0.342   2.959   0.239
 6042SOL     OW19024   5.091   5.435   5.094
 6042SOL    HW119025   5.120   5.523   5.132
 6042SOL    HW219026   5.023   5.394   5.155
 6043SOL     OW19027   0.359   4.087   4.025
 6043SOL    HW119028   0.371   4.148   4.103
 6043SOL    HW219029   0.291   4.126   3.962
 6044SOL     OW19030   1.679   0.498   1.372
 6044SOL    HW119031   1.735   0.546   1.305
 6044SOL    HW219032   1.736   0.468   1.449
 6045SOL     OW19033   6.566   3.714   0.342
 6045SOL    HW119034   6.503   3.657   0.395
 6045SOL    HW219035   6.598   3.790   0.399
 6046SOL     OW19036   1.797   3.830   0.027
 6046SOL    HW119037   1.805   3.744   0.077
 6046SOL    HW219038   1.840   3.820   6.953
 6047SOL     OW19039   0.752   6.032   4.798
 6047SOL    HW119040   0.729   6.107   4.860
 6047SOL    HW219041   0.747   6.063   4.704
 6048SOL     OW19042   4.313   6.234   4.545
 6048SOL    HW119043   4.230   6.263   4.496
 6048SOL    HW219044   4.370   6.179   4.484
 6049SOL     OW19045   6.723   5.409   0.175
 6049SOL    HW119046   6.753   5.319   0.207
 6049SOL    HW219047   6.703   5.467   0.254
 6050SOL     OW19048   5.461   4.587   5.375
 6050SOL    HW119049   5.380   4.594   5.318
 6050SOL    HW219050   5.444   4.524   5.450
 6051SOL     OW19051   3.334   2.102   3.779
 6051SOL    HW119052   3.245   2.128   3.817
 6051SOL    HW219053   3.326   2.095   3.679
 6052SOL     OW19054   0.029   1.412   0.386
 6052SOL    HW119055   6.985   1.333   0.378
 6052SOL    HW219056   6.999   1.484   0.438
 6053SOL     OW19057   1.560   0.435   6.337
 6053SOL    HW119058   1.477   0.463   6.384
 6053SOL    HW219059   1.537   0.372   6.263
 6054SOL     OW19060   1.355   4.167   6.536
 6054SOL    HW119061   1.417   4.235   6.496
 6054SOL    HW219062   1.402   4.080   6.546
 6055SOL     OW19063   5.682   7.000   3.067
 6055SOL    HW119064   5.658   6.979   2.972
 6055SOL    HW219065   5.781   7.014   3.075
 6056SOL     OW19066   5.478   3.349   6.293
 6056SOL    HW119067   5.493   3.288   6.215
 6056SOL    HW219068   5.390   3.394   6.283
 6057SOL     OW19069   3.939   0.825   6.316
 6057SOL    HW119070   3.980   0.914   6.295
 6057SOL    HW219071   3.938   0.811   6.415
 6058SOL     OW19072   5.434   1.469   4.921
 6058SOL    HW119073   5.414   1.528   4.999
 6058SOL    HW219074   5.533   1.466   4.907
 6059SOL     OW19075   0.162   6.184   6.376
 6059SOL    HW119076   0.166   6.200   6.474
 6059SOL    HW219077   0.175   6.270   6.327
 6060SOL     OW19078   3.281   6.030   6.532
 6060SOL    HW119079   3.240   5.939   6.522
 6060SOL    HW219080   3.240   6.093   6.466
 6061SOL     OW19081   1.955   1.840   0.187
 6061SOL    HW119082   2.038   1.817   0.238
 6061SOL    HW219083   1.887   1.878   0.249
 6062SOL     OW19084   1.219   0.056   4.258
 6062SOL    HW119085   1.280   0.135   4.267
 6062SOL    HW219086   1.178   0.054   4.167
 6063SOL     OW19087   5.830   5.782   0.186
 6063SOL    HW119088   5.818   5.709   0.253
 6063SOL    HW219089   5.802   5.869   0.225
 6064SOL     OW19090   1.112   4.776   2.487
 6064SOL    HW119091   1.087   4.852   2.426
 6064SOL    HW219092   1.057   4.696   2.464
 6065SOL     OW19093   5.762   6.861   1.844
 6065SOL    HW119094   5.806   6.794   1.784
 6065SOL    HW219095   5.794   6.846   1.938
 6066SOL     OW19096   3.914   1.554   5.970
 6066SOL    HW119097   3.841   1.529   5.906
 6066SOL    HW219098   3.996   1.578   5.918
 6067SOL     OW19099   4.905   2.356   6.809
 6067SOL    HW119100   4.826   2.408   6.842
 6067SOL    HW219101   4.984   2.374   6.867
 6068SOL     OW19102   5.323   1.561   5.617
 6068SOL    HW119103   5.345   1.556   5.715
 6068SOL    HW219104   5.394   1.513   5.565
 6069SOL     OW19105   6.253   5.532   3.727
 6069SOL    HW119106   6.339   5.534   3.778
 6069SOL    HW219107   6.196   5.608   3.757
 6070SOL     OW19108   4.904   2.968   0.409
 6070SOL    HW119109   4.950   3.054   0.387
 6070SOL    HW219110   4.871   2.971   0.503
 6071SOL     OW19111   5.183   0.036   5.201
 6071SOL    HW119112   5.118   7.016   5.134
 6071SOL    HW219113   5.136   0.100   5.261
 6072SOL     OW19114   6.261   1.433   1.178
 6072SOL    HW119115   6.321   1.509   1.156
 6072SOL    HW219116   6.180   1.435   1.119
 6073SOL     OW19117   6.132   0.963   1.426
 6073SOL    HW119118   6.198   1.009   1.366
 6073SOL    HW219119   6.111   0.873   1.388
 6074SOL     OW19120   1.072   0.473   5.343
 6074SOL    HW119121   1.146   0.509   5.400
 6074SOL    HW219122   1.059   0.376   5.362
 6075SOL     OW19123   4.657   3.551   6.023
 6075SOL    HW119124   4.633   3.469   6.074
 6075SOL    HW219125   4.580   3.614   6.021
 6076SOL     OW19126   2.475   0.527   3.538
 6076SOL    HW119127   2.466   0.593   3.614
 6076SOL    HW219128   2.404   0.458   3.547
 6077SOL     OW19129   4.861   4.738   3.079
 6077SOL    HW119130   4.920   4.801   3.130
 6077SOL    HW219131   4.790   4.703   3.140
 6078SOL     OW19132   1.997   4.243   3.722
 6078SOL    HW119133   2.092   4.214   3.709
 6078SOL    HW219134   1.949   4.172   3.774
 6079SOL     OW19135   3.095   1.820   0.829
 6079SOL    HW119136   2.996   1.816   0.816
 6079SOL    HW219137   3.127   1.914   0.815
 6080SOL     OW19138   5.976   2.836   3.360
 6080SOL    HW119139   6.056   2.780   3.339
 6080SOL    HW219140   5.937   2.807   3.448
 6081SOL     OW19141   0.649   3.963   2.757
 6081SOL    HW119142   0.719   3.891   2.760
 6081SOL    HW219143   0.566   3.926   2.715
 6082SOL     OW19144   3.770   1.764   4.863
 6082SOL    HW119145   3.807   1.680   4.824
 6082SOL    HW219146   3.809   1.843   4.816
 6083SOL     OW19147   1.865   6.394   0.009
 6083SOL    HW119148   1.872   6.295   7.013
 6083SOL    HW219149   1.948   6.437   6.991
 6084SOL     OW19150   0.292   5.128   6.156
 6084SOL    HW119151   0.243   5.183   6.088
 6084SOL    HW219152   0.386   5.114   6.125
 6085SOL     OW19153   4.890   5.035   1.693
 6085SOL    HW119154   4.914   5.017   1.598
 6085SOL    HW219155   4.846   4.953   1.732
 6086SOL     OW19156   3.193   1.552   2.462
 6086SOL    HW119157   3.217   1.649   2.473
 6086SOL    HW219158   3.231   1.518   2.376
 6087SOL     OW19159   3.579   0.226   0.770
 6087SOL    HW119160   3.663   0.220   0.824
 6087SOL    HW219161   3.601   0.250   0.676
 6088SOL     OW19162   0.012   0.038   4.917
 6088SOL    HW119163   0.059   6.971   4.886
 6088SOL    HW219164   0.061   0.076   4.995
 6089SOL     OW19165   6.411   4.048   0.978
 6089SOL    HW119166   6.356   4.087   0.905
 6089SOL    HW219167   6.351   4.010   1.049
 6090SOL     OW19168   6.778   5.631   4.403
 6090SOL    HW119169   6.856   5.676   4.446
 6090SOL    HW219170   6.693   5.666   4.442
 6091SOL     OW19171   6.673   2.288   1.714
 6091SOL    HW119172   6.734   2.249   1.645
 6091SOL    HW219173   6.727   2.336   1.783
 6092SOL     OW19174   1.391   3.402   0.914
 6092SOL    HW119175   1.479   3.448   0.906
 6092SOL    HW219176   1.390   3.322   0.854
 6093SOL     OW19177   1.324   4.603   0.720
 6093SOL    HW119178   1.310   4.692   0.678
 6093SOL    HW219179   1.297   4.531   0.656
 6094SOL     OW19180   0.557   1.292   0.699
 6094SOL    HW119181   0.570   1.198   0.731
 6094SOL    HW219182   0.462   1.305   0.670
 6095SOL     OW19183   6.195   3.955   5.233
 6095SOL    HW119184   6.202   3.973   5.134
 6095SOL    HW219185   6.162   4.037   5.279
 6096SOL     OW19186   4.968   2.203   2.849
 6096SOL    HW119187   4.903   2.128   2.835
 6096SOL    HW219188   4.934   2.285   2.804
 6097SOL     OW19189   3.382   2.141   2.744
 6097SOL    HW119190   3.293   2.145   2.699
 6097SOL    HW219191   3.454   2.131   2.675
 6098SOL     OW19192   1.053   0.357   6.648
 6098SOL    HW119193   0.997   0.274   6.648
 6098SOL    HW219194   1.115   0.356   6.727
 6099SOL     OW19195   5.750   4.516   4.833
 6099SOL    HW119196   5.838   4.488   4.794
 6099SOL    HW219197   5.690   4.436   4.841
 6100SOL     OW19198   6.878   2.886   0.153
 6100SOL    HW119199   6.886   2.897   0.252
 6100SOL    HW219200   6.856   2.791   0.131
 6101SOL     OW19201   6.370   6.764   3.269
 6101SOL    HW119202   6.270   6.764   3.262
 6101SOL    HW219203   6.407   6.838   3.213
 6102SOL     OW19204   2.627   6.841   4.975
 6102SOL    HW119205   2.706   6.783   4.993
 6102SOL    HW219206   2.650   6.905   4.902
 6103SOL     OW19207   5.466   1.733   5.078
 6103SOL    HW119208   5.450   1.812   5.017
 6103SOL    HW219209   5.421   1.749   5.165
 6104SOL     OW19210   1.556   2.861   1.169
 6104SOL    HW119211   1.590   2.910   1.089
 6104SOL    HW219212   1.558   2.922   1.248
 6105SOL     OW19213   2.994   5.048   4.842
 6105SOL    HW119214   2.935   5.127   4.863
 6105SOL    HW219215   2.936   4.969   4.822
 6106SOL     OW19216   2.315   4.760   4.412
 6106SOL    HW119217   2.259   4.836   4.444
 6106SOL    HW219218   2.365   4.721   4.489
 6107SOL     OW19219   2.486   5.233   5.909
 6107SOL    HW119220   2.410   5.273   5.959
 6107SOL    HW219221   2.502   5.140   5.942
 6108SOL     OW19222   5.309   1.808   4.707
 6108SOL    HW119223   5.350   1.726   4.667
 6108SOL    HW219224   5.217   1.820   4.670
 6109SOL     OW19225   6.994   3.828   1.709
 6109SOL    HW119226   6.932   3.766   1.758
 6109SOL    HW219227   6.941   3.900   1.665
 6110SOL     OW19228   3.407   2.049   3.420
 6110SOL    HW119229   3.443   1.997   3.497
 6110SOL    HW219230   3.363   2.133   3.454
 6111SOL     OW19231   0.451   4.462   3.641
 6111SOL    HW119232   0.533   4.484   3.692
 6111SOL    HW219233   0.476   4.413   3.557
 6112SOL     OW19234   1.131   1.939   1.006
 6112SOL    HW119235   1.173   1.886   1.080
 6112SOL    HW219236   1.172   1.913   0.919
 6113SOL     OW19237   1.739   4.771   5.201
 6113SOL    HW119238   1.737   4.814   5.291
 6113SOL    HW219239   1.702   4.678   5.207
 6114SOL     OW19240   4.647   4.564   0.711
 6114SOL    HW119241   4.671   4.527   0.621
 6114SOL    HW219242   4.554   4.535   0.734
 6115SOL     OW19243   6.421   4.936   1.962
 6115SOL    HW119244   6.354   4.962   1.893
 6115SOL    HW219245   6.427   4.836   1.967
 6116SOL     OW19246   3.583   2.428   1.065
 6116SOL    HW119247   3.679   2.456   1.055
 6116SOL    HW219248   3.548   2.464   1.152
 6117SOL     OW19249   5.712   6.266   3.973
 6117SOL    HW119250   5.624   6.287   4.014
 6117SOL    HW219251   5.760   6.351   3.952
 6118SOL     OW19252   6.733   0.083   3.212
 6118SOL    HW119253   6.804   0.146   3.241
 6118SOL    HW219254   6.775   0.005   3.166
 6119SOL     OW19255   5.238   5.831   4.602
 6119SOL    HW119256   5.295   5.904   4.641
 6119SOL    HW219257   5.144   5.840   4.636
 6120SOL     OW19258   2.344   1.871   3.442
 6120SOL    HW119259   2.415   1.941   3.438
 6120SOL    HW219260   2.277   1.886   3.370
 6121SOL     OW19261   6.759   1.690   4.633
 6121SOL    HW119262   6.686   1.713   4.698
 6121SOL    HW219263   6.842   1.741   4.656
 6122SOL     OW19264   3.768   6.099   4.282
 6122SOL    HW119265   3.703   6.112   4.207
 6122SOL    HW219266   3.861   6.092   4.245
 6123SOL     OW19267   5.688   1.474   2.772
 6123SOL    HW119268   5.745   1.510   2.698
 6123SOL    HW219269   5.691   1.374   2.771
 6124SOL     OW19270   2.881   0.362   4.728
 6124SOL    HW119271   2.977   0.389   4.719
 6124SOL    HW219272   2.836   0.418   4.797
 6125SOL     OW19273   1.176   4.487   2.208
 6125SOL    HW119274   1.255   4.437   2.244
 6125SOL    HW219275   1.093   4.433   2.224
 6126SOL     OW19276   3.642   6.126   2.771
 6126SOL    HW119277   3.558   6.174   2.796
 6126SOL    HW219278   3.665   6.147   2.676
 6127SOL     OW19279   1.576   5.495   1.838
 6127SOL    HW119280   1.552   5.401   1.814
 6127SOL    HW219281   1.644   5.530   1.773
 6128SOL     OW19282   5.276   3.959   1.435
 6128SOL    HW119283   5.339   4.037   1.437
 6128SOL    HW219284   5.223   3.957   1.519
 6129SOL     OW19285   6.289   3.808   3.410
 6129SOL    HW119286   6.239   3.870   3.471
 6129SOL    HW219287   6.301   3.852   3.321
 6130SOL     OW19288   5.654   3.497   2.832
 6130SOL    HW119289   5.626   3.411   2.874
 6130SOL    HW219290   5.645   3.571   2.898
 6131SOL     OW19291   6.583   0.789   5.267
 6131SOL    HW119292   6.631   0.828   5.345
 6131SOL    HW219293   6.528   0.710   5.297
 6132SOL     OW19294   0.029   2.542   0.557
 6132SOL    HW119295   0.127   2.547   0.538
 6132SOL    HW219296   6.994   2.581   0.481
 6133SOL     OW19297   1.323   4.942   0.301
 6133SOL    HW119298   1.299   4.990   0.385
 6133SOL    HW219299   1.354   4.850   0.323
 6134SOL     OW19300   4.655   4.133   6.919
 6134SOL    HW119301   4.721   4.193   6.875
 6134SOL    HW219302   4.701   4.053   6.956
 6135SOL     OW19303   6.042   6.835   2.806
 6135SOL    HW119304   6.019   6.753   2.754
 6135SOL    HW219305   6.017   6.917   2.753
 6136SOL     OW19306   1.527   1.709   2.361
 6136SOL    HW119307   1.433   1.717   2.329
 6136SOL    HW219308   1.539   1.765   2.443
 6137SOL     OW19309   3.517   0.364   6.455
 6137SOL    HW119310   3.479   0.455   6.470
 6137SOL    HW219311   3.443   0.300   6.434
 6138SOL     OW19312   4.898   0.750   2.886
 6138SOL    HW119313   4.883   0.776   2.981
 6138SOL    HW219314   4.859   0.659   2.869
 6139SOL     OW19315   2.810   5.951   3.479
 6139SOL    HW119316   2.861   6.004   3.547
 6139SOL    HW219317   2.748   6.013   3.429
 6140SOL     OW19318   2.240   5.501   1.231
 6140SOL    HW119319   2.259   5.403   1.242
 6140SOL    HW219320   2.324   5.549   1.204
 6141SOL     OW19321   0.520   5.858   5.292
 6141SOL    HW119322   0.578   5.911   5.230
 6141SOL    HW219323   0.469   5.789   5.240
 6142SOL     OW19324   0.271   3.759   3.541
 6142SOL    HW119325   0.231   3.701   3.612
 6142SOL    HW219326   0.208   3.834   3.520
 6143SOL     OW19327   6.200   4.842   6.620
 6143SOL    HW119328   6.218   4.889   6.533
 6143SOL    HW219329   6.258   4.881   6.691
 6144SOL     OW19330   0.128   5.384   4.124
 6144SOL    HW119331   0.100   5.293   4.092
 6144SOL    HW219332   0.149   5.380   4.221
 6145SOL     OW19333   5.605   5.249   3.341
 6145SOL    HW119334   5.611   5.345   3.315
 6145SOL    HW219335   5.671   5.230   3.414
 6146SOL     OW19336   5.724   1.954   3.687
 6146SOL    HW119337   5.680   1.994   3.768
 6146SOL    HW219338   5.803   2.010   3.661
 6147SOL     OW19339   1.353   3.673   3.547
 6147SOL    HW119340   1.256   3.650   3.552
 6147SOL    HW219341   1.405   3.590   3.529
 6148SOL     OW19342   6.397   5.978   2.743
 6148SOL    HW119343   6.434   5.891   2.709
 6148SOL    HW219344   6.353   6.027   2.667
 6149SOL     OW19345   1.406   5.618   4.814
 6149SOL    HW119346   1.330   5.571   4.769
 6149SOL    HW219347   1.489   5.564   4.804
 6150SOL     OW19348   4.229   6.630   6.101
 6150SOL    HW119349   4.251   6.582   6.017
 6150SOL    HW219350   4.286   6.712   6.109
 6151SOL     OW19351   4.713   0.110   5.566
 6151SOL    HW119352   4.795   0.092   5.620
 6151SOL    HW219353   4.677   0.024   5.529
 6152SOL     OW19354   6.498   4.187   5.495
 6152SOL    HW119355   6.455   4.098   5.477
 6152SOL    HW219356   6.587   4.173   5.538
 6153SOL     OW19357   3.889   5.262   5.775
 6153SOL    HW119358   3.922   5.357   5.772
 6153SOL    HW219359   3.789   5.262   5.775
 6154SOL     OW19360   5.348   3.257   3.142
 6154SOL    HW119361   5.283   3.315   3.094
 6154SOL    HW219362   5.325   3.161   3.126
 6155SOL     OW19363   2.496   4.593   4.556
 6155SOL    HW119364   2.467   4.498   4.547
 6155SOL    HW219365   2.521   4.611   4.652
 6156SOL     OW19366   5.652   0.531   4.711
 6156SOL    HW119367   5.701   0.456   4.667
 6156SOL    HW219368   5.674   0.617   4.665
 6157SOL     OW19369   0.835   1.418   4.487
 6157SOL    HW119370   0.764   1.475   4.529
 6157SOL    HW219371   0.845   1.333   4.538
 6158SOL     OW19372   5.550   6.958   6.809
 6158SOL    HW119373   5.565   0.000   6.888
 6158SOL    HW219374   5.482   6.888   6.831
 6159SOL     OW19375   4.972   3.302   6.698
 6159SOL    HW119376   4.928   3.384   6.735
 6159SOL    HW219377   4.909   3.257   6.634
 6160SOL     OW19378   6.682   4.836   0.096
 6160SOL    HW119379   6.755   4.777   0.131
 6160SOL    HW219380   6.699   4.855   7.015
 6161SOL     OW19381   6.136   0.115   6.140
 6161SOL    HW119382   6.147   0.207   6.103
 6161SOL    HW219383   6.219   0.087   6.187
 6162SOL     OW19384   5.131   5.481   4.113
 6162SOL    HW119385   5.101   5.451   4.203
 6162SOL    HW219386   5.231   5.477   4.109
 6163SOL     OW19387   6.509   3.858   2.884
 6163SOL    HW119388   6.505   3.952   2.918
 6163SOL    HW219389   6.431   3.806   2.920
 6164SOL     OW19390   4.411   3.303   1.324
 6164SOL    HW119391   4.373   3.216   1.353
 6164SOL    HW219392   4.494   3.323   1.376
 6165SOL     OW19393   4.153   0.371   1.417
 6165SOL    HW119394   4.124   0.425   1.338
 6165SOL    HW219395   4.237   0.321   1.393
 6166SOL     OW19396   3.591   0.587   0.480
 6166SOL    HW119397   3.663   0.611   0.415
 6166SOL    HW219398   3.614   0.624   0.570
 6167SOL     OW19399   6.842   5.349   3.547
 6167SOL    HW119400   6.849   5.306   3.457
 6167SOL    HW219401   6.748   5.381   3.562
 6168SOL     OW19402   0.199   3.238   1.090
 6168SOL    HW119403   0.261   3.265   1.015
 6168SOL    HW219404   0.128   3.177   1.054
 6169SOL     OW19405   1.831   3.990   1.023
 6169SOL    HW119406   1.785   4.020   1.106
 6169SOL    HW219407   1.834   3.891   1.019
 6170SOL     OW19408   6.502   1.959   3.331
 6170SOL    HW119409   6.568   1.907   3.385
 6170SOL    HW219410   6.454   2.023   3.390
 6171SOL     OW19411   5.955   1.717   6.152
 6171SOL    HW119412   5.949   1.781   6.229
 6171SOL    HW219413   5.975   1.625   6.187
 6172SOL     OW19414   0.329   4.740   3.634
 6172SOL    HW119415   0.386   4.787   3.567
 6172SOL    HW219416   0.372   4.653   3.659
 6173SOL     OW19417   5.495   6.363   2.926
 6173SOL    HW119418   5.489   6.331   2.831
 6173SOL    HW219419   5.440   6.304   2.985
 6174SOL     OW19420   6.884   2.223   3.390
 6174SOL    HW119421   6.955   2.285   3.425
 6174SOL    HW219422   6.821   2.200   3.465
 6175SOL     OW19423   3.992   1.624   0.174
 6175SOL    HW119424   3.943   1.540   0.197
 6175SOL    HW219425   3.927   1.700   0.170
 6176SOL     OW19426   2.758   4.427   6.104
 6176SOL    HW119427   2.818   4.414   6.025
 6176SOL    HW219428   2.739   4.524   6.117
 6177SOL     OW19429   5.686   5.308   1.868
 6177SOL    HW119430   5.770   5.352   1.901
 6177SOL    HW219431   5.606   5.359   1.899
 6178SOL     OW19432   4.065   4.804   1.833
 6178SOL    HW119433   4.123   4.740   1.783
 6178SOL    HW219434   3.969   4.782   1.816
 6179SOL     OW19435   5.331   5.661   4.934
 6179SOL    HW119436   5.384   5.582   4.965
 6179SOL    HW219437   5.270   5.632   4.859
 6180SOL     OW19438   2.042   3.845   6.836
 6180SOL    HW119439   2.101   3.843   6.756
 6180SOL    HW219440   2.098   3.843   6.919
 6181SOL     OW19441   6.775   6.479   6.953
 6181SOL    HW119442   6.743   6.515   0.024
 6181SOL    HW219443   6.767   6.549   6.883
 6182SOL     OW19444   3.154   2.523   6.587
 6182SOL    HW119445   3.152   2.579   6.670
 6182SOL    HW219446   3.245   2.529   6.546
 6183SOL     OW19447   0.223   0.481   0.040
 6183SOL    HW119448   0.299   0.440   0.090
 6183SOL    HW219449   0.172   0.410   7.008
 6184SOL     OW19450   3.320   6.677   5.541
 6184SOL    HW119451   3.269   6.696   5.457
 6184SOL    HW219452   3.312   6.754   5.604
 6185SOL     OW19453   3.924   3.002   4.225
 6185SOL    HW119454   3.935   2.907   4.195
 6185SOL    HW219455   3.959   3.012   4.319
 6186SOL     OW19456   1.001   2.177   2.271
 6186SOL    HW119457   1.054   2.180   2.186
 6186SOL    HW219458   0.954   2.265   2.283
 6187SOL     OW19459   3.507   1.991   6.113
 6187SOL    HW119460   3.422   1.953   6.151
 6187SOL    HW219461   3.583   1.973   6.176
 6188SOL     OW19462   1.864   1.812   5.671
 6188SOL    HW119463   1.928   1.879   5.707
 6188SOL    HW219464   1.773   1.826   5.711
 6189SOL     OW19465   6.531   5.453   0.416
 6189SOL    HW119466   6.463   5.403   0.469
 6189SOL    HW219467   6.593   5.502   0.478
 6190SOL     OW19468   0.671   3.126   3.663
 6190SOL    HW119469   0.706   3.198   3.603
 6190SOL    HW219470   0.739   3.104   3.733
 6191SOL     OW19471   2.817   4.364   0.239
 6191SOL    HW119472   2.830   4.286   0.301
 6191SOL    HW219473   2.764   4.435   0.286
 6192SOL     OW19474   3.489   1.645   1.477
 6192SOL    HW119475   3.476   1.693   1.391
 6192SOL    HW219476   3.401   1.631   1.522
 6193SOL     OW19477   4.327   5.729   6.742
 6193SOL    HW119478   4.415   5.736   6.695
 6193SOL    HW219479   4.336   5.767   6.834
 6194SOL     OW19480   5.021   0.282   5.757
 6194SOL    HW119481   5.088   0.226   5.707
 6194SOL    HW219482   4.973   0.341   5.692
 6195SOL     OW19483   4.471   5.863   5.520
 6195SOL    HW119484   4.482   5.820   5.610
 6195SOL    HW219485   4.493   5.796   5.448
 6196SOL     OW19486   6.635   3.605   3.171
 6196SOL    HW119487   6.650   3.635   3.265
 6196SOL    HW219488   6.606   3.510   3.171
 6197SOL     OW19489   1.002   5.556   0.724
 6197SOL    HW119490   1.090   5.587   0.760
 6197SOL    HW219491   0.938   5.539   0.799
 6198SOL     OW19492   6.263   1.398   6.415
 6198SOL    HW119493   6.336   1.373   6.351
 6198SOL    HW219494   6.242   1.319   6.473
 6199SOL     OW19495   2.561   6.952   6.447
 6199SOL    HW119496   2.522   7.012   6.517
 6199SOL    HW219497   2.501   6.950   6.368
 6200SOL     OW19498   1.760   6.743   0.262
 6200SOL    HW119499   1.719   6.791   0.339
 6200SOL    HW219500   1.697   6.672   0.229
 6201SOL     OW19501   0.548   4.696   3.456
 6201SOL    HW119502   0.645   4.719   3.464
 6201SOL    HW219503   0.532   4.605   3.495
 6202SOL     OW19504   5.410   1.202   1.868
 6202SOL    HW119505   5.486   1.218   1.930
 6202SOL    HW219506   5.443   1.154   1.787
 6203SOL     OW19507   6.553   1.199   2.630
 6203SOL    HW119508   6.637   1.145   2.635
 6203SOL    HW219509   6.490   1.156   2.564
 6204SOL     OW19510   1.087   6.183   4.617
 6204SOL    HW119511   1.110   6.161   4.712
 6204SOL    HW219512   1.061   6.099   4.569
 6205SOL     OW19513   6.254   4.509   3.251
 6205SOL    HW119514   6.214   4.526   3.161
 6205SOL    HW219515   6.327   4.574   3.269
 6206SOL     OW19516   4.795   2.069   3.318
 6206SOL    HW119517   4.877   2.069   3.375
 6206SOL    HW219518   4.719   2.027   3.369
 6207SOL     OW19519   1.798   6.145   3.632
 6207SOL    HW119520   1.775   6.050   3.608
 6207SOL    HW219521   1.804   6.154   3.731
 6208SOL     OW19522   3.579   4.203   6.340
 6208SOL    HW119523   3.492   4.251   6.334
 6208SOL    HW219524   3.654   4.270   6.344
 6209SOL     OW19525   3.609   1.112   2.371
 6209SOL    HW119526   3.530   1.169   2.354
 6209SOL    HW219527   3.684   1.139   2.311
 6210SOL     OW19528   5.884   1.135   4.091
 6210SOL    HW119529   5.816   1.079   4.044
 6210SOL    HW219530   5.972   1.126   4.044
 6211SOL     OW19531   5.334   2.705   5.241
 6211SOL    HW119532   5.307   2.629   5.182
 6211SOL    HW219533   5.351   2.670   5.334
 6212SOL     OW19534   5.413   4.222   4.798
 6212SOL    HW119535   5.439   4.287   4.727
 6212SOL    HW219536   5.459   4.135   4.781
 6213SOL     OW19537   4.940   5.841   0.275
 6213SOL    HW119538   4.979   5.897   0.348
 6213SOL    HW219539   4.973   5.747   0.284
 6214SOL     OW19540   6.898   6.751   6.194
 6214SOL    HW119541   6.930   6.768   6.102
 6214SOL    HW219542   6.949   6.807   6.259
 6215SOL     OW19543   5.995   2.027   4.769
 6215SOL    HW119544   5.966   2.060   4.859
 6215SOL    HW219545   5.998   1.927   4.771
 6216SOL     OW19546   5.613   2.532   5.398
 6216SOL    HW119547   5.516   2.511   5.413
 6216SOL    HW219548   5.668   2.485   5.467
 6217SOL     OW19549   6.555   4.105   2.226
 6217SOL    HW119550   6.465   4.084   2.263
 6217SOL    HW219551   6.596   4.022   2.187
 6218SOL     OW19552   4.811   6.490   1.102
 6218SOL    HW119553   4.802   6.563   1.169
 6218SOL    HW219554   4.831   6.529   1.012
 6219SOL     OW19555   2.494   0.629   0.388
 6219SOL    HW119556   2.579   0.599   0.343
 6219SOL    HW219557   2.420   0.629   0.321
 6220SOL     OW19558   3.196   0.637   2.404
 6220SOL    HW119559   3.240   0.723   2.429
 6220SOL    HW219560   3.244   0.596   2.327
 6221SOL     OW19561   4.468   5.586   5.112
 6221SOL    HW119562   4.468   5.686   5.110
 6221SOL    HW219563   4.414   5.555   5.190
 6222SOL     OW19564   6.173   1.631   2.133
 6222SOL    HW119565   6.134   1.668   2.217
 6222SOL    HW219566   6.272   1.646   2.133
 6223SOL     OW19567   6.350   5.119   3.948
 6223SOL    HW119568   6.328   5.104   4.044
 6223SOL    HW219569   6.443   5.154   3.940
 6224SOL     OW19570   4.012   6.760   0.107
 6224SOL    HW119571   4.035   6.707   0.188
 6224SOL    HW219572   4.005   6.698   0.028
 6225SOL     OW19573   4.932   6.151   6.570
 6225SOL    HW119574   4.957   6.201   6.652
 6225SOL    HW219575   4.918   6.215   6.494
 6226SOL     OW19576   1.013   0.924   4.055
 6226SOL    HW119577   0.976   0.968   3.973
 6226SOL    HW219578   1.077   0.853   4.028
 6227SOL     OW19579   2.294   4.275   6.174
 6227SOL    HW119580   2.251   4.188   6.151
 6227SOL    HW219581   2.234   4.350   6.146
 6228SOL     OW19582   0.536   3.130   3.989
 6228SOL    HW119583   0.472   3.204   3.968
 6228SOL    HW219584   0.513   3.089   4.077
 6229SOL     OW19585   0.084   4.196   4.985
 6229SOL    HW119586   0.141   4.188   4.903
 6229SOL    HW219587   0.063   4.105   5.020
 6230SOL     OW19588   0.770   0.937   1.487
 6230SOL    HW119589   0.805   0.900   1.573
 6230SOL    HW219590   0.750   0.861   1.425
 6231SOL     OW19591   2.231   5.550   5.885
 6231SOL    HW119592   2.206   5.466   5.933
 6231SOL    HW219593   2.148   5.595   5.851
 6232SOL     OW19594   4.273   0.108   6.621
 6232SOL    HW119595   4.239   0.202   6.616
 6232SOL    HW219596   4.225   0.059   6.693
 6233SOL     OW19597   6.900   4.298   1.614
 6233SOL    HW119598   6.841   4.378   1.604
 6233SOL    HW219599   6.985   4.325   1.660
 6234SOL     OW19600   4.790   5.661   3.606
 6234SOL    HW119601   4.752   5.616   3.686
 6234SOL    HW219602   4.876   5.707   3.630
 6235SOL     OW19603   7.001   0.659   1.728
 6235SOL    HW119604   0.040   0.705   1.659
 6235SOL    HW219605   6.921   0.715   1.749
 6236SOL     OW19606   6.708   6.064   1.583
 6236SOL    HW119607   6.656   6.133   1.634
 6236SOL    HW219608   6.721   5.983   1.640
 6237SOL     OW19609   4.338   1.353   2.583
 6237SOL    HW119610   4.311   1.448   2.568
 6237SOL    HW219611   4.329   1.302   2.497
 6238SOL     OW19612   2.680   0.685   3.777
 6238SOL    HW119613   2.647   0.768   3.731
 6238SOL    HW219614   2.610   0.653   3.841
 6239SOL     OW19615   3.657   1.431   4.047
 6239SOL    HW119616   3.721   1.361   4.077
 6239SOL    HW219617   3.703   1.495   3.986
 6240SOL     OW19618   4.140   3.465   4.053
 6240SOL    HW119619   4.201   3.391   4.079
 6240SOL    HW219620   4.105   3.449   3.961
 6241SOL     OW19621   3.925   0.044   3.184
 6241SOL    HW119622   3.891   0.135   3.207
 6241SOL    HW219623   4.003   0.052   3.121
 6242SOL     OW19624   3.238   2.136   4.562
 6242SOL    HW119625   3.194   2.150   4.651
 6242SOL    HW219626   3.338   2.131   4.575
 6243SOL     OW19627   3.648   1.259   0.282
 6243SOL    HW119628   3.739   1.262   0.239
 6243SOL    HW219629   3.610   1.167   0.273
 6244SOL     OW19630   4.547   2.509   2.061
 6244SOL    HW119631   4.645   2.504   2.078
 6244SOL    HW219632   4.528   2.482   1.966
 6245SOL     OW19633   6.761   4.701   1.872
 6245SOL    HW119634   6.728   4.740   1.786
 6245SOL    HW219635   6.846   4.651   1.855
 6246SOL     OW19636   0.799   5.809   4.988
 6246SOL    HW119637   0.764   5.875   4.922
 6246SOL    HW219638   0.872   5.755   4.945
 6247SOL     OW19639   5.577   5.199   2.754
 6247SOL    HW119640   5.637   5.147   2.694
 6247SOL    HW219641   5.624   5.221   2.839
 6248SOL     OW19642   4.866   2.921   5.554
 6248SOL    HW119643   4.916   2.952   5.473
 6248SOL    HW219644   4.816   2.998   5.594
 6249SOL     OW19645   5.519   2.678   3.316
 6249SOL    HW119646   5.438   2.678   3.258
 6249SOL    HW219647   5.594   2.723   3.267
 6250SOL     OW19648   5.404   0.500   5.767
 6250SOL    HW119649   5.327   0.551   5.730
 6250SOL    HW219650   5.371   0.414   5.807
 6251SOL     OW19651   2.636   0.867   4.345
 6251SOL    HW119652   2.665   0.904   4.257
 6251SOL    HW219653   2.713   0.822   4.390
 6252SOL     OW19654   3.311   4.969   0.554
 6252SOL    HW119655   3.212   4.962   0.567
 6252SOL    HW219656   3.334   4.938   0.461
 6253SOL     OW19657   5.344   6.462   3.461
 6253SOL    HW119658   5.268   6.505   3.412
 6253SOL    HW219659   5.425   6.460   3.402
 6254SOL     OW19660   0.210   0.062   1.902
 6254SOL    HW119661   0.160   7.012   1.846
 6254SOL    HW219662   0.147   0.107   1.965
 6255SOL     OW19663   2.150   0.576   0.877
 6255SOL    HW119664   2.168   0.609   0.784
 6255SOL    HW219665   2.051   0.574   0.893
 6256SOL     OW19666   6.475   4.860   2.487
 6256SOL    HW119667   6.548   4.838   2.423
 6256SOL    HW219668   6.413   4.782   2.495
 6257SOL     OW19669   3.789   4.115   0.892
 6257SOL    HW119670   3.810   4.211   0.878
 6257SOL    HW219671   3.709   4.106   0.951
 6258SOL     OW19672   4.006   4.913   4.802
 6258SOL    HW119673   3.999   4.858   4.886
 6258SOL    HW219674   4.092   4.964   4.804
 6259SOL     OW19675   4.583   1.067   4.994
 6259SOL    HW119676   4.549   1.134   5.059
 6259SOL    HW219677   4.508   1.037   4.935
 6260SOL     OW19678   3.745   2.177   0.243
 6260SOL    HW119679   3.656   2.184   0.197
 6260SOL    HW219680   3.748   2.240   0.321
 6261SOL     OW19681   4.222   6.900   0.881
 6261SOL    HW119682   4.201   6.924   0.976
 6261SOL    HW219683   4.320   6.881   0.872
 6262SOL     OW19684   6.225   0.877   2.989
 6262SOL    HW119685   6.206   0.810   3.062
 6262SOL    HW219686   6.318   0.865   2.957
 6263SOL     OW19687   6.217   5.781   6.238
 6263SOL    HW119688   6.237   5.869   6.281
 6263SOL    HW219689   6.267   5.708   6.284
 6264SOL     OW19690   0.964   6.141   1.036
 6264SOL    HW119691   0.867   6.119   1.023
 6264SOL    HW219692   0.972   6.228   1.086
 6265SOL     OW19693   3.713   6.651   6.680
 6265SOL    HW119694   3.688   6.638   6.584
 6265SOL    HW219695   3.664   6.731   6.716
 6266SOL     OW19696   2.898   5.252   2.765
 6266SOL    HW119697   2.884   5.232   2.668
 6266SOL    HW219698   2.976   5.314   2.776
 6267SOL     OW19699   0.381   6.479   4.630
 6267SOL    HW119700   0.328   6.564   4.627
 6267SOL    HW219701   0.332   6.408   4.580
 6268SOL     OW19702   2.984   1.449   1.575
 6268SOL    HW119703   2.935   1.425   1.658
 6268SOL    HW219704   2.995   1.368   1.517
 6269SOL     OW19705   6.959   6.373   0.128
 6269SOL    HW119706   0.017   6.331   0.075
 6269SOL    HW219707   6.928   6.456   0.083
 6270SOL     OW19708   1.193   6.569   0.895
 6270SOL    HW119709   1.139   6.551   0.978
 6270SOL    HW219710   1.290   6.562   0.916
 6271SOL     OW19711   6.758   3.463   5.347
 6271SOL    HW119712   6.766   3.409   5.432
 6271SOL    HW219713   6.663   3.463   5.316
 6272SOL     OW19714   0.786   1.061   0.498
 6272SOL    HW119715   0.708   1.040   0.557
 6272SOL    HW219716   0.752   1.092   0.409
 6273SOL     OW19717   0.902   6.539   3.023
 6273SOL    HW119718   0.960   6.460   3.006
 6273SOL    HW219719   0.806   6.511   3.017
 6274SOL     OW19720   2.983   5.769   3.993
 6274SOL    HW119721   2.928   5.778   4.076
 6274SOL    HW219722   3.008   5.673   3.979
 6275SOL     OW19723   2.813   5.257   1.076
 6275SOL    HW119724   2.904   5.233   1.109
 6275SOL    HW219725   2.770   5.177   1.035
 6276SOL     OW19726   1.845   5.204   2.873
 6276SOL    HW119727   1.760   5.173   2.914
 6276SOL    HW219728   1.922   5.178   2.931
 6277SOL     OW19729   4.551   2.866   1.662
 6277SOL    HW119730   4.474   2.805   1.678
 6277SOL    HW219731   4.580   2.907   1.749
 6278SOL     OW19732   3.133   2.878   0.348
 6278SOL    HW119733   3.134   2.976   0.330
 6278SOL    HW219734   3.068   2.858   0.421
 6279SOL     OW19735   1.773   6.480   2.108
 6279SOL    HW119736   1.775   6.576   2.080
 6279SOL    HW219737   1.867   6.445   2.111
 6280SOL     OW19738   5.122   0.999   0.083
 6280SOL    HW119739   5.049   1.066   0.074
 6280SOL    HW219740   5.150   0.992   0.179
 6281SOL     OW19741   5.388   4.016   5.463
 6281SOL    HW119742   5.307   4.039   5.409
 6281SOL    HW219743   5.366   4.018   5.560
 6282SOL     OW19744   0.425   3.745   5.424
 6282SOL    HW119745   0.326   3.753   5.435
 6282SOL    HW219746   0.446   3.712   5.332
 6283SOL     OW19747   2.438   0.374   4.333
 6283SOL    HW119748   2.381   0.436   4.280
 6283SOL    HW219749   2.528   0.417   4.348
 6284SOL     OW19750   1.718   3.967   6.538
 6284SOL    HW119751   1.748   4.062   6.526
 6284SOL    HW219752   1.632   3.954   6.489
 6285SOL     OW19753   1.360   4.084   3.369
 6285SOL    HW119754   1.441   4.130   3.332
 6285SOL    HW219755   1.388   4.009   3.429
 6286SOL     OW19756   0.828   3.034   0.041
 6286SOL    HW119757   0.879   2.956   0.078
 6286SOL    HW219758   0.890   3.095   7.009
 6287SOL     OW19759   4.598   5.162   4.486
 6287SOL    HW119760   4.500   5.184   4.485
 6287SOL    HW219761   4.615   5.082   4.427
 6288SOL     OW19762   3.030   3.558   5.526
 6288SOL    HW119763   3.102   3.616   5.563
 6288SOL    HW219764   2.977   3.518   5.601
 6289SOL     OW19765   2.580   4.626   5.174
 6289SOL    HW119766   2.597   4.644   5.271
 6289SOL    HW219767   2.667   4.626   5.124
 6290SOL     OW19768   6.719   6.603   3.132
 6290SOL    HW119769   6.636   6.602   3.187
 6290SOL    HW219770   6.711   6.536   3.058
 6291SOL     OW19771   3.036   3.341   2.317
 6291SOL    HW119772   3.066   3.347   2.412
 6291SOL    HW219773   2.974   3.416   2.297
 6292SOL     OW19774   1.157   4.037   4.900
 6292SOL    HW119775   1.076   4.012   4.954
 6292SOL    HW219776   1.134   4.109   4.836
 6293SOL     OW19777   3.297   1.278   0.500
 6293SOL    HW119778   3.297   1.367   0.454
 6293SOL    HW219779   3.317   1.206   0.433
 6294SOL     OW19780   1.875   0.560   2.055
 6294SOL    HW119781   1.807   0.599   2.117
 6294SOL    HW219782   1.859   0.462   2.046
 6295SOL     OW19783   4.385   2.615   5.808
 6295SOL    HW119784   4.471   2.660   5.784
 6295SOL    HW219785   4.331   2.599   5.725
 6296SOL     OW19786   0.135   2.574   0.151
 6296SOL    HW119787   0.202   2.588   0.224
 6296SOL    HW219788   0.113   2.661   0.108
 6297SOL     OW19789   6.631   1.096   4.288
 6297SOL    HW119790   6.699   1.079   4.359
 6297SOL    HW219791   6.644   1.188   4.252
 6298SOL     OW19792   6.687   0.186   6.704
 6298SOL    HW119793   6.675   0.159   6.799
 6298SOL    HW219794   6.597   0.197   6.661
 6299SOL     OW19795   3.301   1.865   3.927
 6299SOL    HW119796   3.349   1.948   3.898
 6299SOL    HW219797   3.305   1.797   3.853
 6300SOL     OW19798   2.554   2.153   1.512
 6300SOL    HW119799   2.653   2.150   1.527
 6300SOL    HW219800   2.536   2.157   1.413
 6301SOL     OW19801   4.307   6.422   0.932
 6301SOL    HW119802   4.249   6.483   0.879
 6301SOL    HW219803   4.250   6.359   0.986
 6302SOL     OW19804   1.396   3.538   0.242
 6302SOL    HW119805   1.434   3.628   0.262
 6302SOL    HW219806   1.405   3.479   0.323
 6303SOL     OW19807   6.571   5.159   4.638
 6303SOL    HW119808   6.586   5.086   4.705
 6303SOL    HW219809   6.481   5.199   4.652
 6304SOL     OW19810   2.352   1.879   4.096
 6304SOL    HW119811   2.412   1.945   4.141
 6304SOL    HW219812   2.316   1.919   4.012
 6305SOL     OW19813   0.351   5.561   5.383
 6305SOL    HW119814   0.368   5.476   5.434
 6305SOL    HW219815   0.288   5.619   5.435
 6306SOL     OW19816   0.763   4.299   4.322
 6306SOL    HW119817   0.799   4.260   4.237
 6306SOL    HW219818   0.714   4.383   4.302
 6307SOL     OW19819   3.154   3.528   3.032
 6307SOL    HW119820   3.072   3.518   2.976
 6307SOL    HW219821   3.131   3.510   3.128
 6308SOL     OW19822   0.703   1.532   1.336
 6308SOL    HW119823   0.705   1.587   1.419
 6308SOL    HW219824   0.794   1.528   1.296
 6309SOL     OW19825   2.119   5.277   5.092
 6309SOL    HW119826   2.106   5.341   5.016
 6309SOL    HW219827   2.162   5.325   5.169
 6310SOL     OW19828   0.649   6.918   3.149
 6310SOL    HW119829   0.568   6.968   3.118
 6310SOL    HW219830   0.690   6.869   3.071
 6311SOL     OW19831   6.447   1.070   6.097
 6311SOL    HW119832   6.357   1.049   6.135
 6311SOL    HW219833   6.518   1.041   6.160
 6312SOL     OW19834   3.648   5.830   1.328
 6312SOL    HW119835   3.548   5.836   1.319
 6312SOL    HW219836   3.691   5.890   1.261
 6313SOL     OW19837   5.340   5.048   2.667
 6313SOL    HW119838   5.319   4.967   2.721
 6313SOL    HW219839   5.427   5.088   2.698
 6314SOL     OW19840   1.801   6.688   3.553
 6314SOL    HW119841   1.875   6.755   3.544
 6314SOL    HW219842   1.726   6.713   3.492
 6315SOL     OW19843   2.051   2.361   3.346
 6315SOL    HW119844   2.025   2.423   3.272
 6315SOL    HW219845   2.061   2.268   3.309
 6316SOL     OW19846   4.100   0.539   5.022
 6316SOL    HW119847   4.053   0.455   4.994
 6316SOL    HW219848   4.133   0.529   5.116
 6317SOL     OW19849   4.701   4.205   2.835
 6317SOL    HW119850   4.779   4.218   2.773
 6317SOL    HW219851   4.688   4.288   2.890
 6318SOL     OW19852   6.050   6.996   0.064
 6318SOL    HW119853   6.013   0.069   0.088
 6318SOL    HW219854   6.028   6.975   6.985
 6319SOL     OW19855   4.790   2.549   4.599
 6319SOL    HW119856   4.704   2.578   4.642
 6319SOL    HW219857   4.770   2.487   4.524
 6320SOL     OW19858   6.336   1.711   6.444
 6320SOL    HW119859   6.291   1.622   6.456
 6320SOL    HW219860   6.426   1.709   6.487
 6321SOL     OW19861   0.923   3.981   0.471
 6321SOL    HW119862   0.829   3.978   0.437
 6321SOL    HW219863   0.979   3.915   0.420
 6322SOL     OW19864   2.072   1.358   2.701
 6322SOL    HW119865   2.063   1.410   2.616
 6322SOL    HW219866   1.981   1.326   2.729
 6323SOL     OW19867   2.019   5.853   1.175
 6323SOL    HW119868   2.097   5.791   1.174
 6323SOL    HW219869   2.050   5.946   1.153
 6324SOL     OW19870   5.199   3.905   1.153
 6324SOL    HW119871   5.279   3.887   1.211
 6324SOL    HW219872   5.122   3.850   1.183
 6325SOL     OW19873   1.189   3.271   4.130
 6325SOL    HW119874   1.167   3.177   4.104
 6325SOL    HW219875   1.276   3.272   4.180
 6326SOL     OW19876   4.638   5.350   5.097
 6326SOL    HW119877   4.609   5.315   5.008
 6326SOL    HW219878   4.590   5.436   5.116
 6327SOL     OW19879   0.764   0.924   2.377
 6327SOL    HW119880   0.722   0.838   2.348
 6327SOL    HW219881   0.699   0.999   2.362
 6328SOL     OW19882   3.853   3.715   5.067
 6328SOL    HW119883   3.863   3.731   4.969
 6328SOL    HW219884   3.771   3.661   5.084
 6329SOL     OW19885   6.797   3.034   4.915
 6329SOL    HW119886   6.840   3.076   4.996
 6329SOL    HW219887   6.829   3.080   4.833
 6330SOL     OW19888   4.204   1.928   3.798
 6330SOL    HW119889   4.231   1.948   3.704
 6330SOL    HW219890   4.116   1.880   3.798
 6331SOL     OW19891   1.853   3.654   3.646
 6331SOL    HW119892   1.860   3.704   3.733
 6331SOL    HW219893   1.798   3.708   3.582
 6332SOL     OW19894   4.340   1.659   6.865
 6332SOL    HW119895   4.395   1.726   6.816
 6332SOL    HW219896   4.319   1.693   6.956
 6333SOL     OW19897   5.814   0.888   0.344
 6333SOL    HW119898   5.723   0.927   0.336
 6333SOL    HW219899   5.810   0.800   0.391
 6334SOL     OW19900   1.952   1.340   1.840
 6334SOL    HW119901   1.922   1.315   1.932
 6334SOL    HW219902   2.014   1.269   1.806
 6335SOL     OW19903   6.047   2.842   5.410
 6335SOL    HW119904   5.978   2.770   5.416
 6335SOL    HW219905   6.082   2.862   5.501
 6336SOL     OW19906   0.611   4.830   5.904
 6336SOL    HW119907   0.622   4.797   5.810
 6336SOL    HW219908   0.676   4.903   5.922
 6337SOL     OW19909   6.049   6.659   5.335
 6337SOL    HW119910   6.148   6.651   5.352
 6337SOL    HW219911   6.009   6.720   5.403
 6338SOL     OW19912   0.737   0.532   2.245
 6338SOL    HW119913   0.786   0.446   2.227
 6338SOL    HW219914   0.782   0.580   2.321
 6339SOL     OW19915   0.353   3.973   3.275
 6339SOL    HW119916   0.296   4.045   3.235
 6339SOL    HW219917   0.419   4.014   3.337
 6340SOL     OW19918   2.540   5.243   6.678
 6340SOL    HW119919   2.473   5.171   6.659
 6340SOL    HW219920   2.515   5.326   6.629
 6341SOL     OW19921   0.260   4.441   2.584
 6341SOL    HW119922   0.316   4.387   2.646
 6341SOL    HW219923   0.163   4.433   2.609
 6342SOL     OW19924   2.176   0.481   1.771
 6342SOL    HW119925   2.110   0.439   1.708
 6342SOL    HW219926   2.175   0.580   1.759
 6343SOL     OW19927   1.726   4.969   6.759
 6343SOL    HW119928   1.786   4.997   6.684
 6343SOL    HW219929   1.777   4.969   6.845
 6344SOL     OW19930   1.127   1.167   4.148
 6344SOL    HW119931   1.106   1.069   4.151
 6344SOL    HW219932   1.215   1.181   4.103
 6345SOL     OW19933   0.031   3.122   3.014
 6345SOL    HW119934   6.984   3.070   2.955
 6345SOL    HW219935   0.123   3.117   2.976
 6346SOL     OW19936   0.883   4.721   4.525
 6346SOL    HW119937   0.804   4.779   4.543
 6346SOL    HW219938   0.949   4.769   4.467
 6347SOL     OW19939   1.802   2.482   3.428
 6347SOL    HW119940   1.870   2.413   3.404
 6347SOL    HW219941   1.711   2.442   3.426
 6348SOL     OW19942   1.370   2.912   0.218
 6348SOL    HW119943   1.363   2.951   0.126
 6348SOL    HW219944   1.388   2.814   0.212
 6349SOL     OW19945   6.291   1.407   0.718
 6349SOL    HW119946   6.243   1.338   0.772
 6349SOL    HW219947   6.225   1.459   0.664
 6350SOL     OW19948   0.577   6.002   1.369
 6350SOL    HW119949   0.575   5.911   1.410
 6350SOL    HW219950   0.537   6.069   1.432
 6351SOL     OW19951   6.492   2.546   1.922
 6351SOL    HW119952   6.414   2.569   1.863
 6351SOL    HW219953   6.575   2.541   1.867
 6352SOL     OW19954   4.584   0.634   4.398
 6352SOL    HW119955   4.506   0.609   4.456
 6352SOL    HW219956   4.669   0.611   4.445
 6353SOL     OW19957   3.779   6.375   5.940
 6353SOL    HW119958   3.762   6.337   6.031
 6353SOL    HW219959   3.700   6.357   5.882
 6354SOL     OW19960   5.847   4.609   2.200
 6354SOL    HW119961   5.778   4.681   2.196
 6354SOL    HW219962   5.917   4.635   2.267
 6355SOL     OW19963   5.431   6.166   0.203
 6355SOL    HW119964   5.401   6.255   0.168
 6355SOL    HW219965   5.507   6.132   0.148
 6356SOL     OW19966   0.626   6.510   6.116
 6356SOL    HW119967   0.718   6.476   6.100
 6356SOL    HW219968   0.629   6.610   6.127
 6357SOL     OW19969   4.915   1.926   2.771
 6357SOL    HW119970   4.978   1.878   2.710
 6357SOL    HW219971   4.821   1.911   2.740
 6358SOL     OW19972   1.326   1.603   4.798
 6358SOL    HW119973   1.290   1.513   4.821
 6358SOL    HW219974   1.424   1.596   4.781
 6359SOL     OW19975   5.895   4.713   0.812
 6359SOL    HW119976   5.939   4.637   0.860
 6359SOL    HW219977   5.949   4.738   0.732
 6360SOL     OW19978   2.387   2.785   0.848
 6360SOL    HW119979   2.344   2.871   0.877
 6360SOL    HW219980   2.316   2.719   0.824
 6361SOL     OW19981   0.476   2.321   2.687
 6361SOL    HW119982   0.392   2.282   2.648
 6361SOL    HW219983   0.548   2.252   2.686
 6362SOL     OW19984   2.107   5.462   0.590
 6362SOL    HW119985   2.201   5.471   0.621
 6362SOL    HW219986   2.045   5.491   0.663
 6363SOL     OW19987   0.826   2.378   1.822
 6363SOL    HW119988   0.897   2.448   1.829
 6363SOL    HW219989   0.780   2.368   1.910
 6364SOL     OW19990   2.431   1.352   4.577
 6364SOL    HW119991   2.430   1.252   4.581
 6364SOL    HW219992   2.481   1.382   4.497
 6365SOL     OW19993   6.680   6.814   2.206
 6365SOL    HW119994   6.684   6.870   2.289
 6365SOL    HW219995   6.751   6.744   2.211
 6366SOL     OW19996   5.708   1.379   4.965
 6366SOL    HW119997   5.719   1.281   4.950
 6366SOL    HW219998   5.739   1.429   4.884
 6367SOL     OW19999   1.187   2.738   4.641
 6367SOL    HW120000   1.225   2.762   4.730
 6367SOL    HW220001   1.221   2.648   4.613
 6368SOL     OW20002   4.916   3.329   4.882
 6368SOL    HW120003   4.990   3.318   4.948
 6368SOL    HW220004   4.861   3.409   4.907
 6369SOL     OW20005   3.323   4.293   0.832
 6369SOL    HW120006   3.342   4.197   0.812
 6369SOL    HW220007   3.298   4.302   0.928
 6370SOL     OW20008   6.026   3.751   4.440
 6370SOL    HW120009   6.113   3.757   4.490
 6370SOL    HW220010   6.035   3.685   4.366
 6371SOL     OW20011   6.000   4.491   0.963
 6371SOL    HW120012   5.925   4.499   1.029
 6371SOL    HW220013   6.085   4.469   1.012
 6372SOL     OW20014   6.350   1.210   1.058
 6372SOL    HW120015   6.330   1.282   1.124
 6372SOL    HW220016   6.401   1.247   0.981
 6373SOL     OW20017   5.172   2.009   1.241
 6373SOL    HW120018   5.233   1.947   1.192
 6373SOL    HW220019   5.222   2.090   1.270
 6374SOL     OW20020   4.101   3.048   6.696
 6374SOL    HW120021   4.082   2.973   6.633
 6374SOL    HW220022   4.046   3.128   6.670
 6375SOL     OW20023   5.208   1.313   2.051
 6375SOL    HW120024   5.260   1.284   2.132
 6375SOL    HW220025   5.260   1.292   1.969
 6376SOL     OW20026   2.599   6.597   0.678
 6376SOL    HW120027   2.614   6.513   0.730
 6376SOL    HW220028   2.577   6.672   0.741
 6377SOL     OW20029   0.040   0.665   0.145
 6377SOL    HW120030   0.078   0.753   0.174
 6377SOL    HW220031   0.110   0.614   0.095
 6378SOL     OW20032   6.020   3.895   3.279
 6378SOL    HW120033   6.049   3.939   3.364
 6378SOL    HW220034   6.005   3.964   3.208
 6379SOL     OW20035   2.862   5.419   6.921
 6379SOL    HW120036   2.942   5.362   6.941
 6379SOL    HW220037   2.803   5.371   6.857
 6380SOL     OW20038   2.236   2.995   4.818
 6380SOL    HW120039   2.293   2.927   4.770
 6380SOL    HW220040   2.269   3.005   4.911
 6381SOL     OW20041   3.091   3.951   0.961
 6381SOL    HW120042   3.186   3.925   0.973
 6381SOL    HW220043   3.074   4.040   1.004
 6382SOL     OW20044   2.177   1.002   1.229
 6382SOL    HW120045   2.244   1.073   1.246
 6382SOL    HW220046   2.177   0.937   1.305
 6383SOL     OW20047   2.788   1.952   2.875
 6383SOL    HW120048   2.783   1.925   2.779
 6383SOL    HW220049   2.850   2.030   2.884
 6384SOL     OW20050   6.573   1.809   2.581
 6384SOL    HW120051   6.639   1.759   2.525
 6384SOL    HW220052   6.490   1.827   2.527
 6385SOL     OW20053   0.165   3.747   1.508
 6385SOL    HW120054   0.207   3.836   1.490
 6385SOL    HW220055   0.095   3.757   1.580
 6386SOL     OW20056   3.036   4.030   0.256
 6386SOL    HW120057   3.003   3.957   0.197
 6386SOL    HW220058   2.967   4.053   0.324
 6387SOL     OW20059   6.406   1.033   5.834
 6387SOL    HW120060   6.343   1.108   5.815
 6387SOL    HW220061   6.420   1.025   5.933
 6388SOL     OW20062   6.086   5.129   1.784
 6388SOL    HW120063   6.140   5.050   1.755
 6388SOL    HW220064   6.001   5.097   1.826
 6389SOL     OW20065   6.646   6.538   0.760
 6389SOL    HW120066   6.716   6.608   0.774
 6389SOL    HW220067   6.657   6.497   0.670
 6390SOL     OW20068   4.864   6.491   6.861
 6390SOL    HW120069   4.861   6.527   6.768
 6390SOL    HW220070   4.872   6.566   6.926
 6391SOL     OW20071   1.768   2.399   5.085
 6391SOL    HW120072   1.813   2.448   5.160
 6391SOL    HW220073   1.779   2.449   5.000
 6392SOL     OW20074   5.068   6.509   3.805
 6392SOL    HW120075   5.007   6.470   3.736
 6392SOL    HW220076   5.043   6.604   3.823
 6393SOL     OW20077   2.659   5.305   0.247
 6393SOL    HW120078   2.575   5.252   0.245
 6393SOL    HW220079   2.648   5.382   0.309
 6394SOL     OW20080   1.253   5.552   1.789
 6394SOL    HW120081   1.253   5.481   1.719
 6394SOL    HW220082   1.240   5.510   1.879
 6395SOL     OW20083   1.186   3.850   5.214
 6395SOL    HW120084   1.159   3.904   5.294
 6395SOL    HW220085   1.122   3.867   5.140
 6396SOL     OW20086   1.192   3.044   4.832
 6396SOL    HW120087   1.245   2.960   4.846
 6396SOL    HW220088   1.095   3.024   4.846
 6397SOL     OW20089   6.916   3.091   4.620
 6397SOL    HW120090   6.946   3.146   4.542
 6397SOL    HW220091   6.985   3.097   4.693
 6398SOL     OW20092   1.019   0.466   2.646
 6398SOL    HW120093   0.994   0.373   2.617
 6398SOL    HW220094   1.045   0.464   2.743
 6399SOL     OW20095   2.636   0.023   6.781
 6399SOL    HW120096   2.609   0.006   6.876
 6399SOL    HW220097   2.727   7.001   6.765
 6400SOL     OW20098   0.864   6.170   2.759
 6400SOL    HW120099   0.882   6.193   2.854
 6400SOL    HW220100   0.934   6.105   2.727
 6401SOL     OW20101   3.823   5.010   1.677
 6401SOL    HW120102   3.760   4.985   1.604
 6401SOL    HW220103   3.848   4.928   1.729
 6402SOL     OW20104   4.166   3.993   5.710
 6402SOL    HW120105   4.121   4.021   5.794
 6402SOL    HW220106   4.117   3.916   5.669
 6403SOL     OW20107   4.261   5.625   5.644
 6403SOL    HW120108   4.339   5.653   5.699
 6403SOL    HW220109   4.237   5.530   5.666
 6404SOL     OW20110   4.778   5.638   6.203
 6404SOL    HW120111   4.867   5.674   6.175
 6404SOL    HW220112   4.776   5.629   6.303
 6405SOL     OW20113   4.446   0.927   2.635
 6405SOL    HW120114   4.419   0.939   2.539
 6405SOL    HW220115   4.381   0.974   2.694
 6406SOL     OW20116   0.263   3.831   2.209
 6406SOL    HW120117   0.218   3.774   2.277
 6406SOL    HW220118   0.302   3.912   2.253
 6407SOL     OW20119   0.492   6.839   1.786
 6407SOL    HW120120   0.405   6.794   1.805
 6407SOL    HW220121   0.566   6.772   1.789
 6408SOL     OW20122   6.612   1.188   1.913
 6408SOL    HW120123   6.625   1.238   1.827
 6408SOL    HW220124   6.665   1.233   1.986
 6409SOL     OW20125   5.898   4.793   3.865
 6409SOL    HW120126   5.987   4.746   3.868
 6409SOL    HW220127   5.854   4.774   3.777
 6410SOL     OW20128   1.412   0.471   0.101
 6410SOL    HW120129   1.487   0.513   0.151
 6410SOL    HW220130   1.448   0.424   0.020
 6411SOL     OW20131   1.299   2.531   4.329
 6411SOL    HW120132   1.221   2.581   4.292
 6411SOL    HW220133   1.281   2.506   4.424
 6412SOL     OW20134   4.324   0.174   0.011
 6412SOL    HW120135   4.403   0.133   0.058
 6412SOL    HW220136   4.258   0.102   7.006
 6413SOL     OW20137   4.502   5.853   3.081
 6413SOL    HW120138   4.479   5.940   3.124
 6413SOL    HW220139   4.520   5.784   3.151
 6414SOL     OW20140   3.305   0.334   0.412
 6414SOL    HW120141   3.235   0.295   0.471
 6414SOL    HW220142   3.395   0.306   0.445
 6415SOL     OW20143   0.073   2.003   3.913
 6415SOL    HW120144   0.028   1.984   3.999
 6415SOL    HW220145   0.028   1.954   3.839
 6416SOL     OW20146   2.945   4.628   0.317
 6416SOL    HW120147   2.987   4.538   0.315
 6416SOL    HW220148   2.888   4.640   0.236
 6417SOL     OW20149   4.250   3.619   6.250
 6417SOL    HW120150   4.153   3.637   6.240
 6417SOL    HW220151   4.281   3.654   6.339
 6418SOL     OW20152   5.047   5.572   0.246
 6418SOL    HW120153   5.147   5.583   0.251
 6418SOL    HW220154   5.021   5.487   0.291
 6419SOL     OW20155   1.682   6.628   6.466
 6419SOL    HW120156   1.710   6.602   6.374
 6419SOL    HW220157   1.667   6.546   6.521
 6420SOL     OW20158   2.277   4.996   3.241
 6420SOL    HW120159   2.178   4.999   3.256
 6420SOL    HW220160   2.321   5.069   3.292
 6421SOL     OW20161   5.494   6.815   1.340
 6421SOL    HW120162   5.577   6.843   1.389
 6421SOL    HW220163   5.438   6.896   1.322
 6422SOL     OW20164   0.917   1.658   4.623
 6422SOL    HW120165   0.857   1.724   4.578
 6422SOL    HW220166   0.919   1.573   4.571
 6423SOL     OW20167   1.654   3.914   4.696
 6423SOL    HW120168   1.558   3.889   4.709
 6423SOL    HW220169   1.706   3.894   4.779
 6424SOL     OW20170   6.487   3.733   5.402
 6424SOL    HW120171   6.499   3.798   5.327
 6424SOL    HW220172   6.572   3.727   5.455
 6425SOL     OW20173   1.100   6.682   5.399
 6425SOL    HW120174   1.155   6.665   5.317
 6425SOL    HW220175   1.150   6.649   5.479
 6426SOL     OW20176   4.081   5.730   3.673
 6426SOL    HW120177   4.140   5.770   3.743
 6426SOL    HW220178   3.995   5.701   3.714
 6427SOL     OW20179   3.667   3.399   3.641
 6427SOL    HW120180   3.701   3.372   3.731
 6427SOL    HW220181   3.568   3.392   3.639
 6428SOL     OW20182   6.258   2.194   0.351
 6428SOL    HW120183   6.341   2.142   0.373
 6428SOL    HW220184   6.181   2.157   0.403
 6429SOL     OW20185   2.543   1.991   4.748
 6429SOL    HW120186   2.471   1.929   4.778
 6429SOL    HW220187   2.557   1.982   4.650
 6430SOL     OW20188   6.067   1.392   4.777
 6430SOL    HW120189   6.131   1.468   4.786
 6430SOL    HW220190   6.051   1.374   4.680
 6431SOL     OW20191   3.105   5.036   3.106
 6431SOL    HW120192   3.033   4.969   3.088
 6431SOL    HW220193   3.140   5.023   3.199
 6432SOL     OW20194   4.379   3.077   6.668
 6432SOL    HW120195   4.279   3.069   6.662
 6432SOL    HW220196   4.420   3.041   6.585
 6433SOL     OW20197   3.717   5.241   6.049
 6433SOL    HW120198   3.792   5.215   6.111
 6433SOL    HW220199   3.743   5.322   5.997
 6434SOL     OW20200   6.508   4.801   6.260
 6434SOL    HW120201   6.456   4.727   6.218
 6434SOL    HW220202   6.550   4.857   6.189
 6435SOL     OW20203   4.486   1.604   1.009
 6435SOL    HW120204   4.397   1.648   0.997
 6435SOL    HW220205   4.491   1.562   1.100
 6436SOL     OW20206   0.543   2.383   3.757
 6436SOL    HW120207   0.445   2.402   3.754
 6436SOL    HW220208   0.559   2.295   3.802
 6437SOL     OW20209   1.642   2.918   6.501
 6437SOL    HW120210   1.573   2.938   6.432
 6437SOL    HW220211   1.662   3.000   6.554
 6438SOL     OW20212   0.297   5.467   0.958
 6438SOL    HW120213   0.340   5.537   0.900
 6438SOL    HW220214   0.217   5.429   0.911
 6439SOL     OW20215   4.616   6.201   3.064
 6439SOL    HW120216   4.570   6.168   3.147
 6439SOL    HW220217   4.658   6.290   3.083
 6440SOL     OW20218   2.388   2.269   5.637
 6440SOL    HW120219   2.335   2.280   5.553
 6440SOL    HW220220   2.437   2.182   5.634
 6441SOL     OW20221   1.381   2.024   1.515
 6441SOL    HW120222   1.447   2.057   1.583
 6441SOL    HW220223   1.288   2.040   1.547
 6442SOL     OW20224   2.802   1.887   4.264
 6442SOL    HW120225   2.871   1.930   4.322
 6442SOL    HW220226   2.827   1.791   4.250
 6443SOL     OW20227   2.668   2.642   5.877
 6443SOL    HW120228   2.615   2.646   5.961
 6443SOL    HW220229   2.606   2.625   5.800
 6444SOL     OW20230   0.047   3.910   5.096
 6444SOL    HW120231   6.986   3.960   5.135
 6444SOL    HW220232   0.017   3.864   5.012
 6445SOL     OW20233   3.183   3.010   3.421
 6445SOL    HW120234   3.102   3.065   3.437
 6445SOL    HW220235   3.249   3.026   3.495
 6446SOL     OW20236   1.212   0.629   1.630
 6446SOL    HW120237   1.131   0.609   1.685
 6446SOL    HW220238   1.187   0.686   1.552
 6447SOL     OW20239   6.248   3.676   1.179
 6447SOL    HW120240   6.225   3.628   1.264
 6447SOL    HW220241   6.275   3.770   1.200
 6448SOL     OW20242   4.030   4.268   1.311
 6448SOL    HW120243   4.024   4.265   1.211
 6448SOL    HW220244   3.961   4.208   1.350
 6449SOL     OW20245   4.348   5.105   0.504
 6449SOL    HW120246   4.445   5.090   0.485
 6449SOL    HW220247   4.321   5.195   0.470
 6450SOL     OW20248   4.588   3.452   0.142
 6450SOL    HW120249   4.536   3.498   0.214
 6450SOL    HW220250   4.528   3.438   0.063
 6451SOL     OW20251   4.227   2.720   1.419
 6451SOL    HW120252   4.131   2.745   1.407
 6451SOL    HW220253   4.266   2.696   1.330
 6452SOL     OW20254   4.527   2.063   4.430
 6452SOL    HW120255   4.620   2.081   4.461
 6452SOL    HW220256   4.517   2.092   4.334
 6453SOL     OW20257   2.709   0.768   3.036
 6453SOL    HW120258   2.679   0.702   2.967
 6453SOL    HW220259   2.686   0.861   3.006
 6454SOL     OW20260   5.214   3.882   4.984
 6454SOL    HW120261   5.286   3.825   4.943
 6454SOL    HW220262   5.150   3.823   5.034
 6455SOL     OW20263   0.161   2.807   4.869
 6455SOL    HW120264   0.194   2.888   4.821
 6455SOL    HW220265   0.061   2.809   4.873
 6456SOL     OW20266   6.098   1.742   3.375
 6456SOL    HW120267   6.015   1.745   3.319
 6456SOL    HW220268   6.142   1.832   3.373
 6457SOL     OW20269   1.570   5.933   3.636
 6457SOL    HW120270   1.484   5.893   3.603
 6457SOL    HW220271   1.553   6.023   3.676
 6458SOL     OW20272   1.344   0.570   4.785
 6458SOL    HW120273   1.266   0.542   4.842
 6458SOL    HW220274   1.394   0.644   4.831
 6459SOL     OW20275   0.899   3.506   2.786
 6459SOL    HW120276   0.983   3.456   2.763
 6459SOL    HW220277   0.823   3.441   2.794
 6460SOL     OW20278   1.685   5.257   5.580
 6460SOL    HW120279   1.768   5.273   5.526
 6460SOL    HW220280   1.623   5.198   5.527
 6461SOL     OW20281   0.285   6.797   1.521
 6461SOL    HW120282   0.316   6.825   1.430
 6461SOL    HW220283   0.357   6.817   1.588
 6462SOL     OW20284   2.497   3.862   5.759
 6462SOL    HW120285   2.509   3.916   5.675
 6462SOL    HW220286   2.478   3.767   5.735
 6463SOL     OW20287   4.621   3.365   1.477
 6463SOL    HW120288   4.557   3.418   1.532
 6463SOL    HW220289   4.668   3.298   1.535
 6464SOL     OW20290   1.542   3.437   3.545
 6464SOL    HW120291   1.561   3.429   3.447
 6464SOL    HW220292   1.595   3.368   3.595
 6465SOL     OW20293   2.415   1.720   2.989
 6465SOL    HW120294   2.326   1.674   2.989
 6465SOL    HW220295   2.407   1.807   2.941
 6466SOL     OW20296   6.581   5.179   6.856
 6466SOL    HW120297   6.681   5.171   6.864
 6466SOL    HW220298   6.548   5.252   6.915
 6467SOL     OW20299   2.560   3.454   6.026
 6467SOL    HW120300   2.629   3.413   5.966
 6467SOL    HW220301   2.587   3.442   6.121
 6468SOL     OW20302   0.867   0.825   1.157
 6468SOL    HW120303   0.962   0.801   1.141
 6468SOL    HW220304   0.851   0.919   1.128
 6469SOL     OW20305   2.479   0.821   0.818
 6469SOL    HW120306   2.490   0.735   0.767
 6469SOL    HW220307   2.411   0.808   0.890
 6470SOL     OW20308   5.625   1.408   6.855
 6470SOL    HW120309   5.642   1.505   6.875
 6470SOL    HW220310   5.568   1.369   6.927
 6471SOL     OW20311   1.332   6.413   5.918
 6471SOL    HW120312   1.419   6.395   5.871
 6471SOL    HW220313   1.306   6.508   5.904
 6472SOL     OW20314   0.729   6.132   1.165
 6472SOL    HW120315   0.676   6.085   1.236
 6472SOL    HW220316   0.688   6.221   1.146
 6473SOL     OW20317   2.920   1.897   3.849
 6473SOL    HW120318   2.822   1.916   3.863
 6473SOL    HW220319   2.932   1.849   3.762
 6474SOL     OW20320   3.800   6.945   4.333
 6474SOL    HW120321   3.899   6.960   4.329
 6474SOL    HW220322   3.753   7.016   4.280
 6475SOL     OW20323   5.473   6.046   3.350
 6475SOL    HW120324   5.419   5.975   3.304
 6475SOL    HW220325   5.483   6.125   3.289
 6476SOL     OW20326   5.221   4.173   5.004
 6476SOL    HW120327   5.285   4.212   4.937
 6476SOL    HW220328   5.245   4.077   5.021
 6477SOL     OW20329   0.978   6.539   0.695
 6477SOL    HW120330   1.048   6.558   0.764
 6477SOL    HW220331   0.888   6.560   0.733
 6478SOL     OW20332   1.648   6.276   0.399
 6478SOL    HW120333   1.639   6.344   0.472
 6478SOL    HW220334   1.731   6.222   0.415
 6479SOL     OW20335   4.510   6.027   4.002
 6479SOL    HW120336   4.599   6.040   4.045
 6479SOL    HW220337   4.467   5.943   4.037
 6480SOL     OW20338   3.516   1.545   4.990
 6480SOL    HW120339   3.512   1.592   5.079
 6480SOL    HW220340   3.489   1.609   4.918
 6481SOL     OW20341   4.202   3.226   1.830
 6481SOL    HW120342   4.119   3.170   1.840
 6481SOL    HW220343   4.277   3.168   1.798
 6482SOL     OW20344   5.478   3.002   4.738
 6482SOL    HW120345   5.490   3.006   4.837
 6482SOL    HW220346   5.549   2.944   4.698
 6483SOL     OW20347   1.712   5.591   5.734
 6483SOL    HW120348   1.806   5.614   5.761
 6483SOL    HW220349   1.668   5.671   5.693
 6484SOL     OW20350   4.095   0.992   3.368
 6484SOL    HW120351   4.194   0.998   3.380
 6484SOL    HW220352   4.074   0.977   3.271
 6485SOL     OW20353   2.106   5.085   4.528
 6485SOL    HW120354   2.077   4.997   4.491
 6485SOL    HW220355   2.112   5.078   4.628
 6486SOL     OW20356   7.005   4.223   2.446
 6486SOL    HW120357   0.017   4.297   2.507
 6486SOL    HW220358   6.909   4.235   2.422
 6487SOL     OW20359   5.896   5.696   4.425
 6487SOL    HW120360   5.961   5.736   4.360
 6487SOL    HW220361   5.805   5.732   4.407
 6488SOL     OW20362   3.706   5.344   3.882
 6488SOL    HW120363   3.786   5.402   3.866
 6488SOL    HW220364   3.694   5.330   3.980
 6489SOL     OW20365   6.507   3.506   5.256
 6489SOL    HW120366   6.416   3.481   5.224
 6489SOL    HW220367   6.503   3.596   5.301
 6490SOL     OW20368   1.812   3.534   0.030
 6490SOL    HW120369   1.863   3.467   6.993
 6490SOL    HW220370   1.765   3.488   0.105
 6491SOL     OW20371   1.215   0.525   1.943
 6491SOL    HW120372   1.277   0.602   1.930
 6491SOL    HW220373   1.141   0.529   1.875
 6492SOL     OW20374   3.966   3.132   3.597
 6492SOL    HW120375   4.017   3.171   3.673
 6492SOL    HW220376   3.870   3.122   3.623
 6493SOL     OW20377   1.423   4.391   4.085
 6493SOL    HW120378   1.440   4.478   4.037
 6493SOL    HW220379   1.343   4.402   4.144
 6494SOL     OW20380   6.429   1.167   1.546
 6494SOL    HW120381   6.399   1.261   1.528
 6494SOL    HW220382   6.402   1.108   1.470
 6495SOL     OW20383   6.118   6.486   2.433
 6495SOL    HW120384   6.094   6.417   2.501
 6495SOL    HW220385   6.138   6.572   2.478
 6496SOL     OW20386   2.697   2.455   1.368
 6496SOL    HW120387   2.598   2.453   1.384
 6496SOL    HW220388   2.720   2.392   1.294
 6497SOL     OW20389   0.743   2.501   0.852
 6497SOL    HW120390   0.730   2.406   0.823
 6497SOL    HW220391   0.698   2.562   0.787
 6498SOL     OW20392   2.651   4.694   4.344
 6498SOL    HW120393   2.579   4.733   4.287
 6498SOL    HW220394   2.616   4.675   4.435
 6499SOL     OW20395   5.780   2.513   2.404
 6499SOL    HW120396   5.866   2.473   2.434
 6499SOL    HW220397   5.714   2.509   2.479
 6500SOL     OW20398   1.784   4.027   2.678
 6500SOL    HW120399   1.704   3.981   2.716
 6500SOL    HW220400   1.841   4.062   2.751
 6501SOL     OW20401   6.651   0.989   2.991
 6501SOL    HW120402   6.638   0.990   3.090
 6501SOL    HW220403   6.567   0.956   2.947
 6502SOL     OW20404   1.084   2.691   2.370
 6502SOL    HW120405   1.132   2.614   2.412
 6502SOL    HW220406   1.062   2.759   2.441
 6503SOL     OW20407   0.386   2.245   5.709
 6503SOL    HW120408   0.390   2.182   5.787
 6503SOL    HW220409   0.342   2.330   5.737
 6504SOL     OW20410   3.819   6.740   6.417
 6504SOL    HW120411   3.826   6.648   6.378
 6504SOL    HW220412   3.872   6.745   6.502
 6505SOL     OW20413   0.701   6.659   6.968
 6505SOL    HW120414   0.675   6.714   6.888
 6505SOL    HW220415   0.623   6.653   0.014
 6506SOL     OW20416   0.229   3.902   1.811
 6506SOL    HW120417   0.284   3.955   1.748
 6506SOL    HW220418   0.143   3.875   1.767
 6507SOL     OW20419   4.691   5.305   0.823
 6507SOL    HW120420   4.760   5.248   0.779
 6507SOL    HW220421   4.602   5.259   0.819
 6508SOL     OW20422   6.850   0.696   4.289
 6508SOL    HW120423   6.937   0.744   4.298
 6508SOL    HW220424   6.797   0.706   4.374
 6509SOL     OW20425   2.279   1.851   0.614
 6509SOL    HW120426   2.370   1.813   0.627
 6509SOL    HW220427   2.285   1.930   0.552
 6510SOL     OW20428   3.283   4.876   4.579
 6510SOL    HW120429   3.284   4.974   4.598
 6510SOL    HW220430   3.190   4.841   4.584
 6511SOL     OW20431   3.652   3.146   0.101
 6511SOL    HW120432   3.742   3.165   0.140
 6511SOL    HW220433   3.585   3.132   0.174
 6512SOL     OW20434   4.877   1.032   1.356
 6512SOL    HW120435   4.904   1.064   1.447
 6512SOL    HW220436   4.828   0.945   1.364
 6513SOL     OW20437   2.820   5.186   2.211
 6513SOL    HW120438   2.833   5.147   2.120
 6513SOL    HW220439   2.734   5.237   2.214
 6514SOL     OW20440   4.985   5.768   6.052
 6514SOL    HW120441   4.925   5.791   5.976
 6514SOL    HW220442   5.078   5.753   6.018
 6515SOL     OW20443   1.028   4.968   2.283
 6515SOL    HW120444   0.949   4.942   2.228
 6515SOL    HW220445   1.015   5.060   2.320
 6516SOL     OW20446   5.553   0.714   3.435
 6516SOL    HW120447   5.563   0.810   3.410
 6516SOL    HW220448   5.464   0.700   3.479
 6517SOL     OW20449   6.769   4.253   0.362
 6517SOL    HW120450   6.859   4.256   0.405
 6517SOL    HW220451   6.769   4.185   0.288
 6518SOL     OW20452   1.270   1.754   2.195
 6518SOL    HW120453   1.230   1.842   2.168
 6518SOL    HW220454   1.274   1.694   2.115
 6519SOL     OW20455   1.176   1.763   3.504
 6519SOL    HW120456   1.101   1.702   3.479
 6519SOL    HW220457   1.168   1.849   3.453
 6520SOL     OW20458   5.906   6.422   6.619
 6520SOL    HW120459   5.981   6.483   6.643
 6520SOL    HW220460   5.847   6.467   6.551
 6521SOL     OW20461   1.415   4.413   4.530
 6521SOL    HW120462   1.429   4.429   4.628
 6521SOL    HW220463   1.475   4.473   4.477
 6522SOL     OW20464   2.349   3.009   5.418
 6522SOL    HW120465   2.421   2.986   5.483
 6522SOL    HW220466   2.390   3.053   5.338
 6523SOL     OW20467   5.123   6.892   0.335
 6523SOL    HW120468   5.140   6.921   0.241
 6523SOL    HW220469   5.199   6.920   0.393
 6524SOL     OW20470   3.191   2.585   1.379
 6524SOL    HW120471   3.095   2.556   1.389
 6524SOL    HW220472   3.230   2.602   1.470
 6525SOL     OW20473   2.183   4.812   3.776
 6525SOL    HW120474   2.278   4.781   3.772
 6525SOL    HW220475   2.142   4.806   3.686
 6526SOL     OW20476   6.674   6.387   0.523
 6526SOL    HW120477   6.608   6.366   0.451
 6526SOL    HW220478   6.767   6.371   0.489
 6527SOL     OW20479   5.217   2.491   1.013
 6527SOL    HW120480   5.146   2.457   1.075
 6527SOL    HW220481   5.261   2.413   0.968
 6528SOL     OW20482   4.707   6.493   0.346
 6528SOL    HW120483   4.754   6.442   0.275
 6528SOL    HW220484   4.680   6.431   0.420
 6529SOL     OW20485   4.312   0.064   1.598
 6529SOL    HW120486   4.234   0.027   1.548
 6529SOL    HW220487   4.340   0.151   1.556
 6530SOL     OW20488   0.325   2.284   4.358
 6530SOL    HW120489   0.361   2.367   4.401
 6530SOL    HW220490   0.249   2.308   4.298
 6531SOL     OW20491   3.668   3.659   3.747
 6531SOL    HW120492   3.699   3.564   3.750
 6531SOL    HW220493   3.662   3.695   3.840
 6532SOL     OW20494   0.995   5.914   0.113
 6532SOL    HW120495   1.040   5.826   0.132
 6532SOL    HW220496   1.035   5.984   0.172
 6533SOL     OW20497   4.874   5.277   1.290
 6533SOL    HW120498   4.794   5.218   1.275
 6533SOL    HW220499   4.894   5.280   1.388
 6534SOL     OW20500   6.550   2.894   4.124
 6534SOL    HW120501   6.612   2.827   4.163
 6534SOL    HW220502   6.497   2.852   4.050
 6535SOL     OW20503   5.340   3.522   6.589
 6535SOL    HW120504   5.284   3.456   6.640
 6535SOL    HW220505   5.314   3.520   6.493
 6536SOL     OW20506   0.375   4.991   5.607
 6536SOL    HW120507   0.435   5.049   5.662
 6536SOL    HW220508   0.408   4.896   5.610
 6537SOL     OW20509   6.483   5.653   4.518
 6537SOL    HW120510   6.388   5.684   4.510
 6537SOL    HW220511   6.498   5.576   4.456
 6538SOL     OW20512   1.800   3.207   3.521
 6538SOL    HW120513   1.889   3.163   3.510
 6538SOL    HW220514   1.751   3.206   3.434
 6539SOL     OW20515   5.212   0.155   5.589
 6539SOL    HW120516   5.308   0.168   5.613
 6539SOL    HW220517   5.191   0.209   5.508
 6540SOL     OW20518   1.293   2.541   5.298
 6540SOL    HW120519   1.383   2.509   5.327
 6540SOL    HW220520   1.289   2.641   5.307
 6541SOL     OW20521   4.198   1.215   5.609
 6541SOL    HW120522   4.248   1.298   5.633
 6541SOL    HW220523   4.259   1.136   5.615
 6542SOL     OW20524   2.040   4.612   2.092
 6542SOL    HW120525   2.087   4.524   2.079
 6542SOL    HW220526   2.016   4.622   2.189
 6543SOL     OW20527   4.031   1.421   3.902
 6543SOL    HW120528   3.961   1.493   3.901
 6543SOL    HW220529   4.035   1.378   3.812
 6544SOL     OW20530   0.747   0.581   1.100
 6544SOL    HW120531   0.670   0.568   1.162
 6544SOL    HW220532   0.774   0.677   1.100
 6545SOL     OW20533   5.745   5.679   0.938
 6545SOL    HW120534   5.717   5.665   1.033
 6545SOL    HW220535   5.810   5.755   0.933
 6546SOL     OW20536   4.228   5.230   4.953
 6546SOL    HW120537   4.268   5.145   4.919
 6546SOL    HW220538   4.183   5.278   4.877
 6547SOL     OW20539   1.112   6.303   5.407
 6547SOL    HW120540   1.201   6.335   5.377
 6547SOL    HW220541   1.094   6.212   5.368
 6548SOL     OW20542   1.473   2.135   5.717
 6548SOL    HW120543   1.566   2.167   5.702
 6548SOL    HW220544   1.413   2.170   5.645
 6549SOL     OW20545   3.852   0.937   3.159
 6549SOL    HW120546   3.819   0.933   3.064
 6549SOL    HW220547   3.862   1.033   3.186
 6550SOL     OW20548   5.909   0.070   1.801
 6550SOL    HW120549   5.998   0.025   1.806
 6550SOL    HW220550   5.837   0.001   1.795
 6551SOL     OW20551   2.486   5.036   1.521
 6551SOL    HW120552   2.553   5.034   1.447
 6551SOL    HW220553   2.415   4.967   1.504
 6552SOL     OW20554   2.194   3.487   6.869
 6552SOL    HW120555   2.097   3.480   6.845
 6552SOL    HW220556   2.205   3.554   6.943
 6553SOL     OW20557   0.436   1.501   3.408
 6553SOL    HW120558   0.422   1.593   3.371
 6553SOL    HW220559   0.459   1.438   3.334
 6554SOL     OW20560   1.118   1.849   3.792
 6554SOL    HW120561   1.142   1.809   3.703
 6554SOL    HW220562   1.114   1.776   3.861
 6555SOL     OW20563   1.579   3.456   2.453
 6555SOL    HW120564   1.655   3.496   2.505
 6555SOL    HW220565   1.607   3.367   2.418
 6556SOL     OW20566   4.836   3.495   3.492
 6556SOL    HW120567   4.870   3.533   3.407
 6556SOL    HW220568   4.765   3.427   3.472
 6557SOL     OW20569   2.200   6.698   2.604
 6557SOL    HW120570   2.215   6.739   2.694
 6557SOL    HW220571   2.110   6.656   2.601
 6558SOL     OW20572   5.400   5.542   1.091
 6558SOL    HW120573   5.371   5.519   0.997
 6558SOL    HW220574   5.360   5.630   1.117
 6559SOL     OW20575   0.526   1.775   6.199
 6559SOL    HW120576   0.611   1.770   6.147
 6559SOL    HW220577   0.454   1.724   6.152
 6560SOL     OW20578   6.841   4.580   6.058
 6560SOL    HW120579   6.880   4.554   5.970
 6560SOL    HW220580   6.872   4.673   6.081
 6561SOL     OW20581   2.826   5.668   0.538
 6561SOL    HW120582   2.926   5.659   0.542
 6561SOL    HW220583   2.802   5.744   0.478
 6562SOL     OW20584   4.692   2.458   1.605
 6562SOL    HW120585   4.602   2.482   1.569
 6562SOL    HW220586   4.763   2.503   1.551
 6563SOL     OW20587   6.317   5.320   5.400
 6563SOL    HW120588   6.299   5.238   5.455
 6563SOL    HW220589   6.295   5.301   5.305
 6564SOL     OW20590   5.158   3.836   2.022
 6564SOL    HW120591   5.060   3.851   2.033
 6564SOL    HW220592   5.206   3.863   2.106
 6565SOL     OW20593   4.976   6.086   2.238
 6565SOL    HW120594   5.015   6.025   2.307
 6565SOL    HW220595   4.972   6.038   2.150
 6566SOL     OW20596   5.092   5.574   3.851
 6566SOL    HW120597   5.097   5.554   3.949
 6566SOL    HW220598   5.182   5.561   3.810
 6567SOL     OW20599   3.082   0.742   2.817
 6567SOL    HW120600   3.031   0.656   2.819
 6567SOL    HW220601   3.072   0.784   2.727
 6568SOL     OW20602   5.005   1.619   0.701
 6568SOL    HW120603   4.994   1.572   0.789
 6568SOL    HW220604   4.920   1.612   0.649
 6569SOL     OW20605   1.606   4.160   3.288
 6569SOL    HW120606   1.643   4.159   3.381
 6569SOL    HW220607   1.681   4.160   3.222
 6570SOL     OW20608   4.370   6.843   2.825
 6570SOL    HW120609   4.364   6.860   2.726
 6570SOL    HW220610   4.278   6.840   2.864
 6571SOL     OW20611   3.354   6.570   2.850
 6571SOL    HW120612   3.372   6.591   2.946
 6571SOL    HW220613   3.440   6.546   2.805
 6572SOL     OW20614   1.053   6.438   3.734
 6572SOL    HW120615   1.015   6.500   3.803
 6572SOL    HW220616   1.064   6.347   3.773
 6573SOL     OW20617   1.263   2.302   3.398
 6573SOL    HW120618   1.229   2.363   3.469
 6573SOL    HW220619   1.298   2.218   3.440
 6574SOL     OW20620   0.620   4.876   1.350
 6574SOL    HW120621   0.594   4.783   1.325
 6574SOL    HW220622   0.643   4.929   1.268
 6575SOL     OW20623   0.524   0.815   3.738
 6575SOL    HW120624   0.517   0.750   3.814
 6575SOL    HW220625   0.541   0.907   3.774
 6576SOL     OW20626   3.959   6.935   2.134
 6576SOL    HW120627   3.983   6.847   2.175
 6576SOL    HW220628   4.018   6.952   2.055
 6577SOL     OW20629   3.333   0.967   5.241
 6577SOL    HW120630   3.244   1.001   5.271
 6577SOL    HW220631   3.391   1.044   5.216
 6578SOL     OW20632   0.744   5.848   0.134
 6578SOL    HW120633   0.841   5.863   0.114
 6578SOL    HW220634   0.690   5.860   0.051
 6579SOL     OW20635   1.450   1.266   3.314
 6579SOL    HW120636   1.457   1.305   3.406
 6579SOL    HW220637   1.439   1.339   3.247
 6580SOL     OW20638   3.156   2.889   0.020
 6580SOL    HW120639   3.207   2.805   0.039
 6580SOL    HW220640   3.220   2.962   7.013
 6581SOL     OW20641   0.399   2.565   2.538
 6581SOL    HW120642   0.436   2.488   2.591
 6581SOL    HW220643   0.320   2.602   2.585
 6582SOL     OW20644   3.933   0.411   3.457
 6582SOL    HW120645   3.940   0.486   3.390
 6582SOL    HW220646   3.873   0.340   3.421
 6583SOL     OW20647   2.368   3.954   1.467
 6583SOL    HW120648   2.322   4.029   1.420
 6583SOL    HW220649   2.435   3.992   1.531
 6584SOL     OW20650   4.487   3.324   6.438
 6584SOL    HW120651   4.477   3.390   6.513
 6584SOL    HW220652   4.568   3.268   6.454
 6585SOL     OW20653   6.045   0.402   1.664
 6585SOL    HW120654   6.063   0.444   1.753
 6585SOL    HW220655   5.954   0.361   1.664
 6586SOL     OW20656   6.770   1.674   0.490
 6586SOL    HW120657   6.733   1.685   0.398
 6586SOL    HW220658   6.865   1.703   0.491
 6587SOL     OW20659   2.696   4.920   5.480
 6587SOL    HW120660   2.626   4.972   5.527
 6587SOL    HW220661   2.683   4.927   5.381
 6588SOL     OW20662   1.025   1.593   0.814
 6588SOL    HW120663   0.960   1.620   0.743
 6588SOL    HW220664   1.023   1.494   0.826
 6589SOL     OW20665   5.600   6.890   0.813
 6589SOL    HW120666   5.524   6.846   0.765
 6589SOL    HW220667   5.679   6.896   0.752
 6590SOL     OW20668   1.505   6.174   4.553
 6590SOL    HW120669   1.469   6.152   4.644
 6590SOL    HW220670   1.559   6.098   4.519
 6591SOL     OW20671   6.608   3.257   3.790
 6591SOL    HW120672   6.524   3.246   3.736
 6591SOL    HW220673   6.637   3.169   3.826
 6592SOL     OW20674   0.352   0.728   4.150
 6592SOL    HW120675   0.335   0.757   4.056
 6592SOL    HW220676   0.442   0.762   4.179
 6593SOL     OW20677   1.201   0.572   3.108
 6593SOL    HW120678   1.148   0.546   3.189
 6593SOL    HW220679   1.244   0.661   3.123
 6594SOL     OW20680   5.395   6.972   6.449
 6594SOL    HW120681   5.371   0.041   6.496
 6594SOL    HW220682   5.406   6.900   6.517
 6595SOL     OW20683   1.541   1.383   5.056
 6595SOL    HW120684   1.524   1.289   5.026
 6595SOL    HW220685   1.595   1.431   4.987
 6596SOL     OW20686   5.441   0.678   3.032
 6596SOL    HW120687   5.518   0.736   3.061
 6596SOL    HW220688   5.398   0.638   3.113
 6597SOL     OW20689   1.011   4.978   1.403
 6597SOL    HW120690   0.937   5.024   1.452
 6597SOL    HW220691   1.036   5.031   1.322
 6598SOL     OW20692   1.098   5.247   1.928
 6598SOL    HW120693   1.170   5.187   1.963
 6598SOL    HW220694   1.112   5.263   1.831
 6599SOL     OW20695   0.980   5.604   6.197
 6599SOL    HW120696   0.927   5.686   6.222
 6599SOL    HW220697   1.044   5.626   6.123
 6600SOL     OW20698   4.930   6.804   4.598
 6600SOL    HW120699   4.920   6.714   4.557
 6600SOL    HW220700   5.022   6.815   4.634
 6601SOL     OW20701   1.040   2.858   2.589
 6601SOL    HW120702   0.990   2.849   2.675
 6601SOL    HW220703   1.087   2.946   2.586
 6602SOL     OW20704   5.982   6.077   0.307
 6602SOL    HW120705   6.003   6.163   0.262
 6602SOL    HW220706   6.001   6.086   0.405
 6603SOL     OW20707   0.113   4.701   2.620
 6603SOL    HW120708   0.174   4.668   2.548
 6603SOL    HW220709   0.022   4.717   2.582
 6604SOL     OW20710   1.619   5.379   2.801
 6604SOL    HW120711   1.705   5.357   2.848
 6604SOL    HW220712   1.543   5.363   2.863
 6605SOL     OW20713   6.917   5.238   1.204
 6605SOL    HW120714   6.907   5.234   1.303
 6605SOL    HW220715   6.990   5.301   1.180
 6606SOL     OW20716   1.386   4.570   2.740
 6606SOL    HW120717   1.459   4.502   2.740
 6606SOL    HW220718   1.412   4.647   2.799
 6607SOL     OW20719   6.542   3.455   3.971
 6607SOL    HW120720   6.563   3.390   3.899
 6607SOL    HW220721   6.559   3.413   4.060
 6608SOL     OW20722   1.652   0.799   5.238
 6608SOL    HW120723   1.710   0.741   5.294
 6608SOL    HW220724   1.556   0.777   5.254
 6609SOL     OW20725   2.760   2.459   0.195
 6609SOL    HW120726   2.822   2.536   0.180
 6609SOL    HW220727   2.799   2.376   0.155
 6610SOL     OW20728   3.228   6.300   1.152
 6610SOL    HW120729   3.254   6.209   1.118
 6610SOL    HW220730   3.138   6.324   1.116
 6611SOL     OW20731   3.156   1.576   4.734
 6611SOL    HW120732   3.220   1.653   4.726
 6611SOL    HW220733   3.093   1.578   4.656
 6612SOL     OW20734   6.785   0.431   6.933
 6612SOL    HW120735   6.761   0.340   6.967
 6612SOL    HW220736   6.787   0.496   7.010
 6613SOL     OW20737   4.346   6.995   1.289
 6613SOL    HW120738   4.380   6.929   1.355
 6613SOL    HW220739   4.274   6.952   1.233
 6614SOL     OW20740   4.057   4.471   0.809
 6614SOL    HW120741   4.085   4.421   0.727
 6614SOL    HW220742   3.974   4.523   0.789
 6615SOL     OW20743   3.574   6.144   6.214
 6615SOL    HW120744   3.620   6.055   6.216
 6615SOL    HW220745   3.476   6.130   6.227
 6616SOL     OW20746   4.149   2.263   6.333
 6616SOL    HW120747   4.239   2.219   6.343
 6616SOL    HW220748   4.161   2.353   6.291
 6617SOL     OW20749   3.546   1.802   4.124
 6617SOL    HW120750   3.513   1.732   4.186
 6617SOL    HW220751   3.468   1.849   4.082
 6618SOL     OW20752   6.450   3.217   3.571
 6618SOL    HW120753   6.371   3.156   3.560
 6618SOL    HW220754   6.528   3.181   3.520
 6619SOL     OW20755   4.647   4.935   4.082
 6619SOL    HW120756   4.621   4.876   4.158
 6619SOL    HW220757   4.581   5.009   4.073
 6620SOL     OW20758   1.014   2.872   3.418
 6620SOL    HW120759   0.968   2.801   3.472
 6620SOL    HW220760   0.949   2.944   3.395
 6621SOL     OW20761   3.218   3.560   3.677
 6621SOL    HW120762   3.264   3.649   3.686
 6621SOL    HW220763   3.248   3.500   3.752
 6622SOL     OW20764   0.235   4.766   1.666
 6622SOL    HW120765   0.224   4.812   1.753
 6622SOL    HW220766   0.145   4.746   1.627
 6623SOL     OW20767   3.413   3.280   3.692
 6623SOL    HW120768   3.397   3.296   3.789
 6623SOL    HW220769   3.422   3.182   3.675
 6624SOL     OW20770   2.545   2.332   2.804
 6624SOL    HW120771   2.563   2.422   2.844
 6624SOL    HW220772   2.630   2.279   2.803
 6625SOL     OW20773   0.331   4.335   5.702
 6625SOL    HW120774   0.357   4.428   5.675
 6625SOL    HW220775   0.290   4.288   5.624
 6626SOL     OW20776   3.380   6.052   5.454
 6626SOL    HW120777   3.322   6.130   5.430
 6626SOL    HW220778   3.332   5.995   5.521
 6627SOL     OW20779   2.370   6.577   4.672
 6627SOL    HW120780   2.454   6.528   4.692
 6627SOL    HW220781   2.318   6.591   4.757
 6628SOL     OW20782   3.762   0.207   3.361
 6628SOL    HW120783   3.682   0.160   3.324
 6628SOL    HW220784   3.751   0.220   3.459
 6629SOL     OW20785   4.663   6.118   4.833
 6629SOL    HW120786   4.565   6.121   4.857
 6629SOL    HW220787   4.676   6.154   4.741
 6630SOL     OW20788   1.890   0.089   0.350
 6630SOL    HW120789   1.860   0.053   0.438
 6630SOL    HW220790   1.885   0.017   0.281
 6631SOL     OW20791   1.746   1.791   5.961
 6631SOL    HW120792   1.697   1.839   5.888
 6631SOL    HW220793   1.709   1.698   5.970
 6632SOL     OW20794   1.218   0.420   6.236
 6632SOL    HW120795   1.286   0.420   6.162
 6632SOL    HW220796   1.248   0.481   6.309
 6633SOL     OW20797   4.614   6.644   6.247
 6633SOL    HW120798   4.535   6.696   6.213
 6633SOL    HW220799   4.675   6.705   6.297
 6634SOL     OW20800   2.646   2.456   4.458
 6634SOL    HW120801   2.586   2.414   4.390
 6634SOL    HW220802   2.697   2.531   4.416
 6635SOL     OW20803   5.327   5.306   5.992
 6635SOL    HW120804   5.336   5.228   6.053
 6635SOL    HW220805   5.238   5.349   6.005
 6636SOL     OW20806   3.824   1.513   1.128
 6636SOL    HW120807   3.743   1.457   1.113
 6636SOL    HW220808   3.875   1.477   1.206
 6637SOL     OW20809   0.252   2.783   6.901
 6637SOL    HW120810   0.249   2.802   6.803
 6637SOL    HW220811   0.329   2.723   6.921
 6638SOL     OW20812   3.076   3.722   3.443
 6638SOL    HW120813   3.054   3.683   3.532
 6638SOL    HW220814   3.043   3.817   3.439
 6639SOL     OW20815   4.856   3.011   1.475
 6639SOL    HW120816   4.830   2.950   1.549
 6639SOL    HW220817   4.813   2.980   1.390
 6640SOL     OW20818   0.810   3.453   4.501
 6640SOL    HW120819   0.881   3.445   4.571
 6640SOL    HW220820   0.845   3.417   4.414
 6641SOL     OW20821   5.244   2.763   6.985
 6641SOL    HW120822   5.333   2.807   6.988
 6641SOL    HW220823   5.183   2.806   0.035
 6642SOL     OW20824   1.416   4.741   6.190
 6642SOL    HW120825   1.496   4.764   6.135
 6642SOL    HW220826   1.333   4.763   6.139
 6643SOL     OW20827   4.714   5.565   5.793
 6643SOL    HW120828   4.699   5.512   5.877
 6643SOL    HW220829   4.797   5.534   5.748
 6644SOL     OW20830   1.932   6.965   3.814
 6644SOL    HW120831   1.867   6.897   3.780
 6644SOL    HW220832   2.025   6.938   3.788
 6645SOL     OW20833   4.780   2.518   5.201
 6645SOL    HW120834   4.738   2.432   5.228
 6645SOL    HW220835   4.711   2.578   5.160
 6646SOL     OW20836   5.126   6.972   6.256
 6646SOL    HW120837   5.088   0.042   6.224
 6646SOL    HW220838   5.128   6.906   6.181
 6647SOL     OW20839   3.745   4.870   0.804
 6647SOL    HW120840   3.688   4.861   0.723
 6647SOL    HW220841   3.831   4.916   0.780
 6648SOL     OW20842   3.326   5.568   5.199
 6648SOL    HW120843   3.298   5.479   5.235
 6648SOL    HW220844   3.377   5.617   5.269
 6649SOL     OW20845   5.379   2.849   5.637
 6649SOL    HW120846   5.468   2.872   5.598
 6649SOL    HW220847   5.374   2.883   5.731
 6650SOL     OW20848   2.857   0.980   4.835
 6650SOL    HW120849   2.903   0.896   4.805
 6650SOL    HW220850   2.758   0.967   4.829
 6651SOL     OW20851   6.971   0.886   3.706
 6651SOL    HW120852   6.951   0.920   3.614
 6651SOL    HW220853   0.026   0.815   3.701
 6652SOL     OW20854   0.094   5.019   6.971
 6652SOL    HW120855   0.166   5.004   0.023
 6652SOL    HW220856   0.040   4.935   6.961
 6653SOL     OW20857   5.428   4.076   6.689
 6653SOL    HW120858   5.390   4.029   6.769
 6653SOL    HW220859   5.362   4.072   6.614
 6654SOL     OW20860   6.837   1.941   3.301
 6654SOL    HW120861   6.794   1.885   3.372
 6654SOL    HW220862   6.829   2.038   3.325
 6655SOL     OW20863   6.744   5.848   1.734
 6655SOL    HW120864   6.772   5.779   1.801
 6655SOL    HW220865   6.665   5.814   1.682
 6656SOL     OW20866   4.987   0.984   2.332
 6656SOL    HW120867   5.008   1.058   2.396
 6656SOL    HW220868   4.887   0.978   2.320
 6657SOL     OW20869   4.869   1.880   4.368
 6657SOL    HW120870   4.789   1.829   4.334
 6657SOL    HW220871   4.841   1.972   4.395
 6658SOL     OW20872   6.941   5.751   4.829
 6658SOL    HW120873   6.987   5.712   4.909
 6658SOL    HW220874   6.858   5.798   4.858
 6659SOL     OW20875   0.526   6.268   0.771
 6659SOL    HW120876   0.589   6.194   0.749
 6659SOL    HW220877   0.521   6.280   0.871
 6660SOL     OW20878   1.352   0.348   4.039
 6660SOL    HW120879   1.267   0.329   3.991
 6660SOL    HW220880   1.424   0.370   3.973
 6661SOL     OW20881   4.143   6.887   3.454
 6661SOL    HW120882   4.083   6.955   3.495
 6661SOL    HW220883   4.092   6.803   3.437
 6662SOL     OW20884   3.541   6.910   2.350
 6662SOL    HW120885   3.555   6.997   2.302
 6662SOL    HW220886   3.465   6.921   2.415
 6663SOL     OW20887   1.274   3.816   5.667
 6663SOL    HW120888   1.314   3.891   5.614
 6663SOL    HW220889   1.283   3.731   5.617
 6664SOL     OW20890   3.097   0.149   1.941
 6664SOL    HW120891   3.046   0.218   1.889
 6664SOL    HW220892   3.099   0.175   2.037
 6665SOL     OW20893   2.729   0.340   6.643
 6665SOL    HW120894   2.692   0.293   6.723
 6665SOL    HW220895   2.762   0.274   6.577
 6666SOL     OW20896   2.976   5.932   5.997
 6666SOL    HW120897   2.947   5.876   6.074
 6666SOL    HW220898   2.958   5.884   5.911
 6667SOL     OW20899   1.976   5.970   0.261
 6667SOL    HW120900   2.030   5.974   0.345
 6667SOL    HW220901   1.907   5.898   0.269
 6668SOL     OW20902   0.421   3.444   6.040
 6668SOL    HW120903   0.364   3.507   5.987
 6668SOL    HW220904   0.511   3.485   6.055
 6669SOL     OW20905   0.568   3.270   3.283
 6669SOL    HW120906   0.582   3.329   3.362
 6669SOL    HW220907   0.634   3.194   3.286
 6670SOL     OW20908   2.625   4.008   0.461
 6670SOL    HW120909   2.561   4.029   0.535
 6670SOL    HW220910   2.584   4.037   0.374
 6671SOL     OW20911   4.708   4.830   0.326
 6671SOL    HW120912   4.738   4.793   0.239
 6671SOL    HW220913   4.782   4.882   0.368
 6672SOL     OW20914   1.911   2.208   1.172
 6672SOL    HW120915   1.906   2.304   1.200
 6672SOL    HW220916   1.995   2.167   1.207
 6673SOL     OW20917   5.597   3.732   4.314
 6673SOL    HW120918   5.602   3.794   4.392
 6673SOL    HW220919   5.507   3.689   4.312
 6674SOL     OW20920   0.056   0.994   0.408
 6674SOL    HW120921   0.145   1.024   0.373
 6674SOL    HW220922   0.046   0.895   0.393
 6675SOL     OW20923   4.925   1.364   0.347
 6675SOL    HW120924   4.858   1.312   0.294
 6675SOL    HW220925   5.017   1.328   0.331
 6676SOL     OW20926   1.086   3.927   5.468
 6676SOL    HW120927   1.081   3.879   5.556
 6676SOL    HW220928   0.994   3.939   5.431
 6677SOL     OW20929   0.382   2.150   6.990
 6677SOL    HW120930   0.336   2.074   6.945
 6677SOL    HW220931   0.314   2.218   0.001
 6678SOL     OW20932   2.548   4.005   6.589
 6678SOL    HW120933   2.453   4.026   6.566
 6678SOL    HW220934   2.609   4.066   6.538
 6679SOL     OW20935   1.669   0.416   4.228
 6679SOL    HW120936   1.690   0.480   4.154
 6679SOL    HW220937   1.656   0.324   4.191
 6680SOL     OW20938   6.180   5.570   1.945
 6680SOL    HW120939   6.080   5.577   1.947
 6680SOL    HW220940   6.207   5.486   1.898
 6681SOL     OW20941   3.223   5.644   0.876
 6681SOL    HW120942   3.175   5.566   0.836
 6681SOL    HW220943   3.236   5.629   0.974
 6682SOL     OW20944   2.626   4.981   6.433
 6682SOL    HW120945   2.653   4.893   6.394
 6682SOL    HW220946   2.528   4.996   6.416
 6683SOL     OW20947   6.625   5.826   6.328
 6683SOL    HW120948   6.539   5.784   6.358
 6683SOL    HW220949   6.643   5.908   6.382
 6684SOL     OW20950   2.836   6.318   6.019
 6684SOL    HW120951   2.863   6.390   5.955
 6684SOL    HW220952   2.786   6.247   5.970
 6685SOL     OW20953   3.937   2.841   0.371
 6685SOL    HW120954   3.910   2.910   0.438
 6685SOL    HW220955   4.000   2.882   0.305
 6686SOL     OW20956   4.573   4.298   5.174
 6686SOL    HW120957   4.625   4.383   5.167
 6686SOL    HW220958   4.476   4.318   5.160
 6687SOL     OW20959   0.287   2.473   0.822
 6687SOL    HW120960   0.357   2.419   0.869
 6687SOL    HW220961   0.319   2.494   0.729
 6688SOL     OW20962   5.429   5.284   0.891
 6688SOL    HW120963   5.390   5.200   0.854
 6688SOL    HW220964   5.391   5.363   0.841
 6689SOL     OW20965   3.553   5.323   6.243
 6689SOL    HW120966   3.462   5.358   6.218
 6689SOL    HW220967   3.595   5.279   6.164
 6690SOL     OW20968   1.122   0.512   0.575
 6690SOL    HW120969   1.164   0.497   0.485
 6690SOL    HW220970   1.065   0.594   0.572
 6691SOL     OW20971   2.573   1.622   2.094
 6691SOL    HW120972   2.581   1.721   2.083
 6691SOL    HW220973   2.658   1.585   2.130
 6692SOL     OW20974   4.338   6.513   2.080
 6692SOL    HW120975   4.321   6.503   2.179
 6692SOL    HW220976   4.434   6.533   2.065
 6693SOL     OW20977   3.099   1.209   5.689
 6693SOL    HW120978   3.010   1.178   5.655
 6693SOL    HW220979   3.164   1.212   5.614
 6694SOL     OW20980   4.549   4.097   1.398
 6694SOL    HW120981   4.544   4.130   1.493
 6694SOL    HW220982   4.644   4.101   1.366
 6695SOL     OW20983   2.805   2.421   0.478
 6695SOL    HW120984   2.736   2.484   0.514
 6695SOL    HW220985   2.794   2.414   0.379
 6696SOL     OW20986   3.880   2.974   5.177
 6696SOL    HW120987   3.847   2.884   5.208
 6696SOL    HW220988   3.803   3.038   5.173
 6697SOL     OW20989   4.705   2.672   2.655
 6697SOL    HW120990   4.702   2.637   2.562
 6697SOL    HW220991   4.622   2.644   2.704
 6698SOL     OW20992   2.685   3.872   1.684
 6698SOL    HW120993   2.757   3.858   1.752
 6698SOL    HW220994   2.629   3.789   1.678
 6699SOL     OW20995   1.660   3.155   6.641
 6699SOL    HW120996   1.688   3.130   6.733
 6699SOL    HW220997   1.735   3.202   6.594
 6700SOL     OW20998   4.826   0.732   1.400
 6700SOL    HW120999   4.819   0.740   1.499
 6700SOL    HW221000   4.741   0.694   1.363
 6701SOL     OW21001   5.860   0.132   1.450
 6701SOL    HW121002   5.813   0.198   1.509
 6701SOL    HW221003   5.955   0.160   1.437
 6702SOL     OW21004   4.200   2.612   1.066
 6702SOL    HW121005   4.288   2.635   1.024
 6702SOL    HW221006   4.202   2.518   1.100
 6703SOL     OW21007   0.874   1.493   0.113
 6703SOL    HW121008   0.894   1.426   0.184
 6703SOL    HW221009   0.951   1.498   0.049
 6704SOL     OW21010   2.661   6.962   5.735
 6704SOL    HW121011   2.686   6.964   5.638
 6704SOL    HW221012   2.744   6.948   5.790
 6705SOL     OW21013   0.212   4.613   2.374
 6705SOL    HW121014   0.270   4.564   2.439
 6705SOL    HW221015   0.140   4.552   2.341
 6706SOL     OW21016   0.255   6.063   0.005
 6706SOL    HW121017   0.272   6.077   0.103
 6706SOL    HW221018   0.343   6.060   6.973
 6707SOL     OW21019   4.788   1.139   3.013
 6707SOL    HW121020   4.861   1.171   2.952
 6707SOL    HW221021   4.712   1.104   2.958
 6708SOL     OW21022   0.653   3.454   0.599
 6708SOL    HW121023   0.553   3.453   0.596
 6708SOL    HW221024   0.685   3.548   0.598
 6709SOL     OW21025   2.162   4.338   2.036
 6709SOL    HW121026   2.207   4.303   1.954
 6709SOL    HW221027   2.096   4.271   2.070
 6710SOL     OW21028   4.396   1.789   1.431
 6710SOL    HW121029   4.448   1.712   1.467
 6710SOL    HW221030   4.455   1.869   1.423
 6711SOL     OW21031   4.244   5.567   6.187
 6711SOL    HW121032   4.219   5.604   6.276
 6711SOL    HW221033   4.330   5.608   6.157
 6712SOL     OW21034   5.516   3.844   1.315
 6712SOL    HW121035   5.523   3.915   1.385
 6712SOL    HW221036   5.570   3.870   1.235
 6713SOL     OW21037   1.868   4.527   4.230
 6713SOL    HW121038   1.942   4.510   4.295
 6713SOL    HW221039   1.867   4.456   4.160
 6714SOL     OW21040   5.632   1.244   2.007
 6714SOL    HW121041   5.684   1.255   2.092
 6714SOL    HW221042   5.641   1.327   1.952
 6715SOL     OW21043   1.393   0.425   6.029
 6715SOL    HW121044   1.474   0.369   6.015
 6715SOL    HW221045   1.315   0.383   5.982
 6716SOL     OW21046   1.067   4.875   1.697
 6716SOL    HW121047   1.006   4.893   1.620
 6716SOL    HW221048   1.020   4.896   1.783
 6717SOL     OW21049   6.372   2.583   5.356
 6717SOL    HW121050   6.359   2.598   5.454
 6717SOL    HW221051   6.335   2.493   5.331
 6718SOL     OW21052   4.500   2.164   0.639
 6718SOL    HW121053   4.511   2.258   0.673
 6718SOL    HW221054   4.586   2.134   0.597
 6719SOL     OW21055   1.578   1.086   0.606
 6719SOL    HW121056   1.676   1.097   0.590
 6719SOL    HW221057   1.528   1.159   0.559
 6720SOL     OW21058   1.566   1.647   5.147
 6720SOL    HW121059   1.515   1.726   5.183
 6720SOL    HW221060   1.508   1.597   5.083
 6721SOL     OW21061   6.793   6.687   0.459
 6721SOL    HW121062   6.889   6.687   0.428
 6721SOL    HW221063   6.782   6.753   0.533
 6722SOL     OW21064   6.140   4.937   1.165
 6722SOL    HW121065   6.193   4.870   1.113
 6722SOL    HW221066   6.042   4.919   1.153
 6723SOL     OW21067   1.628   3.276   4.634
 6723SOL    HW121068   1.713   3.278   4.581
 6723SOL    HW221069   1.596   3.182   4.643
 6724SOL     OW21070   1.733   3.458   5.142
 6724SOL    HW121071   1.818   3.512   5.142
 6724SOL    HW221072   1.705   3.442   5.048
 6725SOL     OW21073   4.783   2.916   4.063
 6725SOL    HW121074   4.799   2.946   3.969
 6725SOL    HW221075   4.852   2.955   4.123
 6726SOL     OW21076   6.740   1.601   6.997
 6726SOL    HW121077   6.665   1.581   0.043
 6726SOL    HW221078   6.777   1.692   0.001
 6727SOL     OW21079   0.783   5.320   5.693
 6727SOL    HW121080   0.811   5.381   5.620
 6727SOL    HW221081   0.858   5.311   5.760
 6728SOL     OW21082   3.766   1.384   4.982
 6728SOL    HW121083   3.680   1.434   4.968
 6728SOL    HW221084   3.754   1.316   5.054
 6729SOL     OW21085   4.419   0.946   2.353
 6729SOL    HW121086   4.455   0.880   2.286
 6729SOL    HW221087   4.323   0.963   2.335
 6730SOL     OW21088   0.357   1.889   1.107
 6730SOL    HW121089   0.409   1.836   1.040
 6730SOL    HW221090   0.262   1.858   1.108
 6731SOL     OW21091   4.113   0.593   6.535
 6731SOL    HW121092   4.097   0.546   6.448
 6731SOL    HW221093   4.203   0.637   6.532
 6732SOL     OW21094   5.990   5.228   5.537
 6732SOL    HW121095   5.962   5.141   5.496
 6732SOL    HW221096   6.026   5.211   5.628
 6733SOL     OW21097   4.868   5.279   5.601
 6733SOL    HW121098   4.776   5.246   5.626
 6733SOL    HW221099   4.920   5.296   5.684
 6734SOL     OW21100   5.677   2.020   5.129
 6734SOL    HW121101   5.586   2.033   5.089
 6734SOL    HW221102   5.747   2.039   5.061
 6735SOL     OW21103   5.836   3.143   4.501
 6735SOL    HW121104   5.916   3.085   4.517
 6735SOL    HW221105   5.770   3.093   4.446
 6736SOL     OW21106   3.639   3.991   0.708
 6736SOL    HW121107   3.709   4.031   0.767
 6736SOL    HW221108   3.672   3.990   0.614
 6737SOL     OW21109   5.827   3.610   0.739
 6737SOL    HW121110   5.794   3.670   0.666
 6737SOL    HW221111   5.896   3.657   0.794
 6738SOL     OW21112   2.227   6.601   4.442
 6738SOL    HW121113   2.281   6.602   4.527
 6738SOL    HW221114   2.221   6.507   4.408
 6739SOL     OW21115   0.143   0.236   5.828
 6739SOL    HW121116   0.133   0.277   5.738
 6739SOL    HW221117   0.194   0.298   5.888
 6740SOL     OW21118   0.447   6.807   2.054
 6740SOL    HW121119   0.538   6.799   2.096
 6740SOL    HW221120   0.453   6.864   1.972
 6741SOL     OW21121   3.406   2.366   0.469
 6741SOL    HW121122   3.325   2.391   0.522
 6741SOL    HW221123   3.391   2.279   0.423
 6742SOL     OW21124   6.800   4.505   2.539
 6742SOL    HW121125   6.832   4.597   2.516
 6742SOL    HW221126   6.790   4.452   2.455
 6743SOL     OW21127   3.858   3.839   6.962
 6743SOL    HW121128   3.824   3.921   6.917
 6743SOL    HW221129   3.781   3.785   6.996
 6744SOL     OW21130   6.840   6.402   5.860
 6744SOL    HW121131   6.741   6.402   5.848
 6744SOL    HW221132   6.885   6.379   5.774
 6745SOL     OW21133   5.620   3.860   5.512
 6745SOL    HW121134   5.547   3.925   5.493
 6745SOL    HW221135   5.707   3.898   5.481
 6746SOL     OW21136   0.990   2.236   3.139
 6746SOL    HW121137   1.063   2.189   3.090
 6746SOL    HW221138   0.916   2.258   3.076
 6747SOL     OW21139   1.380   6.063   4.768
 6747SOL    HW121140   1.458   6.028   4.821
 6747SOL    HW221141   1.306   6.087   4.831
 6748SOL     OW21142   1.543   1.668   4.392
 6748SOL    HW121143   1.506   1.723   4.318
 6748SOL    HW221144   1.494   1.688   4.477
 6749SOL     OW21145   4.077   4.729   2.172
 6749SOL    HW121146   4.095   4.729   2.270
 6749SOL    HW221147   4.055   4.636   2.142
 6750SOL     OW21148   3.837   0.989   5.915
 6750SOL    HW121149   3.782   0.959   5.992
 6750SOL    HW221150   3.796   1.072   5.876
 6751SOL     OW21151   4.096   1.058   4.716
 6751SOL    HW121152   4.024   1.117   4.679
 6751SOL    HW221153   4.085   1.049   4.815
 6752SOL     OW21154   1.923   4.800   3.105
 6752SOL    HW121155   1.991   4.736   3.069
 6752SOL    HW221156   1.863   4.830   3.030
 6753SOL     OW21157   3.495   4.049   0.276
 6753SOL    HW121158   3.569   4.039   0.343
 6753SOL    HW221159   3.515   3.994   0.195
 6754SOL     OW21160   6.171   1.205   0.473
 6754SOL    HW121161   6.132   1.115   0.451
 6754SOL    HW221162   6.138   1.273   0.407
 6755SOL     OW21163   3.944   6.026   5.676
 6755SOL    HW121164   4.038   6.003   5.699
 6755SOL    HW221165   3.941   6.073   5.588
 6756SOL     OW21166   4.280   3.193   6.029
 6756SOL    HW121167   4.289   3.176   6.127
 6756SOL    HW221168   4.237   3.283   6.015
 6757SOL     OW21169   4.399   6.905   1.788
 6757SOL    HW121170   4.371   6.959   1.709
 6757SOL    HW221171   4.447   6.963   1.853
 6758SOL     OW21172   5.083   3.353   3.240
 6758SOL    HW121173   5.163   3.413   3.229
 6758SOL    HW221174   5.001   3.402   3.212
 6759SOL     OW21175   1.562   1.877   2.595
 6759SOL    HW121176   1.535   1.956   2.540
 6759SOL    HW221177   1.653   1.892   2.632
 6760SOL     OW21178   5.856   2.125   5.627
 6760SOL    HW121179   5.835   2.221   5.646
 6760SOL    HW221180   5.788   2.067   5.672
 6761SOL     OW21181   2.828   0.603   4.994
 6761SOL    HW121182   2.792   0.651   5.073
 6761SOL    HW221183   2.915   0.643   4.967
 6762SOL     OW21184   5.733   4.839   4.298
 6762SOL    HW121185   5.816   4.891   4.279
 6762SOL    HW221186   5.705   4.789   4.215
 6763SOL     OW21187   5.698   6.761   4.038
 6763SOL    HW121188   5.674   6.678   4.088
 6763SOL    HW221189   5.757   6.818   4.094
 6764SOL     OW21190   0.562   4.895   1.603
 6764SOL    HW121191   0.582   4.866   1.509
 6764SOL    HW221192   0.483   4.956   1.603
 6765SOL     OW21193   6.877   4.159   2.745
 6765SOL    HW121194   6.787   4.139   2.706
 6765SOL    HW221195   6.886   4.113   2.833
 6766SOL     OW21196   5.689   0.204   1.234
 6766SOL    HW121197   5.733   0.149   1.306
 6766SOL    HW221198   5.746   0.284   1.214
 6767SOL     OW21199   3.117   0.640   1.236
 6767SOL    HW121200   3.059   0.682   1.307
 6767SOL    HW221201   3.183   0.579   1.279
 6768SOL     OW21202   2.201   6.884   6.876
 6768SOL    HW121203   2.251   6.922   6.953
 6768SOL    HW221204   2.104   6.881   6.897
 6769SOL     OW21205   5.094   3.298   1.256
 6769SOL    HW121206   5.077   3.222   1.194
 6769SOL    HW221207   5.006   3.338   1.285
 6770SOL     OW21208   6.996   1.397   1.841
 6770SOL    HW121209   0.013   1.491   1.849
 6770SOL    HW221210   0.055   1.336   1.819
 6771SOL     OW21211   5.099   1.764   3.560
 6771SOL    HW121212   5.088   1.862   3.545
 6771SOL    HW221213   5.071   1.741   3.653
 6772SOL     OW21214   3.343   1.768   4.737
 6772SOL    HW121215   3.405   1.840   4.708
 6772SOL    HW221216   3.294   1.797   4.819
 6773SOL     OW21217   0.488   3.621   1.751
 6773SOL    HW121218   0.404   3.638   1.801
 6773SOL    HW221219   0.522   3.707   1.712
 6774SOL     OW21220   1.295   2.197   6.741
 6774SOL    HW121221   1.239   2.279   6.728
 6774SOL    HW221222   1.236   2.117   6.745
 6775SOL     OW21223   0.645   3.912   0.012
 6775SOL    HW121224   0.706   3.849   0.058
 6775SOL    HW221225   0.697   3.967   6.962
 6776SOL     OW21226   5.857   5.867   6.961
 6776SOL    HW121227   5.951   5.898   6.952
 6776SOL    HW221228   5.844   5.826   0.035
 6777SOL     OW21229   4.735   4.754   6.746
 6777SOL    HW121230   4.817   4.798   6.710
 6777SOL    HW221231   4.760   4.684   6.813
 6778SOL     OW21232   6.485   5.749   3.536
 6778SOL    HW121233   6.445   5.694   3.610
 6778SOL    HW221234   6.420   5.754   3.460
 6779SOL     OW21235   5.742   3.880   6.302
 6779SOL    HW121236   5.735   3.784   6.329
 6779SOL    HW221237   5.688   3.936   6.365
 6780SOL     OW21238   0.518   3.248   1.479
 6780SOL    HW121239   0.568   3.310   1.419
 6780SOL    HW221240   0.492   3.166   1.428
 6781SOL     OW21241   5.310   5.195   5.729
 6781SOL    HW121242   5.297   5.270   5.665
 6781SOL    HW221243   5.318   5.231   5.822
 6782SOL     OW21244   5.610   0.850   3.144
 6782SOL    HW121245   5.683   0.891   3.090
 6782SOL    HW221246   5.585   0.911   3.219
 6783SOL     OW21247   1.548   5.660   6.568
 6783SOL    HW121248   1.448   5.654   6.564
 6783SOL    HW221249   1.579   5.624   6.656
 6784SOL     OW21250   3.807   3.434   0.092
 6784SOL    HW121251   3.861   3.368   0.039
 6784SOL    HW221252   3.760   3.495   0.029
 6785SOL     OW21253   5.793   5.579   2.027
 6785SOL    HW121254   5.838   5.613   2.109
 6785SOL    HW221255   5.860   5.569   1.954
 6786SOL     OW21256   1.642   3.297   5.591
 6786SOL    HW121257   1.643   3.391   5.627
 6786SOL    HW221258   1.706   3.241   5.644
 6787SOL     OW21259   1.216   3.907   1.415
 6787SOL    HW121260   1.261   3.992   1.388
 6787SOL    HW221261   1.166   3.922   1.501
 6788SOL     OW21262   2.653   3.719   1.340
 6788SOL    HW121263   2.640   3.656   1.417
 6788SOL    HW221264   2.750   3.740   1.330
 6789SOL     OW21265   1.333   4.976   3.091
 6789SOL    HW121266   1.287   5.064   3.106
 6789SOL    HW221267   1.393   4.957   3.169
 6790SOL     OW21268   1.405   2.417   0.949
 6790SOL    HW121269   1.505   2.421   0.940
 6790SOL    HW221270   1.381   2.361   1.028
 6791SOL     OW21271   3.403   4.028   6.150
 6791SOL    HW121272   3.373   3.933   6.138
 6791SOL    HW221273   3.501   4.029   6.169
 6792SOL     OW21274   0.411   4.851   0.641
 6792SOL    HW121275   0.472   4.777   0.614
 6792SOL    HW221276   0.319   4.833   0.606
 6793SOL     OW21277   5.795   1.648   1.083
 6793SOL    HW121278   5.703   1.624   1.051
 6793SOL    HW221279   5.831   1.573   1.138
 6794SOL     OW21280   3.875   1.209   4.684
 6794SOL    HW121281   3.923   1.267   4.618
 6794SOL    HW221282   3.791   1.255   4.713
 6795SOL     OW21283   3.391   6.126   0.304
 6795SOL    HW121284   3.465   6.103   0.241
 6795SOL    HW221285   3.416   6.207   0.356
 6796SOL     OW21286   4.186   1.906   2.528
 6796SOL    HW121287   4.200   1.947   2.438
 6796SOL    HW221288   4.088   1.897   2.546
 6797SOL     OW21289   6.628   2.080   2.411
 6797SOL    HW121290   6.640   1.984   2.386
 6797SOL    HW221291   6.579   2.086   2.498
 6798SOL     OW21292   6.822   0.014   2.353
 6798SOL    HW121293   6.877   0.097   2.343
 6798SOL    HW221294   6.882   6.952   2.369
 6799SOL     OW21295   5.466   5.799   1.621
 6799SOL    HW121296   5.406   5.862   1.671
 6799SOL    HW221297   5.421   5.770   1.536
 6800SOL     OW21298   3.571   4.158   6.657
 6800SOL    HW121299   3.507   4.114   6.594
 6800SOL    HW221300   3.620   4.231   6.609
 6801SOL     OW21301   0.894   2.908   2.834
 6801SOL    HW121302   0.820   2.893   2.899
 6801SOL    HW221303   0.949   2.986   2.863
 6802SOL     OW21304   2.794   4.821   2.470
 6802SOL    HW121305   2.883   4.865   2.466
 6802SOL    HW221306   2.763   4.798   2.377
 6803SOL     OW21307   3.974   2.373   0.938
 6803SOL    HW121308   3.905   2.445   0.932
 6803SOL    HW221309   3.975   2.335   1.030
 6804SOL     OW21310   0.975   6.720   3.626
 6804SOL    HW121311   0.982   6.663   3.708
 6804SOL    HW221312   0.935   6.665   3.552
 6805SOL     OW21313   5.754   1.232   5.487
 6805SOL    HW121314   5.695   1.167   5.439
 6805SOL    HW221315   5.771   1.200   5.580
 6806SOL     OW21316   5.319   6.607   5.112
 6806SOL    HW121317   5.224   6.635   5.096
 6806SOL    HW221318   5.331   6.512   5.085
 6807SOL     OW21319   3.065   3.591   0.035
 6807SOL    HW121320   3.083   3.539   0.118
 6807SOL    HW221321   3.109   3.681   0.042
 6808SOL     OW21322   2.163   3.760   4.099
 6808SOL    HW121323   2.084   3.757   4.160
 6808SOL    HW221324   2.247   3.748   4.152
 6809SOL     OW21325   1.460   4.052   0.142
 6809SOL    HW121326   1.440   4.111   0.063
 6809SOL    HW221327   1.376   4.036   0.194
 6810SOL     OW21328   5.691   1.280   3.387
 6810SOL    HW121329   5.748   1.343   3.440
 6810SOL    HW221330   5.597   1.316   3.383
 6811SOL     OW21331   4.916   5.911   1.720
 6811SOL    HW121332   4.978   5.968   1.666
 6811SOL    HW221333   4.827   5.908   1.675
 6812SOL     OW21334   3.570   3.243   2.733
 6812SOL    HW121335   3.514   3.322   2.756
 6812SOL    HW221336   3.546   3.210   2.642
 6813SOL     OW21337   5.179   3.625   1.308
 6813SOL    HW121338   5.098   3.672   1.275
 6813SOL    HW221339   5.171   3.527   1.288
 6814SOL     OW21340   2.312   3.096   0.531
 6814SOL    HW121341   2.254   3.133   0.603
 6814SOL    HW221342   2.356   3.012   0.563
 6815SOL     OW21343   1.459   0.289   0.817
 6815SOL    HW121344   1.454   0.361   0.747
 6815SOL    HW221345   1.475   0.331   0.906
 6816SOL     OW21346   6.157   4.269   1.098
 6816SOL    HW121347   6.208   4.290   1.015
 6816SOL    HW221348   6.078   4.212   1.075
 6817SOL     OW21349   0.610   2.477   6.034
 6817SOL    HW121350   0.645   2.536   6.106
 6817SOL    HW221351   0.679   2.467   5.962
 6818SOL     OW21352   3.833   5.189   1.378
 6818SOL    HW121353   3.783   5.272   1.404
 6818SOL    HW221354   3.920   5.186   1.428
 6819SOL     OW21355   2.700   1.664   4.028
 6819SOL    HW121356   2.680   1.758   4.003
 6819SOL    HW221357   2.670   1.648   4.123
 6820SOL     OW21358   1.700   5.287   4.625
 6820SOL    HW121359   1.748   5.236   4.696
 6820SOL    HW221360   1.767   5.337   4.570
 6821SOL     OW21361   2.277   3.018   3.943
 6821SOL    HW121362   2.335   2.938   3.933
 6821SOL    HW221363   2.279   3.050   4.038
 6822SOL     OW21364   4.955   1.746   6.140
 6822SOL    HW121365   4.933   1.805   6.062
 6822SOL    HW221366   5.035   1.690   6.118
 6823SOL     OW21367   3.902   3.415   1.982
 6823SOL    HW121368   3.975   3.482   1.997
 6823SOL    HW221369   3.814   3.456   2.006
 6824SOL     OW21370   1.064   5.227   5.213
 6824SOL    HW121371   1.106   5.291   5.149
 6824SOL    HW221372   1.019   5.154   5.162
 6825SOL     OW21373   5.739   0.249   3.604
 6825SOL    HW121374   5.684   0.332   3.602
 6825SOL    HW221375   5.749   0.214   3.511
 6826SOL     OW21376   0.998   3.136   3.211
 6826SOL    HW121377   1.025   3.109   3.119
 6826SOL    HW221378   1.078   3.165   3.263
 6827SOL     OW21379   5.117   5.668   5.315
 6827SOL    HW121380   5.194   5.611   5.346
 6827SOL    HW221381   5.037   5.650   5.373
 6828SOL     OW21382   2.149   1.794   1.377
 6828SOL    HW121383   2.060   1.765   1.342
 6828SOL    HW221384   2.175   1.736   1.455
 6829SOL     OW21385   5.535   5.131   3.610
 6829SOL    HW121386   5.442   5.168   3.611
 6829SOL    HW221387   5.541   5.058   3.542
 6830SOL     OW21388   4.944   1.860   4.090
 6830SOL    HW121389   4.922   1.869   4.187
 6830SOL    HW221390   4.901   1.778   4.052
 6831SOL     OW21391   0.022   1.515   5.928
 6831SOL    HW121392   0.010   1.570   6.011
 6831SOL    HW221393   0.119   1.502   5.911
 6832SOL     OW21394   3.178   4.733   1.315
 6832SOL    HW121395   3.229   4.698   1.393
 6832SOL    HW221396   3.083   4.702   1.321
 6833SOL     OW21397   4.625   5.860   7.002
 6833SOL    HW121398   4.691   5.844   6.929
 6833SOL    HW221399   4.534   5.834   6.970
 6834SOL     OW21400   3.132   5.444   2.331
 6834SOL    HW121401   3.230   5.424   2.322
 6834SOL    HW221402   3.098   5.405   2.416
 6835SOL     OW21403   3.950   0.133   4.752
 6835SOL    HW121404   3.928   0.036   4.737
 6835SOL    HW221405   4.033   0.156   4.701
 6836SOL     OW21406   3.835   5.790   0.098
 6836SOL    HW121407   3.916   5.803   0.155
 6836SOL    HW221408   3.859   5.734   0.019
 6837SOL     OW21409   0.280   3.144   2.909
 6837SOL    HW121410   0.259   3.210   2.837
 6837SOL    HW221411   0.288   3.052   2.869
 6838SOL     OW21412   2.566   1.451   1.399
 6838SOL    HW121413   2.626   1.513   1.450
 6838SOL    HW221414   2.591   1.452   1.303
 6839SOL     OW21415   4.540   0.938   1.756
 6839SOL    HW121416   4.569   0.998   1.831
 6839SOL    HW221417   4.458   0.976   1.713
 6840SOL     OW21418   1.066   1.215   6.572
 6840SOL    HW121419   1.107   1.239   6.485
 6840SOL    HW221420   1.010   1.291   6.606
 6841SOL     OW21421   0.224   3.061   5.541
 6841SOL    HW121422   0.292   3.124   5.501
 6841SOL    HW221423   0.134   3.104   5.541
 6842SOL     OW21424   2.492   4.597   2.367
 6842SOL    HW121425   2.591   4.610   2.358
 6842SOL    HW221426   2.458   4.546   2.288
 6843SOL     OW21427   4.580   0.154   1.109
 6843SOL    HW121428   4.608   0.184   1.018
 6843SOL    HW221429   4.613   0.060   1.124
 6844SOL     OW21430   5.605   0.434   5.592
 6844SOL    HW121431   5.529   0.481   5.637
 6844SOL    HW221432   5.601   0.451   5.493
 6845SOL     OW21433   5.464   2.065   2.723
 6845SOL    HW121434   5.465   2.009   2.806
 6845SOL    HW221435   5.372   2.101   2.708
 6846SOL     OW21436   1.983   3.563   0.244
 6846SOL    HW121437   2.075   3.583   0.210
 6846SOL    HW221438   1.923   3.545   0.166
 6847SOL     OW21439   0.026   2.402   4.567
 6847SOL    HW121440   0.107   2.348   4.591
 6847SOL    HW221441   6.973   2.393   4.639
 6848SOL     OW21442   0.181   5.076   3.690
 6848SOL    HW121443   0.137   5.136   3.757
 6848SOL    HW221444   0.112   5.040   3.627
 6849SOL     OW21445   2.861   4.341   5.852
 6849SOL    HW121446   2.780   4.287   5.829
 6849SOL    HW221447   2.905   4.372   5.768
 6850SOL     OW21448   4.982   0.294   4.223
 6850SOL    HW121449   5.008   0.342   4.140
 6850SOL    HW221450   5.061   0.245   4.260
 6851SOL     OW21451   1.919   4.064   2.920
 6851SOL    HW121452   2.019   4.057   2.923
 6851SOL    HW221453   1.886   4.100   3.007
 6852SOL     OW21454   4.179   3.629   0.366
 6852SOL    HW121455   4.107   3.630   0.296
 6852SOL    HW221456   4.138   3.633   0.457
 6853SOL     OW21457   3.893   4.902   6.005
 6853SOL    HW121458   3.838   4.837   6.057
 6853SOL    HW221459   3.841   4.933   5.925
 6854SOL     OW21460   4.964   6.188   5.849
 6854SOL    HW121461   5.000   6.174   5.941
 6854SOL    HW221462   4.869   6.156   5.845
 6855SOL     OW21463   4.334   4.942   2.946
 6855SOL    HW121464   4.400   4.955   2.872
 6855SOL    HW221465   4.309   4.845   2.952
 6856SOL     OW21466   6.526   2.913   0.360
 6856SOL    HW121467   6.558   3.008   0.355
 6856SOL    HW221468   6.497   2.883   0.269
 6857SOL     OW21469   1.110   4.461   5.694
 6857SOL    HW121470   1.105   4.416   5.783
 6857SOL    HW221471   1.020   4.459   5.651
 6858SOL     OW21472   1.386   3.273   1.339
 6858SOL    HW121473   1.327   3.275   1.419
 6858SOL    HW221474   1.457   3.204   1.352
 6859SOL     OW21475   2.082   1.975   1.111
 6859SOL    HW121476   2.036   1.901   1.062
 6859SOL    HW221477   2.043   1.982   1.203
 6860SOL     OW21478   0.240   6.660   6.888
 6860SOL    HW121479   0.306   6.592   6.855
 6860SOL    HW221480   0.179   6.617   6.955
 6861SOL     OW21481   6.411   3.360   6.604
 6861SOL    HW121482   6.410   3.398   6.511
 6861SOL    HW221483   6.399   3.261   6.599
 6862SOL     OW21484   0.664   4.614   3.754
 6862SOL    HW121485   0.651   4.706   3.717
 6862SOL    HW221486   0.758   4.603   3.786
 6863SOL     OW21487   4.941   1.461   4.912
 6863SOL    HW121488   4.871   1.497   4.973
 6863SOL    HW221489   4.988   1.384   4.956
 6864SOL     OW21490   2.080   3.640   6.470
 6864SOL    HW121491   2.166   3.591   6.457
 6864SOL    HW221492   2.040   3.614   6.558
 6865SOL     OW21493   1.969   6.831   4.443
 6865SOL    HW121494   2.007   6.754   4.392
 6865SOL    HW221495   1.870   6.825   4.444
 6866SOL     OW21496   1.993   4.643   6.922
 6866SOL    HW121497   2.042   4.560   6.896
 6866SOL    HW221498   1.918   4.660   6.858
 6867SOL     OW21499   1.978   2.298   6.338
 6867SOL    HW121500   2.009   2.312   6.244
 6867SOL    HW221501   1.890   2.344   6.352
 6868SOL     OW21502   3.642   4.878   3.111
 6868SOL    HW121503   3.725   4.854   3.161
 6868SOL    HW221504   3.580   4.928   3.171
 6869SOL     OW21505   1.571   0.877   5.578
 6869SOL    HW121506   1.553   0.780   5.558
 6869SOL    HW221507   1.577   0.890   5.677
 6870SOL     OW21508   5.645   2.613   6.333
 6870SOL    HW121509   5.727   2.640   6.383
 6870SOL    HW221510   5.567   2.607   6.396
 6871SOL     OW21511   6.574   2.592   2.673
 6871SOL    HW121512   6.569   2.501   2.632
 6871SOL    HW221513   6.658   2.600   2.726
 6872SOL     OW21514   1.549   4.271   1.080
 6872SOL    HW121515   1.490   4.279   1.000
 6872SOL    HW221516   1.550   4.358   1.129
 6873SOL     OW21517   0.401   4.282   2.761
 6873SOL    HW121518   0.420   4.301   2.858
 6873SOL    HW221519   0.345   4.200   2.754
 6874SOL     OW21520   4.626   6.468   2.344
 6874SOL    HW121521   4.676   6.386   2.315
 6874SOL    HW221522   4.528   6.454   2.326
 6875SOL     OW21523   2.705   0.923   6.797
 6875SOL    HW121524   2.768   0.846   6.782
 6875SOL    HW221525   2.749   1.008   6.768
 6876SOL     OW21526   5.667   5.319   2.988
 6876SOL    HW121527   5.622   5.392   3.040
 6876SOL    HW221528   5.660   5.233   3.038
 6877SOL     OW21529   0.387   4.525   1.264
 6877SOL    HW121530   0.468   4.468   1.248
 6877SOL    HW221531   0.408   4.619   1.239
 6878SOL     OW21532   2.246   0.562   4.500
 6878SOL    HW121533   2.146   0.553   4.506
 6878SOL    HW221534   2.282   0.491   4.439
 6879SOL     OW21535   1.366   1.666   1.547
 6879SOL    HW121536   1.322   1.715   1.472
 6879SOL    HW221537   1.391   1.574   1.516
 6880SOL     OW21538   2.050   6.560   0.754
 6880SOL    HW121539   2.029   6.524   0.845
 6880SOL    HW221540   2.147   6.584   0.749
 6881SOL     OW21541   0.134   3.509   0.148
 6881SOL    HW121542   0.124   3.411   0.167
 6881SOL    HW221543   0.209   3.546   0.203
 6882SOL     OW21544   2.750   6.544   0.158
 6882SOL    HW121545   2.719   6.558   0.251
 6882SOL    HW221546   2.733   6.626   0.104
 6883SOL     OW21547   4.989   0.625   1.197
 6883SOL    HW121548   4.918   0.658   1.260
 6883SOL    HW221549   4.949   0.614   1.106
 6884SOL     OW21550   2.058   4.605   3.902
 6884SOL    HW121551   2.010   4.563   3.825
 6884SOL    HW221552   2.094   4.694   3.874
 6885SOL     OW21553   5.676   4.975   4.751
 6885SOL    HW121554   5.731   4.917   4.811
 6885SOL    HW221555   5.594   5.005   4.800
 6886SOL     OW21556   5.299   3.183   0.041
 6886SOL    HW121557   5.244   3.265   0.031
 6886SOL    HW221558   5.242   3.108   0.075
 6887SOL     OW21559   5.693   6.413   5.616
 6887SOL    HW121560   5.686   6.419   5.516
 6887SOL    HW221561   5.646   6.331   5.648
 6888SOL     OW21562   6.803   4.114   0.081
 6888SOL    HW121563   6.834   4.064   7.016
 6888SOL    HW221564   6.712   4.082   0.107
 6889SOL     OW21565   0.075   2.250   5.714
 6889SOL    HW121566   0.025   2.194   5.780
 6889SOL    HW221567   0.032   2.244   5.624
 6890SOL     OW21568   4.884   4.736   4.081
 6890SOL    HW121569   4.817   4.704   4.148
 6890SOL    HW221570   4.840   4.801   4.019
 6891SOL     OW21571   1.889   1.448   0.879
 6891SOL    HW121572   1.924   1.508   0.952
 6891SOL    HW221573   1.963   1.427   0.816
 6892SOL     OW21574   2.404   0.794   5.060
 6892SOL    HW121575   2.466   0.832   5.129
 6892SOL    HW221576   2.311   0.827   5.078
 6893SOL     OW21577   5.813   2.809   0.401
 6893SOL    HW121578   5.844   2.898   0.435
 6893SOL    HW221579   5.765   2.760   0.474
 6894SOL     OW21580   5.514   4.885   0.289
 6894SOL    HW121581   5.479   4.849   0.202
 6894SOL    HW221582   5.544   4.980   0.276
 6895SOL     OW21583   0.888   5.320   2.063
 6895SOL    HW121584   0.880   5.412   2.101
 6895SOL    HW221585   0.977   5.310   2.018
 6896SOL     OW21586   5.522   1.249   6.235
 6896SOL    HW121587   5.619   1.275   6.232
 6896SOL    HW221588   5.492   1.222   6.143
 6897SOL     OW21589   4.384   2.710   5.306
 6897SOL    HW121590   4.303   2.659   5.277
 6897SOL    HW221591   4.356   2.793   5.353
 6898SOL     OW21592   1.922   6.817   1.341
 6898SOL    HW121593   1.922   6.803   1.440
 6898SOL    HW221594   1.952   6.910   1.321
 6899SOL     OW21595   5.156   5.393   2.406
 6899SOL    HW121596   5.150   5.474   2.464
 6899SOL    HW221597   5.087   5.399   2.333
 6900SOL     OW21598   6.704   3.978   4.192
 6900SOL    HW121599   6.631   3.924   4.233
 6900SOL    HW221600   6.746   4.036   4.261
 6901SOL     OW21601   4.647   4.878   5.954
 6901SOL    HW121602   4.675   4.806   5.891
 6901SOL    HW221603   4.552   4.902   5.937
 6902SOL     OW21604   0.158   5.312   5.986
 6902SOL    HW121605   0.146   5.405   5.954
 6902SOL    HW221606   0.122   5.248   5.917
 6903SOL     OW21607   1.772   6.031   5.725
 6903SOL    HW121608   1.683   6.071   5.744
 6903SOL    HW221609   1.807   6.066   5.639
 6904SOL     OW21610   0.622   0.455   5.883
 6904SOL    HW121611   0.648   0.551   5.878
 6904SOL    HW221612   0.555   0.443   5.956
 6905SOL     OW21613   4.550   6.491   5.475
 6905SOL    HW121614   4.513   6.577   5.440
 6905SOL    HW221615   4.650   6.491   5.466
 6906SOL     OW21616   2.913   1.304   3.629
 6906SOL    HW121617   2.975   1.281   3.705
 6906SOL    HW221618   2.855   1.381   3.655
 6907SOL     OW21619   5.586   2.396   0.642
 6907SOL    HW121620   5.513   2.456   0.610
 6907SOL    HW221621   5.675   2.436   0.619
 6908SOL     OW21622   3.915   6.235   0.537
 6908SOL    HW121623   4.010   6.207   0.524
 6908SOL    HW221624   3.875   6.259   0.449
 6909SOL     OW21625   5.816   4.101   1.712
 6909SOL    HW121626   5.787   4.023   1.657
 6909SOL    HW221627   5.820   4.075   1.808
 6910SOL     OW21628   1.110   2.522   2.149
 6910SOL    HW121629   1.112   2.575   2.234
 6910SOL    HW221630   1.018   2.485   2.135
 6911SOL     OW21631   2.688   6.383   5.348
 6911SOL    HW121632   2.767   6.368   5.407
 6911SOL    HW221633   2.626   6.449   5.390
 6912SOL     OW21634   3.451   4.213   6.925
 6912SOL    HW121635   3.511   4.227   6.846
 6912SOL    HW221636   3.469   4.122   6.964
 6913SOL     OW21637   4.027   5.787   5.911
 6913SOL    HW121638   3.949   5.849   5.917
 6913SOL    HW221639   4.076   5.786   5.998
 6914SOL     OW21640   6.945   2.311   2.887
 6914SOL    HW121641   6.868   2.266   2.842
 6914SOL    HW221642   6.944   2.287   2.984
 6915SOL     OW21643   0.166   3.601   3.749
 6915SOL    HW121644   0.123   3.524   3.702
 6915SOL    HW221645   0.257   3.574   3.780
 6916SOL     OW21646   4.470   6.346   5.684
 6916SOL    HW121647   4.503   6.386   5.598
 6916SOL    HW221648   4.419   6.262   5.664
 6917SOL     OW21649   3.626   6.198   2.063
 6917SOL    HW121650   3.721   6.215   2.093
 6917SOL    HW221651   3.609   6.250   1.979
 6918SOL     OW21652   1.479   3.805   0.292
 6918SOL    HW121653   1.510   3.883   0.238
 6918SOL    HW221654   1.509   3.816   0.387
 6919SOL     OW21655   6.263   5.856   3.291
 6919SOL    HW121656   6.251   5.948   3.253
 6919SOL    HW221657   6.176   5.808   3.291
 6920SOL     OW21658   0.013   2.587   5.471
 6920SOL    HW121659   6.955   2.617   5.531
 6920SOL    HW221660   0.090   2.649   5.479
 6921SOL     OW21661   2.979   0.298   4.344
 6921SOL    HW121662   3.054   0.267   4.285
 6921SOL    HW221663   2.935   0.219   4.386
 6922SOL     OW21664   3.070   4.982   6.739
 6922SOL    HW121665   3.060   5.065   6.684
 6922SOL    HW221666   3.019   4.907   6.696
 6923SOL     OW21667   5.001   0.176   3.378
 6923SOL    HW121668   5.100   0.186   3.388
 6923SOL    HW221669   4.971   0.226   3.296
 6924SOL     OW21670   2.973   5.237   1.813
 6924SOL    HW121671   3.016   5.225   1.903
 6924SOL    HW221672   3.020   5.180   1.746
 6925SOL     OW21673   6.573   6.402   4.865
 6925SOL    HW121674   6.545   6.368   4.955
 6925SOL    HW221675   6.580   6.325   4.801
 6926SOL     OW21676   2.819   2.172   0.583
 6926SOL    HW121677   2.800   2.114   0.504
 6926SOL    HW221678   2.798   2.267   0.560
 6927SOL     OW21679   3.380   0.582   6.505
 6927SOL    HW121680   3.372   0.617   6.598
 6927SOL    HW221681   3.328   0.641   6.443
 6928SOL     OW21682   3.752   5.716   0.585
 6928SOL    HW121683   3.748   5.753   0.493
 6928SOL    HW221684   3.672   5.746   0.637
 6929SOL     OW21685   4.649   5.211   2.859
 6929SOL    HW121686   4.611   5.296   2.823
 6929SOL    HW221687   4.658   5.218   2.959
 6930SOL     OW21688   0.959   6.289   1.736
 6930SOL    HW121689   0.925   6.337   1.817
 6930SOL    HW221690   1.019   6.350   1.684
 6931SOL     OW21691   3.223   3.256   1.031
 6931SOL    HW121692   3.304   3.282   0.979
 6931SOL    HW221693   3.234   3.163   1.066
 6932SOL     OW21694   4.385   0.573   6.986
 6932SOL    HW121695   4.337   0.510   6.926
 6932SOL    HW221696   4.321   0.615   0.033
 6933SOL     OW21697   3.112   6.178   5.960
 6933SOL    HW121698   3.086   6.265   6.000
 6933SOL    HW221699   3.039   6.111   5.973
 6934SOL     OW21700   5.220   5.014   0.081
 6934SOL    HW121701   5.312   5.037   0.048
 6934SOL    HW221702   5.189   5.084   0.145
 6935SOL     OW21703   4.422   6.024   1.918
 6935SOL    HW121704   4.350   5.970   1.874
 6935SOL    HW221705   4.473   6.074   1.849
 6936SOL     OW21706   0.962   1.915   7.002
 6936SOL    HW121707   0.937   1.919   0.082
 6936SOL    HW221708   1.039   1.976   6.984
 6937SOL     OW21709   5.668   4.813   0.490
 6937SOL    HW121710   5.599   4.845   0.425
 6937SOL    HW221711   5.670   4.873   0.569
 6938SOL     OW21712   3.534   0.593   4.677
 6938SOL    HW121713   3.587   0.664   4.724
 6938SOL    HW221714   3.594   0.544   4.614
 6939SOL     OW21715   5.494   2.908   3.448
 6939SOL    HW121716   5.503   2.818   3.405
 6939SOL    HW221717   5.584   2.948   3.462
 6940SOL     OW21718   2.382   6.484   1.622
 6940SOL    HW121719   2.363   6.551   1.551
 6940SOL    HW221720   2.351   6.518   1.710
 6941SOL     OW21721   3.672   2.909   2.705
 6941SOL    HW121722   3.589   2.875   2.750
 6941SOL    HW221723   3.665   2.893   2.607
 6942SOL     OW21724   6.228   4.868   3.183
 6942SOL    HW121725   6.229   4.877   3.283
 6942SOL    HW221726   6.295   4.800   3.155
 6943SOL     OW21727   3.502   5.335   5.692
 6943SOL    HW121728   3.505   5.397   5.614
 6943SOL    HW221729   3.434   5.368   5.758
 6944SOL     OW21730   0.469   5.125   4.916
 6944SOL    HW121731   0.464   5.193   4.842
 6944SOL    HW221732   0.519   5.162   4.993
 6945SOL     OW21733   4.485   1.529   0.501
 6945SOL    HW121734   4.489   1.454   0.566
 6945SOL    HW221735   4.535   1.505   0.418
 6946SOL     OW21736   5.618   6.026   2.531
 6946SOL    HW121737   5.639   6.076   2.447
 6946SOL    HW221738   5.593   5.932   2.507
 6947SOL     OW21739   6.006   4.206   5.298
 6947SOL    HW121740   6.050   4.213   5.388
 6947SOL    HW221741   6.051   4.267   5.233
 6948SOL     OW21742   6.934   4.377   6.496
 6948SOL    HW121743   6.992   4.419   6.566
 6948SOL    HW221744   6.988   4.313   6.441
 6949SOL     OW21745   2.981   1.124   3.008
 6949SOL    HW121746   2.891   1.167   3.011
 6949SOL    HW221747   2.971   1.025   3.000
 6950SOL     OW21748   2.008   1.239   3.819
 6950SOL    HW121749   1.977   1.174   3.750
 6950SOL    HW221750   2.037   1.189   3.901
 6951SOL     OW21751   1.278   3.792   0.060
 6951SOL    HW121752   1.361   3.837   0.027
 6951SOL    HW221753   1.300   3.700   0.093
 6952SOL     OW21754   4.256   5.540   3.118
 6952SOL    HW121755   4.226   5.483   3.194
 6952SOL    HW221756   4.354   5.557   3.127
 6953SOL     OW21757   0.145   1.151   1.889
 6953SOL    HW121758   0.069   1.091   1.915
 6953SOL    HW221759   0.186   1.118   1.804
 6954SOL     OW21760   6.301   4.741   5.927
 6954SOL    HW121761   6.400   4.752   5.922
 6954SOL    HW221762   6.273   4.663   5.872
 6955SOL     OW21763   4.520   5.735   2.429
 6955SOL    HW121764   4.439   5.701   2.477
 6955SOL    HW221765   4.528   5.689   2.340
 6956SOL     OW21766   5.720   4.791   1.471
 6956SOL    HW121767   5.645   4.850   1.442
 6956SOL    HW221768   5.782   4.843   1.530
 6957SOL     OW21769   5.956   4.498   5.023
 6957SOL    HW121770   5.862   4.480   5.052
 6957SOL    HW221771   6.016   4.427   5.061
 6958SOL     OW21772   3.285   3.729   2.241
 6958SOL    HW121773   3.317   3.635   2.246
 6958SOL    HW221774   3.309   3.778   2.325
 6959SOL     OW21775   1.326   4.391   2.456
 6959SOL    HW121776   1.374   4.477   2.478
 6959SOL    HW221777   1.272   4.363   2.536
 6960SOL     OW21778   4.969   4.784   1.568
 6960SOL    HW121779   4.943   4.702   1.516
 6960SOL    HW221780   4.961   4.865   1.509
 6961SOL     OW21781   5.446   2.206   4.765
 6961SOL    HW121782   5.355   2.197   4.806
 6961SOL    HW221783   5.489   2.291   4.795
 6962SOL     OW21784   2.510   6.195   0.527
 6962SOL    HW121785   2.462   6.256   0.464
 6962SOL    HW221786   2.546   6.117   0.477
 6963SOL     OW21787   0.874   6.477   6.424
 6963SOL    HW121788   0.777   6.473   6.450
 6963SOL    HW221789   0.914   6.562   6.457
 6964SOL     OW21790   1.954   1.772   4.917
 6964SOL    HW121791   1.893   1.803   4.990
 6964SOL    HW221792   2.044   1.751   4.956
 6965SOL     OW21793   1.734   1.454   0.057
 6965SOL    HW121794   1.647   1.451   0.107
 6965SOL    HW221795   1.804   1.495   0.116
 6966SOL     OW21796   1.739   6.559   0.851
 6966SOL    HW121797   1.815   6.621   0.831
 6966SOL    HW221798   1.774   6.477   0.895
 6967SOL     OW21799   3.773   0.306   6.592
 6967SOL    HW121800   3.770   0.304   6.692
 6967SOL    HW221801   3.680   0.309   6.556
 6968SOL     OW21802   3.533   0.681   2.530
 6968SOL    HW121803   3.494   0.653   2.442
 6968SOL    HW221804   3.630   0.658   2.532
 6969SOL     OW21805   1.528   2.898   2.569
 6969SOL    HW121806   1.518   2.807   2.608
 6969SOL    HW221807   1.478   2.905   2.483
 6970SOL     OW21808   3.289   6.282   5.778
 6970SOL    HW121809   3.236   6.348   5.724
 6970SOL    HW221810   3.228   6.234   5.841
 6971SOL     OW21811   6.257   4.036   6.520
 6971SOL    HW121812   6.244   3.950   6.570
 6971SOL    HW221813   6.169   4.079   6.504
 6972SOL     OW21814   5.695   3.820   1.641
 6972SOL    HW121815   5.715   3.747   1.706
 6972SOL    HW221816   5.705   3.786   1.548
 6973SOL     OW21817   0.988   1.611   3.071
 6973SOL    HW121818   0.914   1.661   3.028
 6973SOL    HW221819   0.992   1.518   3.033
 6974SOL     OW21820   4.075   3.190   2.771
 6974SOL    HW121821   4.098   3.096   2.746
 6974SOL    HW221822   3.999   3.222   2.714
 6975SOL     OW21823   2.664   5.688   4.834
 6975SOL    HW121824   2.739   5.753   4.817
 6975SOL    HW221825   2.580   5.738   4.856
 6976SOL     OW21826   4.606   5.239   6.129
 6976SOL    HW121827   4.649   5.149   6.137
 6976SOL    HW221828   4.522   5.241   6.183
 6977SOL     OW21829   4.932   4.590   2.643
 6977SOL    HW121830   4.958   4.510   2.697
 6977SOL    HW221831   4.868   4.563   2.571
 6978SOL     OW21832   0.831   3.899   0.912
 6978SOL    HW121833   0.742   3.911   0.957
 6978SOL    HW221834   0.887   3.981   0.927
 6979SOL     OW21835   1.277   3.741   3.168
 6979SOL    HW121836   1.276   3.686   3.085
 6979SOL    HW221837   1.207   3.708   3.231
 6980SOL     OW21838   2.123   4.624   3.027
 6980SOL    HW121839   2.190   4.688   2.991
 6980SOL    HW221840   2.128   4.538   2.976
 6981SOL     OW21841   4.089   2.498   6.643
 6981SOL    HW121842   3.993   2.486   6.619
 6981SOL    HW221843   4.145   2.440   6.584
 6982SOL     OW21844   6.363   0.550   1.847
 6982SOL    HW121845   6.264   0.537   1.852
 6982SOL    HW221846   6.403   0.480   1.787
 6983SOL     OW21847   6.958   0.008   4.263
 6983SOL    HW121848   6.892   0.060   4.317
 6983SOL    HW221849   0.020   0.066   4.242
 6984SOL     OW21850   1.827   4.668   3.384
 6984SOL    HW121851   1.866   4.582   3.351
 6984SOL    HW221852   1.891   4.711   3.447
 6985SOL     OW21853   5.184   3.342   0.793
 6985SOL    HW121854   5.188   3.433   0.753
 6985SOL    HW221855   5.195   3.273   0.720
 6986SOL     OW21856   3.627   5.812   5.203
 6986SOL    HW121857   3.620   5.746   5.128
 6986SOL    HW221858   3.570   5.782   5.280
 6987SOL     OW21859   0.003   0.911   6.894
 6987SOL    HW121860   0.087   0.960   6.919
 6987SOL    HW221861   6.943   0.946   6.948
 6988SOL     OW21862   2.350   0.709   5.788
 6988SOL    HW121863   2.288   0.778   5.751
 6988SOL    HW221864   2.319   0.618   5.761
 6989SOL     OW21865   0.680   3.731   2.284
 6989SOL    HW121866   0.773   3.747   2.317
 6989SOL    HW221867   0.653   3.804   2.222
 6990SOL     OW21868   3.741   4.056   6.856
 6990SOL    HW121869   3.680   4.047   6.777
 6990SOL    HW221870   3.794   4.140   6.849
 6991SOL     OW21871   5.447   3.996   3.501
 6991SOL    HW121872   5.361   3.945   3.507
 6991SOL    HW221873   5.487   3.984   3.410
 6992SOL     OW21874   2.123   5.167   6.269
 6992SOL    HW121875   2.033   5.191   6.231
 6992SOL    HW221876   2.163   5.093   6.216
 6993SOL     OW21877   4.266   2.244   1.892
 6993SOL    HW121878   4.230   2.304   1.821
 6993SOL    HW221879   4.195   2.228   1.961
 6994SOL     OW21880   2.551   1.302   2.939
 6994SOL    HW121881   2.611   1.377   2.964
 6994SOL    HW221882   2.481   1.334   2.876
 6995SOL     OW21883   7.008   4.244   0.462
 6995SOL    HW121884   0.084   4.224   0.429
 6995SOL    HW221885   7.012   4.264   0.560
 6996SOL     OW21886   1.057   1.575   6.425
 6996SOL    HW121887   1.075   1.479   6.405
 6996SOL    HW221888   1.035   1.623   6.340
 6997SOL     OW21889   6.026   6.207   6.142
 6997SOL    HW121890   6.089   6.140   6.105
 6997SOL    HW221891   6.066   6.249   6.224
 6998SOL     OW21892   0.460   0.400   0.195
 6998SOL    HW121893   0.550   0.426   0.160
 6998SOL    HW221894   0.464   0.394   0.295
 6999SOL     OW21895   6.921   2.827   6.859
 6999SOL    HW121896   6.939   2.730   6.875
 6999SOL    HW221897   6.822   2.841   6.852
 7000SOL     OW21898   0.632   5.378   3.945
 7000SOL    HW121899   0.533   5.365   3.955
 7000SOL    HW221900   0.664   5.440   4.017
 7001SOL     OW21901   0.564   1.332   3.662
 7001SOL    HW121902   0.479   1.302   3.619
 7001SOL    HW221903   0.641   1.315   3.599
 7002SOL     OW21904   1.369   4.676   2.463
 7002SOL    HW121905   1.424   4.691   2.545
 7002SOL    HW221906   1.281   4.722   2.474
 7003SOL     OW21907   0.745   5.266   6.270
 7003SOL    HW121908   0.802   5.202   6.322
 7003SOL    HW221909   0.776   5.360   6.287
 7004SOL     OW21910   1.623   0.663   6.476
 7004SOL    HW121911   1.571   0.671   6.561
 7004SOL    HW221912   1.581   0.593   6.418
 7005SOL     OW21913   1.782   5.603   0.347
 7005SOL    HW121914   1.859   5.544   0.321
 7005SOL    HW221915   1.734   5.563   0.425
 7006SOL     OW21916   0.945   0.596   3.555
 7006SOL    HW121917   0.907   0.528   3.618
 7006SOL    HW221918   1.016   0.649   3.601
 7007SOL     OW21919   2.023   0.148   6.296
 7007SOL    HW121920   2.115   0.187   6.307
 7007SOL    HW221921   1.999   0.147   6.199
 7008SOL     OW21922   5.164   2.942   2.621
 7008SOL    HW121923   5.159   2.845   2.645
 7008SOL    HW221924   5.148   2.997   2.703
 7009SOL     OW21925   5.245   6.114   2.169
 7009SOL    HW121926   5.153   6.129   2.206
 7009SOL    HW221927   5.287   6.037   2.217
 7010SOL     OW21928   5.153   3.499   2.303
 7010SOL    HW121929   5.066   3.504   2.253
 7010SOL    HW221930   5.214   3.436   2.256
 7011SOL     OW21931   2.464   6.235   6.274
 7011SOL    HW121932   2.402   6.157   6.265
 7011SOL    HW221933   2.490   6.246   6.370
 7012SOL     OW21934   0.280   4.070   0.604
 7012SOL    HW121935   0.254   4.023   0.519
 7012SOL    HW221936   0.306   4.002   0.673
 7013SOL     OW21937   3.181   2.652   0.208
 7013SOL    HW121938   3.172   2.742   0.251
 7013SOL    HW221939   3.092   2.623   0.174
 7014SOL     OW21940   6.335   3.419   0.264
 7014SOL    HW121941   6.287   3.448   0.181
 7014SOL    HW221942   6.340   3.319   0.266
 7015SOL     OW21943   5.897   6.639   0.942
 7015SOL    HW121944   5.946   6.561   0.901
 7015SOL    HW221945   5.953   6.722   0.932
 7016SOL     OW21946   3.529   5.414   1.120
 7016SOL    HW121947   3.465   5.387   1.049
 7016SOL    HW221948   3.571   5.333   1.161
 7017SOL     OW21949   6.171   4.332   6.470
 7017SOL    HW121950   6.264   4.295   6.472
 7017SOL    HW221951   6.159   4.387   6.388
 7018SOL     OW21952   5.776   3.285   5.149
 7018SOL    HW121953   5.707   3.353   5.122
 7018SOL    HW221954   5.789   3.289   5.248
 7019SOL     OW21955   3.875   5.581   2.037
 7019SOL    HW121956   3.913   5.564   2.128
 7019SOL    HW221957   3.855   5.678   2.028
 7020SOL     OW21958   0.247   1.669   0.839
 7020SOL    HW121959   0.338   1.643   0.871
 7020SOL    HW221960   0.244   1.768   0.822
 7021SOL     OW21961   0.618   1.555   4.933
 7021SOL    HW121962   0.611   1.591   5.026
 7021SOL    HW221963   0.531   1.565   4.886
 7022SOL     OW21964   1.846   3.723   1.062
 7022SOL    HW121965   1.855   3.692   0.967
 7022SOL    HW221966   1.868   3.647   1.123
 7023SOL     OW21967   0.093   1.848   1.196
 7023SOL    HW121968   7.014   1.864   1.171
 7023SOL    HW221969   0.112   1.750   1.194
 7024SOL     OW21970   3.741   4.105   5.451
 7024SOL    HW121971   3.809   4.036   5.425
 7024SOL    HW221972   3.687   4.072   5.528
 7025SOL     OW21973   2.945   0.924   1.108
 7025SOL    HW121974   2.984   0.936   1.017
 7025SOL    HW221975   2.960   0.830   1.140
 7026SOL     OW21976   2.725   1.982   1.043
 7026SOL    HW121977   2.798   2.049   1.035
 7026SOL    HW221978   2.749   1.899   0.992
 7027SOL     OW21979   3.000   4.526   1.121
 7027SOL    HW121980   2.935   4.480   1.060
 7027SOL    HW221981   3.041   4.604   1.074
 7028SOL     OW21982   3.510   0.410   3.287
 7028SOL    HW121983   3.539   0.315   3.281
 7028SOL    HW221984   3.528   0.446   3.378
 7029SOL     OW21985   3.464   4.191   3.449
 7029SOL    HW121986   3.527   4.141   3.390
 7029SOL    HW221987   3.491   4.287   3.453
 7030SOL     OW21988   6.419   6.532   5.093
 7030SOL    HW121989   6.437   6.607   5.030
 7030SOL    HW221990   6.505   6.486   5.115
 7031SOL     OW21991   5.242   5.480   0.840
 7031SOL    HW121992   5.202   5.572   0.834
 7031SOL    HW221993   5.170   5.414   0.859
 7032SOL     OW21994   4.314   5.255   4.577
 7032SOL    HW121995   4.230   5.308   4.571
 7032SOL    HW221996   4.293   5.157   4.569
 7033SOL     OW21997   2.418   2.040   5.255
 7033SOL    HW121998   2.365   2.058   5.338
 7033SOL    HW221999   2.439   2.127   5.210
 7034SOL     OW22000   6.676   1.825   2.291
 7034SOL    HW122001   6.736   1.748   2.313
 7034SOL    HW222002   6.683   1.846   2.193
 7035SOL     OW22003   2.584   2.112   1.237
 7035SOL    HW122004   2.540   2.191   1.195
 7035SOL    HW222005   2.642   2.066   1.170
 7036SOL     OW22006   6.463   1.884   1.708
 7036SOL    HW122007   6.472   1.905   1.611
 7036SOL    HW222008   6.400   1.807   1.720
 7037SOL     OW22009   1.448   0.702   6.040
 7037SOL    HW122010   1.447   0.605   6.061
 7037SOL    HW222011   1.353   0.735   6.032
 7038SOL     OW22012   0.689   4.967   0.466
 7038SOL    HW122013   0.762   4.929   0.409
 7038SOL    HW222014   0.633   4.893   0.502
 7039SOL     OW22015   6.642   0.017   1.397
 7039SOL    HW122016   6.593   0.104   1.386
 7039SOL    HW222017   6.602   6.965   1.336
 7040SOL     OW22018   5.266   2.865   4.946
 7040SOL    HW122019   5.318   2.925   4.885
 7040SOL    HW222020   5.257   2.909   5.035
 7041SOL     OW22021   1.078   0.255   3.987
 7041SOL    HW122022   1.144   0.182   4.004
 7041SOL    HW222023   0.990   0.216   3.962
 7042SOL     OW22024   5.658   6.067   5.019
 7042SOL    HW122025   5.703   5.983   4.988
 7042SOL    HW222026   5.587   6.044   5.086
 7043SOL     OW22027   1.963   6.095   0.834
 7043SOL    HW122028   1.901   6.088   0.756
 7043SOL    HW222029   2.018   6.012   0.841
 7044SOL     OW22030   4.396   6.248   5.205
 7044SOL    HW122031   4.370   6.174   5.267
 7044SOL    HW222032   4.341   6.329   5.223
 7045SOL     OW22033   5.873   6.673   1.643
 7045SOL    HW122034   5.892   6.586   1.597
 7045SOL    HW222035   5.838   6.739   1.577
 7046SOL     OW22036   2.771   1.263   2.658
 7046SOL    HW122037   2.853   1.301   2.616
 7046SOL    HW222038   2.747   1.316   2.739
 7047SOL     OW22039   1.744   6.975   1.131
 7047SOL    HW122040   1.843   6.977   1.115
 7047SOL    HW222041   1.713   0.049   1.160
 7048SOL     OW22042   0.486   5.866   3.972
 7048SOL    HW122043   0.409   5.921   3.939
 7048SOL    HW222044   0.538   5.832   3.894
 7049SOL     OW22045   3.083   1.401   4.910
 7049SOL    HW122046   3.110   1.473   4.846
 7049SOL    HW222047   3.106   1.430   5.003
 7050SOL     OW22048   3.997   4.297   1.039
 7050SOL    HW122049   4.044   4.355   0.973
 7050SOL    HW222050   3.925   4.349   1.085
 7051SOL     OW22051   1.771   1.384   2.136
 7051SOL    HW122052   1.742   1.443   2.061
 7051SOL    HW222053   1.814   1.301   2.099
 7052SOL     OW22054   5.341   2.703   3.102
 7052SOL    HW122055   5.339   2.612   3.060
 7052SOL    HW222056   5.395   2.764   3.045
 7053SOL     OW22057   1.329   4.571   3.817
 7053SOL    HW122058   1.363   4.665   3.820
 7053SOL    HW222059   1.338   4.534   3.725
 7054SOL     OW22060   5.233   0.189   0.128
 7054SOL    HW122061   5.295   0.209   0.205
 7054SOL    HW222062   5.204   0.094   0.132
 7055SOL     OW22063   2.140   0.451   0.152
 7055SOL    HW122064   2.175   0.388   0.084
 7055SOL    HW222065   2.126   0.403   0.239
 7056SOL     OW22066   6.630   5.265   0.736
 7056SOL    HW122067   6.653   5.236   0.829
 7056SOL    HW222068   6.671   5.202   0.670
 7057SOL     OW22069   3.028   5.550   4.623
 7057SOL    HW122070   3.044   5.475   4.559
 7057SOL    HW222071   2.948   5.530   4.680
 7058SOL     OW22072   6.281   2.341   6.338
 7058SOL    HW122073   6.249   2.271   6.402
 7058SOL    HW222074   6.277   2.305   6.245
 7059SOL     OW22075   1.768   1.012   5.053
 7059SOL    HW122076   1.786   0.961   4.969
 7059SOL    HW222077   1.789   0.955   5.132
 7060SOL     OW22078   3.011   2.301   1.698
 7060SOL    HW122079   3.111   2.304   1.688
 7060SOL    HW222080   2.984   2.359   1.775
 7061SOL     OW22081   2.026   0.619   1.426
 7061SOL    HW122082   2.020   0.541   1.488
 7061SOL    HW222083   2.060   0.588   1.337
 7062SOL     OW22084   3.630   0.936   5.143
 7062SOL    HW122085   3.577   0.851   5.143
 7062SOL    HW222086   3.727   0.914   5.147
 7063SOL     OW22087   0.160   1.060   1.582
 7063SOL    HW122088   0.106   1.137   1.547
 7063SOL    HW222089   0.257   1.084   1.581
 7064SOL     OW22090   3.173   1.484   5.140
 7064SOL    HW122091   3.267   1.496   5.171
 7064SOL    HW222092   3.113   1.479   5.220
 7065SOL     OW22093   3.380   6.807   4.603
 7065SOL    HW122094   3.466   6.825   4.555
 7065SOL    HW222095   3.305   6.850   4.554
 7066SOL     OW22096   3.890   0.814   1.342
 7066SOL    HW122097   3.898   0.903   1.388
 7066SOL    HW222098   3.981   0.784   1.313
 7067SOL     OW22099   2.461   4.573   6.618
 7067SOL    HW122100   2.428   4.526   6.700
 7067SOL    HW222101   2.384   4.593   6.558
 7068SOL     OW22102   4.899   4.490   3.879
 7068SOL    HW122103   4.901   4.552   3.957
 7068SOL    HW222104   4.948   4.406   3.902
 7069SOL     OW22105   4.572   0.638   4.992
 7069SOL    HW122106   4.663   0.606   5.019
 7069SOL    HW222107   4.533   0.693   5.066
 7070SOL     OW22108   0.021   0.851   5.837
 7070SOL    HW122109   7.011   0.911   5.912
 7070SOL    HW222110   6.981   0.768   5.840
 7071SOL     OW22111   4.310   5.431   6.514
 7071SOL    HW122112   4.336   5.351   6.569
 7071SOL    HW222113   4.246   5.488   6.566
 7072SOL     OW22114   0.833   3.970   6.130
 7072SOL    HW122115   0.766   3.942   6.061
 7072SOL    HW222116   0.785   4.004   6.211
 7073SOL     OW22117   4.384   0.846   3.691
 7073SOL    HW122118   4.386   0.821   3.788
 7073SOL    HW222119   4.318   0.788   3.644
 7074SOL     OW22120   6.287   3.669   1.759
 7074SOL    HW122121   6.301   3.616   1.675
 7074SOL    HW222122   6.343   3.751   1.756
 7075SOL     OW22123   2.233   5.455   2.301
 7075SOL    HW122124   2.185   5.407   2.375
 7075SOL    HW222125   2.244   5.394   2.223
 7076SOL     OW22126   5.619   2.425   0.901
 7076SOL    HW122127   5.561   2.502   0.929
 7076SOL    HW222128   5.607   2.407   0.804
 7077SOL     OW22129   3.696   5.976   1.584
 7077SOL    HW122130   3.646   5.942   1.504
 7077SOL    HW222131   3.766   6.041   1.555
 7078SOL     OW22132   6.931   1.691   6.609
 7078SOL    HW122133   7.009   1.671   6.669
 7078SOL    HW222134   6.927   1.623   6.536
 7079SOL     OW22135   2.012   5.451   5.498
 7079SOL    HW122136   2.098   5.467   5.450
 7079SOL    HW222137   1.951   5.398   5.439
 7080SOL     OW22138   4.131   1.614   6.236
 7080SOL    HW122139   4.118   1.709   6.208
 7080SOL    HW222140   4.051   1.560   6.208
 7081SOL     OW22141   2.141   6.501   0.476
 7081SOL    HW122142   2.093   6.506   0.388
 7081SOL    HW222143   2.079   6.530   0.549
 7082SOL     OW22144   0.969   4.654   2.046
 7082SOL    HW122145   0.886   4.600   2.053
 7082SOL    HW222146   1.030   4.631   2.122
 7083SOL     OW22147   5.587   3.205   2.441
 7083SOL    HW122148   5.593   3.238   2.347
 7083SOL    HW222149   5.549   3.112   2.442
 7084SOL     OW22150   1.068   5.286   0.688
 7084SOL    HW122151   0.984   5.244   0.652
 7084SOL    HW222152   1.049   5.380   0.716
 7085SOL     OW22153   0.510   4.020   2.406
 7085SOL    HW122154   0.593   4.014   2.462
 7085SOL    HW222155   0.432   3.987   2.458
 7086SOL     OW22156   4.597   0.731   3.547
 7086SOL    HW122157   4.617   0.642   3.590
 7086SOL    HW222158   4.529   0.779   3.602
 7087SOL     OW22159   5.063   2.988   3.674
 7087SOL    HW122160   5.131   3.013   3.606
 7087SOL    HW222161   5.000   2.921   3.636
 7088SOL     OW22162   6.043   2.757   5.080
 7088SOL    HW122163   5.979   2.738   5.154
 7088SOL    HW222164   6.124   2.699   5.090
 7089SOL     OW22165   2.922   6.055   1.036
 7089SOL    HW122166   2.971   6.042   0.950
 7089SOL    HW222167   2.976   6.017   1.111
 7090SOL     OW22168   4.954   3.736   1.201
 7090SOL    HW122169   4.882   3.732   1.270
 7090SOL    HW222170   4.915   3.713   1.112
 7091SOL     OW22171   6.332   0.827   6.727
 7091SOL    HW122172   6.357   0.874   6.643
 7091SOL    HW222173   6.402   0.761   6.751
 7092SOL     OW22174   3.956   0.007   6.039
 7092SOL    HW122175   3.962   0.082   5.972
 7092SOL    HW222176   3.948   0.045   6.131
 7093SOL     OW22177   4.007   3.011   0.759
 7093SOL    HW122178   4.076   3.076   0.788
 7093SOL    HW222179   4.047   2.920   0.753
 7094SOL     OW22180   4.296   0.867   4.762
 7094SOL    HW122181   4.206   0.902   4.740
 7094SOL    HW222182   4.289   0.772   4.791
 7095SOL     OW22183   2.446   4.749   3.730
 7095SOL    HW122184   2.503   4.724   3.651
 7095SOL    HW222185   2.489   4.715   3.814
 7096SOL     OW22186   6.837   5.689   0.247
 7096SOL    HW122187   6.905   5.678   0.319
 7096SOL    HW222188   6.880   5.725   0.165
 7097SOL     OW22189   4.644   2.080   2.657
 7097SOL    HW122190   4.544   2.082   2.652
 7097SOL    HW222191   4.682   2.107   2.568
 7098SOL     OW22192   0.902   1.432   2.501
 7098SOL    HW122193   0.873   1.522   2.467
 7098SOL    HW222194   0.830   1.395   2.561
 7099SOL     OW22195   3.502   1.965   4.637
 7099SOL    HW122196   3.495   2.029   4.713
 7099SOL    HW222197   3.598   1.937   4.625
 7100SOL     OW22198   0.504   4.098   1.810
 7100SOL    HW122199   0.450   4.043   1.872
 7100SOL    HW222200   0.476   4.194   1.816
 7101SOL     OW22201   2.243   5.096   4.215
 7101SOL    HW122202   2.252   5.054   4.125
 7101SOL    HW222203   2.164   5.157   4.216
 7102SOL     OW22204   5.548   1.755   2.771
 7102SOL    HW122205   5.603   1.809   2.707
 7102SOL    HW222206   5.581   1.661   2.771
 7103SOL     OW22207   6.075   3.758   4.038
 7103SOL    HW122208   5.990   3.790   4.081
 7103SOL    HW222209   6.126   3.703   4.104
 7104SOL     OW22210   5.025   2.608   4.485
 7104SOL    HW122211   4.938   2.598   4.533
 7104SOL    HW222212   5.007   2.638   4.391
 7105SOL     OW22213   3.143   3.899   1.903
 7105SOL    HW122214   3.195   3.953   1.970
 7105SOL    HW222215   3.075   3.844   1.951
 7106SOL     OW22216   2.839   2.272   2.536
 7106SOL    HW122217   2.911   2.208   2.507
 7106SOL    HW222218   2.826   2.341   2.464
 7107SOL     OW22219   4.162   0.816   0.394
 7107SOL    HW122220   4.234   0.884   0.407
 7107SOL    HW222221   4.191   0.729   0.433
 7108SOL     OW22222   3.185   6.628   1.977
 7108SOL    HW122223   3.137   6.676   1.903
 7108SOL    HW222224   3.216   6.538   1.944
 7109SOL     OW22225   2.866   4.713   5.624
 7109SOL    HW122226   2.910   4.754   5.703
 7109SOL    HW222227   2.793   4.773   5.591
 7110SOL     OW22228   2.734   5.819   5.801
 7110SOL    HW122229   2.729   5.760   5.881
 7110SOL    HW222230   2.773   5.768   5.724
 7111SOL     OW22231   6.699   0.940   4.984
 7111SOL    HW122232   6.694   0.931   4.885
 7111SOL    HW222233   6.624   0.996   5.018
 7112SOL     OW22234   6.461   4.851   5.670
 7112SOL    HW122235   6.536   4.868   5.606
 7112SOL    HW222236   6.452   4.928   5.733
 7113SOL     OW22237   3.433   0.145   5.208
 7113SOL    HW122238   3.389   0.220   5.257
 7113SOL    HW222239   3.442   0.169   5.111
 7114SOL     OW22240   5.301   4.335   0.436
 7114SOL    HW122241   5.328   4.376   0.349
 7114SOL    HW222242   5.232   4.264   0.420
 7115SOL     OW22243   4.793   2.640   5.538
 7115SOL    HW122244   4.807   2.736   5.517
 7115SOL    HW222245   4.853   2.583   5.481
 7116SOL     OW22246   6.397   5.403   4.834
 7116SOL    HW122247   6.350   5.356   4.760
 7116SOL    HW222248   6.447   5.481   4.797
 7117SOL     OW22249   4.228   0.244   3.329
 7117SOL    HW122250   4.273   0.233   3.417
 7117SOL    HW222251   4.218   0.342   3.308
 7118SOL     OW22252   4.554   4.159   5.768
 7118SOL    HW122253   4.653   4.144   5.769
 7118SOL    HW222254   4.522   4.177   5.861
 7119SOL     OW22255   2.673   6.712   4.392
 7119SOL    HW122256   2.586   6.688   4.348
 7119SOL    HW222257   2.655   6.772   4.470
 7120SOL     OW22258   4.332   1.639   2.236
 7120SOL    HW122259   4.299   1.565   2.294
 7120SOL    HW222260   4.263   1.712   2.233
 7121SOL     OW22261   1.239   6.118   1.925
 7121SOL    HW122262   1.236   6.210   1.964
 7121SOL    HW222263   1.145   6.085   1.912
 7122SOL     OW22264   3.264   1.912   6.484
 7122SOL    HW122265   3.275   1.867   6.396
 7122SOL    HW222266   3.196   1.863   6.539
 7123SOL     OW22267   5.073   4.564   6.790
 7123SOL    HW122268   5.071   4.523   6.699
 7123SOL    HW222269   5.137   4.514   6.848
 7124SOL     OW22270   2.915   2.961   6.575
 7124SOL    HW122271   2.914   2.871   6.618
 7124SOL    HW222272   2.979   2.961   6.499
 7125SOL     OW22273   1.136   6.382   1.497
 7125SOL    HW122274   1.087   6.304   1.460
 7125SOL    HW222275   1.161   6.444   1.423
 7126SOL     OW22276   3.973   5.013   1.188
 7126SOL    HW122277   3.904   5.060   1.243
 7126SOL    HW222278   3.929   4.963   1.114
 7127SOL     OW22279   3.119   6.761   5.366
 7127SOL    HW122280   3.162   6.850   5.349
 7127SOL    HW222281   3.031   6.775   5.411
 7128SOL     OW22282   3.176   4.429   0.285
 7128SOL    HW122283   3.203   4.335   0.264
 7128SOL    HW222284   3.171   4.482   0.200
 7129SOL     OW22285   6.688   1.318   0.182
 7129SOL    HW122286   6.719   1.246   0.244
 7129SOL    HW222287   6.763   1.343   0.120
 7130SOL     OW22288   3.453   0.362   4.072
 7130SOL    HW122289   3.462   0.371   4.171
 7130SOL    HW222290   3.357   0.353   4.048
 7131SOL     OW22291   2.186   1.493   2.953
 7131SOL    HW122292   2.100   1.521   2.997
 7131SOL    HW222293   2.172   1.486   2.854
 7132SOL     OW22294   5.635   4.505   1.560
 7132SOL    HW122295   5.644   4.604   1.564
 7132SOL    HW222296   5.613   4.469   1.650
 7133SOL     OW22297   3.632   5.947   2.269
 7133SOL    HW122298   3.538   5.976   2.286
 7133SOL    HW222299   3.655   5.871   2.329
 7134SOL     OW22300   4.809   4.735   0.082
 7134SOL    HW122301   4.812   4.659   0.017
 7134SOL    HW222302   4.861   4.812   0.044
 7135SOL     OW22303   2.204   4.410   1.564
 7135SOL    HW122304   2.288   4.408   1.618
 7135SOL    HW222305   2.125   4.407   1.626
 7136SOL     OW22306   1.424   3.072   2.348
 7136SOL    HW122307   1.356   3.135   2.311
 7136SOL    HW222308   1.408   2.981   2.311
 7137SOL     OW22309   1.818   0.236   2.107
 7137SOL    HW122310   1.898   0.227   2.167
 7137SOL    HW222311   1.754   0.162   2.125
 7138SOL     OW22312   6.709   3.377   6.910
 7138SOL    HW122313   6.727   3.379   6.812
 7138SOL    HW222314   6.686   3.469   6.943
 7139SOL     OW22315   5.763   6.123   1.270
 7139SOL    HW122316   5.713   6.208   1.258
 7139SOL    HW222317   5.701   6.052   1.302
 7140SOL     OW22318   0.040   5.327   0.636
 7140SOL    HW122319   0.074   5.233   0.627
 7140SOL    HW222320   6.990   5.345   0.563
 7141SOL     OW22321   2.810   1.584   0.968
 7141SOL    HW122322   2.849   1.622   1.052
 7141SOL    HW222323   2.865   1.506   0.939
 7142SOL     OW22324   4.543   6.713   5.823
 7142SOL    HW122325   4.542   6.768   5.906
 7142SOL    HW222326   4.551   6.616   5.847
 7143SOL     OW22327   3.561   2.936   5.901
 7143SOL    HW122328   3.474   2.982   5.883
 7143SOL    HW222329   3.618   2.940   5.819
 7144SOL     OW22330   6.213   1.178   5.668
 7144SOL    HW122331   6.125   1.213   5.700
 7144SOL    HW222332   6.205   1.080   5.649
 7145SOL     OW22333   6.910   2.917   6.085
 7145SOL    HW122334   6.940   2.853   6.013
 7145SOL    HW222335   6.979   2.988   6.097
 7146SOL     OW22336   0.094   1.504   4.710
 7146SOL    HW122337   0.124   1.563   4.635
 7146SOL    HW222338   0.063   1.561   4.786
 7147SOL     OW22339   6.895   6.783   0.915
 7147SOL    HW122340   6.907   6.853   0.985
 7147SOL    HW222341   6.871   6.696   0.958
 7148SOL     OW22342   5.291   6.520   0.542
 7148SOL    HW122343   5.211   6.526   0.481
 7148SOL    HW222344   5.323   6.426   0.546
 7149SOL     OW22345   5.771   4.141   6.178
 7149SOL    HW122346   5.857   4.188   6.198
 7149SOL    HW222347   5.788   4.043   6.171
 7150SOL     OW22348   2.896   2.214   0.165
 7150SOL    HW122349   2.820   2.231   0.227
 7150SOL    HW222350   2.930   2.120   0.179
 7151SOL     OW22351   5.581   1.980   0.361
 7151SOL    HW122352   5.515   1.935   0.421
 7151SOL    HW222353   5.633   1.911   0.310
 7152SOL     OW22354   5.145   0.286   5.349
 7152SOL    HW122355   5.078   0.323   5.285
 7152SOL    HW222356   5.237   0.309   5.318
 7153SOL     OW22357   4.782   5.480   1.010
 7153SOL    HW122358   4.801   5.428   1.094
 7153SOL    HW222359   4.756   5.417   0.937
 7154SOL     OW22360   4.853   0.600   1.718
 7154SOL    HW122361   4.882   0.625   1.811
 7154SOL    HW222362   4.817   0.681   1.672
 7155SOL     OW22363   2.334   0.140   1.386
 7155SOL    HW122364   2.378   0.069   1.331
 7155SOL    HW222365   2.360   0.130   1.481
 7156SOL     OW22366   6.380   3.422   4.805
 7156SOL    HW122367   6.354   3.467   4.720
 7156SOL    HW222368   6.444   3.348   4.785
 7157SOL     OW22369   6.851   3.730   4.946
 7157SOL    HW122370   6.844   3.818   4.900
 7157SOL    HW222371   6.781   3.668   4.910
 7158SOL     OW22372   4.890   0.273   3.898
 7158SOL    HW122373   4.796   0.298   3.923
 7158SOL    HW222374   4.954   0.327   3.951
 7159SOL     OW22375   0.314   6.603   3.207
 7159SOL    HW122376   0.269   6.600   3.118
 7159SOL    HW222377   0.404   6.560   3.201
 7160SOL     OW22378   5.935   6.615   2.705
 7160SOL    HW122379   5.975   6.524   2.698
 7160SOL    HW222380   5.862   6.624   2.638
 7161SOL     OW22381   3.627   3.474   2.055
 7161SOL    HW122382   3.556   3.544   2.053
 7161SOL    HW222383   3.596   3.393   2.005
 7162SOL     OW22384   0.548   6.408   0.494
 7162SOL    HW122385   0.607   6.346   0.442
 7162SOL    HW222386   0.538   6.374   0.588
 7163SOL     OW22387   6.903   6.946   0.035
 7163SOL    HW122388   6.812   6.973   0.065
 7163SOL    HW222389   6.972   6.994   0.088
 7164SOL     OW22390   1.853   6.955   0.073
 7164SOL    HW122391   1.830   0.031   0.041
 7164SOL    HW222392   1.768   6.904   0.089
 7165SOL     OW22393   4.417   2.218   6.300
 7165SOL    HW122394   4.474   2.201   6.380
 7165SOL    HW222395   4.457   2.291   6.244
 7166SOL     OW22396   6.523   6.044   5.129
 7166SOL    HW122397   6.467   6.065   5.049
 7166SOL    HW222398   6.559   6.129   5.167
 7167SOL     OW22399   0.420   3.254   5.461
 7167SOL    HW122400   0.494   3.191   5.485
 7167SOL    HW222401   0.433   3.340   5.509
 7168SOL     OW22402   1.307   0.545   2.418
 7168SOL    HW122403   1.307   0.488   2.501
 7168SOL    HW222404   1.231   0.518   2.359
 7169SOL     OW22405   1.702   4.470   5.927
 7169SOL    HW122406   1.683   4.411   6.005
 7169SOL    HW222407   1.620   4.478   5.870
 7170SOL     OW22408   3.984   2.243   1.210
 7170SOL    HW122409   3.943   2.321   1.258
 7170SOL    HW222410   3.928   2.161   1.225
 7171SOL     OW22411   0.287   5.096   0.990
 7171SOL    HW122412   0.299   5.194   0.975
 7171SOL    HW222413   0.314   5.073   1.084
 7172SOL     OW22414   0.768   2.549   3.312
 7172SOL    HW122415   0.781   2.544   3.411
 7172SOL    HW222416   0.737   2.641   3.287
 7173SOL     OW22417   3.517   5.481   4.672
 7173SOL    HW122418   3.601   5.468   4.724
 7173SOL    HW222419   3.452   5.536   4.725
 7174SOL     OW22420   6.474   3.656   2.252
 7174SOL    HW122421   6.470   3.749   2.215
 7174SOL    HW222422   6.462   3.590   2.177
 7175SOL     OW22423   6.650   3.152   5.800
 7175SOL    HW122424   6.686   3.142   5.893
 7175SOL    HW222425   6.553   3.130   5.798
 7176SOL     OW22426   6.668   1.528   6.732
 7176SOL    HW122427   6.701   1.570   6.817
 7176SOL    HW222428   6.671   1.596   6.658
 7177SOL     OW22429   0.976   5.780   3.013
 7177SOL    HW122430   0.942   5.709   2.950
 7177SOL    HW222431   1.065   5.753   3.049
 7178SOL     OW22432   1.217   6.593   5.632
 7178SOL    HW122433   1.239   6.497   5.614
 7178SOL    HW222434   1.219   6.609   5.730
 7179SOL     OW22435   4.795   4.503   5.735
 7179SOL    HW122436   4.763   4.507   5.640
 7179SOL    HW222437   4.877   4.560   5.745
 7180SOL     OW22438   0.267   2.663   1.567
 7180SOL    HW122439   0.354   2.616   1.578
 7180SOL    HW222440   0.207   2.640   1.644
 7181SOL     OW22441   3.193   0.147   0.207
 7181SOL    HW122442   3.219   0.066   0.260
 7181SOL    HW222443   3.232   0.229   0.249
 7182SOL     OW22444   1.992   1.062   3.040
 7182SOL    HW122445   2.071   1.087   3.096
 7182SOL    HW222446   1.985   0.962   3.035
 7183SOL     OW22447   1.736   0.209   1.502
 7183SOL    HW122448   1.646   0.190   1.543
 7183SOL    HW222449   1.804   0.148   1.541
 7184SOL     OW22450   0.271   1.084   3.505
 7184SOL    HW122451   0.176   1.062   3.526
 7184SOL    HW222452   0.324   1.000   3.496
 7185SOL     OW22453   4.195   0.701   3.470
 7185SOL    HW122454   4.161   0.756   3.394
 7185SOL    HW222455   4.118   0.668   3.525
 7186SOL     OW22456   6.446   1.363   6.694
 7186SOL    HW122457   6.387   1.437   6.725
 7186SOL    HW222458   6.526   1.400   6.648
 7187SOL     OW22459   3.617   3.488   4.097
 7187SOL    HW122460   3.602   3.409   4.157
 7187SOL    HW222461   3.628   3.570   4.153
 7188SOL     OW22462   5.093   4.577   0.123
 7188SOL    HW122463   5.169   4.514   0.106
 7188SOL    HW222464   5.015   4.527   0.159
 7189SOL     OW22465   6.896   2.089   5.831
 7189SOL    HW122466   6.862   2.170   5.879
 7189SOL    HW222467   6.824   2.020   5.827
 7190SOL     OW22468   6.009   6.078   0.598
 7190SOL    HW122469   6.003   5.979   0.589
 7190SOL    HW222470   6.052   6.101   0.686
 7191SOL     OW22471   0.140   5.040   2.697
 7191SOL    HW122472   0.231   5.006   2.673
 7191SOL    HW222473   0.104   4.988   2.775
 7192SOL     OW22474   3.124   3.890   5.348
 7192SOL    HW122475   3.178   3.813   5.315
 7192SOL    HW222476   3.054   3.856   5.412
 7193SOL     OW22477   3.737   1.387   3.595
 7193SOL    HW122478   3.732   1.290   3.617
 7193SOL    HW222479   3.779   1.399   3.504
 7194SOL     OW22480   3.524   2.229   5.234
 7194SOL    HW122481   3.619   2.208   5.258
 7194SOL    HW222482   3.484   2.286   5.306
 7195SOL     OW22483   0.693   4.238   5.797
 7195SOL    HW122484   0.719   4.247   5.893
 7195SOL    HW222485   0.742   4.160   5.757
 7196SOL     OW22486   3.063   3.899   1.650
 7196SOL    HW122487   3.139   3.951   1.613
 7196SOL    HW222488   3.087   3.863   1.740
 7197SOL     OW22489   3.597   4.558   6.416
 7197SOL    HW122490   3.529   4.618   6.458
 7197SOL    HW222491   3.673   4.613   6.382
 7198SOL     OW22492   0.913   0.296   2.180
 7198SOL    HW122493   0.889   0.216   2.234
 7198SOL    HW222494   1.000   0.333   2.211
 7199SOL     OW22495   5.862   0.966   3.072
 7199SOL    HW122496   5.881   0.977   2.974
 7199SOL    HW222497   5.948   0.951   3.121
 7200SOL     OW22498   0.797   3.486   6.776
 7200SOL    HW122499   0.708   3.530   6.762
 7200SOL    HW222500   0.868   3.556   6.777
 7201SOL     OW22501   5.498   6.174   4.481
 7201SOL    HW122502   5.431   6.151   4.552
 7201SOL    HW222503   5.589   6.144   4.511
 7202SOL     OW22504   4.905   0.703   6.280
 7202SOL    HW122505   4.843   0.629   6.252
 7202SOL    HW222506   4.991   0.695   6.229
 7203SOL     OW22507   0.704   1.821   1.232
 7203SOL    HW122508   0.656   1.738   1.259
 7203SOL    HW222509   0.712   1.883   1.310
 7204SOL     OW22510   6.081   0.575   3.413
 7204SOL    HW122511   6.164   0.563   3.467
 7204SOL    HW222512   6.104   0.615   3.324
 7205SOL     OW22513   3.172   1.476   4.162
 7205SOL    HW122514   3.256   1.424   4.150
 7205SOL    HW222515   3.176   1.526   4.249
 7206SOL     OW22516   2.086   3.269   6.420
 7206SOL    HW122517   2.048   3.188   6.465
 7206SOL    HW222518   2.088   3.255   6.321
 7207SOL     OW22519   1.683   1.727   3.351
 7207SOL    HW122520   1.651   1.808   3.301
 7207SOL    HW222521   1.613   1.699   3.417
 7208SOL     OW22522   3.280   6.883   3.292
 7208SOL    HW122523   3.361   6.865   3.348
 7208SOL    HW222524   3.292   6.843   3.202
 7209SOL     OW22525   3.841   0.274   2.306
 7209SOL    HW122526   3.899   0.255   2.228
 7209SOL    HW222527   3.891   0.257   2.391
 7210SOL     OW22528   3.272   1.210   4.335
 7210SOL    HW122529   3.318   1.289   4.294
 7210SOL    HW222530   3.313   1.126   4.300
 7211SOL     OW22531   4.220   6.172   5.947
 7211SOL    HW122532   4.137   6.135   5.988
 7211SOL    HW222533   4.211   6.271   5.936
 7212SOL     OW22534   0.659   5.579   4.834
 7212SOL    HW122535   0.683   5.663   4.882
 7212SOL    HW222536   0.629   5.510   4.899
 7213SOL     OW22537   4.530   2.548   0.219
 7213SOL    HW122538   4.446   2.504   0.251
 7213SOL    HW222539   4.508   2.634   0.173
 7214SOL     OW22540   6.431   1.308   5.969
 7214SOL    HW122541   6.524   1.345   5.965
 7214SOL    HW222542   6.431   1.223   6.023
 7215SOL     OW22543   6.045   1.832   2.610
 7215SOL    HW122544   6.107   1.847   2.688
 7215SOL    HW222545   5.979   1.907   2.606
 7216SOL     OW22546   5.634   6.729   3.730
 7216SOL    HW122547   5.606   6.810   3.678
 7216SOL    HW222548   5.637   6.751   3.827
 7217SOL     OW22549   1.261   3.356   3.515
 7217SOL    HW122550   1.229   3.307   3.596
 7217SOL    HW222551   1.360   3.370   3.522
 7218SOL     OW22552   6.669   2.604   5.249
 7218SOL    HW122553   6.726   2.567   5.321
 7218SOL    HW222554   6.574   2.608   5.280
 7219SOL     OW22555   2.792   6.021   1.932
 7219SOL    HW122556   2.701   5.978   1.929
 7219SOL    HW222557   2.786   6.114   1.894
 7220SOL     OW22558   6.628   3.663   3.458
 7220SOL    HW122559   6.684   3.630   3.534
 7220SOL    HW222560   6.622   3.762   3.461
 7221SOL     OW22561   4.381   5.059   3.614
 7221SOL    HW122562   4.464   5.055   3.559
 7221SOL    HW222563   4.385   4.991   3.687
 7222SOL     OW22564   6.592   6.096   4.111
 7222SOL    HW122565   6.493   6.081   4.105
 7222SOL    HW222566   6.629   6.113   4.020
 7223SOL     OW22567   6.715   6.171   1.979
 7223SOL    HW122568   6.806   6.135   1.958
 7223SOL    HW222569   6.722   6.240   2.051
 7224SOL     OW22570   4.814   2.395   2.705
 7224SOL    HW122571   4.780   2.484   2.737
 7224SOL    HW222572   4.867   2.409   2.621
 7225SOL     OW22573   0.719   5.449   0.025
 7225SOL    HW122574   0.670   5.469   6.957
 7225SOL    HW222575   0.656   5.410   0.092
 7226SOL     OW22576   6.057   6.308   0.135
 7226SOL    HW122577   6.021   6.272   0.049
 7226SOL    HW222578   6.042   6.407   0.139
 7227SOL     OW22579   1.965   1.016   2.249
 7227SOL    HW122580   2.064   1.034   2.253
 7227SOL    HW222581   1.934   0.977   2.335
 7228SOL     OW22582   5.789   3.154   2.877
 7228SOL    HW122583   5.822   3.174   2.785
 7228SOL    HW222584   5.691   3.172   2.883
 7229SOL     OW22585   6.378   0.301   5.107
 7229SOL    HW122586   6.468   0.277   5.142
 7229SOL    HW222587   6.351   0.235   5.036
 7230SOL     OW22588   1.998   4.733   5.122
 7230SOL    HW122589   2.037   4.825   5.133
 7230SOL    HW222590   1.902   4.734   5.149
 7231SOL     OW22591   3.988   3.641   6.016
 7231SOL    HW122592   3.939   3.714   5.968
 7231SOL    HW222593   3.948   3.628   6.107
 7232SOL     OW22594   4.242   6.361   3.347
 7232SOL    HW122595   4.240   6.266   3.379
 7232SOL    HW222596   4.319   6.409   3.388
 7233SOL     OW22597   0.386   1.518   6.233
 7233SOL    HW122598   0.287   1.513   6.224
 7233SOL    HW222599   0.416   1.457   6.306
 7234SOL     OW22600   5.338   4.845   2.844
 7234SOL    HW122601   5.419   4.848   2.904
 7234SOL    HW222602   5.311   4.750   2.829
 7235SOL     OW22603   6.253   0.885   2.036
 7235SOL    HW122604   6.249   0.932   1.948
 7235SOL    HW222605   6.338   0.832   2.042
 7236SOL     OW22606   0.900   3.800   2.957
 7236SOL    HW122607   0.873   3.768   2.866
 7236SOL    HW222608   0.855   3.745   3.027
 7237SOL     OW22609   5.322   1.563   0.189
 7237SOL    HW122610   5.232   1.526   0.211
 7237SOL    HW222611   5.376   1.493   0.141
 7238SOL     OW22612   4.219   3.483   0.093
 7238SOL    HW122613   4.213   3.582   0.076
 7238SOL    HW222614   4.277   3.441   0.023
 7239SOL     OW22615   5.615   2.625   1.824
 7239SOL    HW122616   5.595   2.723   1.825
 7239SOL    HW222617   5.682   2.606   1.752
 7240SOL     OW22618   0.129   1.594   0.219
 7240SOL    HW122619   0.073   1.531   0.273
 7240SOL    HW222620   0.220   1.599   0.260
 7241SOL     OW22621   1.664   0.058   2.426
 7241SOL    HW122622   1.640   0.016   2.338
 7241SOL    HW222623   1.580   0.079   2.475
 7242SOL     OW22624   6.440   4.231   5.229
 7242SOL    HW122625   6.493   4.312   5.203
 7242SOL    HW222626   6.430   4.228   5.328
 7243SOL     OW22627   5.676   4.570   6.128
 7243SOL    HW122628   5.618   4.514   6.069
 7243SOL    HW222629   5.734   4.511   6.185
 7244SOL     OW22630   6.779   5.868   6.745
 7244SOL    HW122631   6.848   5.808   6.786
 7244SOL    HW222632   6.766   5.842   6.649
 7245SOL     OW22633   1.568   2.394   6.780
 7245SOL    HW122634   1.614   2.436   6.858
 7245SOL    HW222635   1.539   2.301   6.804
 7246SOL     OW22636   4.235   6.929   3.809
 7246SOL    HW122637   4.163   6.896   3.870
 7246SOL    HW222638   4.248   6.863   3.735
 7247SOL     OW22639   3.173   3.828   4.551
 7247SOL    HW122640   3.232   3.777   4.489
 7247SOL    HW222641   3.188   3.926   4.540
 7248SOL     OW22642   2.834   1.823   5.593
 7248SOL    HW122643   2.918   1.861   5.631
 7248SOL    HW222644   2.816   1.734   5.634
 7249SOL     OW22645   3.248   5.694   2.701
 7249SOL    HW122646   3.155   5.729   2.692
 7249SOL    HW222647   3.313   5.770   2.706
 7250SOL     OW22648   5.387   5.576   5.720
 7250SOL    HW122649   5.447   5.602   5.795
 7250SOL    HW222650   5.442   5.554   5.639
 7251SOL     OW22651   0.798   5.838   4.472
 7251SOL    HW122652   0.700   5.832   4.452
 7251SOL    HW222653   0.848   5.769   4.418
 7252SOL     OW22654   4.134   3.574   2.054
 7252SOL    HW122655   4.202   3.554   2.124
 7252SOL    HW222656   4.172   3.554   1.964
 7253SOL     OW22657   2.103   5.131   4.839
 7253SOL    HW122658   2.123   5.195   4.913
 7253SOL    HW222659   2.166   5.053   4.844
 7254SOL     OW22660   6.826   3.840   3.975
 7254SOL    HW122661   6.802   3.743   3.980
 7254SOL    HW222662   6.770   3.891   4.040
 7255SOL     OW22663   4.746   3.864   6.949
 7255SOL    HW122664   4.831   3.815   6.932
 7255SOL    HW222665   4.716   3.847   0.027
 7256SOL     OW22666   3.112   6.835   4.240
 7256SOL    HW122667   3.197   6.812   4.194
 7256SOL    HW222668   3.132   6.889   4.322
 7257SOL     OW22669   0.767   1.192   5.168
 7257SOL    HW122670   0.790   1.238   5.083
 7257SOL    HW222671   0.671   1.166   5.167
 7258SOL     OW22672   6.609   2.258   2.206
 7258SOL    HW122673   6.593   2.352   2.237
 7258SOL    HW222674   6.582   2.194   2.278
 7259SOL     OW22675   1.277   4.003   2.729
 7259SOL    HW122676   1.229   3.918   2.711
 7259SOL    HW222677   1.211   4.077   2.740
 7260SOL     OW22678   6.179   3.078   1.117
 7260SOL    HW122679   6.254   3.135   1.083
 7260SOL    HW222680   6.199   2.982   1.095
 7261SOL     OW22681   0.051   4.227   6.863
 7261SOL    HW122682   0.088   4.276   6.942
 7261SOL    HW222683   0.047   4.130   6.883
 7262SOL     OW22684   4.243   1.010   5.018
 7262SOL    HW122685   4.144   0.997   5.009
 7262SOL    HW222686   4.289   0.964   4.943
 7263SOL     OW22687   6.517   5.490   5.608
 7263SOL    HW122688   6.599   5.437   5.587
 7263SOL    HW222689   6.442   5.459   5.550
 7264SOL     OW22690   5.361   1.473   1.297
 7264SOL    HW122691   5.352   1.542   1.226
 7264SOL    HW222692   5.296   1.491   1.370
 7265SOL     OW22693   3.686   0.543   5.687
 7265SOL    HW122694   3.779   0.534   5.652
 7265SOL    HW222695   3.689   0.591   5.775
 7266SOL     OW22696   0.217   0.621   3.151
 7266SOL    HW122697   0.225   0.687   3.076
 7266SOL    HW222698   0.150   0.655   3.218
 7267SOL     OW22699   6.894   4.291   4.653
 7267SOL    HW122700   6.934   4.208   4.692
 7267SOL    HW222701   6.860   4.349   4.727
 7268SOL     OW22702   5.603   6.299   4.268
 7268SOL    HW122703   5.546   6.269   4.345
 7268SOL    HW222704   5.545   6.335   4.196
 7269SOL     OW22705   2.672   5.081   4.440
 7269SOL    HW122706   2.590   5.068   4.384
 7269SOL    HW222707   2.648   5.075   4.537
 7270SOL     OW22708   0.724   0.187   4.548
 7270SOL    HW122709   0.675   0.231   4.624
 7270SOL    HW222710   0.811   0.234   4.535
 7271SOL     OW22711   0.783   4.774   3.271
 7271SOL    HW122712   0.869   4.796   3.225
 7271SOL    HW222713   0.706   4.809   3.217
 7272SOL     OW22714   6.204   3.990   1.711
 7272SOL    HW122715   6.295   3.952   1.700
 7272SOL    HW222716   6.208   4.070   1.771
 7273SOL     OW22717   0.403   1.381   5.322
 7273SOL    HW122718   0.487   1.430   5.301
 7273SOL    HW222719   0.353   1.362   5.237
 7274SOL     OW22720   0.129   4.872   6.147
 7274SOL    HW122721   0.160   4.950   6.202
 7274SOL    HW222722   0.205   4.838   6.092
 7275SOL     OW22723   0.821   5.352   3.748
 7275SOL    HW122724   0.745   5.354   3.813
 7275SOL    HW222725   0.796   5.401   3.665
 7276SOL     OW22726   4.736   6.018   3.589
 7276SOL    HW122727   4.684   5.981   3.513
 7276SOL    HW222728   4.826   6.047   3.557
 7277SOL     OW22729   5.072   0.754   0.687
 7277SOL    HW122730   4.998   0.792   0.742
 7277SOL    HW222731   5.037   0.728   0.597
 7278SOL     OW22732   3.431   2.879   2.361
 7278SOL    HW122733   3.530   2.889   2.369
 7278SOL    HW222734   3.387   2.908   2.445
 7279SOL     OW22735   3.552   6.925   5.989
 7279SOL    HW122736   3.496   6.995   5.945
 7279SOL    HW222737   3.499   6.841   6.001
 7280SOL     OW22738   4.953   1.178   6.199
 7280SOL    HW122739   5.033   1.224   6.159
 7280SOL    HW222740   4.919   1.231   6.276
 7281SOL     OW22741   5.717   1.765   5.988
 7281SOL    HW122742   5.675   1.753   6.078
 7281SOL    HW222743   5.816   1.756   5.995
 7282SOL     OW22744   5.701   6.113   2.282
 7282SOL    HW122745   5.759   6.195   2.279
 7282SOL    HW222746   5.758   6.032   2.289
 7283SOL     OW22747   2.460   1.197   4.072
 7283SOL    HW122748   2.373   1.155   4.096
 7283SOL    HW222749   2.485   1.172   3.978
 7284SOL     OW22750   1.432   1.874   5.258
 7284SOL    HW122751   1.375   1.929   5.198
 7284SOL    HW222752   1.494   1.933   5.310
 7285SOL     OW22753   6.068   5.401   1.635
 7285SOL    HW122754   6.107   5.313   1.660
 7285SOL    HW222755   5.993   5.387   1.570
 7286SOL     OW22756   2.176   3.887   0.593
 7286SOL    HW122757   2.120   3.949   0.649
 7286SOL    HW222758   2.183   3.798   0.638
 7287SOL     OW22759   6.253   1.668   5.273
 7287SOL    HW122760   6.196   1.598   5.317
 7287SOL    HW222761   6.213   1.692   5.184
 7288SOL     OW22762   2.699   6.998   0.289
 7288SOL    HW122763   2.655   6.990   0.378
 7288SOL    HW222764   2.793   6.966   0.294
 7289SOL     OW22765   4.795   2.380   4.349
 7289SOL    HW122766   4.862   2.361   4.277
 7289SOL    HW222767   4.731   2.450   4.317
 7290SOL     OW22768   2.550   5.756   4.241
 7290SOL    HW122769   2.636   5.772   4.289
 7290SOL    HW222770   2.547   5.813   4.159
 7291SOL     OW22771   3.699   4.597   1.467
 7291SOL    HW122772   3.751   4.533   1.523
 7291SOL    HW222773   3.649   4.660   1.527
 7292SOL     OW22774   3.206   0.279   4.946
 7292SOL    HW122775   3.277   0.212   4.922
 7292SOL    HW222776   3.237   0.335   5.022
 7293SOL     OW22777   1.825   1.428   6.573
 7293SOL    HW122778   1.865   1.470   6.654
 7293SOL    HW222779   1.868   1.466   6.491
 7294SOL     OW22780   5.373   5.297   0.195
 7294SOL    HW122781   5.361   5.253   0.284
 7294SOL    HW222782   5.377   5.396   0.206
 7295SOL     OW22783   5.081   0.087   1.424
 7295SOL    HW122784   5.138   0.147   1.480
 7295SOL    HW222785   4.989   0.085   1.462
 7296SOL     OW22786   4.161   5.354   1.558
 7296SOL    HW122787   4.105   5.436   1.552
 7296SOL    HW222788   4.102   5.274   1.569
 7297SOL     OW22789   5.037   6.872   2.159
 7297SOL    HW122790   5.125   6.917   2.147
 7297SOL    HW222791   4.963   6.936   2.138
 7298SOL     OW22792   6.781   3.582   4.051
 7298SOL    HW122793   6.705   3.544   3.999
 7298SOL    HW222794   6.847   3.511   4.071
 7299SOL     OW22795   5.661   3.722   6.532
 7299SOL    HW122796   5.650   3.821   6.543
 7299SOL    HW222797   5.616   3.692   6.448
 7300SOL     OW22798   4.770   5.488   1.674
 7300SOL    HW122799   4.809   5.428   1.744
 7300SOL    HW222800   4.843   5.539   1.629
 7301SOL     OW22801   6.707   1.379   6.055
 7301SOL    HW122802   6.793   1.347   6.014
 7301SOL    HW222803   6.715   1.376   6.154
 7302SOL     OW22804   5.724   1.011   6.522
 7302SOL    HW122805   5.819   1.024   6.549
 7302SOL    HW222806   5.719   0.953   6.441
 7303SOL     OW22807   3.633   0.702   0.724
 7303SOL    HW122808   3.593   0.787   0.759
 7303SOL    HW222809   3.581   0.624   0.759
 7304SOL     OW22810   3.801   3.409   5.258
 7304SOL    HW122811   3.781   3.393   5.161
 7304SOL    HW222812   3.762   3.335   5.312
 7305SOL     OW22813   5.390   1.809   0.496
 7305SOL    HW122814   5.385   1.879   0.566
 7305SOL    HW222815   5.300   1.768   0.483
 7306SOL     OW22816   4.683   4.889   2.268
 7306SOL    HW122817   4.691   4.882   2.168
 7306SOL    HW222818   4.746   4.960   2.301
 7307SOL     OW22819   4.368   6.173   2.165
 7307SOL    HW122820   4.383   6.176   2.066
 7307SOL    HW222821   4.329   6.084   2.190
 7308SOL     OW22822   6.190   0.664   4.392
 7308SOL    HW122823   6.149   0.740   4.342
 7308SOL    HW222824   6.249   0.699   4.464
 7309SOL     OW22825   4.425   5.336   1.830
 7309SOL    HW122826   4.470   5.250   1.807
 7309SOL    HW222827   4.403   5.386   1.746
 7310SOL     OW22828   1.918   5.812   1.693
 7310SOL    HW122829   1.936   5.910   1.702
 7310SOL    HW222830   1.929   5.768   1.782
 7311SOL     OW22831   2.705   2.058   2.374
 7311SOL    HW122832   2.667   1.966   2.369
 7311SOL    HW222833   2.665   2.106   2.453
 7312SOL     OW22834   0.033   2.195   6.198
 7312SOL    HW122835   6.968   2.222   6.147
 7312SOL    HW222836   0.018   2.211   6.296
 7313SOL     OW22837   3.659   2.525   6.183
 7313SOL    HW122838   3.693   2.472   6.105
 7313SOL    HW222839   3.724   2.597   6.207
 7314SOL     OW22840   1.178   2.900   4.409
 7314SOL    HW122841   1.105   2.968   4.415
 7314SOL    HW222842   1.185   2.851   4.496
 7315SOL     OW22843   6.890   0.603   5.882
 7315SOL    HW122844   6.867   0.577   5.788
 7315SOL    HW222845   6.960   0.541   5.918
 7316SOL     OW22846   4.020   3.181   5.081
 7316SOL    HW122847   3.981   3.090   5.096
 7316SOL    HW222848   4.050   3.219   5.169
 7317SOL     OW22849   2.904   1.186   4.036
 7317SOL    HW122850   2.927   1.170   4.131
 7317SOL    HW222851   2.918   1.283   4.013
 7318SOL     OW22852   1.435   1.568   1.089
 7318SOL    HW122853   1.444   1.661   1.126
 7318SOL    HW222854   1.521   1.518   1.104
 7319SOL     OW22855   0.169   3.849   6.207
 7319SOL    HW122856   0.261   3.887   6.193
 7319SOL    HW222857   0.156   3.829   6.304
 7320SOL     OW22858   7.011   1.954   2.394
 7320SOL    HW122859   0.067   1.922   2.332
 7320SOL    HW222860   0.003   2.053   2.406
 7321SOL     OW22861   2.885   1.587   4.335
 7321SOL    HW122862   2.961   1.560   4.276
 7321SOL    HW222863   2.896   1.545   4.425
 7322SOL     OW22864   0.378   3.559   1.446
 7322SOL    HW122865   0.306   3.625   1.467
 7322SOL    HW222866   0.452   3.568   1.512
 7323SOL     OW22867   2.101   3.993   3.190
 7323SOL    HW122868   2.150   4.010   3.105
 7323SOL    HW222869   2.048   3.909   3.183
 7324SOL     OW22870   5.213   5.337   2.947
 7324SOL    HW122871   5.159   5.321   2.865
 7324SOL    HW222872   5.198   5.263   3.012
 7325SOL     OW22873   2.995   5.966   0.497
 7325SOL    HW122874   2.959   6.032   0.431
 7325SOL    HW222875   3.075   6.005   0.542
 7326SOL     OW22876   2.204   0.841   4.606
 7326SOL    HW122877   2.128   0.883   4.556
 7326SOL    HW222878   2.228   0.754   4.563
 7327SOL     OW22879   1.194   2.759   5.573
 7327SOL    HW122880   1.176   2.663   5.595
 7327SOL    HW222881   1.207   2.769   5.474
 7328SOL     OW22882   2.430   0.266   6.539
 7328SOL    HW122883   2.475   0.330   6.602
 7328SOL    HW222884   2.419   0.177   6.585
 7329SOL     OW22885   4.490   3.546   1.664
 7329SOL    HW122886   4.494   3.634   1.616
 7329SOL    HW222887   4.395   3.525   1.687
 7330SOL     OW22888   4.287   2.327   0.537
 7330SOL    HW122889   4.330   2.238   0.525
 7330SOL    HW222890   4.197   2.315   0.578
 7331SOL     OW22891   4.941   1.456   1.856
 7331SOL    HW122892   4.964   1.492   1.946
 7331SOL    HW222893   5.025   1.446   1.802
 7332SOL     OW22894   3.577   5.794   0.960
 7332SOL    HW122895   3.623   5.712   0.927
 7332SOL    HW222896   3.611   5.874   0.911
 7333SOL     OW22897   0.488   4.677   2.602
 7333SOL    HW122898   0.568   4.618   2.603
 7333SOL    HW222899   0.429   4.656   2.680
 7334SOL     OW22900   3.341   0.129   4.623
 7334SOL    HW122901   3.316   0.216   4.665
 7334SOL    HW222902   3.426   0.094   4.664
 7335SOL     OW22903   2.121   3.217   2.541
 7335SOL    HW122904   2.091   3.215   2.445
 7335SOL    HW222905   2.152   3.310   2.564
 7336SOL     OW22906   1.764   6.275   4.156
 7336SOL    HW122907   1.767   6.281   4.255
 7336SOL    HW222908   1.857   6.279   4.119
 7337SOL     OW22909   4.876   2.525   2.047
 7337SOL    HW122910   4.868   2.616   2.008
 7337SOL    HW222911   4.961   2.518   2.100
 7338SOL     OW22912   6.510   2.950   6.868
 7338SOL    HW122913   6.585   3.015   6.870
 7338SOL    HW222914   6.529   2.879   6.800
 7339SOL     OW22915   1.528   5.869   4.888
 7339SOL    HW122916   1.472   5.787   4.901
 7339SOL    HW222917   1.567   5.898   4.975
 7340SOL     OW22918   2.650   6.729   0.007
 7340SOL    HW122919   2.616   6.714   6.930
 7340SOL    HW222920   2.637   6.825   0.032
 7341SOL     OW22921   6.676   1.641   1.012
 7341SOL    HW122922   6.770   1.611   0.996
 7341SOL    HW222923   6.617   1.608   0.938
 7342SOL     OW22924   0.572   6.290   2.196
 7342SOL    HW122925   0.663   6.248   2.204
 7342SOL    HW222926   0.529   6.259   2.112
 7343SOL     OW22927   6.056   3.012   0.716
 7343SOL    HW122928   5.982   3.025   0.650
 7343SOL    HW222929   6.068   2.914   0.734
 7344SOL     OW22930   2.437   6.096   5.813
 7344SOL    HW122931   2.532   6.120   5.834
 7344SOL    HW222932   2.378   6.128   5.888
 7345SOL     OW22933   3.544   6.027   5.957
 7345SOL    HW122934   3.528   6.110   5.906
 7345SOL    HW222935   3.640   6.022   5.984
 7346SOL     OW22936   3.953   5.060   2.146
 7346SOL    HW122937   3.874   5.002   2.167
 7346SOL    HW222938   3.953   5.082   2.049
 7347SOL     OW22939   6.028   1.386   0.288
 7347SOL    HW122940   6.039   1.300   0.238
 7347SOL    HW222941   5.930   1.404   0.301
 7348SOL     OW22942   6.537   4.860   0.335
 7348SOL    HW122943   6.554   4.777   0.388
 7348SOL    HW222944   6.596   4.862   0.254
 7349SOL     OW22945   3.830   1.636   1.517
 7349SOL    HW122946   3.889   1.582   1.577
 7349SOL    HW222947   3.776   1.699   1.572
 7350SOL     OW22948   3.914   0.986   4.477
 7350SOL    HW122949   3.874   1.038   4.553
 7350SOL    HW222950   3.992   1.036   4.440
 7351SOL     OW22951   2.051   4.453   4.419
 7351SOL    HW122952   2.086   4.526   4.478
 7351SOL    HW222953   2.025   4.374   4.475
 7352SOL     OW22954   6.109   3.574   4.248
 7352SOL    HW122955   6.053   3.528   4.179
 7352SOL    HW222956   6.200   3.533   4.251
 7353SOL     OW22957   6.465   1.143   5.415
 7353SOL    HW122958   6.375   1.099   5.422
 7353SOL    HW222959   6.462   1.215   5.346
 7354SOL     OW22960   0.847   1.711   2.471
 7354SOL    HW122961   0.821   1.728   2.567
 7354SOL    HW222962   0.871   1.797   2.427
 7355SOL     OW22963   3.526   1.590   0.776
 7355SOL    HW122964   3.545   1.500   0.737
 7355SOL    HW222965   3.427   1.604   0.782
 7356SOL     OW22966   4.039   4.140   6.392
 7356SOL    HW122967   4.077   4.177   6.476
 7356SOL    HW222968   3.958   4.192   6.366
 7357SOL     OW22969   5.255   6.604   1.972
 7357SOL    HW122970   5.238   6.594   2.070
 7357SOL    HW222971   5.278   6.515   1.932
 7358SOL     OW22972   5.168   0.412   3.442
 7358SOL    HW122973   5.201   0.480   3.376
 7358SOL    HW222974   5.080   0.442   3.479
 7359SOL     OW22975   4.197   6.569   1.842
 7359SOL    HW122976   4.246   6.584   1.927
 7359SOL    HW222977   4.259   6.581   1.765
 7360SOL     OW22978   2.838   3.762   5.139
 7360SOL    HW122979   2.833   3.854   5.176
 7360SOL    HW222980   2.821   3.764   5.040
 7361SOL     OW22981   6.738   0.379   2.961
 7361SOL    HW122982   6.648   0.342   2.939
 7361SOL    HW222983   6.808   0.313   2.934
 7362SOL     OW22984   3.394   5.670   0.310
 7362SOL    HW122985   3.480   5.647   0.266
 7362SOL    HW222986   3.349   5.586   0.341
 7363SOL     OW22987   4.190   0.805   1.318
 7363SOL    HW122988   4.232   0.801   1.409
 7363SOL    HW222989   4.236   0.875   1.264
 7364SOL     OW22990   6.316   6.289   1.870
 7364SOL    HW122991   6.284   6.209   1.820
 7364SOL    HW222992   6.247   6.361   1.865
 7365SOL     OW22993   4.909   3.611   2.627
 7365SOL    HW122994   4.847   3.685   2.653
 7365SOL    HW222995   4.881   3.526   2.673
 7366SOL     OW22996   2.190   6.938   3.731
 7366SOL    HW122997   2.255   7.006   3.698
 7366SOL    HW222998   2.222   6.847   3.707
 7367SOL     OW22999   4.242   1.040   6.463
 7367SOL    HW123000   4.335   1.041   6.428
 7367SOL    HW223001   4.232   0.967   6.530
 7368SOL     OW23002   3.693   3.210   3.360
 7368SOL    HW123003   3.734   3.244   3.276
 7368SOL    HW223004   3.659   3.286   3.414
 7369SOL     OW23005   5.678   3.735   6.886
 7369SOL    HW123006   5.726   3.674   6.949
 7369SOL    HW223007   5.640   3.681   6.810
 7370SOL     OW23008   1.691   1.515   4.883
 7370SOL    HW123009   1.771   1.563   4.846
 7370SOL    HW223010   1.634   1.482   4.808
 7371SOL     OW23011   3.939   1.170   3.512
 7371SOL    HW123012   3.889   1.121   3.584
 7371SOL    HW223013   3.983   1.103   3.452
 7372SOL     OW23014   5.007   1.135   5.356
 7372SOL    HW123015   4.926   1.085   5.387
 7372SOL    HW223016   5.054   1.082   5.285
 7373SOL     OW23017   6.117   3.070   4.266
 7373SOL    HW123018   6.031   3.058   4.217
 7373SOL    HW223019   6.112   3.024   4.355
 7374SOL     OW23020   0.778   2.391   6.757
 7374SOL    HW123021   0.723   2.370   6.838
 7374SOL    HW223022   0.731   2.460   6.702
 7375SOL     OW23023   1.933   3.599   0.501
 7375SOL    HW123024   2.012   3.610   0.562
 7375SOL    HW223025   1.965   3.574   0.410
 7376SOL     OW23026   6.766   4.491   0.661
 7376SOL    HW123027   6.724   4.518   0.574
 7376SOL    HW223028   6.866   4.491   0.651
 7377SOL     OW23029   2.466   5.607   1.185
 7377SOL    HW123030   2.522   5.654   1.254
 7377SOL    HW223031   2.504   5.517   1.166
 7378SOL     OW23032   1.810   4.786   5.596
 7378SOL    HW123033   1.855   4.864   5.639
 7378SOL    HW223034   1.872   4.707   5.597
 7379SOL     OW23035   4.640   1.816   2.653
 7379SOL    HW123036   4.625   1.912   2.678
 7379SOL    HW223037   4.590   1.794   2.570
 7380SOL     OW23038   5.174   3.454   1.747
 7380SOL    HW123039   5.255   3.495   1.791
 7380SOL    HW223040   5.142   3.377   1.801
 7381SOL     OW23041   3.579   6.583   1.655
 7381SOL    HW123042   3.559   6.490   1.625
 7381SOL    HW223043   3.660   6.617   1.607
 7382SOL     OW23044   0.108   1.601   6.279
 7382SOL    HW123045   0.104   1.698   6.255
 7382SOL    HW223046   0.015   1.565   6.289
 7383SOL     OW23047   2.198   6.877   1.155
 7383SOL    HW123048   2.172   6.785   1.182
 7383SOL    HW223049   2.292   6.895   1.183
 7384SOL     OW23050   6.980   6.625   0.695
 7384SOL    HW123051   6.992   6.695   0.765
 7384SOL    HW223052   0.048   6.572   0.685
 7385SOL     OW23053   5.837   5.018   3.222
 7385SOL    HW123054   5.840   4.995   3.319
 7385SOL    HW223055   5.890   5.102   3.206
 7386SOL     OW23056   5.417   3.900   6.919
 7386SOL    HW123057   5.495   3.841   6.942
 7386SOL    HW223058   5.358   3.852   6.854
 7387SOL     OW23059   6.452   5.718   4.132
 7387SOL    HW123060   6.382   5.773   4.087
 7387SOL    HW223061   6.486   5.767   4.212
 7388SOL     OW23062   2.254   4.344   2.479
 7388SOL    HW123063   2.326   4.374   2.416
 7388SOL    HW223064   2.194   4.421   2.500
 7389SOL     OW23065   6.544   3.237   0.463
 7389SOL    HW123066   6.591   3.277   0.385
 7389SOL    HW223067   6.448   3.220   0.439
 7390SOL     OW23068   2.841   2.320   3.906
 7390SOL    HW123069   2.928   2.278   3.880
 7390SOL    HW223070   2.851   2.361   3.997
 7391SOL     OW23071   3.310   3.730   3.098
 7391SOL    HW123072   3.333   3.693   3.189
 7391SOL    HW223073   3.260   3.661   3.046
 7392SOL     OW23074   3.214   6.458   0.631
 7392SOL    HW123075   3.118   6.437   0.644
 7392SOL    HW223076   3.261   6.458   0.719
 7393SOL     OW23077   5.103   5.898   3.391
 7393SOL    HW123078   5.041   5.823   3.368
 7393SOL    HW223079   5.197   5.873   3.370
 7394SOL     OW23080   2.173   2.028   6.059
 7394SOL    HW123081   2.139   2.067   6.144
 7394SOL    HW223082   2.224   2.098   6.008
 7395SOL     OW23083   2.608   5.932   1.020
 7395SOL    HW123084   2.626   5.956   1.115
 7395SOL    HW223085   2.693   5.940   0.966
 7396SOL     OW23086   1.228   5.027   2.072
 7396SOL    HW123087   1.177   5.035   2.157
 7396SOL    HW223088   1.316   4.984   2.089
 7397SOL     OW23089   6.147   4.570   4.075
 7397SOL    HW123090   6.197   4.498   4.124
 7397SOL    HW223091   6.147   4.551   3.977
 7398SOL     OW23092   3.139   4.872   2.267
 7398SOL    HW123093   3.217   4.885   2.207
 7398SOL    HW223094   3.085   4.794   2.236
 7399SOL     OW23095   5.964   1.410   5.728
 7399SOL    HW123096   6.031   1.402   5.802
 7399SOL    HW223097   5.907   1.328   5.725
 7400SOL     OW23098   4.414   3.437   5.891
 7400SOL    HW123099   4.375   3.529   5.901
 7400SOL    HW223100   4.412   3.412   5.795
 7401SOL     OW23101   1.498   2.418   3.863
 7401SOL    HW123102   1.538   2.488   3.803
 7401SOL    HW223103   1.536   2.427   3.955
 7402SOL     OW23104   3.302   5.812   4.366
 7402SOL    HW123105   3.394   5.797   4.401
 7402SOL    HW223106   3.301   5.893   4.307
 7403SOL     OW23107   1.823   4.058   3.839
 7403SOL    HW123108   1.761   4.070   3.762
 7403SOL    HW223109   1.781   4.097   3.921
 7404SOL     OW23110   2.639   3.714   0.611
 7404SOL    HW123111   2.632   3.735   0.709
 7404SOL    HW223112   2.642   3.799   0.559
 7405SOL     OW23113   3.864   6.607   5.518
 7405SOL    HW123114   3.867   6.700   5.483
 7405SOL    HW223115   3.773   6.587   5.553
 7406SOL     OW23116   0.812   2.484   4.402
 7406SOL    HW123117   0.820   2.522   4.310
 7406SOL    HW223118   0.745   2.410   4.402
 7407SOL     OW23119   1.412   6.124   5.775
 7407SOL    HW123120   1.458   6.097   5.860
 7407SOL    HW223121   1.373   6.044   5.731
 7408SOL     OW23122   4.382   5.551   4.865
 7408SOL    HW123123   4.399   5.533   4.962
 7408SOL    HW223124   4.284   5.548   4.846
 7409SOL     OW23125   6.694   4.498   1.568
 7409SOL    HW123126   6.705   4.597   1.566
 7409SOL    HW223127   6.644   4.472   1.650
 7410SOL     OW23128   6.552   0.777   1.242
 7410SOL    HW123129   6.550   0.763   1.341
 7410SOL    HW223130   6.484   0.718   1.198
 7411SOL     OW23131   3.505   1.674   5.691
 7411SOL    HW123132   3.521   1.746   5.758
 7411SOL    HW223133   3.468   1.593   5.736
 7412SOL     OW23134   4.059   6.632   0.370
 7412SOL    HW123135   4.145   6.588   0.396
 7412SOL    HW223136   3.984   6.593   0.424
 7413SOL     OW23137   4.873   1.050   3.706
 7413SOL    HW123138   4.807   1.111   3.663
 7413SOL    HW223139   4.870   1.062   3.805
 7414SOL     OW23140   2.732   0.827   4.081
 7414SOL    HW123141   2.785   0.851   3.999
 7414SOL    HW223142   2.716   0.729   4.083
 7415SOL     OW23143   3.936   0.141   6.315
 7415SOL    HW123144   3.946   0.180   6.407
 7415SOL    HW223145   3.852   0.086   6.312
 7416SOL     OW23146   1.732   0.429   1.691
 7416SOL    HW123147   1.753   0.520   1.726
 7416SOL    HW223148   1.633   0.414   1.696
 7417SOL     OW23149   0.555   0.701   2.360
 7417SOL    HW123150   0.583   0.653   2.277
 7417SOL    HW223151   0.455   0.713   2.359
 7418SOL     OW23152   1.478   3.782   6.216
 7418SOL    HW123153   1.545   3.708   6.217
 7418SOL    HW223154   1.506   3.852   6.150
 7419SOL     OW23155   6.759   3.294   4.220
 7419SOL    HW123156   6.798   3.334   4.303
 7419SOL    HW223157   6.799   3.204   4.203
 7420SOL     OW23158   6.718   6.350   0.971
 7420SOL    HW123159   6.720   6.421   1.041
 7420SOL    HW223160   6.663   6.381   0.893
 7421SOL     OW23161   5.715   4.121   1.071
 7421SOL    HW123162   5.804   4.140   1.030
 7421SOL    HW223163   5.720   4.134   1.170
 7422SOL     OW23164   5.397   3.537   1.911
 7422SOL    HW123165   5.465   3.474   1.874
 7422SOL    HW223166   5.437   3.592   1.985
 7423SOL     OW23167   4.715   2.861   6.242
 7423SOL    HW123168   4.658   2.783   6.218
 7423SOL    HW223169   4.811   2.840   6.221
 7424SOL     OW23170   0.743   2.230   3.974
 7424SOL    HW123171   0.756   2.133   3.953
 7424SOL    HW223172   0.731   2.240   4.073
 7425SOL     OW23173   5.714   0.619   1.084
 7425SOL    HW123174   5.713   0.653   1.178
 7425SOL    HW223175   5.621   0.594   1.057
 7426SOL     OW23176   3.331   2.972   5.666
 7426SOL    HW123177   3.280   3.052   5.698
 7426SOL    HW223178   3.271   2.892   5.667
 7427SOL     OW23179   2.559   0.098   3.060
 7427SOL    HW123180   2.645   0.145   3.083
 7427SOL    HW223181   2.522   0.138   2.977
 7428SOL     OW23182   3.102   0.517   4.859
 7428SOL    HW123183   3.076   0.582   4.788
 7428SOL    HW223184   3.192   0.479   4.838
 7429SOL     OW23185   1.062   0.757   2.246
 7429SOL    HW123186   1.057   0.797   2.154
 7429SOL    HW223187   1.096   0.826   2.310
 7430SOL     OW23188   0.188   4.078   2.713
 7430SOL    HW123189   0.093   4.100   2.736
 7430SOL    HW223190   0.229   4.025   2.787
 7431SOL     OW23191   0.793   1.712   4.019
 7431SOL    HW123192   0.764   1.795   4.067
 7431SOL    HW223193   0.717   1.648   4.015
 7432SOL     OW23194   1.745   1.203   3.097
 7432SOL    HW123195   1.832   1.156   3.080
 7432SOL    HW223196   1.756   1.301   3.081
 7433SOL     OW23197   3.253   6.832   6.764
 7433SOL    HW123198   3.268   6.867   6.672
 7433SOL    HW223199   3.200   6.898   6.817
 7434SOL     OW23200   4.336   0.210   3.569
 7434SOL    HW123201   4.423   0.254   3.591
 7434SOL    HW223202   4.340   0.113   3.593
 7435SOL     OW23203   5.164   4.693   3.291
 7435SOL    HW123204   5.090   4.747   3.333
 7435SOL    HW223205   5.158   4.599   3.323
 7436SOL     OW23206   5.385   3.100   5.834
 7436SOL    HW123207   5.420   3.135   5.747
 7436SOL    HW223208   5.295   3.139   5.852
 7437SOL     OW23209   3.315   0.854   1.231
 7437SOL    HW123210   3.272   0.944   1.219
 7437SOL    HW223211   3.251   0.783   1.200
 7438SOL     OW23212   2.211   0.289   6.733
 7438SOL    HW123213   2.268   0.313   6.655
 7438SOL    HW223214   2.151   0.212   6.709
 7439SOL     OW23215   1.051   4.601   6.172
 7439SOL    HW123216   1.024   4.566   6.082
 7439SOL    HW223217   1.134   4.656   6.162
 7440SOL     OW23218   5.397   3.442   3.962
 7440SOL    HW123219   5.299   3.447   3.939
 7440SOL    HW223220   5.428   3.348   3.953
 7441SOL     OW23221   4.581   5.857   0.950
 7441SOL    HW123222   4.593   5.801   1.033
 7441SOL    HW223223   4.530   5.803   0.882
 7442SOL     OW23224   5.778   1.284   6.184
 7442SOL    HW123225   5.805   1.209   6.123
 7442SOL    HW223226   5.859   1.337   6.210
 7443SOL     OW23227   6.924   0.427   1.619
 7443SOL    HW123228   6.958   0.519   1.643
 7443SOL    HW223229   7.000   0.370   1.590
 7444SOL     OW23230   1.432   6.461   6.835
 7444SOL    HW123231   1.400   6.469   6.929
 7444SOL    HW223232   1.430   6.552   6.791
 7445SOL     OW23233   3.626   5.667   2.325
 7445SOL    HW123234   3.667   5.604   2.259
 7445SOL    HW223235   3.536   5.632   2.352
 7446SOL     OW23236   5.730   5.060   0.007
 7446SOL    HW123237   5.711   5.097   0.099
 7446SOL    HW223238   5.766   4.967   0.016
 7447SOL     OW23239   1.024   5.269   1.025
 7447SOL    HW123240   1.069   5.234   0.943
 7447SOL    HW223241   0.929   5.237   1.027
 7448SOL     OW23242   4.478   5.034   6.792
 7448SOL    HW123243   4.571   5.015   6.824
 7448SOL    HW223244   4.436   4.949   6.760
 7449SOL     OW23245   6.052   4.174   6.139
 7449SOL    HW123246   6.123   4.245   6.142
 7449SOL    HW223247   6.047   4.135   6.047
 7450SOL     OW23248   5.918   2.330   6.598
 7450SOL    HW123249   5.995   2.393   6.601
 7450SOL    HW223250   5.941   2.251   6.541
 7451SOL     OW23251   4.582   4.382   3.145
 7451SOL    HW123252   4.625   4.299   3.179
 7451SOL    HW223253   4.542   4.433   3.221
 7452SOL     OW23254   6.538   5.325   6.352
 7452SOL    HW123255   6.566   5.330   6.256
 7452SOL    HW223256   6.440   5.305   6.358
 7453SOL     OW23257   4.092   5.883   6.187
 7453SOL    HW123258   4.100   5.814   6.259
 7453SOL    HW223259   4.169   5.946   6.192
 7454SOL     OW23260   3.728   2.175   1.014
 7454SOL    HW123261   3.649   2.236   1.025
 7454SOL    HW223262   3.744   2.125   1.099
 7455SOL     OW23263   6.661   0.514   3.220
 7455SOL    HW123264   6.682   0.611   3.205
 7455SOL    HW223265   6.684   0.462   3.138
 7456SOL     OW23266   2.913   2.143   5.903
 7456SOL    HW123267   2.917   2.119   6.000
 7456SOL    HW223268   2.822   2.123   5.867
 7457SOL     OW23269   1.132   1.345   2.603
 7457SOL    HW123270   1.218   1.329   2.553
 7457SOL    HW223271   1.059   1.364   2.537
 7458SOL     OW23272   0.576   5.380   5.010
 7458SOL    HW123273   0.605   5.298   5.059
 7458SOL    HW223274   0.486   5.408   5.041
 7459SOL     OW23275   6.019   0.088   3.355
 7459SOL    HW123276   6.095   0.071   3.293
 7459SOL    HW223277   6.051   0.139   3.435
 7460SOL     OW23278   0.659   0.687   1.378
 7460SOL    HW123279   0.742   0.651   1.420
 7460SOL    HW223280   0.582   0.625   1.396
 7461SOL     OW23281   2.114   4.627   4.618
 7461SOL    HW123282   2.205   4.609   4.581
 7461SOL    HW223283   2.121   4.657   4.713
 7462SOL     OW23284   1.946   4.681   0.196
 7462SOL    HW123285   1.920   4.588   0.221
 7462SOL    HW223286   1.985   4.682   0.104
 7463SOL     OW23287   4.557   5.049   1.836
 7463SOL    HW123288   4.619   5.046   1.914
 7463SOL    HW223289   4.605   5.083   1.756
 7464SOL     OW23290   5.637   5.685   5.166
 7464SOL    HW123291   5.595   5.597   5.144
 7464SOL    HW223292   5.604   5.716   5.256
 7465SOL     OW23293   1.224   4.024   6.301
 7465SOL    HW123294   1.260   4.070   6.382
 7465SOL    HW223295   1.261   3.931   6.296
 7466SOL     OW23296   0.582   0.272   5.188
 7466SOL    HW123297   0.665   0.233   5.228
 7466SOL    HW223298   0.607   0.352   5.132
 7467SOL     OW23299   0.430   3.750   4.685
 7467SOL    HW123300   0.529   3.743   4.679
 7467SOL    HW223301   0.390   3.741   4.593
 7468SOL     OW23302   5.323   2.625   5.498
 7468SOL    HW123303   5.263   2.587   5.569
 7468SOL    HW223304   5.347   2.719   5.521
 7469SOL     OW23305   0.002   1.747   0.478
 7469SOL    HW123306   0.084   1.742   0.421
 7469SOL    HW223307   6.979   1.839   0.471
 7470SOL     OW23308   5.464   3.173   3.889
 7470SOL    HW123309   5.443   3.101   3.955
 7470SOL    HW223310   5.387   3.184   3.826
 7471SOL     OW23311   3.715   6.934   6.823
 7471SOL    HW123312   3.742   6.946   6.727
 7471SOL    HW223313   3.790   6.964   6.883
 7472SOL     OW23314   0.687   0.234   5.736
 7472SOL    HW123315   0.668   0.320   5.784
 7472SOL    HW223316   0.614   0.217   5.669
 7473SOL     OW23317   4.013   5.737   3.219
 7473SOL    HW123318   3.965   5.649   3.224
 7473SOL    HW223319   4.069   5.739   3.136
 7474SOL     OW23320   6.131   2.240   0.116
 7474SOL    HW123321   6.173   2.213   0.203
 7474SOL    HW223322   6.032   2.222   0.120
 7475SOL     OW23323   5.048   2.819   0.921
 7475SOL    HW123324   4.959   2.822   0.968
 7475SOL    HW223325   5.082   2.725   0.919
 7476SOL     OW23326   2.339   1.042   2.915
 7476SOL    HW123327   2.303   1.060   3.006
 7476SOL    HW223328   2.338   1.126   2.861
 7477SOL     OW23329   2.337   3.606   5.935
 7477SOL    HW123330   2.417   3.557   5.969
 7477SOL    HW223331   2.287   3.646   6.012
 7478SOL     OW23332   0.167   2.059   5.996
 7478SOL    HW123333   0.108   2.121   6.048
 7478SOL    HW223334   0.154   2.073   5.898
 7479SOL     OW23335   4.612   2.714   1.448
 7479SOL    HW123336   4.706   2.681   1.446
 7479SOL    HW223337   4.603   2.784   1.519
 7480SOL     OW23338   3.709   5.728   2.565
 7480SOL    HW123339   3.679   5.727   2.470
 7480SOL    HW223340   3.791   5.672   2.575
 7481SOL     OW23341   0.264   3.597   5.842
 7481SOL    HW123342   0.341   3.623   5.784
 7481SOL    HW223343   0.179   3.631   5.801
 7482SOL     OW23344   4.995   2.266   4.199
 7482SOL    HW123345   5.068   2.329   4.224
 7482SOL    HW223346   4.997   2.187   4.260
 7483SOL     OW23347   4.923   1.616   6.436
 7483SOL    HW123348   4.885   1.694   6.388
 7483SOL    HW223349   4.976   1.560   6.372
 7484SOL     OW23350   2.873   0.477   4.184
 7484SOL    HW123351   2.923   0.564   4.188
 7484SOL    HW223352   2.900   0.420   4.262
 7485SOL     OW23353   4.057   0.339   6.624
 7485SOL    HW123354   4.073   0.437   6.616
 7485SOL    HW223355   3.959   0.322   6.634
 7486SOL     OW23356   4.459   6.796   0.818
 7486SOL    HW123357   4.460   6.719   0.882
 7486SOL    HW223358   4.496   6.766   0.730
 7487SOL     OW23359   3.114   6.485   3.978
 7487SOL    HW123360   3.057   6.415   3.935
 7487SOL    HW223361   3.209   6.455   3.976
 7488SOL     OW23362   1.379   5.819   4.304
 7488SOL    HW123363   1.289   5.822   4.261
 7488SOL    HW223364   1.370   5.787   4.398
 7489SOL     OW23365   5.322   3.091   6.738
 7489SOL    HW123366   5.345   3.044   6.823
 7489SOL    HW223367   5.290   3.184   6.758
 7490SOL     OW23368   1.940   2.730   2.386
 7490SOL    HW123369   1.873   2.782   2.332
 7490SOL    HW223370   2.016   2.702   2.327
 7491SOL     OW23371   4.362   3.841   0.280
 7491SOL    HW123372   4.333   3.937   0.273
 7491SOL    HW223373   4.302   3.792   0.343
 7492SOL     OW23374   1.686   0.650   3.965
 7492SOL    HW123375   1.642   0.565   3.936
 7492SOL    HW223376   1.632   0.728   3.933
 7493SOL     OW23377   6.416   4.875   4.603
 7493SOL    HW123378   6.326   4.918   4.611
 7493SOL    HW223379   6.450   4.853   4.695
 7494SOL     OW23380   6.109   1.431   2.387
 7494SOL    HW123381   6.086   1.528   2.384
 7494SOL    HW223382   6.029   1.379   2.416
 7495SOL     OW23383   1.281   3.015   5.129
 7495SOL    HW123384   1.371   3.049   5.155
 7495SOL    HW223385   1.266   3.030   5.031
 7496SOL     OW23386   6.190   3.986   2.367
 7496SOL    HW123387   6.120   3.924   2.403
 7496SOL    HW223388   6.263   3.996   2.435
 7497SOL     OW23389   6.189   6.991   1.256
 7497SOL    HW123390   6.182   6.898   1.220
 7497SOL    HW223391   6.163   6.990   1.353
 7498SOL     OW23392   2.800   6.709   3.580
 7498SOL    HW123393   2.762   6.719   3.671
 7498SOL    HW223394   2.798   6.797   3.533
 7499SOL     OW23395   3.151   1.447   3.279
 7499SOL    HW123396   3.112   1.379   3.340
 7499SOL    HW223397   3.086   1.468   3.206
 7500SOL     OW23398   4.007   0.736   4.116
 7500SOL    HW123399   3.924   0.746   4.171
 7500SOL    HW223400   4.000   0.793   4.035
 7501SOL     OW23401   6.543   2.164   4.336
 7501SOL    HW123402   6.599   2.091   4.297
 7501SOL    HW223403   6.520   2.142   4.431
 7502SOL     OW23404   4.504   1.113   3.708
 7502SOL    HW123405   4.468   1.026   3.673
 7502SOL    HW223406   4.580   1.143   3.650
 7503SOL     OW23407   1.360   5.982   1.282
 7503SOL    HW123408   1.411   6.055   1.235
 7503SOL    HW223409   1.285   6.022   1.334
 7504SOL     OW23410   5.832   6.542   4.771
 7504SOL    HW123411   5.813   6.589   4.685
 7504SOL    HW223412   5.909   6.480   4.759
 7505SOL     OW23413   0.974   6.541   5.847
 7505SOL    HW123414   0.986   6.464   5.785
 7505SOL    HW223415   0.929   6.616   5.799
 7506SOL     OW23416   3.281   2.109   4.277
 7506SOL    HW123417   3.284   2.117   4.377
 7506SOL    HW223418   3.374   2.093   4.243
 7507SOL     OW23419   6.744   4.018   5.966
 7507SOL    HW123420   6.710   4.083   6.034
 7507SOL    HW223421   6.666   3.974   5.922
 7508SOL     OW23422   2.943   6.443   0.687
 7508SOL    HW123423   2.882   6.392   0.627
 7508SOL    HW223424   2.918   6.426   0.782
 7509SOL     OW23425   6.115   4.444   2.167
 7509SOL    HW123426   6.057   4.435   2.086
 7509SOL    HW223427   6.147   4.538   2.175
 7510SOL     OW23428   3.209   4.132   1.766
 7510SOL    HW123429   3.153   4.210   1.738
 7510SOL    HW223430   3.151   4.053   1.784
 7511SOL     OW23431   4.512   6.095   3.716
 7511SOL    HW123432   4.607   6.095   3.685
 7511SOL    HW223433   4.504   6.038   3.798
 7512SOL     OW23434   4.220   0.409   0.944
 7512SOL    HW123435   4.129   0.433   0.977
 7512SOL    HW223436   4.287   0.425   1.017
 7513SOL     OW23437   1.006   0.850   1.969
 7513SOL    HW123438   0.952   0.913   2.025
 7513SOL    HW223439   1.100   0.884   1.961
 7514SOL     OW23440   0.374   6.825   0.955
 7514SOL    HW123441   0.428   6.879   0.889
 7514SOL    HW223442   0.363   6.878   1.039
 7515SOL     OW23443   0.281   4.566   5.286
 7515SOL    HW123444   0.318   4.633   5.222
 7515SOL    HW223445   0.218   4.505   5.238
 7516SOL     OW23446   1.923   6.263   5.220
 7516SOL    HW123447   1.916   6.309   5.131
 7516SOL    HW223448   2.018   6.237   5.236
 7517SOL     OW23449   0.482   1.737   6.459
 7517SOL    HW123450   0.568   1.738   6.511
 7517SOL    HW223451   0.499   1.767   6.365
 7518SOL     OW23452   4.079   1.880   4.490
 7518SOL    HW123453   4.050   1.919   4.403
 7518SOL    HW223454   4.175   1.903   4.506
 7519SOL     OW23455   3.586   6.826   4.441
 7519SOL    HW123456   3.573   6.761   4.367
 7519SOL    HW223457   3.674   6.873   4.430
 7520SOL     OW23458   1.913   1.180   0.938
 7520SOL    HW123459   1.892   1.272   0.903
 7520SOL    HW223460   1.998   1.148   0.897
 7521SOL     OW23461   4.235   1.385   5.328
 7521SOL    HW123462   4.144   1.425   5.319
 7521SOL    HW223463   4.304   1.456   5.315
 7522SOL     OW23464   2.042   6.261   4.110
 7522SOL    HW123465   2.105   6.293   4.181
 7522SOL    HW223466   2.052   6.162   4.098
 7523SOL     OW23467   5.792   1.397   0.578
 7523SOL    HW123468   5.788   1.358   0.486
 7523SOL    HW223469   5.800   1.497   0.572
 7524SOL     OW23470   0.480   3.378   5.059
 7524SOL    HW123471   0.491   3.291   5.106
 7524SOL    HW223472   0.416   3.436   5.109
 7525SOL     OW23473   2.589   5.118   5.642
 7525SOL    HW123474   2.665   5.166   5.684
 7525SOL    HW223475   2.546   5.057   5.708
 7526SOL     OW23476   2.068   4.136   0.992
 7526SOL    HW123477   2.058   4.235   0.981
 7526SOL    HW223478   1.978   4.093   0.986
 7527SOL     OW23479   2.677   5.084   2.795
 7527SOL    HW123480   2.654   5.060   2.701
 7527SOL    HW223481   2.743   5.160   2.795
 7528SOL     OW23482   6.005   2.534   6.004
 7528SOL    HW123483   5.914   2.509   5.972
 7528SOL    HW223484   6.035   2.618   5.958
 7529SOL     OW23485   5.891   3.462   4.486
 7529SOL    HW123486   5.833   3.383   4.503
 7529SOL    HW223487   5.846   3.523   4.422
 7530SOL     OW23488   1.180   2.785   3.216
 7530SOL    HW123489   1.128   2.806   3.299
 7530SOL    HW223490   1.117   2.759   3.143
 7531SOL     OW23491   3.846   1.630   3.874
 7531SOL    HW123492   3.868   1.676   3.789
 7531SOL    HW223493   3.824   1.698   3.944
 7532SOL     OW23494   4.994   5.585   6.629
 7532SOL    HW123495   5.081   5.633   6.645
 7532SOL    HW223496   4.938   5.639   6.566
 7533SOL     OW23497   4.455   4.539   1.877
 7533SOL    HW123498   4.533   4.571   1.931
 7533SOL    HW223499   4.458   4.440   1.869
 7534SOL     OW23500   4.357   5.869   5.161
 7534SOL    HW123501   4.291   5.870   5.086
 7534SOL    HW223502   4.321   5.924   5.237
 7535SOL     OW23503   0.327   6.757   4.102
 7535SOL    HW123504   0.253   6.690   4.107
 7535SOL    HW223505   0.317   6.811   4.019
 7536SOL     OW23506   6.727   6.078   3.469
 7536SOL    HW123507   6.666   6.144   3.425
 7536SOL    HW223508   6.822   6.104   3.453
 7537SOL     OW23509   1.677   6.910   2.706
 7537SOL    HW123510   1.587   6.945   2.682
 7537SOL    HW223511   1.722   6.974   2.769
 7538SOL     OW23512   0.127   4.867   0.237
 7538SOL    HW123513   0.120   4.780   0.188
 7538SOL    HW223514   0.218   4.906   0.223
 7539SOL     OW23515   6.501   0.383   4.142
 7539SOL    HW123516   6.545   0.470   4.123
 7539SOL    HW223517   6.506   0.363   4.240
 7540SOL     OW23518   5.296   4.516   3.096
 7540SOL    HW123519   5.311   4.596   3.153
 7540SOL    HW223520   5.198   4.494   3.093
 7541SOL     OW23521   2.522   3.950   6.047
 7541SOL    HW123522   2.531   4.049   6.034
 7541SOL    HW223523   2.510   3.905   5.959
 7542SOL     OW23524   6.347   5.806   4.937
 7542SOL    HW123525   6.353   5.904   4.916
 7542SOL    HW223526   6.256   5.785   4.973
 7543SOL     OW23527   2.352   1.071   0.611
 7543SOL    HW123528   2.388   0.986   0.572
 7543SOL    HW223529   2.423   1.116   0.664
 7544SOL     OW23530   6.107   1.353   4.307
 7544SOL    HW123531   6.127   1.370   4.210
 7544SOL    HW223532   6.080   1.257   4.319
 7545SOL     OW23533   1.472   5.661   5.211
 7545SOL    HW123534   1.554   5.684   5.160
 7545SOL    HW223535   1.497   5.606   5.291
 7546SOL     OW23536   2.412   2.699   1.951
 7546SOL    HW123537   2.393   2.774   1.887
 7546SOL    HW223538   2.499   2.657   1.926
 7547SOL     OW23539   4.131   6.929   1.899
 7547SOL    HW123540   4.224   6.913   1.867
 7547SOL    HW223541   4.067   6.913   1.823
 7548SOL     OW23542   2.690   2.282   6.568
 7548SOL    HW123543   2.711   2.204   6.509
 7548SOL    HW223544   2.732   2.364   6.531
 7549SOL     OW23545   5.331   0.818   4.609
 7549SOL    HW123546   5.326   0.858   4.518
 7549SOL    HW223547   5.353   0.889   4.676
 7550SOL     OW23548   2.837   6.097   4.304
 7550SOL    HW123549   2.804   6.023   4.362
 7550SOL    HW223550   2.768   6.118   4.234
 7551SOL     OW23551   6.280   3.018   6.377
 7551SOL    HW123552   6.356   2.981   6.431
 7551SOL    HW223553   6.297   3.000   6.280
 7552SOL     OW23554   2.588   6.491   4.813
 7552SOL    HW123555   2.631   6.408   4.849
 7552SOL    HW223556   2.532   6.533   4.884
 7553SOL     OW23557   6.517   6.376   6.145
 7553SOL    HW123558   6.486   6.317   6.070
 7553SOL    HW223559   6.528   6.469   6.111
 7554SOL     OW23560   4.613   1.608   1.327
 7554SOL    HW123561   4.682   1.585   1.395
 7554SOL    HW223562   4.614   1.707   1.311
 7555SOL     OW23563   4.520   5.163   4.030
 7555SOL    HW123564   4.570   5.234   3.980
 7555SOL    HW223565   4.428   5.197   4.052
 7556SOL     OW23566   1.223   5.828   1.094
 7556SOL    HW123567   1.274   5.762   1.040
 7556SOL    HW223568   1.286   5.875   1.157
 7557SOL     OW23569   4.705   6.189   1.361
 7557SOL    HW123570   4.712   6.089   1.353
 7557SOL    HW223571   4.628   6.222   1.306
 7558SOL     OW23572   0.550   1.843   3.541
 7558SOL    HW123573   0.462   1.858   3.496
 7558SOL    HW223574   0.537   1.786   3.622
 7559SOL     OW23575   3.065   0.807   5.023
 7559SOL    HW123576   3.074   0.907   5.015
 7559SOL    HW223577   3.152   0.764   5.001
 7560SOL     OW23578   0.859   1.188   5.745
 7560SOL    HW123579   0.853   1.134   5.661
 7560SOL    HW223580   0.896   1.278   5.725
 7561SOL     OW23581   5.393   1.259   5.532
 7561SOL    HW123582   5.463   1.312   5.484
 7561SOL    HW223583   5.425   1.165   5.543
 7562SOL     OW23584   2.145   5.650   3.479
 7562SOL    HW123585   2.125   5.735   3.430
 7562SOL    HW223586   2.126   5.662   3.576
 7563SOL     OW23587   2.795   6.195   2.978
 7563SOL    HW123588   2.816   6.257   3.053
 7563SOL    HW223589   2.876   6.141   2.955
 7564SOL     OW23590   4.959   2.168   5.457
 7564SOL    HW123591   5.047   2.140   5.496
 7564SOL    HW223592   4.947   2.127   5.367
 7565SOL     OW23593   6.458   2.860   5.682
 7565SOL    HW123594   6.547   2.815   5.679
 7565SOL    HW223595   6.468   2.956   5.656
 7566SOL     OW23596   4.952   5.146   2.075
 7566SOL    HW123597   5.045   5.126   2.106
 7566SOL    HW223598   4.905   5.202   2.144
 7567SOL     OW23599   1.343   0.299   4.299
 7567SOL    HW123600   1.389   0.363   4.361
 7567SOL    HW223601   1.360   0.325   4.204
 7568SOL     OW23602   6.274   4.448   1.322
 7568SOL    HW123603   6.258   4.385   1.246
 7568SOL    HW223604   6.305   4.398   1.402
 7569SOL     OW23605   4.365   3.803   0.627
 7569SOL    HW123606   4.300   3.874   0.654
 7569SOL    HW223607   4.395   3.753   0.709
 7570SOL     OW23608   0.813   3.061   1.879
 7570SOL    HW123609   0.868   3.097   1.803
 7570SOL    HW223610   0.721   3.039   1.845
 7571SOL     OW23611   4.687   1.582   2.790
 7571SOL    HW123612   4.684   1.656   2.723
 7571SOL    HW223613   4.630   1.606   2.869
 7572SOL     OW23614   4.865   6.437   3.602
 7572SOL    HW123615   4.878   6.536   3.601
 7572SOL    HW223616   4.809   6.411   3.681
 7573SOL     OW23617   4.641   6.457   6.481
 7573SOL    HW123618   4.657   6.504   6.394
 7573SOL    HW223619   4.668   6.517   6.556
 7574SOL     OW23620   0.849   2.619   4.188
 7574SOL    HW123621   0.807   2.706   4.211
 7574SOL    HW223622   0.827   2.596   4.093
 7575SOL     OW23623   6.743   6.565   1.137
 7575SOL    HW123624   6.651   6.604   1.134
 7575SOL    HW223625   6.801   6.621   1.195
 7576SOL     OW23626   4.716   2.761   6.801
 7576SOL    HW123627   4.653   2.792   6.730
 7576SOL    HW223628   4.719   2.830   6.874
 7577SOL     OW23629   0.502   0.213   6.611
 7577SOL    HW123630   0.583   0.240   6.558
 7577SOL    HW223631   0.432   0.179   6.548
 7578SOL     OW23632   6.384   6.123   2.987
 7578SOL    HW123633   6.409   6.062   2.913
 7578SOL    HW223634   6.286   6.117   3.005
 7579SOL     OW23635   0.428   1.714   6.989
 7579SOL    HW123636   0.378   1.635   6.953
 7579SOL    HW223637   0.526   1.699   6.978
 7580SOL     OW23638   1.988   5.540   3.247
 7580SOL    HW123639   2.000   5.631   3.207
 7580SOL    HW223640   2.074   5.510   3.288
 7581SOL     OW23641   0.133   6.747   1.187
 7581SOL    HW123642   0.056   6.808   1.165
 7581SOL    HW223643   0.169   6.707   1.102
 7582SOL     OW23644   2.232   1.442   6.386
 7582SOL    HW123645   2.289   1.367   6.353
 7582SOL    HW223646   2.250   1.458   6.483
 7583SOL     OW23647   5.447   3.677   2.143
 7583SOL    HW123648   5.481   3.670   2.237
 7583SOL    HW223649   5.398   3.763   2.132
 7584SOL     OW23650   0.603   0.864   3.057
 7584SOL    HW123651   0.629   0.958   3.033
 7584SOL    HW223652   0.634   0.843   3.150
 7585SOL     OW23653   1.005   1.416   5.708
 7585SOL    HW123654   1.047   1.411   5.618
 7585SOL    HW223655   0.973   1.509   5.725
 7586SOL     OW23656   1.757   6.392   3.845
 7586SOL    HW123657   1.674   6.443   3.864
 7586SOL    HW223658   1.826   6.454   3.808
 7587SOL     OW23659   4.868   0.334   1.715
 7587SOL    HW123660   4.929   0.312   1.791
 7587SOL    HW223661   4.860   0.433   1.705
 7588SOL     OW23662   2.173   3.450   4.635
 7588SOL    HW123663   2.247   3.415   4.692
 7588SOL    HW223664   2.128   3.526   4.683
 7589SOL     OW23665   6.655   0.576   2.344
 7589SOL    HW123666   6.692   0.596   2.434
 7589SOL    HW223667   6.718   0.517   2.294
 7590SOL     OW23668   6.108   1.250   0.841
 7590SOL    HW123669   6.050   1.214   0.768
 7590SOL    HW223670   6.134   1.176   0.903
 7591SOL     OW23671   2.949   3.672   4.578
 7591SOL    HW123672   2.917   3.655   4.485
 7591SOL    HW223673   3.028   3.733   4.576
 7592SOL     OW23674   0.341   6.388   3.896
 7592SOL    HW123675   0.293   6.473   3.875
 7592SOL    HW223676   0.403   6.403   3.974
 7593SOL     OW23677   6.693   0.962   6.213
 7593SOL    HW123678   6.744   1.009   6.142
 7593SOL    HW223679   6.707   1.009   6.301
 7594SOL     OW23680   6.625   3.469   5.751
 7594SOL    HW123681   6.650   3.516   5.667
 7594SOL    HW223682   6.555   3.401   5.732
 7595SOL     OW23683   0.273   3.392   6.556
 7595SOL    HW123684   0.311   3.375   6.465
 7595SOL    HW223685   0.256   3.490   6.567
 7596SOL     OW23686   2.479   1.728   0.750
 7596SOL    HW123687   2.425   1.662   0.802
 7596SOL    HW223688   2.482   1.815   0.799
 7597SOL     OW23689   2.366   4.415   0.908
 7597SOL    HW123690   2.444   4.463   0.950
 7597SOL    HW223691   2.372   4.422   0.809
 7598SOL     OW23692   5.562   1.007   2.131
 7598SOL    HW123693   5.582   1.039   2.224
 7598SOL    HW223694   5.595   1.075   2.065
 7599SOL     OW23695   3.129   3.415   0.444
 7599SOL    HW123696   3.067   3.471   0.498
 7599SOL    HW223697   3.224   3.441   0.465
 7600SOL     OW23698   0.870   7.008   3.871
 7600SOL    HW123699   0.954   6.967   3.836
 7600SOL    HW223700   0.827   6.947   3.937
 7601SOL     OW23701   3.168   6.702   1.229
 7601SOL    HW123702   3.076   6.688   1.194
 7601SOL    HW223703   3.186   6.800   1.241
 7602SOL     OW23704   0.739   1.834   0.834
 7602SOL    HW123705   0.768   1.912   0.889
 7602SOL    HW223706   0.813   1.807   0.772
 7603SOL     OW23707   4.524   1.003   6.383
 7603SOL    HW123708   4.607   1.058   6.370
 7603SOL    HW223709   4.498   0.962   6.296
 7604SOL     OW23710   2.202   2.372   5.165
 7604SOL    HW123711   2.297   2.347   5.145
 7604SOL    HW223712   2.168   2.433   5.093
 7605SOL     OW23713   2.961   5.845   6.904
 7605SOL    HW123714   3.030   5.786   6.946
 7605SOL    HW223715   3.006   5.919   6.854
 7606SOL     OW23716   7.005   0.713   3.283
 7606SOL    HW123717   6.930   0.747   3.225
 7606SOL    HW223718   6.969   0.691   3.374
 7607SOL     OW23719   1.969   5.726   5.514
 7607SOL    HW123720   1.878   5.733   5.472
 7607SOL    HW223721   1.995   5.630   5.519
 7608SOL     OW23722   7.009   1.973   6.524
 7608SOL    HW123723   0.048   1.983   6.441
 7608SOL    HW223724   6.984   1.877   6.536
 7609SOL     OW23725   3.699   0.750   4.811
 7609SOL    HW123726   3.763   0.723   4.884
 7609SOL    HW223727   3.644   0.828   4.842
 7610SOL     OW23728   4.256   4.993   4.504
 7610SOL    HW123729   4.196   5.026   4.431
 7610SOL    HW223730   4.259   4.893   4.503
 7611SOL     OW23731   4.424   2.368   6.996
 7611SOL    HW123732   4.492   2.424   6.950
 7611SOL    HW223733   4.379   2.422   0.051
 7612SOL     OW23734   4.169   2.157   2.809
 7612SOL    HW123735   4.155   2.180   2.906
 7612SOL    HW223736   4.080   2.147   2.765
 7613SOL     OW23737   0.625   0.654   6.932
 7613SOL    HW123738   0.707   0.696   6.895
 7613SOL    HW223739   0.650   0.577   6.991
 7614SOL     OW23740   5.742   4.562   0.518
 7614SOL    HW123741   5.704   4.515   0.597
 7614SOL    HW223742   5.725   4.660   0.526
 7615SOL     OW23743   6.113   3.309   5.997
 7615SOL    HW123744   6.112   3.268   6.088
 7615SOL    HW223745   6.180   3.383   5.994
 7616SOL     OW23746   6.877   6.591   2.165
 7616SOL    HW123747   6.974   6.569   2.173
 7616SOL    HW223748   6.826   6.507   2.147
 7617SOL     OW23749   6.238   3.799   2.985
 7617SOL    HW123750   6.243   3.700   2.994
 7617SOL    HW223751   6.153   3.824   2.938
 7618SOL     OW23752   2.466   2.406   0.079
 7618SOL    HW123753   2.550   2.460   0.076
 7618SOL    HW223754   2.433   2.390   7.002
 7619SOL     OW23755   1.349   1.043   4.698
 7619SOL    HW123756   1.310   0.969   4.643
 7619SOL    HW223757   1.447   1.027   4.712
 7620SOL     OW23758   3.373   3.574   0.426
 7620SOL    HW123759   3.406   3.588   0.519
 7620SOL    HW223760   3.444   3.528   0.372
 7621SOL     OW23761   6.190   5.165   6.918
 7621SOL    HW123762   6.252   5.095   6.953
 7621SOL    HW223763   6.231   5.209   6.837
 7622SOL     OW23764   3.462   3.618   1.692
 7622SOL    HW123765   3.383   3.641   1.636
 7622SOL    HW223766   3.436   3.616   1.788
 7623SOL     OW23767   5.381   4.565   2.077
 7623SOL    HW123768   5.338   4.591   1.991
 7623SOL    HW223769   5.356   4.471   2.100
 7624SOL     OW23770   0.637   3.372   2.471
 7624SOL    HW123771   0.696   3.292   2.461
 7624SOL    HW223772   0.627   3.417   2.381
 7625SOL     OW23773   5.365   0.025   1.573
 7625SOL    HW123774   5.309   0.090   1.623
 7625SOL    HW223775   5.344   0.031   1.475
 7626SOL     OW23776   4.534   0.036   0.146
 7626SOL    HW123777   4.549   6.968   0.198
 7626SOL    HW223778   4.606   0.102   0.168
 7627SOL     OW23779   4.349   2.439   6.031
 7627SOL    HW123780   4.373   2.500   5.956
 7627SOL    HW223781   4.428   2.381   6.054
 7628SOL     OW23782   2.839   2.829   0.784
 7628SOL    HW123783   2.827   2.928   0.796
 7628SOL    HW223784   2.906   2.812   0.712
 7629SOL     OW23785   5.860   2.726   3.582
 7629SOL    HW123786   5.836   2.630   3.578
 7629SOL    HW223787   5.802   2.773   3.649
 7630SOL     OW23788   1.067   6.222   3.935
 7630SOL    HW123789   1.145   6.232   3.997
 7630SOL    HW223790   0.983   6.216   3.988
 7631SOL     OW23791   1.368   1.193   5.958
 7631SOL    HW123792   1.420   1.173   5.876
 7631SOL    HW223793   1.422   1.170   6.039
 7632SOL     OW23794   4.132   5.858   1.153
 7632SOL    HW123795   4.141   5.808   1.068
 7632SOL    HW223796   4.125   5.794   1.230
 7633SOL     OW23797   5.412   1.072   1.380
 7633SOL    HW123798   5.319   1.046   1.353
 7633SOL    HW223799   5.449   1.138   1.314
 7634SOL     OW23800   0.131   1.713   6.794
 7634SOL    HW123801   0.170   1.648   6.859
 7634SOL    HW223802   0.168   1.695   6.703
 7635SOL     OW23803   1.127   3.177   5.812
 7635SOL    HW123804   1.162   3.257   5.765
 7635SOL    HW223805   1.203   3.121   5.844
 7636SOL     OW23806   6.719   3.562   3.710
 7636SOL    HW123807   6.815   3.550   3.688
 7636SOL    HW223808   6.678   3.473   3.730
 7637SOL     OW23809   0.732   4.239   5.050
 7637SOL    HW123810   0.663   4.171   5.026
 7637SOL    HW223811   0.793   4.201   5.120
 7638SOL     OW23812   0.425   6.295   1.050
 7638SOL    HW123813   0.415   6.205   1.091
 7638SOL    HW223814   0.502   6.343   1.092
 7639SOL     OW23815   2.310   6.768   0.406
 7639SOL    HW123816   2.252   6.692   0.374
 7639SOL    HW223817   2.260   6.822   0.473
 7640SOL     OW23818   3.190   0.554   0.847
 7640SOL    HW123819   3.198   0.654   0.848
 7640SOL    HW223820   3.095   0.528   0.864
 7641SOL     OW23821   6.770   5.174   4.986
 7641SOL    HW123822   6.863   5.189   5.021
 7641SOL    HW223823   6.704   5.196   5.058
 7642SOL     OW23824   5.607   0.999   3.380
 7642SOL    HW123825   5.623   1.094   3.353
 7642SOL    HW223826   5.621   0.990   3.479
 7643SOL     OW23827   5.537   2.941   4.992
 7643SOL    HW123828   5.621   2.984   5.024
 7643SOL    HW223829   5.485   2.906   5.070
 7644SOL     OW23830   5.185   4.441   0.825
 7644SOL    HW123831   5.256   4.413   0.889
 7644SOL    HW223832   5.227   4.470   0.739
 7645SOL     OW23833   4.720   4.996   6.941
 7645SOL    HW123834   4.811   5.033   6.965
 7645SOL    HW223835   4.731   4.920   6.878
 7646SOL     OW23836   6.738   2.145   1.300
 7646SOL    HW123837   6.821   2.089   1.301
 7646SOL    HW223838   6.756   2.233   1.344
 7647SOL     OW23839   6.676   1.992   4.208
 7647SOL    HW123840   6.643   1.939   4.131
 7647SOL    HW223841   6.771   2.021   4.191
 7648SOL     OW23842   1.519   2.084   1.196
 7648SOL    HW123843   1.501   2.125   1.285
 7648SOL    HW223844   1.559   2.153   1.135
 7649SOL     OW23845   4.109   0.618   0.137
 7649SOL    HW123846   4.084   0.526   0.107
 7649SOL    HW223847   4.106   0.623   0.237
 7650SOL     OW23848   3.456   2.703   0.237
 7650SOL    HW123849   3.478   2.685   0.141
 7650SOL    HW223850   3.368   2.662   0.260
 7651SOL     OW23851   3.627   5.752   6.547
 7651SOL    HW123852   3.609   5.816   6.622
 7651SOL    HW223853   3.544   5.702   6.525
 7652SOL     OW23854   0.504   0.729   5.366
 7652SOL    HW123855   0.494   0.749   5.268
 7652SOL    HW223856   0.428   0.672   5.396
 7653SOL     OW23857   1.719   6.566   6.875
 7653SOL    HW123858   1.749   6.499   6.942
 7653SOL    HW223859   1.681   6.520   6.795
 7654SOL     OW23860   0.264   2.174   5.458
 7654SOL    HW123861   0.165   2.169   5.462
 7654SOL    HW223862   0.300   2.202   5.547
 7655SOL     OW23863   3.712   1.804   5.123
 7655SOL    HW123864   3.731   1.788   5.026
 7655SOL    HW223865   3.677   1.897   5.135
 7656SOL     OW23866   5.850   4.116   6.635
 7656SOL    HW123867   5.915   4.177   6.680
 7656SOL    HW223868   5.848   4.027   6.682
 7657SOL     OW23869   0.897   3.884   4.738
 7657SOL    HW123870   0.910   3.856   4.833
 7657SOL    HW223871   0.986   3.892   4.693
 7658SOL     OW23872   2.654   0.825   1.429
 7658SOL    HW123873   2.583   0.862   1.489
 7658SOL    HW223874   2.622   0.741   1.387
 7659SOL     OW23875   5.043   5.007   5.974
 7659SOL    HW123876   5.093   5.063   6.040
 7659SOL    HW223877   5.107   4.953   5.920
 7660SOL     OW23878   6.569   6.461   5.765
 7660SOL    HW123879   6.517   6.527   5.713
 7660SOL    HW223880   6.512   6.382   5.786
 7661SOL     OW23881   2.700   1.229   5.507
 7661SOL    HW123882   2.760   1.195   5.579
 7661SOL    HW223883   2.720   1.326   5.491
 7662SOL     OW23884   0.063   5.977   1.160
 7662SOL    HW123885   0.015   6.018   1.238
 7662SOL    HW223886   7.014   5.960   1.086
 7663SOL     OW23887   1.080   5.923   4.517
 7663SOL    HW123888   1.006   5.862   4.546
 7663SOL    HW223889   1.168   5.879   4.533
 7664SOL     OW23890   5.307   2.310   2.400
 7664SOL    HW123891   5.240   2.237   2.412
 7664SOL    HW223892   5.315   2.363   2.484
 7665SOL     OW23893   3.047   0.849   5.550
 7665SOL    HW123894   3.045   0.814   5.457
 7665SOL    HW223895   2.995   0.789   5.610
 7666SOL     OW23896   5.390   5.431   4.124
 7666SOL    HW123897   5.432   5.341   4.130
 7666SOL    HW223898   5.429   5.492   4.193
 7667SOL     OW23899   4.146   5.704   1.820
 7667SOL    HW123900   4.061   5.734   1.863
 7667SOL    HW223901   4.189   5.781   1.774
 7668SOL     OW23902   1.615   5.788   0.007
 7668SOL    HW123903   1.659   5.820   6.939
 7668SOL    HW223904   1.522   5.823   0.012
 7669SOL     OW23905   2.452   1.753   7.001
 7669SOL    HW123906   2.431   1.823   0.053
 7669SOL    HW223907   2.367   1.716   6.964
 7670SOL     OW23908   1.131   0.637   0.867
 7670SOL    HW123909   1.124   0.538   0.865
 7670SOL    HW223910   1.158   0.667   0.959
 7671SOL     OW23911   3.078   7.007   1.627
 7671SOL    HW123912   3.001   0.011   1.566
 7671SOL    HW223913   3.160   6.990   1.572
 7672SOL     OW23914   5.544   3.633   2.411
 7672SOL    HW123915   5.530   3.561   2.479
 7672SOL    HW223916   5.530   3.723   2.453
 7673SOL     OW23917   2.025   6.734   4.801
 7673SOL    HW123918   2.000   6.717   4.706
 7673SOL    HW223919   2.068   6.653   4.839
 7674SOL     OW23920   3.814   5.726   3.765
 7674SOL    HW123921   3.773   5.682   3.845
 7674SOL    HW223922   3.742   5.756   3.703
 7675SOL     OW23923   4.260   6.352   3.047
 7675SOL    HW123924   4.340   6.408   3.026
 7675SOL    HW223925   4.241   6.357   3.145
 7676SOL     OW23926   3.192   3.112   4.988
 7676SOL    HW123927   3.110   3.084   5.037
 7676SOL    HW223928   3.170   3.128   4.892
 7677SOL     OW23929   0.257   5.721   6.801
 7677SOL    HW123930   0.331   5.732   6.736
 7677SOL    HW223931   0.206   5.807   6.809
 7678SOL     OW23932   3.732   1.211   6.089
 7678SOL    HW123933   3.733   1.209   5.989
 7678SOL    HW223934   3.746   1.119   6.124
 7679SOL     OW23935   2.757   4.685   4.082
 7679SOL    HW123936   2.724   4.678   4.176
 7679SOL    HW223937   2.850   4.648   4.077
 7680SOL     OW23938   1.978   6.607   4.272
 7680SOL    HW123939   2.043   6.565   4.209
 7680SOL    HW223940   1.904   6.651   4.219
 7681SOL     OW23941   2.013   2.195   5.562
 7681SOL    HW123942   1.963   2.158   5.483
 7681SOL    HW223943   2.018   2.126   5.634
 7682SOL     OW23944   3.308   0.552   2.163
 7682SOL    HW123945   3.305   0.477   2.098
 7682SOL    HW223946   3.391   0.606   2.149
 7683SOL     OW23947   0.427   4.642   4.582
 7683SOL    HW123948   0.423   4.555   4.533
 7683SOL    HW223949   0.361   4.706   4.541
 7684SOL     OW23950   4.760   3.491   1.697
 7684SOL    HW123951   4.662   3.512   1.700
 7684SOL    HW223952   4.778   3.408   1.749
 7685SOL     OW23953   2.635   0.338   0.150
 7685SOL    HW123954   2.572   0.289   0.211
 7685SOL    HW223955   2.726   0.297   0.157
 7686SOL     OW23956   6.848   0.441   4.000
 7686SOL    HW123957   6.925   0.422   4.061
 7686SOL    HW223958   6.793   0.515   4.039
 7687SOL     OW23959   5.271   3.424   6.023
 7687SOL    HW123960   5.227   3.348   5.976
 7687SOL    HW223961   5.355   3.449   5.976
 7688SOL     OW23962   6.165   2.897   0.076
 7688SOL    HW123963   6.108   2.857   0.147
 7688SOL    HW223964   6.130   2.988   0.053
 7689SOL     OW23965   5.722   0.509   2.581
 7689SOL    HW123966   5.689   0.557   2.662
 7689SOL    HW223967   5.810   0.467   2.601
 7690SOL     OW23968   5.507   4.648   2.298
 7690SOL    HW123969   5.569   4.727   2.304
 7690SOL    HW223970   5.477   4.636   2.203
 7691SOL     OW23971   5.297   2.750   3.793
 7691SOL    HW123972   5.351   2.666   3.805
 7691SOL    HW223973   5.271   2.759   3.697
 7692SOL     OW23974   2.427   6.919   2.099
 7692SOL    HW123975   2.490   6.996   2.098
 7692SOL    HW223976   2.334   6.952   2.081
 7693SOL     OW23977   2.705   1.634   1.566
 7693SOL    HW123978   2.635   1.704   1.554
 7693SOL    HW223979   2.795   1.673   1.547
 7694SOL     OW23980   3.930   2.617   0.577
 7694SOL    HW123981   3.844   2.653   0.613
 7694SOL    HW223982   3.972   2.685   0.517
 7695SOL     OW23983   5.347   6.607   3.714
 7695SOL    HW123984   5.346   6.536   3.644
 7695SOL    HW223985   5.441   6.638   3.728
 7696SOL     OW23986   3.271   1.995   5.560
 7696SOL    HW123987   3.346   2.023   5.620
 7696SOL    HW223988   3.264   2.058   5.483
 7697SOL     OW23989   6.031   6.352   2.640
 7697SOL    HW123990   5.967   6.276   2.636
 7697SOL    HW223991   6.114   6.324   2.689
 7698SOL     OW23992   6.436   2.566   1.203
 7698SOL    HW123993   6.384   2.649   1.223
 7698SOL    HW223994   6.501   2.550   1.277
 7699SOL     OW23995   3.782   6.624   5.834
 7699SOL    HW123996   3.851   6.678   5.881
 7699SOL    HW223997   3.797   6.527   5.853
 7700SOL     OW23998   6.258   5.320   1.873
 7700SOL    HW123999   6.341   5.318   1.817
 7700SOL    HW224000   6.200   5.242   1.849
 7701SOL     OW24001   2.672   1.679   6.567
 7701SOL    HW124002   2.685   1.633   6.655
 7701SOL    HW224003   2.640   1.773   6.583
 7702SOL     OW24004   5.934   6.497   5.629
 7702SOL    HW124005   5.950   6.552   5.547
 7702SOL    HW224006   5.837   6.472   5.634
 7703SOL     OW24007   0.040   6.233   5.970
 7703SOL    HW124008   0.049   6.169   6.047
 7703SOL    HW224009   7.002   6.190   5.898
 7704SOL     OW24010   1.566   2.076   4.831
 7704SOL    HW124011   1.483   2.131   4.841
 7704SOL    HW224012   1.586   2.029   4.917
 7705SOL     OW24013   0.624   4.582   0.196
 7705SOL    HW124014   0.537   4.557   0.240
 7705SOL    HW224015   0.637   4.681   0.204
 7706SOL     OW24016   3.538   3.477   2.466
 7706SOL    HW124017   3.461   3.489   2.403
 7706SOL    HW224018   3.506   3.488   2.560
 7707SOL     OW24019   0.129   4.507   6.177
 7707SOL    HW124020   0.190   4.536   6.250
 7707SOL    HW224021   0.036   4.539   6.196
 7708SOL     OW24022   0.823   0.202   4.221
 7708SOL    HW124023   0.831   0.297   4.189
 7708SOL    HW224024   0.884   0.188   4.299
 7709SOL     OW24025   6.269   4.438   0.869
 7709SOL    HW124026   6.257   4.534   0.845
 7709SOL    HW224027   6.360   4.424   0.906
 7710SOL     OW24028   6.223   2.768   2.136
 7710SOL    HW124029   6.255   2.831   2.065
 7710SOL    HW224030   6.284   2.689   2.142
 7711SOL     OW24031   1.140   4.008   3.666
 7711SOL    HW124032   1.110   3.974   3.576
 7711SOL    HW224033   1.196   3.938   3.711
 7712SOL     OW24034   1.003   4.434   4.389
 7712SOL    HW124035   0.962   4.518   4.424
 7712SOL    HW224036   0.933   4.364   4.380
 7713SOL     OW24037   0.573   5.296   0.729
 7713SOL    HW124038   0.555   5.206   0.770
 7713SOL    HW224039   0.500   5.359   0.754
 7714SOL     OW24040   6.095   1.719   5.056
 7714SOL    HW124041   6.035   1.754   5.128
 7714SOL    HW224042   6.071   1.624   5.036
 7715SOL     OW24043   3.677   3.399   6.629
 7715SOL    HW124044   3.604   3.394   6.561
 7715SOL    HW224045   3.639   3.384   6.720
 7716SOL     OW24046   1.099   0.853   6.246
 7716SOL    HW124047   1.054   0.917   6.308
 7716SOL    HW224048   1.074   0.760   6.271
 7717SOL     OW24049   1.030   1.777   6.238
 7717SOL    HW124050   1.051   1.784   6.141
 7717SOL    HW224051   0.956   1.839   6.261
 7718SOL     OW24052   0.648   3.327   2.874
 7718SOL    HW124053   0.708   3.252   2.847
 7718SOL    HW224054   0.570   3.331   2.811
 7719SOL     OW24055   1.995   5.814   4.709
 7719SOL    HW124056   2.065   5.883   4.726
 7719SOL    HW224057   1.972   5.768   4.794
 7720SOL     OW24058   4.644   1.596   6.748
 7720SOL    HW124059   4.555   1.598   6.702
 7720SOL    HW224060   4.684   1.687   6.747
 7721SOL     OW24061   5.945   5.927   2.256
 7721SOL    HW124062   5.962   5.959   2.163
 7721SOL    HW224063   6.032   5.907   2.301
 7722SOL     OW24064   0.521   5.845   4.405
 7722SOL    HW124065   0.486   5.795   4.326
 7722SOL    HW224066   0.457   5.834   4.481
 7723SOL     OW24067   3.982   4.413   6.620
 7723SOL    HW124068   4.022   4.491   6.668
 7723SOL    HW224069   4.052   4.343   6.605
 7724SOL     OW24070   1.229   4.023   0.281
 7724SOL    HW124071   1.205   3.931   0.311
 7724SOL    HW224072   1.151   4.065   0.236
 7725SOL     OW24073   5.551   3.608   4.606
 7725SOL    HW124074   5.636   3.655   4.581
 7725SOL    HW224075   5.567   3.509   4.605
 7726SOL     OW24076   2.047   3.128   0.095
 7726SOL    HW124077   2.067   3.117   0.192
 7726SOL    HW224078   1.997   3.047   0.063
 7727SOL     OW24079   5.670   0.680   2.769
 7727SOL    HW124080   5.574   0.703   2.753
 7727SOL    HW224081   5.679   0.632   2.857
 7728SOL     OW24082   2.146   3.269   5.050
 7728SOL    HW124083   2.090   3.216   4.986
 7728SOL    HW224084   2.174   3.210   5.126
 7729SOL     OW24085   7.000   0.969   2.972
 7729SOL    HW124086   0.070   0.956   2.923
 7729SOL    HW224087   6.926   0.926   2.920
 7730SOL     OW24088   5.510   4.587   5.743
 7730SOL    HW124089   5.595   4.542   5.772
 7730SOL    HW224090   5.531   4.678   5.707
 7731SOL     OW24091   0.048   0.466   6.058
 7731SOL    HW124092   0.025   0.488   6.153
 7731SOL    HW224093   0.136   0.419   6.055
 7732SOL     OW24094   4.643   0.941   0.300
 7732SOL    HW124095   4.687   0.852   0.312
 7732SOL    HW224096   4.549   0.928   0.269
 7733SOL     OW24097   6.803   5.531   0.931
 7733SOL    HW124098   6.713   5.491   0.948
 7733SOL    HW224099   6.792   5.625   0.900
 7734SOL     OW24100   3.933   3.859   3.083
 7734SOL    HW124101   3.987   3.794   3.030
 7734SOL    HW224102   3.957   3.850   3.180
 7735SOL     OW24103   1.447   5.844   0.651
 7735SOL    HW124104   1.399   5.922   0.611
 7735SOL    HW224105   1.511   5.876   0.721
 7736SOL     OW24106   1.434   1.729   0.840
 7736SOL    HW124107   1.442   1.672   0.922
 7736SOL    HW224108   1.512   1.792   0.836
 7737SOL     OW24109   4.520   4.341   6.733
 7737SOL    HW124110   4.456   4.332   6.808
 7737SOL    HW224111   4.583   4.263   6.732
 7738SOL     OW24112   1.496   1.371   5.539
 7738SOL    HW124113   1.479   1.347   5.444
 7738SOL    HW224114   1.565   1.310   5.578
 7739SOL     OW24115   1.433   2.889   0.494
 7739SOL    HW124116   1.338   2.864   0.476
 7739SOL    HW224117   1.460   2.965   0.435
 7740SOL     OW24118   2.402   0.802   4.199
 7740SOL    HW124119   2.496   0.810   4.232
 7740SOL    HW224120   2.355   0.889   4.213
 7741SOL     OW24121   6.963   3.913   5.856
 7741SOL    HW124122   0.013   3.945   5.924
 7741SOL    HW224123   6.875   3.956   5.873
 7742SOL     OW24124   4.017   2.163   3.896
 7742SOL    HW124125   4.093   2.098   3.895
 7742SOL    HW224126   4.023   2.222   3.815
 7743SOL     OW24127   3.530   1.251   6.587
 7743SOL    HW124128   3.496   1.242   6.680
 7743SOL    HW224129   3.583   1.336   6.578
 7744SOL     OW24130   0.439   6.677   4.888
 7744SOL    HW124131   0.440   6.719   4.979
 7744SOL    HW224132   0.417   6.580   4.897
 7745SOL     OW24133   2.942   6.960   0.586
 7745SOL    HW124134   2.953   6.956   0.486
 7745SOL    HW224135   2.924   6.868   0.621
 7746SOL     OW24136   0.156   6.412   1.168
 7746SOL    HW124137   0.188   6.503   1.143
 7746SOL    HW224138   0.174   6.348   1.093
 7747SOL     OW24139   0.540   5.730   1.440
 7747SOL    HW124140   0.446   5.723   1.409
 7747SOL    HW224141   0.545   5.708   1.538
 7748SOL     OW24142   4.476   0.879   6.119
 7748SOL    HW124143   4.555   0.836   6.075
 7748SOL    HW224144   4.461   0.969   6.078
 7749SOL     OW24145   3.259   3.737   2.791
 7749SOL    HW124146   3.288   3.800   2.864
 7749SOL    HW224147   3.167   3.704   2.811
 7750SOL     OW24148   5.149   5.149   6.179
 7750SOL    HW124149   5.184   5.087   6.249
 7750SOL    HW224150   5.141   5.241   6.216
 7751SOL     OW24151   0.104   0.950   4.788
 7751SOL    HW124152   0.202   0.936   4.802
 7751SOL    HW224153   0.057   0.862   4.786
 7752SOL     OW24154   6.566   4.479   5.134
 7752SOL    HW124155   6.658   4.516   5.127
 7752SOL    HW224156   6.510   4.537   5.194
 7753SOL     OW24157   2.982   0.788   4.731
 7753SOL    HW124158   3.074   0.824   4.717
 7753SOL    HW224159   2.944   0.761   4.642
 7754SOL     OW24160   6.105   0.717   1.301
 7754SOL    HW124161   6.156   0.682   1.379
 7754SOL    HW224162   6.111   0.652   1.225
 7755SOL     OW24163   1.659   6.058   5.466
 7755SOL    HW124164   1.590   6.094   5.404
 7755SOL    HW224165   1.725   6.002   5.415
 7756SOL     OW24166   4.016   5.776   2.865
 7756SOL    HW124167   4.066   5.858   2.891
 7756SOL    HW224168   4.080   5.700   2.851
 7757SOL     OW24169   3.151   0.440   5.904
 7757SOL    HW124170   3.164   0.522   5.960
 7757SOL    HW224171   3.201   0.451   5.818
 7758SOL     OW24172   2.370   2.411   6.354
 7758SOL    HW124173   2.426   2.330   6.367
 7758SOL    HW224174   2.427   2.493   6.362
 7759SOL     OW24175   1.887   0.775   4.583
 7759SOL    HW124176   1.903   0.683   4.547
 7759SOL    HW224177   1.901   0.842   4.510
 7760SOL     OW24178   5.228   2.026   3.077
 7760SOL    HW124179   5.181   2.114   3.084
 7760SOL    HW224180   5.160   1.953   3.068
 7761SOL     OW24181   4.589   1.124   6.807
 7761SOL    HW124182   4.530   1.049   6.776
 7761SOL    HW224183   4.533   1.195   6.849
 7762SOL     OW24184   1.402   2.405   0.470
 7762SOL    HW124185   1.495   2.373   0.488
 7762SOL    HW224186   1.371   2.371   0.382
 7763SOL     OW24187   2.283   2.451   1.319
 7763SOL    HW124188   2.278   2.413   1.411
 7763SOL    HW224189   2.249   2.384   1.253
 7764SOL     OW24190   3.179   3.477   1.996
 7764SOL    HW124191   3.200   3.392   2.043
 7764SOL    HW224192   3.179   3.462   1.897
 7765SOL     OW24193   6.772   1.608   2.006
 7765SOL    HW124194   6.714   1.645   2.079
 7765SOL    HW224195   6.715   1.584   1.927
 7766SOL     OW24196   6.536   2.750   6.703
 7766SOL    HW124197   6.520   2.675   6.769
 7766SOL    HW224198   6.626   2.738   6.661
 7767SOL     OW24199   5.675   3.930   5.059
 7767SOL    HW124200   5.743   4.004   5.058
 7767SOL    HW224201   5.613   3.941   4.981
 7768SOL     OW24202   3.713   5.403   1.461
 7768SOL    HW124203   3.723   5.499   1.490
 7768SOL    HW224204   3.640   5.360   1.514
 7769SOL     OW24205   5.686   2.317   2.731
 7769SOL    HW124206   5.772   2.266   2.729
 7769SOL    HW224207   5.627   2.287   2.656
 7770SOL     OW24208   3.352   6.122   1.368
 7770SOL    HW124209   3.278   6.167   1.319
 7770SOL    HW224210   3.439   6.141   1.323
 7771SOL     OW24211   1.578   1.183   4.221
 7771SOL    HW124212   1.541   1.266   4.177
 7771SOL    HW224213   1.529   1.103   4.186
 7772SOL     OW24214   5.633   0.753   5.314
 7772SOL    HW124215   5.643   0.758   5.413
 7772SOL    HW224216   5.702   0.811   5.271
 7773SOL     OW24217   3.840   4.355   6.252
 7773SOL    HW124218   3.850   4.419   6.329
 7773SOL    HW224219   3.755   4.375   6.203
 7774SOL     OW24220   5.279   2.138   6.413
 7774SOL    HW124221   5.333   2.079   6.353
 7774SOL    HW224222   5.183   2.114   6.405
 7775SOL     OW24223   1.503   6.837   2.146
 7775SOL    HW124224   1.470   6.785   2.225
 7775SOL    HW224225   1.440   6.823   2.069
 7776SOL     OW24226   3.399   3.969   1.018
 7776SOL    HW124227   3.393   3.986   0.919
 7776SOL    HW224228   3.424   4.053   1.065
 7777SOL     OW24229   1.153   0.066   6.047
 7777SOL    HW124230   1.205   0.017   6.117
 7777SOL    HW224231   1.186   0.160   6.040
 7778SOL     OW24232   4.645   1.757   1.685
 7778SOL    HW124233   4.743   1.738   1.674
 7778SOL    HW224234   4.633   1.843   1.734
 7779SOL     OW24235   4.111   2.996   0.245
 7779SOL    HW124236   4.131   3.047   0.161
 7779SOL    HW224237   4.180   3.017   0.314
 7780SOL     OW24238   1.235   0.143   4.833
 7780SOL    HW124239   1.304   0.204   4.793
 7780SOL    HW224240   1.256   0.048   4.808
 7781SOL     OW24241   1.909   4.241   5.541
 7781SOL    HW124242   1.825   4.273   5.497
 7781SOL    HW224243   1.987   4.259   5.480
 7782SOL     OW24244   4.552   4.510   0.157
 7782SOL    HW124245   4.567   4.593   0.102
 7782SOL    HW224246   4.492   4.531   0.234
 7783SOL     OW24247   2.792   6.327   6.980
 7783SOL    HW124248   2.808   6.414   0.011
 7783SOL    HW224249   2.740   6.266   0.022
 7784SOL     OW24250   6.348   3.542   0.508
 7784SOL    HW124251   6.404   3.480   0.561
 7784SOL    HW224252   6.320   3.498   0.423
 7785SOL     OW24253   1.639   5.554   6.305
 7785SOL    HW124254   1.620   5.583   6.399
 7785SOL    HW224255   1.661   5.456   6.304
 7786SOL     OW24256   3.285   4.147   5.122
 7786SOL    HW124257   3.354   4.192   5.065
 7786SOL    HW224258   3.294   4.048   5.113
 7787SOL     OW24259   3.104   2.264   5.455
 7787SOL    HW124260   3.125   2.303   5.365
 7787SOL    HW224261   3.056   2.177   5.444
 7788SOL     OW24262   0.029   2.061   0.905
 7788SOL    HW124263   0.104   2.001   0.876
 7788SOL    HW224264   0.050   2.100   0.994
 7789SOL     OW24265   1.800   0.188   1.838
 7789SOL    HW124266   1.803   0.226   1.930
 7789SOL    HW224267   1.762   0.256   1.775
 7790SOL     OW24268   6.820   3.490   2.398
 7790SOL    HW124269   6.758   3.462   2.325
 7790SOL    HW224270   6.788   3.576   2.437
 7791SOL     OW24271   0.079   5.109   5.800
 7791SOL    HW124272   7.013   5.072   5.756
 7791SOL    HW224273   0.131   5.034   5.842
 7792SOL     OW24274   1.946   5.676   6.441
 7792SOL    HW124275   1.918   5.734   6.517
 7792SOL    HW224276   1.947   5.580   6.471
 7793SOL     OW24277   2.254   0.735   6.182
 7793SOL    HW124278   2.350   0.749   6.206
 7793SOL    HW224279   2.203   0.820   6.195
 7794SOL     OW24280   5.440   5.441   2.836
 7794SOL    HW124281   5.345   5.420   2.860
 7794SOL    HW224282   5.478   5.366   2.782
 7795SOL     OW24283   1.166   3.973   6.657
 7795SOL    HW124284   1.224   4.040   6.612
 7795SOL    HW224285   1.105   4.019   6.722
 7796SOL     OW24286   4.008   3.943   4.579
 7796SOL    HW124287   4.057   3.885   4.644
 7796SOL    HW224288   3.955   4.011   4.628
 7797SOL     OW24289   1.028   6.916   3.261
 7797SOL    HW124290   0.953   6.938   3.199
 7797SOL    HW224291   1.110   6.968   3.234
 7798SOL     OW24292   3.965   6.104   6.086
 7798SOL    HW124293   3.925   6.184   6.130
 7798SOL    HW224294   4.004   6.043   6.156
 7799SOL     OW24295   6.277   6.077   1.701
 7799SOL    HW124296   6.192   6.026   1.684
 7799SOL    HW224297   6.331   6.081   1.617
 7800SOL     OW24298   0.965   6.029   1.875
 7800SOL    HW124299   0.949   6.114   1.825
 7800SOL    HW224300   0.880   5.999   1.918
 7801SOL     OW24301   4.272   2.107   5.298
 7801SOL    HW124302   4.289   2.076   5.392
 7801SOL    HW224303   4.302   2.037   5.234
 7802SOL     OW24304   5.588   2.230   0.280
 7802SOL    HW124305   5.579   2.140   0.321
 7802SOL    HW224306   5.520   2.242   0.208
 7803SOL     OW24307   3.277   3.436   5.673
 7803SOL    HW124308   3.343   3.365   5.654
 7803SOL    HW224309   3.300   3.519   5.622
 7804SOL     OW24310   5.311   0.825   6.461
 7804SOL    HW124311   5.386   0.788   6.516
 7804SOL    HW224312   5.259   0.891   6.515
 7805SOL     OW24313   5.124   2.934   1.533
 7805SOL    HW124314   5.052   2.987   1.488
 7805SOL    HW224315   5.087   2.892   1.617
 7806SOL     OW24316   5.011   3.349   0.177
 7806SOL    HW124317   4.984   3.355   0.273
 7806SOL    HW224318   4.939   3.303   0.124
 7807SOL     OW24319   0.795   3.481   0.161
 7807SOL    HW124320   0.889   3.448   0.172
 7807SOL    HW224321   0.732   3.419   0.206
 7808SOL     OW24322   0.783   0.762   5.397
 7808SOL    HW124323   0.799   0.674   5.442
 7808SOL    HW224324   0.685   0.774   5.381
 7809SOL     OW24325   1.335   5.565   5.659
 7809SOL    HW124326   1.395   5.551   5.581
 7809SOL    HW224327   1.356   5.497   5.730
 7810SOL     OW24328   2.813   1.454   6.991
 7810SOL    HW124329   2.895   1.504   0.003
 7810SOL    HW224330   2.806   1.370   0.028
 7811SOL     OW24331   6.738   4.894   5.110
 7811SOL    HW124332   6.726   4.974   5.051
 7811SOL    HW224333   6.824   4.903   5.161
 7812SOL     OW24334   0.279   1.879   3.454
 7812SOL    HW124335   0.288   1.827   3.370
 7812SOL    HW224336   0.187   1.867   3.492
 7813SOL     OW24337   6.313   2.615   0.804
 7813SOL    HW124338   6.330   2.520   0.777
 7813SOL    HW224339   6.366   2.636   0.886
 7814SOL     OW24340   1.989   2.787   4.925
 7814SOL    HW124341   2.074   2.840   4.919
 7814SOL    HW224342   1.947   2.780   4.835
 7815SOL     OW24343   6.756   1.795   5.317
 7815SOL    HW124344   6.717   1.887   5.324
 7815SOL    HW224345   6.835   1.797   5.255
 7816SOL     OW24346   0.459   4.845   4.930
 7816SOL    HW124347   0.466   4.944   4.929
 7816SOL    HW224348   0.468   4.811   5.023
 7817SOL     OW24349   5.555   3.418   5.894
 7817SOL    HW124350   5.638   3.420   5.950
 7817SOL    HW224351   5.531   3.512   5.867
 7818SOL     OW24352   5.243   3.896   3.294
 7818SOL    HW124353   5.181   3.926   3.221
 7818SOL    HW224354   5.337   3.923   3.271
 7819SOL     OW24355   0.929   1.342   0.946
 7819SOL    HW124356   0.891   1.327   0.855
 7819SOL    HW224357   1.010   1.284   0.958
 7820SOL     OW24358   2.847   0.264   6.256
 7820SOL    HW124359   2.818   0.220   6.341
 7820SOL    HW224360   2.939   0.301   6.269
 7821SOL     OW24361   2.857   5.071   0.705
 7821SOL    HW124362   2.761   5.097   0.707
 7821SOL    HW224363   2.902   5.118   0.629
 7822SOL     OW24364   1.842   6.400   5.850
 7822SOL    HW124365   1.847   6.340   5.931
 7822SOL    HW224366   1.844   6.343   5.767
 7823SOL     OW24367   1.968   3.574   5.452
 7823SOL    HW124368   1.969   3.575   5.552
 7823SOL    HW224369   1.918   3.494   5.419
 7824SOL     OW24370   0.503   3.082   5.090
 7824SOL    HW124371   0.499   3.016   5.165
 7824SOL    HW224372   0.598   3.107   5.071
 7825SOL     OW24373   2.820   0.732   0.096
 7825SOL    HW124374   2.741   0.687   0.055
 7825SOL    HW224375   2.900   0.673   0.089
 7826SOL     OW24376   0.726   3.757   5.845
 7826SOL    HW124377   0.736   3.660   5.866
 7826SOL    HW224378   0.646   3.794   5.893
 7827SOL     OW24379   5.959   5.067   4.310
 7827SOL    HW124380   5.932   5.162   4.295
 7827SOL    HW224381   6.011   5.034   4.232
 7828SOL     OW24382   1.197   5.007   6.311
 7828SOL    HW124383   1.194   4.937   6.382
 7828SOL    HW224384   1.153   5.090   6.344
 7829SOL     OW24385   4.213   4.936   0.779
 7829SOL    HW124386   4.308   4.932   0.749
 7829SOL    HW224387   4.191   4.854   0.832
 7830SOL     OW24388   2.326   5.270   3.643
 7830SOL    HW124389   2.334   5.369   3.645
 7830SOL    HW224390   2.309   5.235   3.735
 7831SOL     OW24391   1.881   0.451   6.017
 7831SOL    HW124392   1.857   0.453   6.114
 7831SOL    HW224393   1.927   0.365   5.996
 7832SOL     OW24394   6.424   1.385   5.609
 7832SOL    HW124395   6.431   1.400   5.510
 7832SOL    HW224396   6.373   1.301   5.627
 7833SOL     OW24397   0.750   0.433   2.766
 7833SOL    HW124398   0.839   0.465   2.735
 7833SOL    HW224399   0.678   0.470   2.707
 7834SOL     OW24400   6.675   3.565   4.863
 7834SOL    HW124401   6.650   3.539   4.770
 7834SOL    HW224402   6.600   3.617   4.904
 7835SOL     OW24403   3.835   2.161   5.559
 7835SOL    HW124404   3.749   2.138   5.514
 7835SOL    HW224405   3.818   2.229   5.631
 7836SOL     OW24406   2.928   3.763   4.868
 7836SOL    HW124407   3.009   3.822   4.870
 7836SOL    HW224408   2.920   3.721   4.778
 7837SOL     OW24409   1.345   5.382   6.400
 7837SOL    HW124410   1.339   5.473   6.441
 7837SOL    HW224411   1.362   5.315   6.472
 7838SOL     OW24412   3.979   5.140   1.881
 7838SOL    HW124413   4.076   5.118   1.879
 7838SOL    HW224414   3.939   5.123   1.792
 7839SOL     OW24415   6.198   4.208   4.464
 7839SOL    HW124416   6.154   4.199   4.553
 7839SOL    HW224417   6.146   4.157   4.396
 7840SOL     OW24418   2.003   2.734   3.640
 7840SOL    HW124419   2.037   2.791   3.565
 7840SOL    HW224420   2.028   2.639   3.624
 7841SOL     OW24421   4.352   1.742   5.792
 7841SOL    HW124422   4.279   1.691   5.837
 7841SOL    HW224423   4.322   1.772   5.702
 7842SOL     OW24424   1.253   0.681   1.109
 7842SOL    HW124425   1.300   0.758   1.066
 7842SOL    HW224426   1.222   0.708   1.200
 7843SOL     OW24427   6.954   6.688   1.835
 7843SOL    HW124428   6.979   6.606   1.886
 7843SOL    HW224429   6.887   6.740   1.887
 7844SOL     OW24430   4.110   0.037   2.342
 7844SOL    HW124431   4.123   6.996   2.423
 7844SOL    HW224432   4.071   6.998   2.268
 7845SOL     OW24433   6.113   3.064   1.398
 7845SOL    HW124434   6.102   3.071   1.299
 7845SOL    HW224435   6.202   3.022   1.419
 7846SOL     OW24436   0.917   1.320   0.681
 7846SOL    HW124437   0.988   1.336   0.612
 7846SOL    HW224438   0.841   1.269   0.640
 7847SOL     OW24439   5.349   4.442   5.941
 7847SOL    HW124440   5.313   4.353   5.915
 7847SOL    HW224441   5.388   4.487   5.860
 7848SOL     OW24442   4.142   4.727   0.233
 7848SOL    HW124443   4.194   4.642   0.240
 7848SOL    HW224444   4.145   4.775   0.321
 7849SOL     OW24445   4.344   5.248   6.730
 7849SOL    HW124446   4.388   5.163   6.761
 7849SOL    HW224447   4.245   5.238   6.735
 7850SOL     OW24448   0.481   0.514   3.205
 7850SOL    HW124449   0.452   0.424   3.238
 7850SOL    HW224450   0.401   0.569   3.182
 7851SOL     OW24451   0.488   5.043   0.826
 7851SOL    HW124452   0.404   5.059   0.878
 7851SOL    HW224453   0.473   4.969   0.761
 7852SOL     OW24454   1.030   3.348   6.035
 7852SOL    HW124455   1.061   3.275   5.974
 7852SOL    HW224456   1.106   3.411   6.052
 7853SOL     OW24457   4.044   2.991   1.862
 7853SOL    HW124458   4.060   2.901   1.822
 7853SOL    HW224459   4.045   2.984   1.962
 7854SOL     OW24460   4.101   1.064   1.414
 7854SOL    HW124461   4.100   0.988   1.479
 7854SOL    HW224462   4.105   1.151   1.463
 7855SOL     OW24463   5.238   6.301   3.865
 7855SOL    HW124464   5.165   6.251   3.910
 7855SOL    HW224465   5.208   6.394   3.845
 7856SOL     OW24466   2.097   6.188   5.798
 7856SOL    HW124467   2.182   6.221   5.839
 7856SOL    HW224468   2.083   6.234   5.710
 7857SOL     OW24469   6.658   4.862   0.707
 7857SOL    HW124470   6.570   4.890   0.671
 7857SOL    HW224471   6.654   4.861   0.807
 7858SOL     OW24472   0.541   3.912   5.988
 7858SOL    HW124473   0.510   3.971   5.914
 7858SOL    HW224474   0.492   3.933   6.072
 7859SOL     OW24475   4.870   2.159   0.741
 7859SOL    HW124476   4.811   2.230   0.781
 7859SOL    HW224477   4.854   2.072   0.788
 7860SOL     OW24478   2.171   1.729   3.654
 7860SOL    HW124479   2.227   1.800   3.611
 7860SOL    HW224480   2.195   1.721   3.750
 7861SOL     OW24481   1.796   5.783   1.033
 7861SOL    HW124482   1.796   5.685   1.052
 7861SOL    HW224483   1.868   5.827   1.087
 7862SOL     OW24484   1.607   6.804   0.003
 7862SOL    HW124485   1.630   6.718   6.974
 7862SOL    HW224486   1.520   6.795   0.050
 7863SOL     OW24487   1.163   4.033   4.079
 7863SOL    HW124488   1.238   3.979   4.117
 7863SOL    HW224489   1.099   3.972   4.031
 7864SOL     OW24490   2.956   5.771   4.874
 7864SOL    HW124491   3.052   5.794   4.889
 7864SOL    HW224492   2.925   5.711   4.948
 7865SOL     OW24493   6.037   4.975   4.071
 7865SOL    HW124494   6.127   4.937   4.090
 7865SOL    HW224495   5.991   4.920   4.001
 7866SOL     OW24496   1.307   0.942   5.487
 7866SOL    HW124497   1.264   1.032   5.488
 7866SOL    HW224498   1.405   0.952   5.506
 7867SOL     OW24499   3.635   5.075   3.794
 7867SOL    HW124500   3.608   5.130   3.716
 7867SOL    HW224501   3.646   5.133   3.874
 7868SOL     OW24502   3.467   6.335   1.583
 7868SOL    HW124503   3.397   6.387   1.535
 7868SOL    HW224504   3.427   6.252   1.622
 7869SOL     OW24505   5.625   4.699   0.062
 7869SOL    HW124506   5.678   4.634   0.116
 7869SOL    HW224507   5.551   4.651   0.015
 7870SOL     OW24508   6.579   0.067   3.805
 7870SOL    HW124509   6.574   0.016   3.890
 7870SOL    HW224510   6.487   0.075   3.765
 7871SOL     OW24511   4.782   1.547   0.515
 7871SOL    HW124512   4.831   1.487   0.452
 7871SOL    HW224513   4.684   1.537   0.500
 7872SOL     OW24514   0.396   4.683   3.230
 7872SOL    HW124515   0.363   4.775   3.210
 7872SOL    HW224516   0.458   4.686   3.307
 7873SOL     OW24517   4.630   2.356   6.626
 7873SOL    HW124518   4.688   2.411   6.566
 7873SOL    HW224519   4.639   2.259   6.601
 7874SOL     OW24520   6.271   2.755   6.673
 7874SOL    HW124521   6.368   2.755   6.698
 7874SOL    HW224522   6.255   2.690   6.599
 7875SOL     OW24523   6.634   4.536   6.818
 7875SOL    HW124524   6.544   4.564   6.784
 7875SOL    HW224525   6.623   4.463   6.886
 7876SOL     OW24526   1.373   6.542   3.185
 7876SOL    HW124527   1.289   6.584   3.221
 7876SOL    HW224528   1.427   6.506   3.261
 7877SOL     OW24529   0.357   3.040   2.479
 7877SOL    HW124530   0.344   3.127   2.432
 7877SOL    HW224531   0.397   2.973   2.416
 7878SOL     OW24532   3.866   6.895   2.649
 7878SOL    HW124533   3.839   6.848   2.565
 7878SOL    HW224534   3.955   6.939   2.635
 7879SOL     OW24535   2.996   5.989   2.914
 7879SOL    HW124536   3.051   5.976   2.831
 7879SOL    HW224537   2.928   5.916   2.921
 7880SOL     OW24538   0.508   4.462   2.312
 7880SOL    HW124539   0.473   4.542   2.264
 7880SOL    HW224540   0.432   4.412   2.354
 7881SOL     OW24541   4.810   3.019   3.803
 7881SOL    HW124542   4.900   3.049   3.772
 7881SOL    HW224543   4.748   3.010   3.725
 7882SOL     OW24544   0.079   2.723   6.566
 7882SOL    HW124545   0.097   2.625   6.576
 7882SOL    HW224546   0.020   2.754   6.640
 7883SOL     OW24547   0.570   6.754   4.254
 7883SOL    HW124548   0.495   6.729   4.192
 7883SOL    HW224549   0.580   6.684   4.324
 7884SOL     OW24550   1.682   2.685   4.096
 7884SOL    HW124551   1.600   2.695   4.038
 7884SOL    HW224552   1.695   2.588   4.118
 7885SOL     OW24553   0.143   6.232   6.665
 7885SOL    HW124554   0.061   6.179   6.686
 7885SOL    HW224555   0.127   6.328   6.688
 7886SOL     OW24556   4.849   3.846   0.607
 7886SOL    HW124557   4.920   3.830   0.539
 7886SOL    HW224558   4.759   3.839   0.564
 7887SOL     OW24559   4.581   2.675   6.088
 7887SOL    HW124560   4.557   2.586   6.126
 7887SOL    HW224561   4.663   2.666   6.031
 7888SOL     OW24562   4.111   5.917   4.411
 7888SOL    HW124563   4.060   6.001   4.394
 7888SOL    HW224564   4.208   5.940   4.421
 7889SOL     OW24565   6.231   5.065   3.402
 7889SOL    HW124566   6.190   5.076   3.492
 7889SOL    HW224567   6.172   5.106   3.333
 7890SOL     OW24568   1.786   3.575   2.586
 7890SOL    HW124569   1.861   3.593   2.523
 7890SOL    HW224570   1.808   3.494   2.641
 7891SOL     OW24571   1.039   4.521   3.171
 7891SOL    HW124572   1.051   4.576   3.254
 7891SOL    HW224573   1.129   4.489   3.139
 7892SOL     OW24574   2.006   2.099   4.871
 7892SOL    HW124575   2.001   2.115   4.969
 7892SOL    HW224576   1.945   2.023   4.846
 7893SOL     OW24577   5.220   6.734   0.894
 7893SOL    HW124578   5.298   6.723   0.956
 7893SOL    HW224579   5.162   6.653   0.900
 7894SOL     OW24580   2.789   0.597   1.764
 7894SOL    HW124581   2.697   0.636   1.764
 7894SOL    HW224582   2.853   0.661   1.807
 7895SOL     OW24583   6.958   1.517   3.822
 7895SOL    HW124584   0.010   1.581   3.784
 7895SOL    HW224585   7.000   1.428   3.835
 7896SOL     OW24586   3.737   1.839   6.590
 7896SOL    HW124587   3.775   1.839   6.498
 7896SOL    HW224588   3.649   1.791   6.590
 7897SOL     OW24589   2.929   3.462   6.608
 7897SOL    HW124590   2.884   3.373   6.623
 7897SOL    HW224591   2.865   3.523   6.561
 7898SOL     OW24592   5.390   1.417   4.450
 7898SOL    HW124593   5.376   1.353   4.375
 7898SOL    HW224594   5.409   1.508   4.413
 7899SOL     OW24595   4.499   0.903   2.048
 7899SOL    HW124596   4.409   0.945   2.033
 7899SOL    HW224597   4.569   0.959   2.003
 7900SOL     OW24598   0.833   5.997   1.507
 7900SOL    HW124599   0.877   5.947   1.581
 7900SOL    HW224600   0.848   5.949   1.420
 7901SOL     OW24601   5.845   4.828   1.062
 7901SOL    HW124602   5.828   4.926   1.066
 7901SOL    HW224603   5.832   4.796   0.968
 7902SOL     OW24604   4.994   4.719   5.748
 7902SOL    HW124605   5.071   4.755   5.801
 7902SOL    HW224606   4.909   4.758   5.782
 7903SOL     OW24607   0.140   3.018   1.260
 7903SOL    HW124608   0.187   2.992   1.344
 7903SOL    HW224609   0.183   3.100   1.222
 7904SOL     OW24610   5.769   2.729   3.208
 7904SOL    HW124611   5.811   2.639   3.200
 7904SOL    HW224612   5.827   2.788   3.264
 7905SOL     OW24613   1.787   1.617   2.306
 7905SOL    HW124614   1.693   1.651   2.305
 7905SOL    HW224615   1.795   1.538   2.245
 7906SOL     OW24616   0.709   4.814   6.812
 7906SOL    HW124617   0.739   4.818   6.717
 7906SOL    HW224618   0.739   4.727   6.852
 7907SOL     OW24619   0.407   2.904   2.748
 7907SOL    HW124620   0.323   2.848   2.752
 7907SOL    HW224621   0.413   2.948   2.659
 7908SOL     OW24622   0.329   1.854   2.735
 7908SOL    HW124623   0.333   1.777   2.800
 7908SOL    HW224624   0.341   1.940   2.785
 7909SOL     OW24625   4.192   6.561   4.961
 7909SOL    HW124626   4.252   6.641   4.963
 7909SOL    HW224627   4.199   6.512   5.048
 7910SOL     OW24628   6.806   2.781   5.643
 7910SOL    HW124629   6.770   2.690   5.623
 7910SOL    HW224630   6.777   2.845   5.572
 7911SOL     OW24631   0.325   5.374   6.546
 7911SOL    HW124632   0.412   5.419   6.568
 7911SOL    HW224633   0.266   5.375   6.627
 7912SOL     OW24634   0.040   5.552   5.401
 7912SOL    HW124635   7.001   5.530   5.481
 7912SOL    HW224636   7.006   5.616   5.342
 7913SOL     OW24637   1.383   6.276   6.573
 7913SOL    HW124638   1.437   6.229   6.503
 7913SOL    HW224639   1.311   6.330   6.529
 7914SOL     OW24640   6.186   4.357   0.603
 7914SOL    HW124641   6.090   4.331   0.588
 7914SOL    HW224642   6.198   4.390   0.696
 7915SOL     OW24643   2.773   1.031   2.777
 7915SOL    HW124644   2.811   1.121   2.756
 7915SOL    HW224645   2.746   1.027   2.873
 7916SOL     OW24646   4.506   3.726   5.539
 7916SOL    HW124647   4.506   3.812   5.589
 7916SOL    HW224648   4.414   3.685   5.542
 7917SOL     OW24649   4.165   3.450   3.566
 7917SOL    HW124650   4.125   3.370   3.522
 7917SOL    HW224651   4.264   3.438   3.572
 7918SOL     OW24652   5.598   1.940   1.878
 7918SOL    HW124653   5.683   1.916   1.924
 7918SOL    HW224654   5.549   2.009   1.931
 7919SOL     OW24655   5.343   3.932   2.192
 7919SOL    HW124656   5.342   3.901   2.287
 7919SOL    HW224657   5.420   3.995   2.178
 7920SOL     OW24658   0.577   6.413   1.431
 7920SOL    HW124659   0.496   6.354   1.433
 7920SOL    HW224660   0.656   6.362   1.462
 7921SOL     OW24661   2.812   5.378   1.993
 7921SOL    HW124662   2.910   5.375   1.974
 7921SOL    HW224663   2.763   5.321   1.927
 7922SOL     OW24664   0.499   4.717   5.151
 7922SOL    HW124665   0.521   4.626   5.116
 7922SOL    HW224666   0.541   4.729   5.242
 7923SOL     OW24667   1.269   1.970   3.222
 7923SOL    HW124668   1.345   1.972   3.287
 7923SOL    HW224669   1.187   2.006   3.265
 7924SOL     OW24670   2.450   1.253   3.481
 7924SOL    HW124671   2.365   1.300   3.459
 7924SOL    HW224672   2.491   1.292   3.563
 7925SOL     OW24673   0.903   1.063   6.954
 7925SOL    HW124674   0.939   1.055   0.031
 7925SOL    HW224675   0.969   1.112   6.897
 7926SOL     OW24676   3.309   0.351   1.988
 7926SOL    HW124677   3.398   0.361   1.943
 7926SOL    HW224678   3.259   0.274   1.947
 7927SOL     OW24679   4.243   4.727   4.539
 7927SOL    HW124680   4.285   4.752   4.626
 7927SOL    HW224681   4.311   4.682   4.481
 7928SOL     OW24682   0.501   4.289   0.002
 7928SOL    HW124683   0.460   4.199   7.010
 7928SOL    HW224684   0.588   4.282   0.050
 7929SOL     OW24685   3.504   4.204   4.867
 7929SOL    HW124686   3.461   4.152   4.793
 7929SOL    HW224687   3.498   4.302   4.847
 7930SOL     OW24688   4.224   6.660   2.631
 7930SOL    HW124689   4.165   6.583   2.607
 7930SOL    HW224690   4.319   6.639   2.606
 7931SOL     OW24691   2.908   3.550   6.121
 7931SOL    HW124692   2.879   3.615   6.051
 7931SOL    HW224693   2.902   3.457   6.085
 7932SOL     OW24694   3.314   0.665   0.423
 7932SOL    HW124695   3.408   0.652   0.456
 7932SOL    HW224696   3.277   0.577   0.395
 7933SOL     OW24697   1.961   1.503   6.339
 7933SOL    HW124698   1.976   1.568   6.265
 7933SOL    HW224699   2.049   1.469   6.373
 7934SOL     OW24700   4.347   2.006   5.852
 7934SOL    HW124701   4.355   1.910   5.824
 7934SOL    HW224702   4.341   2.010   5.952
 7935SOL     OW24703   4.949   5.871   1.992
 7935SOL    HW124704   5.046   5.863   2.014
 7935SOL    HW224705   4.938   5.904   1.899
 7936SOL     OW24706   3.899   6.341   1.968
 7936SOL    HW124707   3.913   6.368   2.063
 7936SOL    HW224708   3.985   6.304   1.931
 7937SOL     OW24709   6.099   1.832   5.965
 7937SOL    HW124710   6.121   1.921   6.005
 7937SOL    HW224711   6.052   1.776   6.032
 7938SOL     OW24712   6.271   4.893   3.830
 7938SOL    HW124713   6.350   4.840   3.800
 7938SOL    HW224714   6.302   4.971   3.884
 7939SOL     OW24715   0.232   6.200   3.725
 7939SOL    HW124716   0.287   6.198   3.641
 7939SOL    HW224717   0.268   6.270   3.786
 7940SOL     OW24718   1.622   6.431   0.635
 7940SOL    HW124719   1.530   6.466   0.621
 7940SOL    HW224720   1.673   6.491   0.697
 7941SOL     OW24721   0.585   0.774   0.901
 7941SOL    HW124722   0.656   0.738   0.963
 7941SOL    HW224723   0.506   0.713   0.902
 7942SOL     OW24724   1.001   0.587   1.765
 7942SOL    HW124725   0.973   0.495   1.793
 7942SOL    HW224726   0.964   0.654   1.829
 7943SOL     OW24727   6.007   2.067   0.433
 7943SOL    HW124728   5.948   2.112   0.367
 7943SOL    HW224729   5.952   2.024   0.504
 7944SOL     OW24730   6.590   4.270   2.002
 7944SOL    HW124731   6.638   4.228   2.080
 7944SOL    HW224732   6.495   4.239   2.002
 7945SOL     OW24733   5.755   0.251   0.913
 7945SOL    HW124734   5.785   0.320   0.978
 7945SOL    HW224735   5.659   0.226   0.931
 7946SOL     OW24736   2.390   1.465   5.434
 7946SOL    HW124737   2.474   1.486   5.384
 7946SOL    HW224738   2.353   1.378   5.401
 7947SOL     OW24739   4.363   5.308   6.242
 7947SOL    HW124740   4.348   5.375   6.170
 7947SOL    HW224741   4.354   5.352   6.332
 7948SOL     OW24742   1.175   5.213   6.046
 7948SOL    HW124743   1.087   5.256   6.025
 7948SOL    HW224744   1.195   5.142   5.978
 7949SOL     OW24745   6.949   3.754   4.250
 7949SOL    HW124746   6.907   3.756   4.340
 7949SOL    HW224747   6.886   3.711   4.185
 7950SOL     OW24748   3.402   5.062   4.112
 7950SOL    HW124749   3.500   5.061   4.129
 7950SOL    HW224750   3.356   4.997   4.172
 7951SOL     OW24751   2.098   3.415   0.913
 7951SOL    HW124752   2.034   3.491   0.901
 7951SOL    HW224753   2.192   3.448   0.904
 7952SOL     OW24754   5.616   4.708   0.800
 7952SOL    HW124755   5.592   4.615   0.774
 7952SOL    HW224756   5.716   4.717   0.805
 7953SOL     OW24757   1.872   3.895   2.258
 7953SOL    HW124758   1.851   3.949   2.176
 7953SOL    HW224759   1.801   3.910   2.327
 7954SOL     OW24760   5.347   5.041   4.258
 7954SOL    HW124761   5.356   4.993   4.345
 7954SOL    HW224762   5.251   5.065   4.243
 7955SOL     OW24763   2.054   6.153   6.181
 7955SOL    HW124764   2.100   6.237   6.210
 7955SOL    HW224765   2.049   6.090   6.258
 7956SOL     OW24766   5.896   6.099   2.682
 7956SOL    HW124767   5.812   6.047   2.669
 7956SOL    HW224768   5.973   6.050   2.640
 7957SOL     OW24769   1.666   2.494   1.058
 7957SOL    HW124770   1.754   2.479   1.102
 7957SOL    HW224771   1.614   2.563   1.108
 7958SOL     OW24772   2.876   5.740   3.300
 7958SOL    HW124773   2.967   5.750   3.259
 7958SOL    HW224774   2.860   5.813   3.366
 7959SOL     OW24775   4.878   5.298   1.837
 7959SOL    HW124776   4.880   5.220   1.774
 7959SOL    HW224777   4.913   5.270   1.926
 7960SOL     OW24778   1.659   2.636   1.316
 7960SOL    HW124779   1.574   2.686   1.299
 7960SOL    HW224780   1.674   2.626   1.414
 7961SOL     OW24781   0.540   5.625   0.426
 7961SOL    HW124782   0.519   5.528   0.437
 7961SOL    HW224783   0.637   5.636   0.406
 7962SOL     OW24784   1.425   6.993   2.600
 7962SOL    HW124785   1.404   6.903   2.639
 7962SOL    HW224786   1.382   7.002   2.511
 7963SOL     OW24787   0.750   6.485   5.631
 7963SOL    HW124788   0.707   6.394   5.626
 7963SOL    HW224789   0.848   6.476   5.616
 7964SOL     OW24790   6.181   5.476   3.467
 7964SOL    HW124791   6.096   5.529   3.475
 7964SOL    HW224792   6.223   5.466   3.557
 7965SOL     OW24793   4.180   1.619   0.563
 7965SOL    HW124794   4.135   1.575   0.641
 7965SOL    HW224795   4.269   1.577   0.547
 7966SOL     OW24796   0.140   0.692   3.685
 7966SOL    HW124797   0.174   0.613   3.633
 7966SOL    HW224798   0.164   0.680   3.782
 7967SOL     OW24799   3.244   0.376   3.502
 7967SOL    HW124800   3.276   0.295   3.550
 7967SOL    HW224801   3.252   0.362   3.403
 7968SOL     OW24802   2.415   0.736   1.204
 7968SOL    HW124803   2.391   0.645   1.237
 7968SOL    HW224804   2.353   0.762   1.130
 7969SOL     OW24805   3.468   1.462   3.635
 7969SOL    HW124806   3.565   1.439   3.629
 7969SOL    HW224807   3.421   1.427   3.554
 7970SOL     OW24808   0.867   4.580   3.443
 7970SOL    HW124809   0.871   4.484   3.414
 7970SOL    HW224810   0.811   4.631   3.378
 7971SOL     OW24811   3.104   1.885   2.231
 7971SOL    HW124812   3.033   1.852   2.293
 7971SOL    HW224813   3.104   1.985   2.230
 7972SOL     OW24814   5.785   5.888   1.619
 7972SOL    HW124815   5.716   5.958   1.638
 7972SOL    HW224816   5.751   5.799   1.650
 7973SOL     OW24817   4.999   1.818   3.068
 7973SOL    HW124818   4.979   1.786   3.161
 7973SOL    HW224819   4.921   1.869   3.032
 7974SOL     OW24820   5.308   6.213   4.677
 7974SOL    HW124821   5.218   6.235   4.716
 7974SOL    HW224822   5.378   6.225   4.747
 7975SOL     OW24823   1.406   1.796   2.817
 7975SOL    HW124824   1.315   1.770   2.849
 7975SOL    HW224825   1.409   1.790   2.717
 7976SOL     OW24826   1.779   0.021   6.373
 7976SOL    HW124827   1.841   0.069   6.312
 7976SOL    HW224828   1.831   6.990   6.444
 7977SOL     OW24829   5.391   6.427   1.071
 7977SOL    HW124830   5.394   6.436   0.972
 7977SOL    HW224831   5.342   6.505   1.110
 7978SOL     OW24832   3.374   1.682   5.984
 7978SOL    HW124833   3.277   1.706   5.990
 7978SOL    HW224834   3.423   1.755   5.937
 7979SOL     OW24835   4.862   6.035   4.206
 7979SOL    HW124836   4.948   6.049   4.256
 7979SOL    HW224837   4.836   5.939   4.210
 7980SOL     OW24838   2.770   0.432   2.466
 7980SOL    HW124839   2.755   0.464   2.372
 7980SOL    HW224840   2.867   0.417   2.481
 7981SOL     OW24841   1.058   6.041   2.203
 7981SOL    HW124842   1.088   6.026   2.108
 7981SOL    HW224843   1.123   6.100   2.250
 7982SOL     OW24844   0.096   2.853   0.427
 7982SOL    HW124845   0.153   2.812   0.499
 7982SOL    HW224846   0.145   2.928   0.383
 7983SOL     OW24847   5.119   2.515   1.388
 7983SOL    HW124848   5.173   2.455   1.329
 7983SOL    HW224849   5.138   2.610   1.364
 7984SOL     OW24850   6.577   0.796   0.895
 7984SOL    HW124851   6.487   0.838   0.905
 7984SOL    HW224852   6.645   0.867   0.874
 7985SOL     OW24853   1.210   1.218   1.101
 7985SOL    HW124854   1.210   1.313   1.072
 7985SOL    HW224855   1.297   1.196   1.144
 7986SOL     OW24856   4.619   3.759   0.464
 7986SOL    HW124857   4.530   3.762   0.511
 7986SOL    HW224858   4.609   3.797   0.372
 7987SOL     OW24859   0.929   3.015   4.753
 7987SOL    HW124860   0.903   2.923   4.721
 7987SOL    HW224861   0.862   3.082   4.719
 7988SOL     OW24862   3.076   1.496   5.396
 7988SOL    HW124863   2.980   1.520   5.412
 7988SOL    HW224864   3.135   1.567   5.433
 7989SOL     OW24865   3.326   3.628   6.651
 7989SOL    HW124866   3.285   3.643   6.561
 7989SOL    HW224867   3.260   3.586   6.712
 7990SOL     OW24868   2.297   2.652   4.758
 7990SOL    HW124869   2.320   2.557   4.738
 7990SOL    HW224870   2.277   2.661   4.856
 7991SOL     OW24871   2.502   3.049   6.220
 7991SOL    HW124872   2.443   2.978   6.260
 7991SOL    HW224873   2.565   3.082   6.289
 7992SOL     OW24874   2.922   1.357   0.836
 7992SOL    HW124875   2.889   1.320   0.749
 7992SOL    HW224876   3.022   1.347   0.839
 7993SOL     OW24877   2.873   5.574   6.161
 7993SOL    HW124878   2.961   5.622   6.152
 7993SOL    HW224879   2.799   5.636   6.134
 7994SOL     OW24880   5.777   0.607   4.365
 7994SOL    HW124881   5.823   0.531   4.411
 7994SOL    HW224882   5.777   0.593   4.267
 7995SOL     OW24883   4.482   5.431   2.587
 7995SOL    HW124884   4.405   5.494   2.589
 7995SOL    HW224885   4.491   5.392   2.495
 7996SOL     OW24886   4.384   1.025   5.429
 7996SOL    HW124887   4.328   1.095   5.386
 7996SOL    HW224888   4.326   0.960   5.477
 7997SOL     OW24889   5.303   3.065   0.898
 7997SOL    HW124890   5.309   3.014   0.812
 7997SOL    HW224891   5.393   3.103   0.921
 7998SOL     OW24892   6.162   4.967   5.961
 7998SOL    HW124893   6.112   4.994   6.043
 7998SOL    HW224894   6.206   4.879   5.975
 7999SOL     OW24895   2.554   2.476   5.657
 7999SOL    HW124896   2.504   2.390   5.670
 7999SOL    HW224897   2.638   2.459   5.606
 8000SOL     OW24898   4.921   0.590   5.855
 8000SOL    HW124899   4.981   0.608   5.778
 8000SOL    HW224900   4.973   0.598   5.940
 8001SOL     OW24901   2.398   5.282   0.474
 8001SOL    HW124902   2.435   5.242   0.390
 8001SOL    HW224903   2.405   5.382   0.469
 8002SOL     OW24904   4.803   2.230   5.683
 8002SOL    HW124905   4.745   2.156   5.716
 8002SOL    HW224906   4.842   2.205   5.594
 8003SOL     OW24907   4.691   5.356   3.383
 8003SOL    HW124908   4.790   5.372   3.389
 8003SOL    HW224909   4.656   5.332   3.474
 8004SOL     OW24910   1.182   4.279   3.496
 8004SOL    HW124911   1.171   4.276   3.596
 8004SOL    HW224912   1.241   4.204   3.467
 8005SOL     OW24913   2.112   0.538   2.529
 8005SOL    HW124914   2.106   0.530   2.629
 8005SOL    HW224915   2.203   0.569   2.503
 8006SOL     OW24916   4.112   6.055   1.859
 8006SOL    HW124917   4.172   6.133   1.875
 8006SOL    HW224918   4.115   6.030   1.762
 8007SOL     OW24919   0.301   1.065   3.865
 8007SOL    HW124920   0.377   1.125   3.889
 8007SOL    HW224921   0.326   1.010   3.785
 8008SOL     OW24922   6.012   5.667   1.168
 8008SOL    HW124923   5.987   5.649   1.264
 8008SOL    HW224924   5.968   5.752   1.138
 8009SOL     OW24925   6.993   6.734   3.385
 8009SOL    HW124926   0.042   6.781   3.444
 8009SOL    HW224927   6.925   6.687   3.440
 8010SOL     OW24928   1.964   2.223   6.922
 8010SOL    HW124929   1.874   2.199   6.886
 8010SOL    HW224930   1.964   2.212   0.005
 8011SOL     OW24931   2.361   2.875   0.170
 8011SOL    HW124932   2.351   2.793   0.115
 8011SOL    HW224933   2.334   2.856   0.264
 8012SOL     OW24934   2.471   6.573   3.002
 8012SOL    HW124935   2.501   6.668   3.011
 8012SOL    HW224936   2.390   6.558   3.060
 8013SOL     OW24937   6.278   5.296   5.076
 8013SOL    HW124938   6.336   5.334   5.004
 8013SOL    HW224939   6.229   5.217   5.041
 8014SOL     OW24940   2.464   6.675   6.736
 8014SOL    HW124941   2.531   6.636   6.672
 8014SOL    HW224942   2.377   6.688   6.689
 8015SOL     OW24943   1.667   2.210   0.144
 8015SOL    HW124944   1.652   2.125   0.194
 8015SOL    HW224945   1.640   2.198   0.048
 8016SOL     OW24946   4.222   6.289   1.924
 8016SOL    HW124947   4.206   6.379   1.884
 8016SOL    HW224948   4.253   6.299   2.018
 8017SOL     OW24949   6.338   3.395   5.691
 8017SOL    HW124950   6.361   3.307   5.650
 8017SOL    HW224951   6.298   3.455   5.622
 8018SOL     OW24952   5.477   2.851   3.990
 8018SOL    HW124953   5.395   2.846   3.933
 8018SOL    HW224954   5.458   2.806   4.078
 8019SOL     OW24955   3.091   5.306   1.113
 8019SOL    HW124956   3.185   5.328   1.138
 8019SOL    HW224957   3.038   5.390   1.100
 8020SOL     OW24958   5.732   6.995   6.615
 8020SOL    HW124959   5.716   6.964   6.521
 8020SOL    HW224960   5.654   6.970   6.672
 8021SOL     OW24961   6.594   1.240   0.896
 8021SOL    HW124962   6.558   1.156   0.854
 8021SOL    HW224963   6.666   1.217   0.960
 8022SOL     OW24964   4.670   4.902   3.593
 8022SOL    HW124965   4.720   4.815   3.593
 8022SOL    HW224966   4.581   4.889   3.550
 8023SOL     OW24967   0.024   5.930   3.559
 8023SOL    HW124968   6.950   5.892   3.577
 8023SOL    HW224969   0.093   5.858   3.568
 8024SOL     OW24970   4.517   5.359   4.742
 8024SOL    HW124971   4.480   5.435   4.796
 8024SOL    HW224972   4.455   5.339   4.666
 8025SOL     OW24973   3.585   5.931   0.635
 8025SOL    HW124974   3.601   5.935   0.537
 8025SOL    HW224975   3.507   5.871   0.653
 8026SOL     OW24976   2.248   1.952   6.594
 8026SOL    HW124977   2.315   1.889   6.555
 8026SOL    HW224978   2.176   1.971   6.527
 8027SOL     OW24979   4.437   3.276   5.335
 8027SOL    HW124980   4.432   3.177   5.342
 8027SOL    HW224981   4.531   3.305   5.321
 8028SOL     OW24982   5.888   5.247   0.307
 8028SOL    HW124983   5.950   5.227   0.231
 8028SOL    HW224984   5.793   5.246   0.274
 8029SOL     OW24985   3.095   4.609   6.103
 8029SOL    HW124986   3.114   4.580   6.196
 8029SOL    HW224987   3.181   4.626   6.055
 8030SOL     OW24988   6.335   3.490   0.976
 8030SOL    HW124989   6.270   3.480   0.901
 8030SOL    HW224990   6.305   3.563   1.037
 8031SOL     OW24991   3.967   6.278   1.284
 8031SOL    HW124992   3.903   6.202   1.298
 8031SOL    HW224993   3.921   6.364   1.301
 8032SOL     OW24994   4.688   3.777   5.831
 8032SOL    HW124995   4.695   3.701   5.766
 8032SOL    HW224996   4.594   3.784   5.864
 8033SOL     OW24997   6.466   2.122   1.467
 8033SOL    HW124998   6.516   2.200   1.502
 8033SOL    HW224999   6.369   2.146   1.458
 8034SOL     OW25000   6.333   1.915   5.361
 8034SOL    HW125001   6.252   1.946   5.411
 8034SOL    HW225002   6.323   1.818   5.339
 8035SOL     OW25003   5.638   6.164   6.264
 8035SOL    HW125004   5.645   6.184   6.362
 8035SOL    HW225005   5.710   6.099   6.238
 8036SOL     OW25006   1.394   4.633   1.754
 8036SOL    HW125007   1.304   4.593   1.775
 8036SOL    HW225008   1.381   4.722   1.711
 8037SOL     OW25009   2.166   3.188   1.878
 8037SOL    HW125010   2.195   3.276   1.917
 8037SOL    HW225011   2.154   3.197   1.779
 8038SOL     OW25012   5.846   1.325   3.784
 8038SOL    HW125013   5.899   1.252   3.741
 8038SOL    HW225014   5.757   1.289   3.813
 8039SOL     OW25015   2.143   5.748   4.089
 8039SOL    HW125016   2.149   5.694   4.173
 8039SOL    HW225017   2.076   5.821   4.101
 8040SOL     OW25018   5.656   5.939   0.378
 8040SOL    HW125019   5.688   6.031   0.355
 8040SOL    HW225020   5.621   5.894   0.295
 8041SOL     OW25021   3.172   1.864   1.586
 8041SOL    HW125022   3.104   1.919   1.635
 8041SOL    HW225023   3.126   1.797   1.529
 8042SOL     OW25024   2.345   5.325   6.936
 8042SOL    HW125025   2.407   5.360   7.006
 8042SOL    HW225026   2.333   5.227   6.948
 8043SOL     OW25027   2.904   0.543   1.523
 8043SOL    HW125028   2.891   0.544   1.622
 8043SOL    HW225029   2.929   0.634   1.492
 8044SOL     OW25030   3.016   3.063   2.344
 8044SOL    HW125031   3.014   3.162   2.333
 8044SOL    HW225032   3.055   3.040   2.433
 8045SOL     OW25033   6.469   2.909   3.624
 8045SOL    HW125034   6.436   2.862   3.542
 8045SOL    HW225035   6.530   2.984   3.597
 8046SOL     OW25036   0.016   5.212   5.058
 8046SOL    HW125037   0.049   5.233   5.150
 8046SOL    HW225038   0.087   5.164   5.007
 8047SOL     OW25039   2.488   0.026   4.756
 8047SOL    HW125040   2.444   0.086   4.689
 8047SOL    HW225041   2.467   0.057   4.849
 8048SOL     OW25042   5.744   0.457   5.844
 8048SOL    HW125043   5.823   0.513   5.817
 8048SOL    HW225044   5.674   0.464   5.773
 8049SOL     OW25045   1.585   0.161   0.377
 8049SOL    HW125046   1.634   0.074   0.388
 8049SOL    HW225047   1.636   0.234   0.422
 8050SOL     OW25048   0.231   3.336   1.570
 8050SOL    HW125049   0.319   3.290   1.559
 8050SOL    HW225050   0.218   3.402   1.496
 8051SOL     OW25051   2.818   1.526   3.804
 8051SOL    HW125052   2.774   1.570   3.881
 8051SOL    HW225053   2.917   1.524   3.819
 8052SOL     OW25054   3.475   1.762   3.070
 8052SOL    HW125055   3.526   1.715   3.142
 8052SOL    HW225056   3.415   1.831   3.112
 8053SOL     OW25057   4.224   3.482   1.758
 8053SOL    HW125058   4.126   3.482   1.736
 8053SOL    HW225059   4.250   3.391   1.791
 8054SOL     OW25060   4.677   6.426   4.398
 8054SOL    HW125061   4.699   6.480   4.317
 8054SOL    HW225062   4.587   6.454   4.433
 8055SOL     OW25063   0.944   0.227   5.684
 8055SOL    HW125064   0.947   0.221   5.585
 8055SOL    HW225065   0.848   0.229   5.714
 8056SOL     OW25066   4.771   1.295   2.331
 8056SOL    HW125067   4.713   1.214   2.323
 8056SOL    HW225068   4.742   1.349   2.411
 8057SOL     OW25069   3.253   0.114   3.713
 8057SOL    HW125070   3.255   0.046   3.786
 8057SOL    HW225071   3.180   0.092   3.649
 8058SOL     OW25072   1.885   6.923   3.242
 8058SOL    HW125073   1.889   6.929   3.142
 8058SOL    HW225074   1.790   6.907   3.271
 8059SOL     OW25075   2.083   1.055   3.993
 8059SOL    HW125076   2.174   1.017   3.973
 8059SOL    HW225077   2.085   1.102   4.081
 8060SOL     OW25078   0.631   2.499   5.221
 8060SOL    HW125079   0.729   2.492   5.207
 8060SOL    HW225080   0.597   2.415   5.263
 8061SOL     OW25081   6.242   6.559   2.847
 8061SOL    HW125082   6.232   6.561   2.947
 8061SOL    HW225083   6.251   6.465   2.816
 8062SOL     OW25084   1.513   3.237   1.752
 8062SOL    HW125085   1.594   3.234   1.810
 8062SOL    HW225086   1.501   3.148   1.707
 8063SOL     OW25087   2.608   3.061   5.962
 8063SOL    HW125088   2.575   3.048   6.056
 8063SOL    HW225089   2.530   3.074   5.901
 8064SOL     OW25090   6.752   2.270   5.468
 8064SOL    HW125091   6.707   2.273   5.379
 8064SOL    HW225092   6.721   2.189   5.519
 8065SOL     OW25093   4.664   6.933   6.495
 8065SOL    HW125094   4.573   6.898   6.478
 8065SOL    HW225095   4.659   0.014   6.517
 8066SOL     OW25096   1.941   0.063   1.637
 8066SOL    HW125097   1.920   0.117   1.719
 8066SOL    HW225098   1.962   6.985   1.663
 8067SOL     OW25099   4.750   2.326   2.206
 8067SOL    HW125100   4.801   2.393   2.151
 8067SOL    HW225101   4.687   2.276   2.147
 8068SOL     OW25102   6.586   4.867   4.360
 8068SOL    HW125103   6.680   4.881   4.388
 8068SOL    HW225104   6.524   4.896   4.433
 8069SOL     OW25105   0.858   6.351   2.012
 8069SOL    HW125106   0.909   6.433   2.038
 8069SOL    HW225107   0.856   6.287   2.089
 8070SOL     OW25108   3.623   0.299   2.512
 8070SOL    HW125109   3.640   0.234   2.585
 8070SOL    HW225110   3.673   0.272   2.430
 8071SOL     OW25111   5.223   5.352   7.012
 8071SOL    HW125112   5.270   5.332   6.927
 8071SOL    HW225113   5.270   5.308   0.072
 8072SOL     OW25114   4.116   0.574   3.043
 8072SOL    HW125115   4.022   0.554   3.013
 8072SOL    HW225116   4.166   0.616   2.968
 8073SOL     OW25117   5.217   0.378   6.118
 8073SOL    HW125118   5.267   0.382   6.204
 8073SOL    HW225119   5.276   0.335   6.048
 8074SOL     OW25120   3.057   4.065   6.802
 8074SOL    HW125121   3.071   4.094   6.896
 8074SOL    HW225122   3.087   3.970   6.792
 8075SOL     OW25123   5.946   2.095   3.675
 8075SOL    HW125124   5.916   2.178   3.723
 8075SOL    HW225125   6.026   2.057   3.721
 8076SOL     OW25126   4.785   3.294   6.254
 8076SOL    HW125127   4.846   3.262   6.182
 8076SOL    HW225128   4.691   3.298   6.220
 8077SOL     OW25129   0.976   0.194   0.195
 8077SOL    HW125130   0.948   0.268   0.133
 8077SOL    HW225131   0.976   0.228   0.289
 8078SOL     OW25132   5.796   2.989   1.080
 8078SOL    HW125133   5.847   3.066   1.042
 8078SOL    HW225134   5.802   2.991   1.180
 8079SOL     OW25135   1.299   2.246   1.178
 8079SOL    HW125136   1.363   2.169   1.185
 8079SOL    HW225137   1.260   2.265   1.268
 8080SOL     OW25138   3.920   5.365   6.951
 8080SOL    HW125139   3.892   5.408   0.020
 8080SOL    HW225140   3.898   5.425   6.874
 8081SOL     OW25141   5.736   2.308   4.770
 8081SOL    HW125142   5.711   2.310   4.673
 8081SOL    HW225143   5.666   2.354   4.824
 8082SOL     OW25144   6.202   3.743   4.857
 8082SOL    HW125145   6.258   3.701   4.928
 8082SOL    HW225146   6.127   3.682   4.832
 8083SOL     OW25147   5.750   1.697   4.980
 8083SOL    HW125148   5.738   1.750   5.065
 8083SOL    HW225149   5.661   1.686   4.935
 8084SOL     OW25150   6.341   0.016   0.141
 8084SOL    HW125151   6.257   6.980   0.130
 8084SOL    HW225152   6.386   7.006   0.227
 8085SOL     OW25153   5.203   2.413   0.629
 8085SOL    HW125154   5.253   2.498   0.621
 8085SOL    HW225155   5.141   2.403   0.551
 8086SOL     OW25156   2.386   5.455   5.686
 8086SOL    HW125157   2.319   5.495   5.749
 8086SOL    HW225158   2.447   5.395   5.737
 8087SOL     OW25159   2.611   3.731   0.918
 8087SOL    HW125160   2.695   3.736   0.971
 8087SOL    HW225161   2.544   3.796   0.956
 8088SOL     OW25162   4.623   0.814   3.277
 8088SOL    HW125163   4.623   0.792   3.375
 8088SOL    HW225164   4.713   0.795   3.238
 8089SOL     OW25165   6.612   2.782   0.734
 8089SOL    HW125166   6.540   2.742   0.678
 8089SOL    HW225167   6.692   2.722   0.734
 8090SOL     OW25168   4.350   1.891   5.139
 8090SOL    HW125169   4.437   1.842   5.147
 8090SOL    HW225170   4.332   1.912   5.043
 8091SOL     OW25171   1.707   4.118   5.751
 8091SOL    HW125172   1.806   4.107   5.762
 8091SOL    HW225173   1.685   4.121   5.653
 8092SOL     OW25174   6.208   1.703   4.233
 8092SOL    HW125175   6.115   1.677   4.209
 8092SOL    HW225176   6.208   1.756   4.318
 8093SOL     OW25177   5.726   5.409   0.610
 8093SOL    HW125178   5.788   5.435   0.684
 8093SOL    HW225179   5.633   5.437   0.634
 8094SOL     OW25180   0.750   3.516   4.082
 8094SOL    HW125181   0.751   3.473   3.991
 8094SOL    HW225182   0.672   3.578   4.089
 8095SOL     OW25183   6.548   3.281   4.463
 8095SOL    HW125184   6.571   3.252   4.556
 8095SOL    HW225185   6.511   3.203   4.412
 8096SOL     OW25186   4.537   0.007   0.705
 8096SOL    HW125187   4.478   0.013   0.624
 8096SOL    HW225188   4.513   6.942   0.758
 8097SOL     OW25189   4.699   1.580   4.230
 8097SOL    HW125190   4.662   1.670   4.253
 8097SOL    HW225191   4.708   1.524   4.312
 8098SOL     OW25192   2.071   1.514   4.316
 8098SOL    HW125193   2.113   1.550   4.399
 8098SOL    HW225194   1.978   1.550   4.307
 8099SOL     OW25195   3.574   6.577   4.622
 8099SOL    HW125196   3.527   6.562   4.709
 8099SOL    HW225197   3.600   6.673   4.614
 8100SOL     OW25198   6.651   5.934   1.324
 8100SOL    HW125199   6.608   5.980   1.247
 8100SOL    HW225200   6.622   5.978   1.409
 8101SOL     OW25201   0.162   4.888   1.886
 8101SOL    HW125202   0.237   4.935   1.932
 8101SOL    HW225203   0.088   4.873   1.952
 8102SOL     OW25204   6.470   0.150   5.578
 8102SOL    HW125205   6.497   0.088   5.651
 8102SOL    HW225206   6.499   0.112   5.490
 8103SOL     OW25207   2.540   2.403   2.394
 8103SOL    HW125208   2.537   2.484   2.453
 8103SOL    HW225209   2.632   2.391   2.358
 8104SOL     OW25210   2.690   0.095   6.096
 8104SOL    HW125211   2.673   0.159   6.020
 8104SOL    HW225212   2.762   0.133   6.155
 8105SOL     OW25213   1.560   2.901   3.296
 8105SOL    HW125214   1.515   2.814   3.273
 8105SOL    HW225215   1.520   2.937   3.381
 8106SOL     OW25216   0.441   4.090   5.251
 8106SOL    HW125217   0.363   4.117   5.308
 8106SOL    HW225218   0.412   4.020   5.186
 8107SOL     OW25219   1.380   5.318   6.703
 8107SOL    HW125220   1.406   5.226   6.674
 8107SOL    HW225221   1.418   5.338   6.793
 8108SOL     OW25222   2.298   2.963   5.967
 8108SOL    HW125223   2.277   2.910   5.885
 8108SOL    HW225224   2.276   3.059   5.951
 8109SOL     OW25225   0.522   5.197   5.760
 8109SOL    HW125226   0.528   5.203   5.860
 8109SOL    HW225227   0.611   5.220   5.720
 8110SOL     OW25228   1.250   5.109   0.524
 8110SOL    HW125229   1.160   5.139   0.555
 8110SOL    HW225230   1.302   5.188   0.490
 8111SOL     OW25231   3.237   5.808   3.895
 8111SOL    HW125232   3.140   5.814   3.920
 8111SOL    HW225233   3.273   5.900   3.881
 8112SOL     OW25234   4.101   0.896   3.912
 8112SOL    HW125235   4.106   0.911   3.813
 8112SOL    HW225236   4.159   0.963   3.959
 8113SOL     OW25237   3.043   2.880   5.647
 8113SOL    HW125238   3.057   2.813   5.575
 8113SOL    HW225239   3.020   2.969   5.607
 8114SOL     OW25240   3.150   3.473   1.702
 8114SOL    HW125241   3.172   3.560   1.657
 8114SOL    HW225242   3.055   3.449   1.681
 8115SOL     OW25243   3.508   2.872   0.862
 8115SOL    HW125244   3.486   2.881   0.959
 8115SOL    HW225245   3.574   2.943   0.837
 8116SOL     OW25246   5.591   1.475   5.994
 8116SOL    HW125247   5.656   1.403   6.019
 8116SOL    HW225248   5.637   1.564   5.999
 8117SOL     OW25249   3.164   2.672   5.870
 8117SOL    HW125250   3.178   2.624   5.783
 8117SOL    HW225251   3.088   2.736   5.861
 8118SOL     OW25252   1.225   2.126   3.684
 8118SOL    HW125253   1.131   2.124   3.650
 8118SOL    HW225254   1.225   2.118   3.784
 8119SOL     OW25255   1.407   6.674   2.331
 8119SOL    HW125256   1.308   6.680   2.342
 8119SOL    HW225257   1.442   6.599   2.387
 8120SOL     OW25258   4.649   4.323   2.575
 8120SOL    HW125259   4.633   4.288   2.667
 8120SOL    HW225260   4.585   4.397   2.556
 8121SOL     OW25261   6.946   5.845   2.918
 8121SOL    HW125262   6.847   5.856   2.907
 8121SOL    HW225263   6.965   5.752   2.949
 8122SOL     OW25264   6.813   5.634   1.898
 8122SOL    HW125265   6.726   5.600   1.934
 8122SOL    HW225266   6.888   5.584   1.941
 8123SOL     OW25267   1.503   5.101   0.004
 8123SOL    HW125268   1.559   5.123   0.084
 8123SOL    HW225269   1.406   5.110   0.028
 8124SOL     OW25270   1.493   6.336   3.021
 8124SOL    HW125271   1.481   6.420   3.075
 8124SOL    HW225272   1.527   6.360   2.930
 8125SOL     OW25273   5.210   5.061   3.008
 8125SOL    HW125274   5.133   5.081   2.947
 8125SOL    HW225275   5.284   5.019   2.955
 8126SOL     OW25276   6.957   4.883   2.057
 8126SOL    HW125277   6.906   4.802   2.088
 8126SOL    HW225278   6.892   4.956   2.035
 8127SOL     OW25279   4.165   5.229   1.152
 8127SOL    HW125280   4.116   5.142   1.159
 8127SOL    HW225281   4.115   5.300   1.201
 8128SOL     OW25282   4.013   2.048   5.874
 8128SOL    HW125283   4.093   2.050   5.813
 8128SOL    HW225284   3.935   2.091   5.828
 8129SOL     OW25285   4.712   5.980   6.528
 8129SOL    HW125286   4.805   6.017   6.534
 8129SOL    HW225287   4.650   6.051   6.496
 8130SOL     OW25288   0.633   0.096   6.202
 8130SOL    HW125289   0.724   0.061   6.181
 8130SOL    HW225290   0.608   0.070   6.295
 8131SOL     OW25291   2.400   1.809   1.231
 8131SOL    HW125292   2.463   1.868   1.283
 8131SOL    HW225293   2.314   1.801   1.281
 8132SOL     OW25294   5.549   4.823   3.043
 8132SOL    HW125295   5.580   4.742   3.093
 8132SOL    HW225296   5.484   4.874   3.100
 8133SOL     OW25297   0.170   5.628   2.037
 8133SOL    HW125298   0.223   5.697   1.988
 8133SOL    HW225299   0.209   5.616   2.129
 8134SOL     OW25300   2.167   2.521   1.860
 8134SOL    HW125301   2.123   2.510   1.950
 8134SOL    HW225302   2.266   2.527   1.872
 8135SOL     OW25303   3.931   6.306   2.428
 8135SOL    HW125304   4.005   6.355   2.475
 8135SOL    HW225305   3.958   6.210   2.415
 8136SOL     OW25306   2.277   6.038   1.912
 8136SOL    HW125307   2.361   6.004   1.955
 8136SOL    HW225308   2.235   5.964   1.859
 8137SOL     OW25309   3.062   3.604   5.216
 8137SOL    HW125310   3.029   3.539   5.284
 8137SOL    HW225311   2.986   3.661   5.185
 8138SOL     OW25312   4.689   1.172   3.525
 8138SOL    HW125313   4.694   1.271   3.511
 8138SOL    HW225314   4.694   1.126   3.436
 8139SOL     OW25315   1.493   3.047   6.248
 8139SOL    HW125316   1.472   2.964   6.196
 8139SOL    HW225317   1.589   3.071   6.235
 8140SOL     OW25318   4.768   1.581   0.908
 8140SOL    HW125319   4.772   1.481   0.906
 8140SOL    HW225320   4.674   1.610   0.921
 8141SOL     OW25321   6.133   0.799   5.191
 8141SOL    HW125322   6.183   0.733   5.135
 8141SOL    HW225323   6.094   0.870   5.132
 8142SOL     OW25324   3.462   5.459   0.726
 8142SOL    HW125325   3.407   5.444   0.808
 8142SOL    HW225326   3.553   5.493   0.752
 8143SOL     OW25327   5.876   4.783   0.007
 8143SOL    HW125328   5.933   4.748   0.080
 8143SOL    HW225329   5.780   4.761   0.026
 8144SOL     OW25330   1.649   5.541   6.786
 8144SOL    HW125331   1.646   5.454   6.835
 8144SOL    HW225332   1.739   5.584   6.800
 8145SOL     OW25333   5.607   5.745   5.912
 8145SOL    HW125334   5.695   5.764   5.955
 8145SOL    HW225335   5.570   5.660   5.949
 8146SOL     OW25336   6.886   6.348   4.789
 8146SOL    HW125337   6.789   6.334   4.766
 8146SOL    HW225338   6.938   6.369   4.707
 8147SOL     OW25339   2.441   0.177   5.001
 8147SOL    HW125340   2.362   0.200   5.058
 8147SOL    HW225341   2.525   0.193   5.053
 8148SOL     OW25342   5.216   4.816   6.792
 8148SOL    HW125343   5.287   4.810   6.862
 8148SOL    HW225344   5.164   4.730   6.790
 8149SOL     OW25345   1.822   6.779   5.554
 8149SOL    HW125346   1.918   6.768   5.579
 8149SOL    HW225347   1.804   6.873   5.527
 8150SOL     OW25348   0.407   4.298   0.514
 8150SOL    HW125349   0.358   4.221   0.554
 8150SOL    HW225350   0.444   4.271   0.425
 8151SOL     OW25351   5.963   4.325   1.935
 8151SOL    HW125352   5.865   4.308   1.931
 8151SOL    HW225353   6.001   4.332   1.843
 8152SOL     OW25354   5.165   2.136   3.784
 8152SOL    HW125355   5.167   2.204   3.711
 8152SOL    HW225356   5.240   2.071   3.771
 8153SOL     OW25357   0.154   1.754   1.671
 8153SOL    HW125358   0.097   1.728   1.594
 8153SOL    HW225359   0.118   1.711   1.754
 8154SOL     OW25360   0.963   1.024   3.541
 8154SOL    HW125361   1.013   0.973   3.470
 8154SOL    HW225362   0.875   0.979   3.559
 8155SOL     OW25363   1.166   4.564   4.776
 8155SOL    HW125364   1.097   4.636   4.765
 8155SOL    HW225365   1.128   4.477   4.744
 8156SOL     OW25366   1.371   4.098   0.494
 8156SOL    HW125367   1.334   4.090   0.401
 8156SOL    HW225368   1.328   4.030   0.553
 8157SOL     OW25369   6.031   4.667   4.572
 8157SOL    HW125370   5.977   4.751   4.572
 8157SOL    HW225371   6.087   4.664   4.489
 8158SOL     OW25372   6.178   4.952   6.367
 8158SOL    HW125373   6.232   5.035   6.383
 8158SOL    HW225374   6.101   4.973   6.307
 8159SOL     OW25375   2.663   6.917   5.262
 8159SOL    HW125376   2.652   6.881   5.169
 8159SOL    HW225377   2.585   6.975   5.284
 8160SOL     OW25378   5.468   2.838   2.890
 8160SOL    HW125379   5.558   2.796   2.899
 8160SOL    HW225380   5.478   2.930   2.851
 8161SOL     OW25381   6.962   2.564   2.121
 8161SOL    HW125382   6.890   2.624   2.088
 8161SOL    HW225383   6.922   2.487   2.171
 8162SOL     OW25384   0.760   6.117   5.668
 8162SOL    HW125385   0.740   6.065   5.585
 8162SOL    HW225386   0.819   6.063   5.728
 8163SOL     OW25387   3.564   5.112   5.483
 8163SOL    HW125388   3.521   5.119   5.393
 8163SOL    HW225389   3.539   5.191   5.538
 8164SOL     OW25390   5.177   1.918   0.151
 8164SOL    HW125391   5.205   1.958   0.239
 8164SOL    HW225392   5.233   1.958   0.078
 8165SOL     OW25393   0.546   2.296   6.384
 8165SOL    HW125394   0.557   2.383   6.433
 8165SOL    HW225395   0.468   2.304   6.321
 8166SOL     OW25396   2.430   2.208   4.868
 8166SOL    HW125397   2.472   2.209   4.959
 8166SOL    HW225398   2.449   2.121   4.823
 8167SOL     OW25399   1.538   2.366   3.135
 8167SOL    HW125400   1.449   2.411   3.135
 8167SOL    HW225401   1.579   2.372   3.226
 8168SOL     OW25402   1.767   6.385   2.456
 8168SOL    HW125403   1.785   6.463   2.396
 8168SOL    HW225404   1.850   6.361   2.506
 8169SOL     OW25405   4.781   4.064   0.291
 8169SOL    HW125406   4.785   4.085   0.388
 8169SOL    HW225407   4.760   4.147   0.239
 8170SOL     OW25408   7.003   4.583   3.034
 8170SOL    HW125409   6.967   4.667   3.074
 8170SOL    HW225410   6.941   4.551   2.962
 8171SOL     OW25411   1.783   1.579   1.651
 8171SOL    HW125412   1.878   1.603   1.671
 8171SOL    HW225413   1.743   1.648   1.590
 8172SOL     OW25414   1.192   4.775   0.575
 8172SOL    HW125415   1.162   4.866   0.546
 8172SOL    HW225416   1.121   4.732   0.631
 8173SOL     OW25417   5.783   6.865   1.440
 8173SOL    HW125418   5.797   6.957   1.476
 8173SOL    HW225419   5.824   6.857   1.349
 8174SOL     OW25420   2.698   6.385   3.794
 8174SOL    HW125421   2.731   6.381   3.700
 8174SOL    HW225422   2.664   6.477   3.814
 8175SOL     OW25423   0.684   1.946   5.631
 8175SOL    HW125424   0.618   1.985   5.566
 8175SOL    HW225425   0.636   1.890   5.698
 8176SOL     OW25426   3.115   5.046   0.226
 8176SOL    HW125427   3.058   4.984   0.280
 8176SOL    HW225428   3.061   5.125   0.198
 8177SOL     OW25429   3.192   0.899   2.589
 8177SOL    HW125430   3.167   0.991   2.617
 8177SOL    HW225431   3.282   0.900   2.546
 8178SOL     OW25432   2.296   5.880   1.408
 8178SOL    HW125433   2.253   5.885   1.318
 8178SOL    HW225434   2.319   5.785   1.429
 8179SOL     OW25435   6.356   0.024   3.635
 8179SOL    HW125436   6.379   6.952   3.594
 8179SOL    HW225437   6.330   0.088   3.562
 8180SOL     OW25438   4.723   5.089   0.644
 8180SOL    HW125439   4.666   5.130   0.572
 8180SOL    HW225440   4.679   5.006   0.678
 8181SOL     OW25441   6.204   0.720   6.123
 8181SOL    HW125442   6.209   0.678   6.214
 8181SOL    HW225443   6.269   0.674   6.062
 8182SOL     OW25444   3.581   3.477   3.117
 8182SOL    HW125445   3.633   3.425   3.185
 8182SOL    HW225446   3.593   3.575   3.135
 8183SOL     OW25447   0.101   0.282   5.568
 8183SOL    HW125448   0.043   0.354   5.530
 8183SOL    HW225449   0.103   0.204   5.505
 8184SOL     OW25450   0.223   6.093   5.058
 8184SOL    HW125451   0.157   6.162   5.028
 8184SOL    HW225452   0.291   6.137   5.116
 8185SOL     OW25453   0.439   5.873   5.015
 8185SOL    HW125454   0.384   5.955   5.028
 8185SOL    HW225455   0.458   5.861   4.917
 8186SOL     OW25456   1.522   5.613   0.486
 8186SOL    HW125457   1.462   5.673   0.539
 8186SOL    HW225458   1.596   5.580   0.544
 8187SOL     OW25459   1.309   6.625   4.662
 8187SOL    HW125460   1.367   6.572   4.601
 8187SOL    HW225461   1.224   6.576   4.679
 8188SOL     OW25462   1.240   2.629   2.612
 8188SOL    HW125463   1.340   2.629   2.614
 8188SOL    HW225464   1.205   2.719   2.637
 8189SOL     OW25465   6.543   5.297   4.140
 8189SOL    HW125466   6.489   5.365   4.089
 8189SOL    HW225467   6.539   5.318   4.237
 8190SOL     OW25468   5.935   3.579   2.739
 8190SOL    HW125469   5.941   3.559   2.836
 8190SOL    HW225470   5.848   3.545   2.703
 8191SOL     OW25471   4.574   5.539   0.710
 8191SOL    HW125472   4.519   5.456   0.706
 8191SOL    HW225473   4.670   5.516   0.689
 8192SOL     OW25474   0.477   6.100   3.225
 8192SOL    HW125475   0.391   6.148   3.206
 8192SOL    HW225476   0.497   6.037   3.150
 8193SOL     OW25477   0.278   4.803   4.135
 8193SOL    HW125478   0.356   4.855   4.171
 8193SOL    HW225479   0.271   4.819   4.036
 8194SOL     OW25480   5.430   0.467   1.645
 8194SOL    HW125481   5.342   0.499   1.609
 8194SOL    HW225482   5.478   0.543   1.688
 8195SOL     OW25483   6.578   6.485   3.511
 8195SOL    HW125484   6.489   6.480   3.556
 8195SOL    HW225485   6.585   6.411   3.444
 8196SOL     OW25486   4.889   0.094   2.337
 8196SOL    HW125487   4.983   0.093   2.369
 8196SOL    HW225488   4.829   0.053   2.407
 8197SOL     OW25489   4.088   1.648   3.503
 8197SOL    HW125490   4.115   1.634   3.408
 8197SOL    HW225491   4.065   1.561   3.545
 8198SOL     OW25492   2.033   5.753   0.594
 8198SOL    HW125493   1.933   5.764   0.596
 8198SOL    HW225494   2.056   5.671   0.542
 8199SOL     OW25495   5.855   2.246   0.275
 8199SOL    HW125496   5.892   2.337   0.297
 8199SOL    HW225497   5.755   2.251   0.272
 8200SOL     OW25498   5.462   4.114   0.510
 8200SOL    HW125499   5.403   4.180   0.463
 8200SOL    HW225500   5.509   4.159   0.585
 8201SOL     OW25501   5.607   0.476   5.333
 8201SOL    HW125502   5.583   0.572   5.327
 8201SOL    HW225503   5.661   0.449   5.254
 8202SOL     OW25504   0.987   5.671   1.813
 8202SOL    HW125505   1.079   5.634   1.801
 8202SOL    HW225506   0.993   5.770   1.826
 8203SOL     OW25507   1.736   3.083   0.539
 8203SOL    HW125508   1.821   3.127   0.511
 8203SOL    HW225509   1.667   3.094   0.467
 8204SOL     OW25510   1.505   3.551   0.639
 8204SOL    HW125511   1.579   3.618   0.631
 8204SOL    HW225512   1.417   3.597   0.631
 8205SOL     OW25513   0.105   3.603   6.099
 8205SOL    HW125514   0.109   3.697   6.135
 8205SOL    HW225515   0.097   3.606   6.000
 8206SOL     OW25516   3.447   1.003   1.441
 8206SOL    HW125517   3.504   1.073   1.399
 8206SOL    HW225518   3.422   0.934   1.372
 8207SOL     OW25519   4.038   3.728   4.127
 8207SOL    HW125520   4.075   3.636   4.116
 8207SOL    HW225521   4.036   3.751   4.224
 8208SOL     OW25522   2.637   0.263   6.905
 8208SOL    HW125523   2.619   0.287   7.000
 8208SOL    HW225524   2.626   0.164   6.893
 8209SOL     OW25525   5.961   2.303   4.078
 8209SOL    HW125526   6.015   2.230   4.120
 8209SOL    HW225527   5.917   2.358   4.149
 8210SOL     OW25528   2.208   2.769   6.123
 8210SOL    HW125529   2.264   2.834   6.072
 8210SOL    HW225530   2.112   2.796   6.117
 8211SOL     OW25531   4.376   4.549   1.029
 8211SOL    HW125532   4.414   4.517   0.942
 8211SOL    HW225533   4.376   4.474   1.095
 8212SOL     OW25534   2.001   2.544   3.175
 8212SOL    HW125535   1.927   2.605   3.203
 8212SOL    HW225536   2.037   2.573   3.086
 8213SOL     OW25537   6.191   4.751   0.695
 8213SOL    HW125538   6.117   4.732   0.630
 8213SOL    HW225539   6.169   4.834   0.747
 8214SOL     OW25540   4.905   3.615   3.252
 8214SOL    HW125541   4.873   3.573   3.167
 8214SOL    HW225542   4.875   3.710   3.255
 8215SOL     OW25543   3.595   5.140   2.275
 8215SOL    HW125544   3.652   5.134   2.193
 8215SOL    HW225545   3.587   5.050   2.317
 8216SOL     OW25546   5.609   3.657   3.509
 8216SOL    HW125547   5.635   3.661   3.413
 8216SOL    HW225548   5.654   3.731   3.559
 8217SOL     OW25549   2.133   5.961   0.491
 8217SOL    HW125550   2.132   6.043   0.547
 8217SOL    HW225551   2.118   5.880   0.548
 8218SOL     OW25552   5.033   2.008   6.938
 8218SOL    HW125553   4.993   2.096   6.963
 8218SOL    HW225554   5.014   1.941   7.010
 8219SOL     OW25555   5.144   2.260   0.268
 8219SOL    HW125556   5.233   2.293   0.237
 8219SOL    HW225557   5.157   2.176   0.321
 8220SOL     OW25558   4.009   3.643   1.550
 8220SOL    HW125559   3.952   3.562   1.537
 8220SOL    HW225560   4.001   3.674   1.645
 8221SOL     OW25561   5.731   4.282   3.114
 8221SOL    HW125562   5.691   4.307   3.202
 8221SOL    HW225563   5.658   4.256   3.050
 8222SOL     OW25564   6.412   0.722   3.161
 8222SOL    HW125565   6.453   0.788   3.098
 8222SOL    HW225566   6.394   0.767   3.249
 8223SOL     OW25567   0.336   4.944   0.066
 8223SOL    HW125568   0.363   4.901   6.996
 8223SOL    HW225569   0.407   5.009   0.095
 8224SOL     OW25570   1.047   4.040   2.489
 8224SOL    HW125571   0.977   4.100   2.450
 8224SOL    HW225572   1.135   4.087   2.488
 8225SOL     OW25573   4.455   1.418   1.295
 8225SOL    HW125574   4.503   1.501   1.323
 8225SOL    HW225575   4.480   1.342   1.355
 8226SOL     OW25576   3.921   0.307   6.910
 8226SOL    HW125577   3.828   0.285   6.940
 8226SOL    HW225578   3.964   0.370   6.974
 8227SOL     OW25579   5.847   4.246   3.506
 8227SOL    HW125580   5.869   4.157   3.545
 8227SOL    HW225581   5.928   4.285   3.463
 8228SOL     OW25582   0.113   1.269   3.840
 8228SOL    HW125583   0.148   1.223   3.922
 8228SOL    HW225584   0.189   1.296   3.782
 8229SOL     OW25585   5.288   5.559   0.510
 8229SOL    HW125586   5.293   5.577   0.412
 8229SOL    HW225587   5.377   5.575   0.552
 8230SOL     OW25588   5.655   6.886   3.360
 8230SOL    HW125589   5.565   6.877   3.401
 8230SOL    HW225590   5.651   6.953   3.286
 8231SOL     OW25591   3.736   5.675   1.524
 8231SOL    HW125592   3.764   5.725   1.606
 8231SOL    HW225593   3.693   5.739   1.460
 8232SOL     OW25594   2.775   1.783   0.093
 8232SOL    HW125595   2.684   1.750   0.066
 8232SOL    HW225596   2.840   1.708   0.088
 8233SOL     OW25597   0.506   5.558   6.024
 8233SOL    HW125598   0.587   5.550   5.966
 8233SOL    HW225599   0.438   5.616   5.978
 8234SOL     OW25600   2.560   3.022   6.941
 8234SOL    HW125601   2.485   3.087   6.932
 8234SOL    HW225602   2.647   3.071   6.931
 8235SOL     OW25603   4.874   2.511   6.194
 8235SOL    HW125604   4.949   2.467   6.145
 8235SOL    HW225605   4.910   2.562   6.272
 8236SOL     OW25606   5.910   2.764   1.462
 8236SOL    HW125607   5.851   2.831   1.418
 8236SOL    HW225608   5.961   2.713   1.392
 8237SOL     OW25609   3.603   6.491   5.569
 8237SOL    HW125610   3.591   6.416   5.633
 8237SOL    HW225611   3.514   6.527   5.542
 8238SOL     OW25612   1.313   0.840   6.417
 8238SOL    HW125613   1.221   0.850   6.377
 8238SOL    HW225614   1.381   0.870   6.351
 8239SOL     OW25615   5.826   1.255   0.076
 8239SOL    HW125616   5.783   1.198   0.006
 8239SOL    HW225617   5.891   1.201   0.129
 8240SOL     OW25618   4.017   3.062   3.194
 8240SOL    HW125619   3.944   3.019   3.248
 8240SOL    HW225620   4.059   2.995   3.134
 8241SOL     OW25621   4.928   6.237   1.494
 8241SOL    HW125622   4.837   6.220   1.457
 8241SOL    HW225623   4.950   6.334   1.484
 8242SOL     OW25624   1.063   4.204   5.530
 8242SOL    HW125625   1.087   4.111   5.502
 8242SOL    HW225626   1.136   4.242   5.586
 8243SOL     OW25627   0.397   2.988   4.785
 8243SOL    HW125628   0.478   2.930   4.787
 8243SOL    HW225629   0.389   3.037   4.872
 8244SOL     OW25630   2.484   5.397   4.959
 8244SOL    HW125631   2.478   5.436   5.051
 8244SOL    HW225632   2.558   5.442   4.909
 8245SOL     OW25633   4.400   3.642   0.875
 8245SOL    HW125634   4.490   3.652   0.915
 8245SOL    HW225635   4.365   3.550   0.892
 8246SOL     OW25636   5.494   3.592   5.117
 8246SOL    HW125637   5.570   3.584   5.182
 8246SOL    HW225638   5.407   3.594   5.167
 8247SOL     OW25639   1.035   6.470   0.103
 8247SOL    HW125640   1.032   6.381   0.149
 8247SOL    HW225641   0.943   6.496   0.074
 8248SOL     OW25642   0.171   4.526   3.237
 8248SOL    HW125643   0.249   4.580   3.207
 8248SOL    HW225644   0.094   4.541   3.174
 8249SOL     OW25645   0.972   5.404   2.995
 8249SOL    HW125646   1.049   5.464   3.016
 8249SOL    HW225647   0.974   5.379   2.898
 8250SOL     OW25648   3.415   3.635   1.958
 8250SOL    HW125649   3.327   3.598   1.986
 8250SOL    HW225650   3.413   3.734   1.962
 8251SOL     OW25651   6.322   1.174   4.644
 8251SOL    HW125652   6.261   1.131   4.577
 8251SOL    HW225653   6.318   1.124   4.730
 8252SOL     OW25654   1.358   3.859   4.391
 8252SOL    HW125655   1.286   3.898   4.449
 8252SOL    HW225656   1.326   3.773   4.352
 8253SOL     OW25657   2.717   3.335   5.816
 8253SOL    HW125658   2.770   3.393   5.754
 8253SOL    HW225659   2.624   3.323   5.779
 8254SOL     OW25660   4.658   5.689   3.342
 8254SOL    HW125661   4.568   5.717   3.375
 8254SOL    HW225662   4.712   5.653   3.418
 8255SOL     OW25663   3.824   4.879   3.751
 8255SOL    HW125664   3.757   4.951   3.766
 8255SOL    HW225665   3.827   4.856   3.653
 8256SOL     OW25666   5.701   2.639   3.868
 8256SOL    HW125667   5.697   2.738   3.857
 8256SOL    HW225668   5.613   2.606   3.904
 8257SOL     OW25669   6.234   4.810   4.205
 8257SOL    HW125670   6.285   4.782   4.287
 8257SOL    HW225671   6.207   4.729   4.154
 8258SOL     OW25672   5.356   2.021   6.993
 8258SOL    HW125673   5.301   1.992   6.915
 8258SOL    HW225674   5.453   2.011   6.971
 8259SOL     OW25675   4.716   1.005   1.017
 8259SOL    HW125676   4.735   0.914   1.054
 8259SOL    HW225677   4.682   1.064   1.090
 8260SOL     OW25678   3.356   5.812   6.932
 8260SOL    HW125679   3.297   5.732   6.941
 8260SOL    HW225680   3.302   5.890   6.899
 8261SOL     OW25681   5.129   1.466   1.655
 8261SOL    HW125682   5.121   1.519   1.571
 8261SOL    HW225683   5.183   1.384   1.637
 8262SOL     OW25684   6.877   2.376   1.355
 8262SOL    HW125685   6.965   2.364   1.402
 8262SOL    HW225686   6.893   2.401   1.260
 8263SOL     OW25687   5.027   1.637   0.996
 8263SOL    HW125688   4.930   1.619   0.980
 8263SOL    HW225689   5.056   1.588   1.079
 8264SOL     OW25690   1.740   4.254   1.734
 8264SOL    HW125691   1.648   4.280   1.763
 8264SOL    HW225692   1.739   4.230   1.637
 8265SOL     OW25693   1.513   0.301   2.544
 8265SOL    HW125694   1.563   0.387   2.557
 8265SOL    HW225695   1.484   0.266   2.633
 8266SOL     OW25696   3.570   0.524   3.048
 8266SOL    HW125697   3.537   0.488   3.135
 8266SOL    HW225698   3.513   0.600   3.019
 8267SOL     OW25699   0.000   3.635   0.355
 8267SOL    HW125700   0.047   3.599   0.274
 8267SOL    HW225701   6.973   3.560   0.405
 8268SOL     OW25702   3.245   5.575   6.939
 8268SOL    HW125703   3.339   5.559   6.969
 8268SOL    HW225704   3.181   5.539   7.007
 8269SOL     OW25705   5.844   2.456   0.595
 8269SOL    HW125706   5.872   2.473   0.501
 8269SOL    HW225707   5.917   2.408   0.644
 8270SOL     OW25708   2.714   6.487   4.168
 8270SOL    HW125709   2.771   6.562   4.134
 8270SOL    HW225710   2.750   6.400   4.133
 8271SOL     OW25711   6.511   2.560   3.164
 8271SOL    HW125712   6.600   2.525   3.192
 8271SOL    HW225713   6.498   2.652   3.201
 8272SOL     OW25714   3.588   1.247   4.399
 8272SOL    HW125715   3.533   1.163   4.400
 8272SOL    HW225716   3.576   1.293   4.311
 8273SOL     OW25717   2.095   6.604   2.032
 8273SOL    HW125718   2.080   6.658   2.115
 8273SOL    HW225719   2.133   6.515   2.057
 8274SOL     OW25720   5.325   4.239   3.433
 8274SOL    HW125721   5.362   4.164   3.487
 8274SOL    HW225722   5.237   4.210   3.393
 8275SOL     OW25723   5.402   2.246   0.106
 8275SOL    HW125724   5.393   2.165   0.049
 8275SOL    HW225725   5.417   2.326   0.047
 8276SOL     OW25726   0.353   2.088   2.882
 8276SOL    HW125727   0.434   2.132   2.921
 8276SOL    HW225728   0.301   2.044   2.954
 8277SOL     OW25729   6.927   1.430   6.835
 8277SOL    HW125730   6.853   1.486   6.872
 8277SOL    HW225731   6.958   1.366   6.905
 8278SOL     OW25732   1.234   2.584   0.600
 8278SOL    HW125733   1.295   2.523   0.548
 8278SOL    HW225734   1.289   2.649   0.652
 8279SOL     OW25735   0.519   6.306   3.670
 8279SOL    HW125736   0.452   6.334   3.739
 8279SOL    HW225737   0.534   6.380   3.605
 8280SOL     OW25738   3.508   2.232   5.975
 8280SOL    HW125739   3.443   2.298   6.012
 8280SOL    HW225740   3.523   2.159   6.041
 8281SOL     OW25741   4.770   5.442   2.565
 8281SOL    HW125742   4.675   5.427   2.592
 8281SOL    HW225743   4.829   5.439   2.646
 8282SOL     OW25744   5.576   2.822   6.141
 8282SOL    HW125745   5.529   2.895   6.190
 8282SOL    HW225746   5.630   2.767   6.205
 8283SOL     OW25747   1.747   2.658   5.982
 8283SOL    HW125748   1.707   2.578   6.026
 8283SOL    HW225749   1.686   2.691   5.910
 8284SOL     OW25750   6.506   4.404   1.759
 8284SOL    HW125751   6.542   4.328   1.813
 8284SOL    HW225752   6.445   4.459   1.816
 8285SOL     OW25753   4.120   3.212   3.783
 8285SOL    HW125754   4.072   3.180   3.865
 8285SOL    HW225755   4.209   3.249   3.809
 8286SOL     OW25756   0.234   2.045   6.408
 8286SOL    HW125757   0.262   2.117   6.345
 8286SOL    HW225758   0.313   1.988   6.431
 8287SOL     OW25759   1.594   6.519   4.235
 8287SOL    HW125760   1.651   6.601   4.232
 8287SOL    HW225761   1.648   6.441   4.203
 8288SOL     OW25762   3.251   1.710   3.381
 8288SOL    HW125763   3.276   1.762   3.300
 8288SOL    HW225764   3.205   1.625   3.353
 8289SOL     OW25765   0.443   5.677   6.587
 8289SOL    HW125766   0.414   5.648   6.496
 8289SOL    HW225767   0.535   5.716   6.581
 8290SOL     OW25768   6.188   2.194   0.954
 8290SOL    HW125769   6.276   2.154   0.932
 8290SOL    HW225770   6.190   2.228   1.049
 8291SOL     OW25771   3.987   0.595   0.551
 8291SOL    HW125772   4.070   0.550   0.585
 8291SOL    HW225773   3.925   0.613   0.627
 8292SOL     OW25774   2.932   0.591   6.407
 8292SOL    HW125775   2.871   0.616   6.331
 8292SOL    HW225776   2.999   0.525   6.376
 8293SOL     OW25777   6.056   5.107   4.909
 8293SOL    HW125778   5.999   5.081   4.988
 8293SOL    HW225779   6.010   5.179   4.857
 8294SOL     OW25780   6.249   3.127   6.899
 8294SOL    HW125781   6.324   3.192   6.885
 8294SOL    HW225782   6.286   3.039   6.929
 8295SOL     OW25783   4.802   3.468   6.786
 8295SOL    HW125784   4.819   3.567   6.789
 8295SOL    HW225785   4.707   3.450   6.811
 8296SOL     OW25786   1.181   4.832   6.091
 8296SOL    HW125787   1.130   4.863   6.011
 8296SOL    HW225788   1.202   4.910   6.150
 8297SOL     OW25789   1.475   2.802   3.947
 8297SOL    HW125790   1.473   2.798   3.847
 8297SOL    HW225791   1.400   2.747   3.984
 8298SOL     OW25792   4.926   1.713   1.666
 8298SOL    HW125793   4.995   1.774   1.706
 8298SOL    HW225794   4.933   1.622   1.707
 8299SOL     OW25795   6.212   2.169   1.354
 8299SOL    HW125796   6.278   2.185   1.280
 8299SOL    HW225797   6.156   2.250   1.367
 8300SOL     OW25798   1.028   5.070   3.306
 8300SOL    HW125799   0.946   5.106   3.350
 8300SOL    HW225800   1.102   5.064   3.372
 8301SOL     OW25801   2.758   2.098   6.795
 8301SOL    HW125802   2.851   2.118   6.827
 8301SOL    HW225803   2.718   2.181   6.756
 8302SOL     OW25804   5.881   5.662   5.500
 8302SOL    HW125805   5.882   5.570   5.459
 8302SOL    HW225806   5.787   5.687   5.523
 8303SOL     OW25807   0.072   0.402   6.479
 8303SOL    HW125808   0.028   0.318   6.509
 8303SOL    HW225809   0.003   0.464   6.440
 8304SOL     OW25810   0.391   3.409   0.536
 8304SOL    HW125811   0.358   3.349   0.463
 8304SOL    HW225812   0.317   3.471   0.564
 8305SOL     OW25813   3.889   5.216   3.224
 8305SOL    HW125814   3.933   5.214   3.134
 8305SOL    HW225815   3.808   5.273   3.220
 8306SOL     OW25816   1.695   3.000   4.321
 8306SOL    HW125817   1.602   2.988   4.286
 8306SOL    HW225818   1.733   3.085   4.287
 8307SOL     OW25819   4.139   5.692   0.878
 8307SOL    HW125820   4.072   5.632   0.922
 8307SOL    HW225821   4.112   5.707   0.783
 8308SOL     OW25822   3.363   0.280   2.626
 8308SOL    HW125823   3.356   0.341   2.705
 8308SOL    HW225824   3.420   0.323   2.556
 8309SOL     OW25825   5.623   6.807   2.110
 8309SOL    HW125826   5.613   6.775   2.204
 8309SOL    HW225827   5.534   6.837   2.076
 8310SOL     OW25828   6.327   4.402   0.093
 8310SOL    HW125829   6.374   4.482   0.054
 8310SOL    HW225830   6.308   4.419   0.189
 8311SOL     OW25831   6.391   0.450   6.532
 8311SOL    HW125832   6.447   0.493   6.603
 8311SOL    HW225833   6.300   0.432   6.569
 8312SOL     OW25834   5.287   6.390   1.562
 8312SOL    HW125835   5.300   6.380   1.661
 8312SOL    HW225836   5.229   6.316   1.529
 8313SOL     OW25837   4.034   1.297   2.547
 8313SOL    HW125838   4.029   1.358   2.625
 8313SOL    HW225839   4.072   1.209   2.575
 8314SOL     OW25840   0.240   6.206   3.196
 8314SOL    HW125841   0.180   6.138   3.155
 8314SOL    HW225842   0.188   6.261   3.261
 8315SOL     OW25843   4.882   4.629   6.316
 8315SOL    HW125844   4.813   4.578   6.264
 8315SOL    HW225845   4.935   4.687   6.253
 8316SOL     OW25846   2.913   5.874   6.544
 8316SOL    HW125847   2.947   5.945   6.605
 8316SOL    HW225848   2.865   5.805   6.597
 8317SOL     OW25849   2.204   4.186   1.808
 8317SOL    HW125850   2.173   4.092   1.822
 8317SOL    HW225851   2.294   4.185   1.764
 8318SOL     OW25852   3.402   1.188   5.878
 8318SOL    HW125853   3.427   1.188   5.975
 8318SOL    HW225854   3.482   1.164   5.823
 8319SOL     OW25855   3.452   0.722   5.167
 8319SOL    HW125856   3.397   0.801   5.195
 8319SOL    HW225857   3.479   0.670   5.248
 8320SOL     OW25858   4.481   4.878   1.337
 8320SOL    HW125859   4.474   4.817   1.415
 8320SOL    HW225860   4.395   4.878   1.286
 8321SOL     OW25861   6.879   0.922   1.093
 8321SOL    HW125862   6.849   0.966   1.178
 8321SOL    HW225863   6.978   0.930   1.085
 8322SOL     OW25864   5.912   6.969   6.826
 8322SOL    HW125865   5.869   0.020   6.886
 8322SOL    HW225866   5.859   6.963   6.741
 8323SOL     OW25867   1.624   0.821   1.636
 8323SOL    HW125868   1.647   0.885   1.709
 8323SOL    HW225869   1.566   0.748   1.673
 8324SOL     OW25870   6.778   1.198   2.861
 8324SOL    HW125871   6.713   1.271   2.879
 8324SOL    HW225872   6.748   1.114   2.907
 8325SOL     OW25873   3.761   4.112   4.464
 8325SOL    HW125874   3.813   4.131   4.547
 8325SOL    HW225875   3.712   4.195   4.436
 8326SOL     OW25876   4.097   2.826   6.553
 8326SOL    HW125877   4.140   2.770   6.623
 8326SOL    HW225878   4.168   2.872   6.499
 8327SOL     OW25879   5.462   2.321   6.405
 8327SOL    HW125880   5.386   2.257   6.418
 8327SOL    HW225881   5.536   2.276   6.355
 8328SOL     OW25882   2.383   2.732   4.011
 8328SOL    HW125883   2.419   2.670   3.942
 8328SOL    HW225884   2.284   2.717   4.020
 8329SOL     OW25885   0.598   2.065   4.529
 8329SOL    HW125886   0.609   2.164   4.516
 8329SOL    HW225887   0.592   2.046   4.627
 8330SOL     OW25888   2.275   6.920   0.888
 8330SOL    HW125889   2.244   6.901   0.981
 8330SOL    HW225890   2.345   6.991   0.889
 8331SOL     OW25891   2.939   6.731   1.020
 8331SOL    HW125892   2.890   6.738   0.934
 8331SOL    HW225893   2.936   6.819   1.068
 8332SOL     OW25894   4.989   6.106   3.524
 8332SOL    HW125895   5.073   6.160   3.532
 8332SOL    HW225896   5.010   6.016   3.486
 8333SOL     OW25897   1.477   5.002   5.698
 8333SOL    HW125898   1.431   4.916   5.722
 8333SOL    HW225899   1.410   5.075   5.692
 8334SOL     OW25900   6.349   6.917   4.257
 8334SOL    HW125901   6.299   6.971   4.325
 8334SOL    HW225902   6.422   6.973   4.218
 8335SOL     OW25903   6.401   6.236   5.718
 8335SOL    HW125904   6.346   6.180   5.655
 8335SOL    HW225905   6.349   6.253   5.802
 8336SOL     OW25906   0.934   2.018   2.882
 8336SOL    HW125907   0.889   1.930   2.864
 8336SOL    HW225908   1.019   2.002   2.931
 8337SOL     OW25909   0.253   6.237   1.901
 8337SOL    HW125910   0.160   6.232   1.863
 8337SOL    HW225911   0.257   6.311   1.968
 8338SOL     OW25912   1.859   4.507   0.902
 8338SOL    HW125913   1.861   4.600   0.867
 8338SOL    HW225914   1.950   4.483   0.937
 8339SOL     OW25915   6.064   0.673   3.152
 8339SOL    HW125916   5.981   0.690   3.205
 8339SOL    HW225917   6.042   0.620   3.070
 8340SOL     OW25918   4.745   3.745   1.397
 8340SOL    HW125919   4.676   3.739   1.470
 8340SOL    HW225920   4.810   3.818   1.418
 8341SOL     OW25921   2.484   0.135   0.947
 8341SOL    HW125922   2.438   0.217   0.979
 8341SOL    HW225923   2.567   0.159   0.898
 8342SOL     OW25924   4.985   6.848   1.289
 8342SOL    HW125925   5.033   6.891   1.366
 8342SOL    HW225926   5.042   6.853   1.207
 8343SOL     OW25927   0.854   5.024   5.724
 8343SOL    HW125928   0.823   5.089   5.793
 8343SOL    HW225929   0.886   5.073   5.644
 8344SOL     OW25930   3.802   0.220   5.196
 8344SOL    HW125931   3.759   0.130   5.197
 8344SOL    HW225932   3.863   0.228   5.274
 8345SOL     OW25933   6.136   1.336   3.169
 8345SOL    HW125934   6.041   1.313   3.149
 8345SOL    HW225935   6.197   1.281   3.111
 8346SOL     OW25936   3.424   5.543   1.552
 8346SOL    HW125937   3.467   5.488   1.623
 8346SOL    HW225938   3.413   5.637   1.584
 8347SOL     OW25939   3.292   5.295   4.176
 8347SOL    HW125940   3.357   5.329   4.244
 8347SOL    HW225941   3.328   5.212   4.134
 8348SOL     OW25942   1.838   0.750   0.591
 8348SOL    HW125943   1.900   0.782   0.663
 8348SOL    HW225944   1.757   0.710   0.633
 8349SOL     OW25945   6.170   5.650   1.580
 8349SOL    HW125946   6.139   5.560   1.613
 8349SOL    HW225947   6.254   5.674   1.627
 8350SOL     OW25948   6.659   0.355   4.842
 8350SOL    HW125949   6.727   0.284   4.859
 8350SOL    HW225950   6.703   0.432   4.797
 8351SOL     OW25951   2.857   6.418   1.968
 8351SOL    HW125952   2.791   6.369   1.911
 8351SOL    HW225953   2.882   6.504   1.924
 8352SOL     OW25954   6.438   6.119   2.038
 8352SOL    HW125955   6.538   6.123   2.042
 8352SOL    HW225956   6.405   6.185   1.970
 8353SOL     OW25957   1.037   3.587   2.114
 8353SOL    HW125958   0.959   3.650   2.115
 8353SOL    HW225959   1.056   3.558   2.208
 8354SOL     OW25960   2.843   0.294   0.449
 8354SOL    HW125961   2.758   0.268   0.495
 8354SOL    HW225962   2.851   0.241   0.364
 8355SOL     OW25963   3.433   1.123   0.689
 8355SOL    HW125964   3.405   1.212   0.653
 8355SOL    HW225965   3.381   1.050   0.645
 8356SOL     OW25966   2.697   5.474   0.690
 8356SOL    HW125967   2.773   5.476   0.755
 8356SOL    HW225968   2.719   5.530   0.611
 8357SOL     OW25969   4.729   6.344   3.388
 8357SOL    HW125970   4.754   6.366   3.482
 8357SOL    HW225971   4.787   6.270   3.355
 8358SOL     OW25972   2.889   2.353   5.169
 8358SOL    HW125973   2.849   2.349   5.078
 8358SOL    HW225974   2.989   2.348   5.162
 8359SOL     OW25975   4.096   4.794   3.746
 8359SOL    HW125976   4.111   4.737   3.665
 8359SOL    HW225977   4.011   4.846   3.735
 8360SOL     OW25978   4.374   0.387   2.829
 8360SOL    HW125979   4.398   0.389   2.926
 8360SOL    HW225980   4.357   0.292   2.801
 8361SOL     OW25981   1.442   0.212   2.806
 8361SOL    HW125982   1.466   0.156   2.885
 8361SOL    HW225983   1.370   0.167   2.753
 8362SOL     OW25984   2.066   3.090   0.372
 8362SOL    HW125985   2.040   2.997   0.399
 8362SOL    HW225986   2.149   3.117   0.421
 8363SOL     OW25987   0.223   3.657   1.083
 8363SOL    HW125988   0.281   3.608   1.017
 8363SOL    HW225989   0.152   3.595   1.118
 8364SOL     OW25990   6.780   4.624   5.058
 8364SOL    HW125991   6.745   4.580   4.975
 8364SOL    HW225992   6.772   4.723   5.048
 8365SOL     OW25993   1.032   3.683   6.022
 8365SOL    HW125994   0.956   3.745   5.998
 8365SOL    HW225995   1.100   3.733   6.075
 8366SOL     OW25996   2.555   6.823   3.017
 8366SOL    HW125997   2.520   6.917   3.025
 8366SOL    HW225998   2.650   6.825   2.989
 8367SOL     OW25999   4.703   5.580   3.848
 8367SOL    HW126000   4.719   5.640   3.926
 8367SOL    HW226001   4.620   5.526   3.863
 8368SOL     OW26002   3.325   5.855   5.993
 8368SOL    HW126003   3.421   5.876   5.974
 8368SOL    HW226004   3.282   5.933   6.038
 8369SOL     OW26005   2.654   1.185   1.580
 8369SOL    HW126006   2.598   1.267   1.595
 8369SOL    HW226007   2.684   1.182   1.485
 8370SOL     OW26008   1.681   1.617   0.466
 8370SOL    HW126009   1.694   1.520   0.446
 8370SOL    HW226010   1.629   1.660   0.392
 8371SOL     OW26011   1.886   2.509   6.908
 8371SOL    HW126012   1.949   2.579   6.942
 8371SOL    HW226013   1.927   2.418   6.922
 8372SOL     OW26014   6.723   0.367   1.126
 8372SOL    HW126015   6.656   0.332   1.192
 8372SOL    HW226016   6.681   0.437   1.069
 8373SOL     OW26017   1.490   6.471   4.497
 8373SOL    HW126018   1.546   6.495   4.418
 8373SOL    HW226019   1.476   6.372   4.500
 8374SOL     OW26020   6.616   0.311   5.783
 8374SOL    HW126021   6.712   0.281   5.780
 8374SOL    HW226022   6.568   0.274   5.704
 8375SOL     OW26023   4.317   0.670   6.074
 8375SOL    HW126024   4.367   0.756   6.079
 8375SOL    HW226025   4.343   0.612   6.152
 8376SOL     OW26026   4.622   0.380   4.562
 8376SOL    HW126027   4.666   0.328   4.488
 8376SOL    HW226028   4.692   0.415   4.625
 8377SOL     OW26029   5.515   4.955   1.049
 8377SOL    HW126030   5.613   4.974   1.045
 8377SOL    HW226031   5.465   5.035   1.016
 8378SOL     OW26032   5.184   3.026   3.939
 8378SOL    HW126033   5.165   3.067   3.849
 8378SOL    HW226034   5.170   2.927   3.934
 8379SOL     OW26035   5.137   2.538   2.128
 8379SOL    HW126036   5.166   2.599   2.055
 8379SOL    HW226037   5.184   2.450   2.119
 8380SOL     OW26038   5.549   1.750   3.639
 8380SOL    HW126039   5.545   1.684   3.564
 8380SOL    HW226040   5.621   1.817   3.621
 8381SOL     OW26041   2.050   5.263   4.186
 8381SOL    HW126042   2.042   5.361   4.167
 8381SOL    HW226043   1.966   5.218   4.157
 8382SOL     OW26044   0.872   4.608   2.489
 8382SOL    HW126045   0.874   4.520   2.442
 8382SOL    HW226046   0.842   4.680   2.426
 8383SOL     OW26047   3.208   1.241   5.434
 8383SOL    HW126048   3.177   1.335   5.418
 8383SOL    HW226049   3.142   1.177   5.394
 8384SOL     OW26050   0.870   6.553   1.615
 8384SOL    HW126051   0.945   6.563   1.680
 8384SOL    HW226052   0.876   6.465   1.569
 8385SOL     OW26053   4.641   2.270   0.915
 8385SOL    HW126054   4.586   2.194   0.950
 8385SOL    HW226055   4.670   2.328   0.992
 8386SOL     OW26056   0.768   4.021   2.497
 8386SOL    HW126057   0.784   3.924   2.515
 8386SOL    HW226058   0.788   4.040   2.401
 8387SOL     OW26059   1.044   2.039   1.364
 8387SOL    HW126060   1.092   2.118   1.404
 8387SOL    HW226061   0.964   2.072   1.314
 8388SOL     OW26062   0.928   0.031   2.986
 8388SOL    HW126063   0.860   0.087   2.938
 8388SOL    HW226064   0.902   6.951   2.982
 8389SOL     OW26065   6.143   2.846   3.594
 8389SOL    HW126066   6.229   2.797   3.607
 8389SOL    HW226067   6.067   2.785   3.617
 8390SOL     OW26068   6.017   1.495   6.370
 8390SOL    HW126069   6.112   1.472   6.394
 8390SOL    HW226070   5.956   1.424   6.406
 8391SOL     OW26071   6.762   0.036   1.100
 8391SOL    HW126072   6.734   0.109   1.037
 8391SOL    HW226073   6.688   0.018   1.165
 8392SOL     OW26074   3.625   3.084   5.251
 8392SOL    HW126075   3.557   3.133   5.195
 8392SOL    HW226076   3.577   3.021   5.312
 8393SOL     OW26077   5.345   0.022   1.301
 8393SOL    HW126078   5.341   0.121   1.288
 8393SOL    HW226079   5.254   6.999   1.288
 8394SOL     OW26080   5.651   2.382   2.213
 8394SOL    HW126081   5.553   2.399   2.213
 8394SOL    HW226082   5.694   2.439   2.283
 8395SOL     OW26083   2.284   1.240   5.319
 8395SOL    HW126084   2.206   1.294   5.288
 8395SOL    HW226085   2.328   1.198   5.239
 8396SOL     OW26086   5.177   5.581   4.722
 8396SOL    HW126087   5.077   5.581   4.723
 8396SOL    HW226088   5.210   5.657   4.667
 8397SOL     OW26089   6.849   0.129   2.831
 8397SOL    HW126090   6.915   0.057   2.852
 8397SOL    HW226091   6.756   0.091   2.831
 8398SOL     OW26092   5.991   1.928   6.326
 8398SOL    HW126093   5.934   2.008   6.305
 8398SOL    HW226094   6.077   1.959   6.367
 8399SOL     OW26095   6.949   4.518   1.880
 8399SOL    HW126096   6.937   4.445   1.948
 8399SOL    HW226097   0.019   4.506   1.832
 8400SOL     OW26098   1.265   1.331   4.856
 8400SOL    HW126099   1.293   1.250   4.907
 8400SOL    HW226100   1.284   1.317   4.759
 8401SOL     OW26101   2.001   0.534   5.590
 8401SOL    HW126102   1.930   0.464   5.592
 8401SOL    HW226103   2.079   0.503   5.644
 8402SOL     OW26104   3.432   0.830   6.677
 8402SOL    HW126105   3.368   0.756   6.698
 8402SOL    HW226106   3.526   0.797   6.689
 8403SOL     OW26107   5.571   4.651   5.091
 8403SOL    HW126108   5.573   4.558   5.052
 8403SOL    HW226109   5.489   4.663   5.146
 8404SOL     OW26110   1.119   1.452   6.965
 8404SOL    HW126111   1.074   1.503   6.891
 8404SOL    HW226112   1.104   1.354   6.952
 8405SOL     OW26113   3.855   6.849   5.412
 8405SOL    HW126114   3.792   6.925   5.391
 8405SOL    HW226115   3.895   6.815   5.327
 8406SOL     OW26116   5.737   0.081   6.055
 8406SOL    HW126117   5.653   0.033   6.082
 8406SOL    HW226118   5.720   0.179   6.053
 8407SOL     OW26119   4.186   0.348   4.380
 8407SOL    HW126120   4.184   0.417   4.307
 8407SOL    HW226121   4.189   0.394   4.469
 8408SOL     OW26122   3.835   1.778   1.283
 8408SOL    HW126123   3.867   1.739   1.369
 8408SOL    HW226124   3.836   1.707   1.213
 8409SOL     OW26125   4.078   2.221   2.094
 8409SOL    HW126126   4.013   2.297   2.097
 8409SOL    HW226127   4.033   2.137   2.123
 8410SOL     OW26128   0.011   1.748   1.939
 8410SOL    HW126129   0.069   1.683   1.988
 8410SOL    HW226130   6.931   1.728   1.958
 8411SOL     OW26131   1.121   6.395   1.101
 8411SOL    HW126132   1.171   6.319   1.059
 8411SOL    HW226133   1.180   6.442   1.167
 8412SOL     OW26134   2.708   2.583   6.852
 8412SOL    HW126135   2.661   2.671   6.847
 8412SOL    HW226136   2.655   2.514   6.804
 8413SOL     OW26137   3.786   5.576   4.531
 8413SOL    HW126138   3.689   5.553   4.527
 8413SOL    HW226139   3.807   5.620   4.618
 8414SOL     OW26140   1.421   0.063   0.971
 8414SOL    HW126141   1.454   0.126   0.900
 8414SOL    HW226142   1.346   0.106   1.021
 8415SOL     OW26143   3.269   1.756   6.276
 8415SOL    HW126144   3.187   1.712   6.241
 8415SOL    HW226145   3.350   1.705   6.247
 8416SOL     OW26146   0.534   2.154   4.989
 8416SOL    HW126147   0.538   2.118   5.082
 8416SOL    HW226148   0.448   2.203   4.976
 8417SOL     OW26149   1.602   3.340   6.040
 8417SOL    HW126150   1.622   3.274   6.111
 8417SOL    HW226151   1.559   3.294   5.962
 8418SOL     OW26152   0.430   6.054   2.022
 8418SOL    HW126153   0.411   6.061   2.120
 8418SOL    HW226154   0.378   6.123   1.973
 8419SOL     OW26155   3.781   1.919   4.598
 8419SOL    HW126156   3.788   1.823   4.572
 8419SOL    HW226157   3.812   1.976   4.522
 8420SOL     OW26158   3.814   1.058   2.057
 8420SOL    HW126159   3.822   0.985   2.125
 8420SOL    HW226160   3.885   1.047   1.987
 8421SOL     OW26161   4.760   6.689   6.608
 8421SOL    HW126162   4.731   6.777   6.569
 8421SOL    HW226163   4.847   6.662   6.567
 8422SOL     OW26164   5.392   2.534   4.156
 8422SOL    HW126165   5.407   2.522   4.058
 8422SOL    HW226166   5.311   2.591   4.170
 8423SOL     OW26167   6.557   5.745   0.166
 8423SOL    HW126168   6.650   5.708   0.174
 8423SOL    HW226169   6.508   5.732   0.252
 8424SOL     OW26170   3.344   0.658   4.921
 8424SOL    HW126171   3.399   0.691   4.997
 8424SOL    HW226172   3.405   0.621   4.850
 8425SOL     OW26173   4.037   3.519   2.314
 8425SOL    HW126174   4.044   3.567   2.227
 8425SOL    HW226175   3.940   3.507   2.337
 8426SOL     OW26176   3.484   3.256   1.957
 8426SOL    HW126177   3.392   3.221   1.976
 8426SOL    HW226178   3.495   3.269   1.859
 8427SOL     OW26179   4.104   3.514   3.233
 8427SOL    HW126180   4.119   3.461   3.316
 8427SOL    HW226181   4.133   3.461   3.154
 8428SOL     OW26182   5.845   0.370   2.326
 8428SOL    HW126183   5.908   0.447   2.332
 8428SOL    HW226184   5.762   0.391   2.378
 8429SOL     OW26185   3.004   5.850   5.469
 8429SOL    HW126186   3.039   5.837   5.377
 8429SOL    HW226187   2.906   5.831   5.471
 8430SOL     OW26188   4.743   6.775   5.189
 8430SOL    HW126189   4.666   6.761   5.127
 8430SOL    HW226190   4.761   6.690   5.239
 8431SOL     OW26191   1.817   3.340   5.823
 8431SOL    HW126192   1.805   3.380   5.913
 8431SOL    HW226193   1.892   3.387   5.776
 8432SOL     OW26194   6.597   5.164   5.992
 8432SOL    HW126195   6.670   5.127   6.049
 8432SOL    HW226196   6.623   5.157   5.895
 8433SOL     OW26197   5.246   2.298   1.258
 8433SOL    HW126198   5.150   2.299   1.230
 8433SOL    HW226199   5.304   2.311   1.177
 8434SOL     OW26200   2.665   6.223   4.939
 8434SOL    HW126201   2.640   6.194   4.847
 8434SOL    HW226202   2.587   6.212   5.000
 8435SOL     OW26203   5.840   1.700   3.286
 8435SOL    HW126204   5.769   1.682   3.219
 8435SOL    HW226205   5.848   1.623   3.349
 8436SOL     OW26206   2.043   5.767   2.346
 8436SOL    HW126207   1.998   5.699   2.288
 8436SOL    HW226208   2.134   5.788   2.309
 8437SOL     OW26209   0.969   5.788   0.995
 8437SOL    HW126210   0.959   5.805   0.896
 8437SOL    HW226211   1.059   5.820   1.025
 8438SOL     OW26212   1.093   4.059   1.853
 8438SOL    HW126213   1.165   4.127   1.840
 8438SOL    HW226214   1.007   4.106   1.874
 8439SOL     OW26215   6.274   4.390   2.872
 8439SOL    HW126216   6.237   4.306   2.834
 8439SOL    HW226217   6.332   4.435   2.804
 8440SOL     OW26218   1.828   1.946   2.651
 8440SOL    HW126219   1.804   2.040   2.671
 8440SOL    HW226220   1.923   1.941   2.620
 8441SOL     OW26221   6.863   2.312   6.013
 8441SOL    HW126222   6.784   2.289   6.070
 8441SOL    HW226223   6.876   2.411   6.013
 8442SOL     OW26224   3.818   2.310   6.832
 8442SOL    HW126225   3.758   2.335   6.908
 8442SOL    HW226226   3.829   2.388   6.770
 8443SOL     OW26227   2.087   4.400   2.833
 8443SOL    HW126228   2.158   4.340   2.796
 8443SOL    HW226229   1.997   4.362   2.815
 8444SOL     OW26230   5.523   5.386   4.886
 8444SOL    HW126231   5.614   5.406   4.923
 8444SOL    HW226232   5.462   5.356   4.959
 8445SOL     OW26233   4.676   6.766   6.879
 8445SOL    HW126234   4.594   6.822   6.891
 8445SOL    HW226235   4.723   6.793   6.795
 8446SOL     OW26236   0.198   5.653   4.906
 8446SOL    HW126237   0.204   5.724   4.836
 8446SOL    HW226238   0.176   5.565   4.863
 8447SOL     OW26239   3.761   1.176   4.125
 8447SOL    HW126240   3.775   1.156   4.222
 8447SOL    HW226241   3.846   1.161   4.075
 8448SOL     OW26242   3.625   5.888   2.860
 8448SOL    HW126243   3.546   5.856   2.807
 8448SOL    HW226244   3.651   5.979   2.828
 8449SOL     OW26245   1.451   2.175   3.946
 8449SOL    HW126246   1.358   2.139   3.939
 8449SOL    HW226247   1.453   2.269   3.913
 8450SOL     OW26248   6.536   0.896   0.359
 8450SOL    HW126249   6.518   0.994   0.372
 8450SOL    HW226250   6.600   0.884   0.284
 8451SOL     OW26251   3.962   2.729   1.366
 8451SOL    HW126252   3.903   2.792   1.418
 8451SOL    HW226253   3.907   2.651   1.335
 8452SOL     OW26254   5.263   1.704   6.028
 8452SOL    HW126255   5.327   1.678   6.100
 8452SOL    HW226256   5.266   1.637   5.954
 8453SOL     OW26257   6.758   0.477   6.654
 8453SOL    HW126258   6.780   0.453   6.749
 8453SOL    HW226259   6.755   0.393   6.599
 8454SOL     OW26260   6.275   5.197   6.636
 8454SOL    HW126261   6.364   5.151   6.635
 8454SOL    HW226262   6.286   5.291   6.603
 8455SOL     OW26263   6.471   0.825   2.867
 8455SOL    HW126264   6.457   0.854   2.773
 8455SOL    HW226265   6.490   0.727   2.870
 8456SOL     OW26266   6.937   0.691   2.189
 8456SOL    HW126267   6.933   0.591   2.193
 8456SOL    HW226268   7.009   0.718   2.126
 8457SOL     OW26269   6.766   0.092   4.895
 8457SOL    HW126270   6.737   0.039   4.816
 8457SOL    HW226271   6.865   0.083   4.906
 8458SOL     OW26272   1.265   6.890   6.914
 8458SOL    HW126273   1.236   6.952   6.987
 8458SOL    HW226274   1.322   6.939   6.849
 8459SOL     OW26275   1.084   5.929   2.791
 8459SOL    HW126276   1.047   5.884   2.872
 8459SOL    HW226277   1.060   5.876   2.710
 8460SOL     OW26278   4.100   3.699   2.929
 8460SOL    HW126279   4.119   3.672   2.834
 8460SOL    HW226280   4.141   3.633   2.991
 8461SOL     OW26281   6.084   3.408   3.532
 8461SOL    HW126282   6.115   3.312   3.530
 8461SOL    HW226283   6.010   3.420   3.467
 8462SOL     OW26284   2.646   2.489   1.875
 8462SOL    HW126285   2.745   2.477   1.886
 8462SOL    HW226286   2.599   2.404   1.901
 8463SOL     OW26287   5.766   0.604   2.065
 8463SOL    HW126288   5.675   0.580   2.031
 8463SOL    HW226289   5.801   0.681   2.012
 8464SOL     OW26290   6.550   1.331   4.588
 8464SOL    HW126291   6.459   1.291   4.574
 8464SOL    HW226292   6.599   1.279   4.658
 8465SOL     OW26293   1.352   2.014   0.452
 8465SOL    HW126294   1.354   2.059   0.362
 8465SOL    HW226295   1.358   1.915   0.439
 8466SOL     OW26296   0.602   0.060   4.175
 8466SOL    HW126297   0.614   6.995   4.232
 8466SOL    HW226298   0.690   0.105   4.162
 8467SOL     OW26299   4.213   5.433   0.694
 8467SOL    HW126300   4.225   5.366   0.767
 8467SOL    HW226301   4.118   5.461   0.690
 8468SOL     OW26302   3.520   2.622   0.000
 8468SOL    HW126303   3.481   2.628   6.925
 8468SOL    HW226304   3.610   2.580   7.011
 8469SOL     OW26305   4.231   2.227   5.750
 8469SOL    HW126306   4.240   2.323   5.776
 8469SOL    HW226307   4.291   2.171   5.807
 8470SOL     OW26308   1.732   3.032   6.890
 8470SOL    HW126309   1.672   3.082   6.953
 8470SOL    HW226310   1.803   2.984   6.942
 8471SOL     OW26311   4.085   1.793   4.034
 8471SOL    HW126312   4.131   1.706   4.014
 8471SOL    HW226313   3.987   1.784   4.014
 8472SOL     OW26314   1.148   6.801   2.892
 8472SOL    HW126315   1.135   6.763   2.983
 8472SOL    HW226316   1.164   6.727   2.827
 8473SOL     OW26317   6.434   5.626   6.358
 8473SOL    HW126318   6.468   5.556   6.421
 8473SOL    HW226319   6.439   5.591   6.265
 8474SOL     OW26320   4.124   5.337   0.374
 8474SOL    HW126321   4.055   5.394   0.419
 8474SOL    HW226322   4.203   5.394   0.349
 8475SOL     OW26323   4.488   2.228   3.212
 8475SOL    HW126324   4.521   2.279   3.291
 8475SOL    HW226325   4.539   2.256   3.130
 8476SOL     OW26326   4.579   0.465   2.537
 8476SOL    HW126327   4.650   0.409   2.578
 8476SOL    HW226328   4.516   0.497   2.607
 8477SOL     OW26329   3.110   0.251   3.077
 8477SOL    HW126330   3.156   0.191   3.011
 8477SOL    HW226331   3.116   0.346   3.047
 8478SOL     OW26332   1.650   0.569   5.875
 8478SOL    HW126333   1.611   0.659   5.897
 8478SOL    HW226334   1.745   0.565   5.907
 8479SOL     OW26335   5.124   0.723   2.745
 8479SOL    HW126336   5.125   0.751   2.649
 8479SOL    HW226337   5.029   0.722   2.778
 8480SOL     OW26338   2.083   1.335   1.204
 8480SOL    HW126339   1.989   1.312   1.182
 8480SOL    HW226340   2.100   1.316   1.301
 8481SOL     OW26341   4.393   0.122   5.817
 8481SOL    HW126342   4.345   0.079   5.740
 8481SOL    HW226343   4.456   0.191   5.782
 8482SOL     OW26344   0.176   0.301   1.539
 8482SOL    HW126345   0.257   0.310   1.598
 8482SOL    HW226346   0.197   0.241   1.462
 8483SOL     OW26347   5.468   6.631   1.770
 8483SOL    HW126348   5.381   6.645   1.818
 8483SOL    HW226349   5.531   6.581   1.830
 8484SOL     OW26350   6.749   4.461   5.365
 8484SOL    HW126351   6.748   4.370   5.323
 8484SOL    HW226352   6.702   4.526   5.306
 8485SOL     OW26353   2.072   3.565   6.197
 8485SOL    HW126354   2.003   3.609   6.254
 8485SOL    HW226355   2.162   3.604   6.217
 8486SOL     OW26356   4.234   0.682   2.822
 8486SOL    HW126357   4.184   0.682   2.736
 8486SOL    HW226358   4.297   0.605   2.824
 8487SOL     OW26359   4.418   0.767   0.798
 8487SOL    HW126360   4.469   0.799   0.719
 8487SOL    HW226361   4.365   0.842   0.837
 8488SOL     OW26362   5.954   3.631   4.793
 8488SOL    HW126363   5.936   3.648   4.696
 8488SOL    HW226364   5.873   3.658   4.846
 8489SOL     OW26365   3.403   6.265   2.812
 8489SOL    HW126366   3.326   6.217   2.769
 8489SOL    HW226367   3.373   6.355   2.843
 8490SOL     OW26368   3.913   5.164   2.566
 8490SOL    HW126369   3.824   5.137   2.602
 8490SOL    HW226370   3.983   5.152   2.637
 8491SOL     OW26371   1.123   1.257   1.653
 8491SOL    HW126372   1.069   1.180   1.620
 8491SOL    HW226373   1.209   1.224   1.692
 8492SOL     OW26374   5.606   4.148   4.462
 8492SOL    HW126375   5.599   4.195   4.374
 8492SOL    HW226376   5.696   4.165   4.501
 8493SOL     OW26377   3.536   2.458   1.365
 8493SOL    HW126378   3.506   2.544   1.407
 8493SOL    HW226379   3.475   2.384   1.393
 8494SOL     OW26380   3.503   5.975   0.095
 8494SOL    HW126381   3.456   5.915   0.031
 8494SOL    HW226382   3.588   6.008   0.055
 8495SOL     OW26383   0.534   2.601   0.097
 8495SOL    HW126384   0.577   2.661   0.029
 8495SOL    HW226385   0.552   2.505   0.073
 8496SOL     OW26386   0.765   1.900   3.373
 8496SOL    HW126387   0.681   1.890   3.426
 8496SOL    HW226388   0.744   1.892   3.275
 8497SOL     OW26389   5.589   4.582   3.231
 8497SOL    HW126390   5.548   4.579   3.322
 8497SOL    HW226391   5.539   4.521   3.170
 8498SOL     OW26392   6.192   0.849   1.735
 8498SOL    HW126393   6.200   0.765   1.681
 8498SOL    HW226394   6.195   0.928   1.674
 8499SOL     OW26395   0.730   4.068   6.635
 8499SOL    HW126396   0.757   3.974   6.612
 8499SOL    HW226397   0.750   4.086   6.731
 8500SOL     OW26398   2.899   0.578   5.632
 8500SOL    HW126399   2.827   0.509   5.639
 8500SOL    HW226400   2.892   0.642   5.709
 8501SOL     OW26401   2.686   4.129   5.769
 8501SOL    HW126402   2.593   4.092   5.778
 8501SOL    HW226403   2.710   4.135   5.673
 8502SOL     OW26404   0.804   6.835   1.474
 8502SOL    HW126405   0.852   6.828   1.387
 8502SOL    HW226406   0.824   6.754   1.530
 8503SOL     OW26407   3.603   5.809   3.641
 8503SOL    HW126408   3.586   5.856   3.554
 8503SOL    HW226409   3.533   5.739   3.654
 8504SOL     OW26410   1.601   5.360   3.103
 8504SOL    HW126411   1.696   5.356   3.134
 8504SOL    HW226412   1.581   5.280   3.046
 8505SOL     OW26413   4.372   2.396   3.723
 8505SOL    HW126414   4.430   2.477   3.717
 8505SOL    HW226415   4.422   2.322   3.768
 8506SOL     OW26416   0.919   6.330   6.670
 8506SOL    HW126417   0.879   6.381   6.593
 8506SOL    HW226418   1.007   6.369   6.693
 8507SOL     OW26419   1.818   0.247   4.886
 8507SOL    HW126420   1.865   0.171   4.842
 8507SOL    HW226421   1.734   0.214   4.929
 8508SOL     OW26422   0.509   2.886   5.277
 8508SOL    HW126423   0.530   2.941   5.358
 8508SOL    HW226424   0.417   2.849   5.284
 8509SOL     OW26425   6.031   1.755   4.789
 8509SOL    HW126426   6.123   1.756   4.751
 8509SOL    HW226427   6.036   1.748   4.888
 8510SOL     OW26428   5.328   7.001   2.173
 8510SOL    HW126429   5.321   6.968   2.079
 8510SOL    HW226430   5.409   0.043   2.181
 8511SOL     OW26431   6.528   5.518   1.909
 8511SOL    HW126432   6.511   5.607   1.866
 8511SOL    HW226433   6.530   5.447   1.838
 8512SOL     OW26434   3.634   3.204   0.661
 8512SOL    HW126435   3.567   3.136   0.688
 8512SOL    HW226436   3.683   3.237   0.741
 8513SOL     OW26437   0.946   3.385   0.609
 8513SOL    HW126438   0.855   3.407   0.642
 8513SOL    HW226439   1.013   3.403   0.681
 8514SOL     OW26440   2.430   2.724   5.086
 8514SOL    HW126441   2.364   2.713   5.160
 8514SOL    HW226442   2.423   2.816   5.048
 8515SOL     OW26443   2.982   0.432   0.643
 8515SOL    HW126444   3.057   0.371   0.669
 8515SOL    HW226445   2.942   0.401   0.557
 8516SOL     OW26446   6.136   3.320   4.445
 8516SOL    HW126447   6.126   3.280   4.354
 8516SOL    HW226448   6.056   3.376   4.466
 8517SOL     OW26449   1.785   2.065   6.022
 8517SOL    HW126450   1.782   1.966   6.036
 8517SOL    HW226451   1.762   2.111   6.108
 8518SOL     OW26452   5.348   4.980   6.654
 8518SOL    HW126453   5.290   4.924   6.713
 8518SOL    HW226454   5.440   4.941   6.651
 8519SOL     OW26455   0.438   3.817   0.463
 8519SOL    HW126456   0.339   3.806   0.477
 8519SOL    HW226457   0.478   3.866   0.541
 8520SOL     OW26458   3.216   3.885   5.780
 8520SOL    HW126459   3.167   3.963   5.821
 8520SOL    HW226460   3.296   3.863   5.835
 8521SOL     OW26461   1.714   6.517   4.928
 8521SOL    HW126462   1.772   6.444   4.966
 8521SOL    HW226463   1.728   6.522   4.829
 8522SOL     OW26464   0.924   6.808   0.030
 8522SOL    HW126465   0.865   6.736   7.008
 8522SOL    HW226466   0.980   6.769   0.103
 8523SOL     OW26467   3.964   1.694   0.963
 8523SOL    HW126468   3.932   1.630   1.033
 8523SOL    HW226469   3.989   1.780   1.006
 8524SOL     OW26470   2.654   5.978   5.383
 8524SOL    HW126471   2.674   6.006   5.476
 8524SOL    HW226472   2.678   5.882   5.371
 8525SOL     OW26473   6.592   2.963   2.212
 8525SOL    HW126474   6.502   2.971   2.169
 8525SOL    HW226475   6.660   3.013   2.158
 8526SOL     OW26476   0.067   4.472   6.714
 8526SOL    HW126477   0.055   4.373   6.724
 8526SOL    HW226478   0.044   4.517   6.801
 8527SOL     OW26479   2.802   0.831   6.274
 8527SOL    HW126480   2.888   0.821   6.324
 8527SOL    HW226481   2.779   0.928   6.266
 8528SOL     OW26482   5.582   1.100   1.139
 8528SOL    HW126483   5.535   1.140   1.060
 8528SOL    HW226484   5.646   1.030   1.108
 8529SOL     OW26485   0.860   6.205   6.191
 8529SOL    HW126486   0.869   6.294   6.145
 8529SOL    HW226487   0.769   6.197   6.230
 8530SOL     OW26488   3.721   3.744   2.480
 8530SOL    HW126489   3.777   3.677   2.529
 8530SOL    HW226490   3.644   3.771   2.538
 8531SOL     OW26491   6.594   5.434   3.268
 8531SOL    HW126492   6.664   5.485   3.317
 8531SOL    HW226493   6.526   5.401   3.334
 8532SOL     OW26494   3.463   5.091   0.059
 8532SOL    HW126495   3.546   5.100   0.004
 8532SOL    HW226496   3.397   5.034   0.011
 8533SOL     OW26497   2.228   6.226   4.920
 8533SOL    HW126498   2.208   6.160   4.848
 8533SOL    HW226499   2.304   6.194   4.975
 8534SOL     OW26500   1.834   2.571   2.662
 8534SOL    HW126501   1.841   2.618   2.750
 8534SOL    HW226502   1.889   2.620   2.594
 8535SOL     OW26503   5.753   0.823   2.536
 8535SOL    HW126504   5.793   0.747   2.485
 8535SOL    HW226505   5.717   0.790   2.623
 8536SOL     OW26506   1.681   0.869   3.628
 8536SOL    HW126507   1.634   0.897   3.711
 8536SOL    HW226508   1.621   0.880   3.549
 8537SOL     OW26509   6.078   0.997   3.249
 8537SOL    HW126510   6.036   1.076   3.206
 8537SOL    HW226511   6.011   0.950   3.306
 8538SOL     OW26512   0.761   2.626   0.244
 8538SOL    HW126513   0.676   2.601   0.198
 8538SOL    HW226514   0.799   2.546   0.291
 8539SOL     OW26515   5.105   3.244   1.899
 8539SOL    HW126516   5.118   3.251   1.998
 8539SOL    HW226517   5.034   3.176   1.880
 8540SOL     OW26518   4.163   0.477   1.681
 8540SOL    HW126519   4.246   0.451   1.729
 8540SOL    HW226520   4.138   0.406   1.616
 8541SOL     OW26521   2.073   3.133   3.472
 8541SOL    HW126522   2.083   3.043   3.430
 8541SOL    HW226523   2.117   3.132   3.562
 8542SOL     OW26524   3.374   4.680   6.784
 8542SOL    HW126525   3.397   4.688   6.881
 8542SOL    HW226526   3.333   4.590   6.767
 8543SOL     OW26527   3.532   1.847   6.954
 8543SOL    HW126528   3.503   1.768   7.008
 8543SOL    HW226529   3.608   1.821   6.894
 8544SOL     OW26530   6.330   1.825   4.710
 8544SOL    HW126531   6.298   1.807   4.617
 8544SOL    HW226532   6.421   1.867   4.705
 8545SOL     OW26533   4.261   6.514   5.412
 8545SOL    HW126534   4.345   6.482   5.456
 8545SOL    HW226535   4.255   6.613   5.418
 8546SOL     OW26536   4.146   2.262   6.804
 8546SOL    HW126537   4.060   2.312   6.811
 8546SOL    HW226538   4.131   2.166   6.824
 8547SOL     OW26539   1.890   4.699   1.897
 8547SOL    HW126540   1.937   4.693   1.809
 8547SOL    HW226541   1.953   4.672   1.970
 8548SOL     OW26542   6.340   2.272   5.331
 8548SOL    HW126543   6.344   2.189   5.387
 8548SOL    HW226544   6.410   2.268   5.260
 8549SOL     OW26545   5.116   3.327   5.078
 8549SOL    HW126546   5.154   3.380   5.153
 8549SOL    HW226547   5.124   3.230   5.098
 8550SOL     OW26548   1.274   4.542   5.469
 8550SOL    HW126549   1.234   4.501   5.550
 8550SOL    HW226550   1.341   4.479   5.429
 8551SOL     OW26551   2.345   4.174   1.049
 8551SOL    HW126552   2.375   4.256   1.001
 8551SOL    HW226553   2.247   4.159   1.032
 8552SOL     OW26554   3.051   6.639   4.484
 8552SOL    HW126555   3.088   6.675   4.399
 8552SOL    HW226556   3.050   6.711   4.553
 8553SOL     OW26557   5.931   5.210   6.882
 8553SOL    HW126558   6.030   5.217   6.899
 8553SOL    HW226559   5.890   5.150   6.950
 8554SOL     OW26560   5.902   3.748   0.126
 8554SOL    HW126561   5.905   3.670   0.063
 8554SOL    HW226562   5.995   3.769   0.156
 8555SOL     OW26563   1.905   6.483   4.493
 8555SOL    HW126564   1.852   6.546   4.550
 8555SOL    HW226565   1.961   6.536   4.429
 8556SOL     OW26566   5.923   6.835   4.361
 8556SOL    HW126567   5.933   6.862   4.266
 8556SOL    HW226568   6.000   6.872   4.414
 8557SOL     OW26569   0.025   1.294   0.719
 8557SOL    HW126570   0.014   1.199   0.692
 8557SOL    HW226571   6.967   1.348   0.680
 8558SOL     OW26572   1.469   4.901   2.091
 8558SOL    HW126573   1.417   4.817   2.083
 8558SOL    HW226574   1.533   4.908   2.014
 8559SOL     OW26575   0.626   1.614   5.409
 8559SOL    HW126576   0.705   1.635   5.351
 8559SOL    HW226577   0.648   1.636   5.504
 8560SOL     OW26578   6.558   2.441   6.563
 8560SOL    HW126579   6.532   2.345   6.573
 8560SOL    HW226580   6.515   2.495   6.635
 8561SOL     OW26581   4.683   6.054   5.842
 8561SOL    HW126582   4.627   6.105   5.908
 8561SOL    HW226583   4.666   6.088   5.750
 8562SOL     OW26584   3.747   0.158   4.573
 8562SOL    HW126585   3.810   0.134   4.646
 8562SOL    HW226586   3.666   0.100   4.578
 8563SOL     OW26587   2.905   2.715   6.693
 8563SOL    HW126588   2.822   2.678   6.735
 8563SOL    HW226589   2.985   2.673   6.735
 8564SOL     OW26590   0.785   6.206   3.041
 8564SOL    HW126591   0.823   6.122   3.079
 8564SOL    HW226592   0.738   6.257   3.113
 8565SOL     OW26593   3.699   0.614   1.400
 8565SOL    HW126594   3.634   0.597   1.325
 8565SOL    HW226595   3.759   0.690   1.375
 8566SOL     OW26596   1.652   3.731   4.043
 8566SOL    HW126597   1.641   3.683   3.956
 8566SOL    HW226598   1.746   3.763   4.052
 8567SOL     OW26599   5.228   6.098   6.320
 8567SOL    HW126600   5.298   6.091   6.249
 8567SOL    HW226601   5.185   6.188   6.315
 8568SOL     OW26602   5.434   0.230   0.314
 8568SOL    HW126603   5.503   0.287   0.270
 8568SOL    HW226604   5.447   0.233   0.413
 8569SOL     OW26605   3.803   0.886   5.514
 8569SOL    HW126606   3.703   0.891   5.522
 8569SOL    HW226607   3.826   0.828   5.435
 8570SOL     OW26608   6.714   3.221   6.406
 8570SOL    HW126609   6.637   3.276   6.374
 8570SOL    HW226610   6.737   3.248   6.500
 8571SOL     OW26611   0.071   4.618   5.456
 8571SOL    HW126612   0.145   4.612   5.389
 8571SOL    HW226613   0.108   4.646   5.545
 8572SOL     OW26614   2.849   5.301   5.727
 8572SOL    HW126615   2.845   5.330   5.823
 8572SOL    HW226616   2.891   5.373   5.672
 8573SOL     OW26617   3.567   5.915   4.439
 8573SOL    HW126618   3.567   5.978   4.517
 8573SOL    HW226619   3.643   5.939   4.378
 8574SOL     OW26620   0.614   3.992   4.025
 8574SOL    HW126621   0.630   3.969   3.929
 8574SOL    HW226622   0.518   4.021   4.037
 8575SOL     OW26623   2.706   3.587   6.425
 8575SOL    HW126624   2.729   3.680   6.395
 8575SOL    HW226625   2.706   3.526   6.346
 8576SOL     OW26626   2.100   0.316   0.411
 8576SOL    HW126627   2.036   0.241   0.393
 8576SOL    HW226628   2.067   0.371   0.487
 8577SOL     OW26629   6.224   5.785   4.491
 8577SOL    HW126630   6.268   5.874   4.480
 8577SOL    HW226631   6.141   5.795   4.544
 8578SOL     OW26632   4.516   0.617   3.023
 8578SOL    HW126633   4.474   0.533   3.056
 8578SOL    HW226634   4.554   0.668   3.100
 8579SOL     OW26635   0.427   4.911   2.493
 8579SOL    HW126636   0.461   4.827   2.536
 8579SOL    HW226637   0.381   4.887   2.407
 8580SOL     OW26638   2.551   4.993   6.067
 8580SOL    HW126639   2.642   5.017   6.034
 8580SOL    HW226640   2.557   4.960   6.161
 8581SOL     OW26641   3.140   3.159   0.322
 8581SOL    HW126642   3.127   3.165   0.223
 8581SOL    HW226643   3.141   3.251   0.362
 8582SOL     OW26644   4.060   5.092   0.285
 8582SOL    HW126645   4.117   5.053   0.212
 8582SOL    HW226646   4.099   5.180   0.314
 8583SOL     OW26647   5.608   6.659   5.121
 8583SOL    HW126648   5.511   6.636   5.126
 8583SOL    HW226649   5.630   6.727   5.191
 8584SOL     OW26650   0.627   5.418   6.522
 8584SOL    HW126651   0.673   5.330   6.509
 8584SOL    HW226652   0.633   5.472   6.438
 8585SOL     OW26653   1.437   1.820   1.169
 8585SOL    HW126654   1.480   1.911   1.162
 8585SOL    HW226655   1.362   1.824   1.235
 8586SOL     OW26656   3.982   4.984   4.153
 8586SOL    HW126657   4.032   4.980   4.066
 8586SOL    HW226658   4.027   4.925   4.220
 8587SOL     OW26659   6.559   1.877   1.366
 8587SOL    HW126660   6.512   1.851   1.282
 8587SOL    HW226661   6.519   1.962   1.401
 8588SOL     OW26662   3.380   2.708   6.242
 8588SOL    HW126663   3.470   2.675   6.211
 8588SOL    HW226664   3.379   2.808   6.243
 8589SOL     OW26665   2.756   1.678   4.614
 8589SOL    HW126666   2.821   1.750   4.639
 8589SOL    HW226667   2.737   1.622   4.694
 8590SOL     OW26668   5.592   4.847   5.508
 8590SOL    HW126669   5.685   4.827   5.539
 8590SOL    HW226670   5.550   4.763   5.473
 8591SOL     OW26671   0.322   2.577   0.556
 8591SOL    HW126672   0.307   2.663   0.604
 8591SOL    HW226673   0.372   2.594   0.471
 8592SOL     OW26674   6.134   5.866   6.898
 8592SOL    HW126675   6.160   5.828   6.809
 8592SOL    HW226676   6.217   5.889   6.949
 8593SOL     OW26677   0.513   5.874   3.050
 8593SOL    HW126678   0.490   5.914   2.962
 8593SOL    HW226679   0.590   5.811   3.039
 8594SOL     OW26680   3.760   4.065   3.078
 8594SOL    HW126681   3.838   4.004   3.063
 8594SOL    HW226682   3.741   4.070   3.177
 8595SOL     OW26683   1.493   2.947   1.699
 8595SOL    HW126684   1.451   2.858   1.716
 8595SOL    HW226685   1.573   2.936   1.640
 8596SOL     OW26686   6.768   4.290   2.340
 8596SOL    HW126687   6.794   4.233   2.262
 8596SOL    HW226688   6.670   4.306   2.338
 8597SOL     OW26689   2.596   1.672   0.496
 8597SOL    HW126690   2.552   1.666   0.585
 8597SOL    HW226691   2.669   1.603   0.491
 8598SOL     OW26692   6.027   3.245   1.810
 8598SOL    HW126693   5.977   3.203   1.885
 8598SOL    HW226694   6.114   3.196   1.797
 8599SOL     OW26695   0.740   3.035   0.901
 8599SOL    HW126696   0.722   3.129   0.875
 8599SOL    HW226697   0.723   2.974   0.824
 8600SOL     OW26698   6.656   2.209   6.189
 8600SOL    HW126699   6.591   2.270   6.233
 8600SOL    HW226700   6.642   2.115   6.221
 8601SOL     OW26701   0.798   0.219   5.039
 8601SOL    HW126702   0.863   0.204   4.964
 8601SOL    HW226703   0.705   0.218   5.002
 8602SOL     OW26704   1.557   6.383   1.861
 8602SOL    HW126705   1.595   6.291   1.852
 8602SOL    HW226706   1.617   6.439   1.916
 8603SOL     OW26707   4.903   3.449   1.425
 8603SOL    HW126708   4.944   3.515   1.487
 8603SOL    HW226709   4.809   3.430   1.453
 8604SOL     OW26710   5.937   3.051   3.180
 8604SOL    HW126711   5.900   3.029   3.089
 8604SOL    HW226712   5.962   2.966   3.226
 8605SOL     OW26713   3.030   5.417   1.607
 8605SOL    HW126714   2.990   5.371   1.686
 8605SOL    HW226715   3.100   5.358   1.566
 8606SOL     OW26716   4.052   5.399   4.476
 8606SOL    HW126717   4.040   5.302   4.453
 8606SOL    HW226718   3.971   5.431   4.525
 8607SOL     OW26719   2.851   6.316   0.912
 8607SOL    HW126720   2.927   6.370   0.949
 8607SOL    HW226721   2.856   6.223   0.949
 8608SOL     OW26722   5.987   6.840   2.464
 8608SOL    HW126723   6.046   6.778   2.516
 8608SOL    HW226724   6.030   6.862   2.377
 8609SOL     OW26725   4.973   0.253   6.042
 8609SOL    HW126726   4.967   0.275   5.945
 8609SOL    HW226727   5.061   0.284   6.078
 8610SOL     OW26728   7.013   6.405   5.645
 8610SOL    HW126729   0.033   6.468   5.713
 8610SOL    HW226730   0.009   6.444   5.554
 8611SOL     OW26731   1.626   1.970   3.256
 8611SOL    HW126732   1.621   2.001   3.351
 8611SOL    HW226733   1.634   2.048   3.195
 8612SOL     OW26734   5.091   3.148   4.471
 8612SOL    HW126735   5.023   3.190   4.531
 8612SOL    HW226736   5.065   3.161   4.376
 8613SOL     OW26737   1.457   0.847   0.414
 8613SOL    HW126738   1.534   0.809   0.363
 8613SOL    HW226739   1.468   0.946   0.421
 8614SOL     OW26740   1.662   2.080   3.526
 8614SOL    HW126741   1.654   2.092   3.625
 8614SOL    HW226742   1.757   2.061   3.503
 8615SOL     OW26743   4.631   1.642   5.858
 8615SOL    HW126744   4.692   1.718   5.879
 8615SOL    HW226745   4.542   1.677   5.831
 8616SOL     OW26746   0.886   3.159   0.341
 8616SOL    HW126747   0.817   3.152   0.269
 8616SOL    HW226748   0.842   3.187   0.426
 8617SOL     OW26749   5.595   2.863   0.796
 8617SOL    HW126750   5.651   2.788   0.830
 8617SOL    HW226751   5.652   2.943   0.780
 8618SOL     OW26752   4.112   1.336   3.176
 8618SOL    HW126753   4.129   1.434   3.164
 8618SOL    HW226754   4.150   1.305   3.263
 8619SOL     OW26755   3.866   6.664   0.867
 8619SOL    HW126756   3.859   6.565   0.850
 8619SOL    HW226757   3.871   6.680   0.965
 8620SOL     OW26758   6.166   6.021   3.770
 8620SOL    HW126759   6.131   6.114   3.760
 8620SOL    HW226760   6.249   6.009   3.716
 8621SOL     OW26761   5.272   1.009   4.352
 8621SOL    HW126762   5.266   1.092   4.296
 8621SOL    HW226763   5.338   1.023   4.425
 8622SOL     OW26764   4.753   5.227   6.473
 8622SOL    HW126765   4.709   5.159   6.414
 8622SOL    HW226766   4.844   5.248   6.439
 8623SOL     OW26767   6.265   2.140   3.947
 8623SOL    HW126768   6.294   2.168   4.038
 8623SOL    HW226769   6.265   2.040   3.941
 8624SOL     OW26770   6.357   3.114   3.914
 8624SOL    HW126771   6.357   3.145   4.009
 8624SOL    HW226772   6.445   3.073   3.893
 8625SOL     OW26773   3.697   1.473   6.563
 8625SOL    HW126774   3.773   1.475   6.498
 8625SOL    HW226775   3.658   1.565   6.571
 8626SOL     OW26776   2.963   3.749   2.534
 8626SOL    HW126777   2.900   3.686   2.489
 8626SOL    HW226778   2.956   3.840   2.492
 8627SOL     OW26779   2.890   0.242   0.169
 8627SOL    HW126780   2.968   0.303   0.187
 8627SOL    HW226781   2.924   0.148   0.156
 8628SOL     OW26782   6.073   1.460   0.997
 8628SOL    HW126783   6.101   1.384   0.939
 8628SOL    HW226784   5.993   1.505   0.958
 8629SOL     OW26785   1.301   5.904   3.607
 8629SOL    HW126786   1.242   5.984   3.622
 8629SOL    HW226787   1.275   5.858   3.522
 8630SOL     OW26788   5.066   5.410   4.353
 8630SOL    HW126789   5.135   5.390   4.422
 8630SOL    HW226790   4.975   5.402   4.394
 8631SOL     OW26791   4.291   6.247   3.726
 8631SOL    HW126792   4.372   6.192   3.742
 8631SOL    HW226793   4.305   6.339   3.762
 8632SOL     OW26794   3.204   0.962   3.184
 8632SOL    HW126795   3.206   0.968   3.283
 8632SOL    HW226796   3.109   0.965   3.152
 8633SOL     OW26797   6.807   6.770   2.518
 8633SOL    HW126798   6.850   6.783   2.607
 8633SOL    HW226799   6.725   6.713   2.528
 8634SOL     OW26800   6.023   6.011   1.913
 8634SOL    HW126801   6.040   5.971   1.823
 8634SOL    HW226802   5.965   6.092   1.902
 8635SOL     OW26803   5.948   3.574   5.655
 8635SOL    HW126804   6.033   3.589   5.605
 8635SOL    HW226805   5.917   3.480   5.642
 8636SOL     OW26806   5.555   4.965   0.727
 8636SOL    HW126807   5.459   4.991   0.735
 8636SOL    HW226808   5.567   4.870   0.757
 8637SOL     OW26809   1.331   0.975   1.611
 8637SOL    HW126810   1.373   0.898   1.564
 8637SOL    HW226811   1.248   1.002   1.563
 8638SOL     OW26812   5.690   4.496   1.033
 8638SOL    HW126813   5.673   4.574   1.094
 8638SOL    HW226814   5.713   4.416   1.088
 8639SOL     OW26815   5.943   2.158   2.086
 8639SOL    HW126816   5.923   2.222   2.012
 8639SOL    HW226817   6.025   2.187   2.135
 8640SOL     OW26818   5.071   6.207   1.741
 8640SOL    HW126819   5.041   6.214   1.645
 8640SOL    HW226820   5.011   6.263   1.798
 8641SOL     OW26821   4.885   4.409   3.602
 8641SOL    HW126822   4.894   4.446   3.695
 8641SOL    HW226823   4.803   4.352   3.597
 8642SOL     OW26824   4.296   1.407   2.064
 8642SOL    HW126825   4.353   1.328   2.087
 8642SOL    HW226826   4.327   1.486   2.118
 8643SOL     OW26827   4.724   0.256   0.188
 8643SOL    HW126828   4.705   0.316   0.111
 8643SOL    HW226829   4.820   0.229   0.187
 8644SOL     OW26830   6.854   3.345   4.895
 8644SOL    HW126831   6.936   3.358   4.839
 8644SOL    HW226832   6.796   3.425   4.889
 8645SOL     OW26833   6.457   3.892   1.725
 8645SOL    HW126834   6.488   3.897   1.630
 8645SOL    HW226835   6.536   3.874   1.784
 8646SOL     OW26836   4.824   5.725   0.882
 8646SOL    HW126837   4.741   5.781   0.889
 8646SOL    HW226838   4.807   5.634   0.917
 8647SOL     OW26839   4.349   4.761   1.977
 8647SOL    HW126840   4.363   4.682   1.918
 8647SOL    HW226841   4.416   4.760   2.051
 8648SOL     OW26842   5.940   0.900   3.929
 8648SOL    HW126843   6.026   0.883   3.979
 8648SOL    HW226844   5.961   0.932   3.837
 8649SOL     OW26845   6.507   4.433   5.609
 8649SOL    HW126846   6.601   4.457   5.636
 8649SOL    HW226847   6.506   4.341   5.570
 8650SOL     OW26848   0.578   5.318   1.498
 8650SOL    HW126849   0.593   5.222   1.476
 8650SOL    HW226850   0.624   5.376   1.430
 8651SOL     OW26851   4.146   3.104   1.063
 8651SOL    HW126852   4.119   3.017   1.104
 8651SOL    HW226853   4.077   3.174   1.084
 8652SOL     OW26854   1.012   3.096   4.428
 8652SOL    HW126855   0.975   3.176   4.382
 8652SOL    HW226856   1.074   3.125   4.501
 8653SOL     OW26857   5.199   2.793   6.321
 8653SOL    HW126858   5.242   2.716   6.369
 8653SOL    HW226859   5.264   2.868   6.312
 8654SOL     OW26860   1.441   5.132   1.580
 8654SOL    HW126861   1.384   5.192   1.524
 8654SOL    HW226862   1.485   5.186   1.652
 8655SOL     OW26863   6.074   6.500   1.882
 8655SOL    HW126864   6.094   6.495   1.980
 8655SOL    HW226865   5.975   6.503   1.868
 8656SOL     OW26866   6.919   2.059   1.549
 8656SOL    HW126867   6.932   2.049   1.648
 8656SOL    HW226868   7.001   2.098   1.508
 8657SOL     OW26869   2.851   4.655   0.815
 8657SOL    HW126870   2.756   4.633   0.835
 8657SOL    HW226871   2.881   4.606   0.733
 8658SOL     OW26872   1.366   5.404   6.104
 8658SOL    HW126873   1.371   5.431   6.200
 8658SOL    HW226874   1.291   5.340   6.091
 8659SOL     OW26875   4.079   6.914   4.279
 8659SOL    HW126876   4.135   6.996   4.287
 8659SOL    HW226877   4.138   6.833   4.277
 8660SOL     OW26878   5.456   4.503   6.957
 8660SOL    HW126879   5.545   4.471   6.924
 8660SOL    HW226880   5.383   4.454   6.908
 8661SOL     OW26881   6.550   3.236   1.910
 8661SOL    HW126882   6.625   3.179   1.941
 8661SOL    HW226883   6.499   3.270   1.989
 8662SOL     OW26884   0.721   0.418   0.079
 8662SOL    HW126885   0.709   0.326   0.044
 8662SOL    HW226886   0.818   0.434   0.100
 8663SOL     OW26887   2.648   5.069   0.982
 8663SOL    HW126888   2.625   5.082   0.886
 8663SOL    HW226889   2.564   5.055   1.035
 8664SOL     OW26890   4.242   4.909   1.572
 8664SOL    HW126891   4.311   4.868   1.631
 8664SOL    HW226892   4.255   4.875   1.478
 8665SOL     OW26893   5.178   5.292   4.821
 8665SOL    HW126894   5.147   5.317   4.912
 8665SOL    HW226895   5.175   5.372   4.761
 8666SOL     OW26896   6.581   4.614   3.873
 8666SOL    HW126897   6.562   4.627   3.970
 8666SOL    HW226898   6.675   4.641   3.853
 8667SOL     OW26899   5.699   2.504   3.491
 8667SOL    HW126900   5.667   2.421   3.537
 8667SOL    HW226901   5.622   2.550   3.447
 8668SOL     OW26902   3.204   0.873   4.563
 8668SOL    HW126903   3.266   0.950   4.582
 8668SOL    HW226904   3.252   0.805   4.507
 8669SOL     OW26905   4.226   6.947   5.967
 8669SOL    HW126906   4.277   0.003   5.919
 8669SOL    HW226907   4.129   6.970   5.968
 8670SOL     OW26908   4.382   4.624   2.740
 8670SOL    HW126909   4.342   4.706   2.698
 8670SOL    HW226910   4.404   4.558   2.668
 8671SOL     OW26911   6.266   5.998   2.484
 8671SOL    HW126912   6.343   5.943   2.452
 8671SOL    HW226913   6.191   5.937   2.513
 8672SOL     OW26914   3.577   5.562   5.035
 8672SOL    HW126915   3.499   5.521   5.084
 8672SOL    HW226916   3.577   5.531   4.940
 8673SOL     OW26917   4.897   2.354   0.137
 8673SOL    HW126918   4.995   2.356   0.121
 8673SOL    HW226919   4.859   2.446   0.129
 8674SOL     OW26920   0.721   0.060   2.579
 8674SOL    HW126921   0.716   7.010   2.654
 8674SOL    HW226922   0.644   0.124   2.587
 8675SOL     OW26923   2.554   2.035   2.935
 8675SOL    HW126924   2.647   2.004   2.916
 8675SOL    HW226925   2.521   2.091   2.859
 8676SOL     OW26926   4.361   0.930   4.500
 8676SOL    HW126927   4.335   0.924   4.596
 8676SOL    HW226928   4.350   0.840   4.457
 8677SOL     OW26929   2.025   3.998   5.690
 8677SOL    HW126930   2.033   4.037   5.599
 8677SOL    HW226931   1.998   3.902   5.683
 8678SOL     OW26932   1.621   0.958   5.856
 8678SOL    HW126933   1.697   0.896   5.836
 8678SOL    HW226934   1.613   0.971   5.955
 8679SOL     OW26935   5.976   1.541   4.507
 8679SOL    HW126936   5.956   1.637   4.491
 8679SOL    HW226937   6.050   1.512   4.447
 8680SOL     OW26938   0.535   3.883   0.718
 8680SOL    HW126939   0.605   3.950   0.693
 8680SOL    HW226940   0.578   3.795   0.736
 8681SOL     OW26941   4.239   3.738   1.355
 8681SOL    HW126942   4.246   3.658   1.295
 8681SOL    HW226943   4.201   3.711   1.443
 8682SOL     OW26944   1.463   5.722   2.495
 8682SOL    HW126945   1.524   5.668   2.553
 8682SOL    HW226946   1.440   5.671   2.413
 8683SOL     OW26947   4.960   2.805   6.185
 8683SOL    HW126948   4.987   2.743   6.111
 8683SOL    HW226949   5.034   2.811   6.252
 8684SOL     OW26950   6.615   2.712   3.864
 8684SOL    HW126951   6.567   2.646   3.922
 8684SOL    HW226952   6.581   2.705   3.770
 8685SOL     OW26953   6.917   1.283   5.901
 8685SOL    HW126954   6.968   1.369   5.903
 8685SOL    HW226955   6.908   1.251   5.807
 8686SOL     OW26956   6.392   1.844   3.749
 8686SOL    HW126957   6.354   1.763   3.706
 8686SOL    HW226958   6.362   1.848   3.845
 8687SOL     OW26959   4.058   0.975   2.516
 8687SOL    HW126960   3.992   0.940   2.582
 8687SOL    HW226961   4.141   1.004   2.563
 8688SOL     OW26962   1.366   6.828   1.882
 8688SOL    HW126963   1.414   6.757   1.829
 8688SOL    HW226964   1.400   6.918   1.855
 8689SOL     OW26965   4.982   4.821   0.892
 8689SOL    HW126966   5.071   4.786   0.863
 8689SOL    HW226967   4.911   4.784   0.832
 8690SOL     OW26968   1.772   0.800   2.981
 8690SOL    HW126969   1.789   0.836   3.073
 8690SOL    HW226970   1.723   0.713   2.988
 8691SOL     OW26971   5.797   1.751   0.484
 8691SOL    HW126972   5.890   1.784   0.502
 8691SOL    HW226973   5.776   1.763   0.387
 8692SOL     OW26974   1.645   1.186   3.620
 8692SOL    HW126975   1.606   1.275   3.594
 8692SOL    HW226976   1.660   1.131   3.539
 8693SOL     OW26977   5.159   2.335   6.943
 8693SOL    HW126978   5.201   2.279   6.871
 8693SOL    HW226979   5.227   2.357   7.013
 8694SOL     OW26980   3.558   6.811   0.000
 8694SOL    HW126981   3.616   6.855   6.947
 8694SOL    HW226982   3.614   6.748   0.054
 8695SOL     OW26983   4.557   4.160   5.445
 8695SOL    HW126984   4.483   4.112   5.493
 8695SOL    HW226985   4.535   4.163   5.347
 8696SOL     OW26986   1.985   5.220   0.793
 8696SOL    HW126987   2.054   5.188   0.728
 8696SOL    HW226988   1.896   5.185   0.767
 8697SOL     OW26989   4.986   4.917   6.718
 8697SOL    HW126990   5.073   4.870   6.726
 8697SOL    HW226991   4.992   4.987   6.647
 8698SOL     OW26992   5.884   6.212   5.123
 8698SOL    HW126993   5.854   6.307   5.128
 8698SOL    HW226994   5.806   6.153   5.105
 8699SOL     OW26995   1.007   1.731   5.231
 8699SOL    HW126996   1.026   1.633   5.230
 8699SOL    HW226997   0.930   1.749   5.292
 8700SOL     OW26998   2.695   2.361   6.151
 8700SOL    HW126999   2.774   2.347   6.212
 8700SOL    HW227000   2.728   2.389   6.061
 8701SOL     OW27001   1.161   1.199   3.313
 8701SOL    HW127002   1.253   1.236   3.296
 8701SOL    HW227003   1.112   1.192   3.226
 8702SOL     OW27004   5.431   6.217   6.688
 8702SOL    HW127005   5.464   6.303   6.726
 8702SOL    HW227006   5.364   6.176   6.752
 8703SOL     OW27007   1.276   5.286   1.389
 8703SOL    HW127008   1.214   5.234   1.331
 8703SOL    HW227009   1.281   5.380   1.356
 8704SOL     OW27010   0.907   4.249   1.978
 8704SOL    HW127011   0.874   4.303   1.901
 8704SOL    HW227012   0.917   4.308   2.058
 8705SOL     OW27013   5.005   6.802   4.272
 8705SOL    HW127014   5.094   6.825   4.312
 8705SOL    HW227015   4.956   6.885   4.248
 8706SOL     OW27016   5.024   1.563   5.714
 8706SOL    HW127017   4.934   1.545   5.673
 8706SOL    HW227018   5.091   1.500   5.675
 8707SOL     OW27019   4.603   1.909   5.516
 8707SOL    HW127020   4.698   1.878   5.510
 8707SOL    HW227021   4.601   2.009   5.511
 8708SOL     OW27022   4.099   1.863   0.617
 8708SOL    HW127023   4.124   1.772   0.584
 8708SOL    HW227024   4.133   1.932   0.553
 8709SOL     OW27025   5.851   3.445   0.389
 8709SOL    HW127026   5.847   3.441   0.488
 8709SOL    HW227027   5.890   3.532   0.360
 8710SOL     OW27028   5.943   2.908   4.037
 8710SOL    HW127029   5.851   2.908   3.999
 8710SOL    HW227030   6.006   2.949   3.971
 8711SOL     OW27031   0.983   1.120   4.633
 8711SOL    HW127032   1.063   1.179   4.619
 8711SOL    HW227033   1.000   1.031   4.592
 8712SOL     OW27034   3.657   0.285   6.966
 8712SOL    HW127035   3.570   0.245   6.937
 8712SOL    HW227036   3.654   0.302   0.048
 8713SOL     OW27037   6.289   4.578   2.646
 8713SOL    HW127038   6.271   4.522   2.565
 8713SOL    HW227039   6.202   4.602   2.689
 8714SOL     OW27040   1.433   1.437   4.288
 8714SOL    HW127041   1.344   1.429   4.333
 8714SOL    HW227042   1.486   1.509   4.332
 8715SOL     OW27043   6.023   1.260   2.584
 8715SOL    HW127044   6.121   1.240   2.583
 8715SOL    HW227045   5.972   1.183   2.546
 8716SOL     OW27046   0.428   1.126   1.923
 8716SOL    HW127047   0.446   1.131   1.825
 8716SOL    HW227048   0.329   1.119   1.938
 8717SOL     OW27049   4.103   3.384   0.642
 8717SOL    HW127050   4.140   3.333   0.564
 8717SOL    HW227051   4.059   3.468   0.610
 8718SOL     OW27052   0.218   2.488   5.785
 8718SOL    HW127053   0.196   2.585   5.773
 8718SOL    HW227054   0.142   2.432   5.751
 8719SOL     OW27055   6.178   0.909   5.656
 8719SOL    HW127056   6.257   0.889   5.714
 8719SOL    HW227057   6.198   0.881   5.562
 8720SOL     OW27058   4.717   3.584   5.645
 8720SOL    HW127059   4.785   3.583   5.572
 8720SOL    HW227060   4.630   3.617   5.609
 8721SOL     OW27061   6.894   0.842   5.142
 8721SOL    HW127062   6.854   0.753   5.165
 8721SOL    HW227063   6.828   0.896   5.090
 8722SOL     OW27064   3.216   3.029   1.166
 8722SOL    HW127065   3.206   2.966   1.243
 8722SOL    HW227066   3.126   3.058   1.135
 8723SOL     OW27067   0.257   5.534   0.675
 8723SOL    HW127068   0.181   5.471   0.655
 8723SOL    HW227069   0.230   5.627   0.650
 8724SOL     OW27070   5.161   6.443   6.617
 8724SOL    HW127071   5.151   6.394   6.704
 8724SOL    HW227072   5.248   6.417   6.574
 8725SOL     OW27073   1.913   6.020   1.383
 8725SOL    HW127074   1.993   6.050   1.434
 8725SOL    HW227075   1.942   5.967   1.303
 8726SOL     OW27076   6.565   0.702   1.535
 8726SOL    HW127077   6.528   0.730   1.624
 8726SOL    HW227078   6.653   0.747   1.520
 8727SOL     OW27079   6.029   6.863   0.874
 8727SOL    HW127080   5.982   6.941   0.917
 8727SOL    HW227081   6.028   6.875   0.774
 8728SOL     OW27082   2.169   6.141   5.294
 8728SOL    HW127083   2.262   6.178   5.290
 8728SOL    HW227084   2.171   6.049   5.333
 8729SOL     OW27085   4.965   6.134   4.771
 8729SOL    HW127086   4.869   6.121   4.799
 8729SOL    HW227087   4.968   6.177   4.681
 8730SOL     OW27088   6.950   5.994   0.614
 8730SOL    HW127089   0.011   6.031   0.563
 8730SOL    HW227090   6.878   5.964   0.551
 8731SOL     OW27091   0.640   1.628   2.306
 8731SOL    HW127092   0.695   1.648   2.387
 8731SOL    HW227093   0.675   1.679   2.227
 8732SOL     OW27094   6.268   5.716   2.290
 8732SOL    HW127095   6.245   5.783   2.220
 8732SOL    HW227096   6.347   5.662   2.261
 8733SOL     OW27097   0.035   0.227   0.863
 8733SOL    HW127098   0.054   0.195   0.956
 8733SOL    HW227099   0.087   0.172   0.798
 8734SOL     OW27100   0.116   6.136   0.462
 8734SOL    HW127101   0.179   6.097   0.395
 8734SOL    HW227102   0.162   6.144   0.550
 8735SOL     OW27103   0.139   2.874   6.322
 8735SOL    HW127104   0.111   2.817   6.399
 8735SOL    HW227105   0.079   2.954   6.316
 8736SOL     OW27106   0.126   4.478   5.895
 8736SOL    HW127107   0.194   4.406   5.886
 8736SOL    HW227108   0.102   4.490   5.991
 8737SOL     OW27109   3.883   6.321   6.821
 8737SOL    HW127110   3.836   6.338   6.735
 8737SOL    HW227111   3.981   6.335   6.810
 8738SOL     OW27112   0.793   3.888   5.483
 8738SOL    HW127113   0.826   3.850   5.569
 8738SOL    HW227114   0.749   3.816   5.429
 8739SOL     OW27115   0.956   3.791   5.711
 8739SOL    HW127116   0.875   3.766   5.763
 8739SOL    HW227117   1.011   3.710   5.694
 8740SOL     OW27118   1.552   6.786   1.199
 8740SOL    HW127119   1.610   6.860   1.165
 8740SOL    HW227120   1.524   6.728   1.123
 8741SOL     OW27121   1.541   3.598   2.067
 8741SOL    HW127122   1.559   3.636   2.158
 8741SOL    HW227123   1.450   3.626   2.036
 8742SOL     OW27124   4.728   5.825   2.186
 8742SOL    HW127125   4.758   5.761   2.256
 8742SOL    HW227126   4.807   5.857   2.134
 8743SOL     OW27127   2.392   4.923   2.709
 8743SOL    HW127128   2.435   4.956   2.625
 8743SOL    HW227129   2.451   4.944   2.787
 8744SOL     OW27130   3.118   3.327   5.388
 8744SOL    HW127131   3.144   3.419   5.417
 8744SOL    HW227132   3.197   3.282   5.345
 8745SOL     OW27133   6.038   1.645   0.218
 8745SOL    HW127134   6.038   1.553   0.258
 8745SOL    HW227135   6.014   1.639   0.121
 8746SOL     OW27136   5.383   3.693   4.824
 8746SOL    HW127137   5.419   3.655   4.739
 8746SOL    HW227138   5.417   3.640   4.902
 8747SOL     OW27139   0.696   1.961   4.204
 8747SOL    HW127140   0.604   1.992   4.228
 8747SOL    HW227141   0.764   2.022   4.245
 8748SOL     OW27142   3.026   6.684   0.161
 8748SOL    HW127143   3.117   6.658   0.192
 8748SOL    HW227144   2.963   6.608   0.175
 8749SOL     OW27145   3.942   1.855   3.673
 8749SOL    HW127146   3.984   1.798   3.603
 8749SOL    HW227147   3.947   1.951   3.646
 8750SOL     OW27148   1.876   0.601   5.319
 8750SOL    HW127149   1.906   0.595   5.414
 8750SOL    HW227150   1.951   0.578   5.258
 8751SOL     OW27151   2.026   6.594   3.107
 8751SOL    HW127152   1.982   6.516   3.152
 8751SOL    HW227153   1.957   6.660   3.079
 8752SOL     OW27154   2.604   1.390   5.748
 8752SOL    HW127155   2.527   1.455   5.754
 8752SOL    HW227156   2.627   1.376   5.652
 8753SOL     OW27157   5.604   1.526   5.185
 8753SOL    HW127158   5.632   1.478   5.102
 8753SOL    HW227159   5.539   1.598   5.162
 8754SOL     OW27160   2.021   1.457   5.719
 8754SOL    HW127161   2.038   1.367   5.760
 8754SOL    HW227162   2.022   1.450   5.620
 8755SOL     OW27163   2.222   2.230   0.693
 8755SOL    HW127164   2.278   2.196   0.768
 8755SOL    HW227165   2.259   2.318   0.661
 8756SOL     OW27166   1.923   4.218   4.550
 8756SOL    HW127167   1.981   4.140   4.572
 8756SOL    HW227168   1.927   4.285   4.625
 8757SOL     OW27169   3.675   5.619   3.967
 8757SOL    HW127170   3.582   5.631   4.001
 8757SOL    HW227171   3.740   5.632   4.042
 8758SOL     OW27172   5.269   6.616   2.242
 8758SOL    HW127173   5.177   6.645   2.268
 8758SOL    HW227174   5.289   6.527   2.283
 8759SOL     OW27175   5.382   0.875   5.945
 8759SOL    HW127176   5.461   0.823   5.912
 8759SOL    HW227177   5.301   0.850   5.892
 8760SOL     OW27178   2.208   3.147   3.712
 8760SOL    HW127179   2.161   3.234   3.732
 8760SOL    HW227180   2.258   3.118   3.793
 8761SOL     OW27181   5.546   6.114   1.747
 8761SOL    HW127182   5.467   6.058   1.769
 8761SOL    HW227183   5.538   6.146   1.652
 8762SOL     OW27184   0.852   4.665   0.477
 8762SOL    HW127185   0.903   4.696   0.558
 8762SOL    HW227186   0.913   4.664   0.398
 8763SOL     OW27187   0.467   5.891   6.314
 8763SOL    HW127188   0.393   5.895   6.381
 8763SOL    HW227189   0.460   5.806   6.262
 8764SOL     OW27190   3.467   2.079   6.555
 8764SOL    HW127191   3.552   2.040   6.519
 8764SOL    HW227192   3.391   2.019   6.532
 8765SOL     OW27193   0.023   0.408   4.626
 8765SOL    HW127194   0.002   0.310   4.617
 8765SOL    HW227195   0.101   0.420   4.686
 8766SOL     OW27196   2.067   4.595   2.440
 8766SOL    HW127197   2.147   4.618   2.496
 8766SOL    HW227198   2.035   4.677   2.393
 8767SOL     OW27199   5.162   1.201   5.854
 8767SOL    HW127200   5.158   1.211   5.754
 8767SOL    HW227201   5.092   1.136   5.883
 8768SOL     OW27202   1.037   3.882   0.047
 8768SOL    HW127203   1.053   3.980   0.053
 8768SOL    HW227204   1.125   3.834   0.044
 8769SOL     OW27205   1.901   1.302   6.032
 8769SOL    HW127206   1.849   1.276   6.113
 8769SOL    HW227207   1.846   1.362   5.974
 8770SOL     OW27208   5.383   1.188   3.119
 8770SOL    HW127209   5.299   1.183   3.064
 8770SOL    HW227210   5.444   1.256   3.080
 8771SOL     OW27211   2.545   2.903   5.708
 8771SOL    HW127212   2.604   2.860   5.776
 8771SOL    HW227213   2.498   2.981   5.748
 8772SOL     OW27214   6.388   6.662   6.485
 8772SOL    HW127215   6.382   6.671   6.585
 8772SOL    HW227216   6.329   6.730   6.442
 8773SOL     OW27217   3.152   1.788   3.121
 8773SOL    HW127218   3.215   1.748   3.054
 8773SOL    HW227219   3.058   1.783   3.085
 8774SOL     OW27220   1.201   0.628   0.101
 8774SOL    HW127221   1.285   0.575   0.095
 8774SOL    HW227222   1.209   0.696   0.174
 8775SOL     OW27223   6.245   6.255   4.353
 8775SOL    HW127224   6.267   6.231   4.447
 8775SOL    HW227225   6.148   6.282   4.347
 8776SOL     OW27226   3.334   3.816   5.042
 8776SOL    HW127227   3.280   3.832   4.959
 8776SOL    HW227228   3.302   3.732   5.086
 8777SOL     OW27229   6.079   5.714   2.783
 8777SOL    HW127230   5.982   5.693   2.787
 8777SOL    HW227231   6.130   5.647   2.838
 8778SOL     OW27232   1.390   2.721   2.899
 8778SOL    HW127233   1.469   2.674   2.939
 8778SOL    HW227234   1.418   2.811   2.865
 8779SOL     OW27235   1.716   4.745   1.060
 8779SOL    HW127236   1.625   4.743   1.019
 8779SOL    HW227237   1.715   4.697   1.147
 8780SOL     OW27238   2.029   5.503   4.631
 8780SOL    HW127239   1.987   5.443   4.564
 8780SOL    HW227240   1.996   5.597   4.618
 8781SOL     OW27241   0.789   2.289   2.812
 8781SOL    HW127242   0.752   2.382   2.801
 8781SOL    HW227243   0.888   2.291   2.803
 8782SOL     OW27244   4.919   1.434   3.698
 8782SOL    HW127245   4.906   1.403   3.604
 8782SOL    HW227246   5.009   1.477   3.707
 8783SOL     OW27247   6.143   2.896   5.659
 8783SOL    HW127248   6.242   2.894   5.677
 8783SOL    HW227249   6.103   2.974   5.707
 8784SOL     OW27250   5.843   4.313   5.929
 8784SOL    HW127251   5.848   4.217   5.958
 8784SOL    HW227252   5.927   4.360   5.955
 8785SOL     OW27253   4.956   3.928   5.508
 8785SOL    HW127254   4.971   3.842   5.459
 8785SOL    HW227255   5.017   3.998   5.471
 8786SOL     OW27256   1.656   6.453   0.192
 8786SOL    HW127257   1.747   6.429   0.158
 8786SOL    HW227258   1.627   6.385   0.260
 8787SOL     OW27259   1.136   2.707   6.963
 8787SOL    HW127260   1.188   2.621   6.962
 8787SOL    HW227261   1.195   2.782   6.931
 8788SOL     OW27262   1.571   2.019   5.458
 8788SOL    HW127263   1.666   2.048   5.465
 8788SOL    HW227264   1.511   2.099   5.458
 8789SOL     OW27265   0.571   1.333   0.385
 8789SOL    HW127266   0.548   1.268   0.457
 8789SOL    HW227267   0.609   1.283   0.307
 8790SOL     OW27268   4.128   1.707   6.510
 8790SOL    HW127269   4.138   1.637   6.439
 8790SOL    HW227270   4.132   1.798   6.469
 8791SOL     OW27271   4.843   6.572   5.314
 8791SOL    HW127272   4.894   6.624   5.383
 8791SOL    HW227273   4.868   6.475   5.322
 8792SOL     OW27274   5.376   6.976   2.624
 8792SOL    HW127275   5.445   0.024   2.592
 8792SOL    HW227276   5.420   6.890   2.650
 8793SOL     OW27277   1.241   4.542   3.412
 8793SOL    HW127278   1.250   4.443   3.407
 8793SOL    HW227279   1.196   4.567   3.497
 8794SOL     OW27280   2.565   5.820   2.999
 8794SOL    HW127281   2.479   5.769   3.002
 8794SOL    HW227282   2.556   5.897   2.936
 8795SOL     OW27283   2.906   5.934   4.663
 8795SOL    HW127284   2.944   5.869   4.729
 8795SOL    HW227285   2.962   6.017   4.663
 8796SOL     OW27286   5.014   2.031   5.217
 8796SOL    HW127287   4.948   2.031   5.143
 8796SOL    HW227288   5.098   1.985   5.187
 8797SOL     OW27289   0.861   6.040   6.501
 8797SOL    HW127290   0.839   5.991   6.417
 8797SOL    HW227291   0.930   6.110   6.482
 8798SOL     OW27292   3.311   3.193   5.229
 8798SOL    HW127293   3.291   3.102   5.267
 8798SOL    HW227294   3.248   3.210   5.153
 8799SOL     OW27295   3.041   0.455   2.514
 8799SOL    HW127296   3.033   0.481   2.610
 8799SOL    HW227297   3.116   0.505   2.472
 8800SOL     OW27298   4.119   4.459   0.356
 8800SOL    HW127299   4.040   4.507   0.395
 8800SOL    HW227300   4.087   4.390   0.291
 8801SOL     OW27301   3.107   6.622   5.904
 8801SOL    HW127302   3.044   6.559   5.859
 8801SOL    HW227303   3.164   6.571   5.969
 8802SOL     OW27304   2.485   6.203   1.586
 8802SOL    HW127305   2.395   6.245   1.593
 8802SOL    HW227306   2.526   6.227   1.498
 8803SOL     OW27307   3.948   5.891   2.000
 8803SOL    HW127308   3.902   5.958   2.058
 8803SOL    HW227309   4.025   5.935   1.953
 8804SOL     OW27310   2.960   0.782   1.834
 8804SOL    HW127311   2.886   0.847   1.817
 8804SOL    HW227312   3.025   0.785   1.759
 8805SOL     OW27313   0.820   0.569   3.198
 8805SOL    HW127314   0.878   0.488   3.194
 8805SOL    HW227315   0.725   0.542   3.178
 8806SOL     OW27316   1.737   4.980   0.401
 8806SOL    HW127317   1.827   4.945   0.377
 8806SOL    HW227318   1.667   4.913   0.375
 8807SOL     OW27319   2.582   5.547   6.788
 8807SOL    HW127320   2.537   5.494   6.859
 8807SOL    HW227321   2.535   5.634   6.775
 8808SOL     OW27322   5.577   2.041   0.956
 8808SOL    HW127323   5.565   1.993   0.869
 8808SOL    HW227324   5.665   2.016   0.996
 8809SOL     OW27325   5.982   4.714   0.520
 8809SOL    HW127326   5.903   4.654   0.537
 8809SOL    HW227327   5.953   4.791   0.463
 8810SOL     OW27328   5.063   1.711   3.827
 8810SOL    HW127329   5.143   1.658   3.854
 8810SOL    HW227330   4.984   1.682   3.881
 8811SOL     OW27331   1.532   1.006   3.408
 8811SOL    HW127332   1.580   0.969   3.328
 8811SOL    HW227333   1.490   1.093   3.383
 8812SOL     OW27334   2.796   1.263   0.191
 8812SOL    HW127335   2.749   1.178   0.214
 8812SOL    HW227336   2.892   1.257   0.218
 8813SOL     OW27337   1.291   5.549   1.319
 8813SOL    HW127338   1.212   5.547   1.258
 8813SOL    HW227339   1.350   5.626   1.295
 8814SOL     OW27340   5.850   6.624   5.968
 8814SOL    HW127341   5.920   6.676   5.920
 8814SOL    HW227342   5.759   6.660   5.946
 8815SOL     OW27343   6.177   5.507   3.191
 8815SOL    HW127344   6.079   5.524   3.207
 8815SOL    HW227345   6.222   5.491   3.278
 8816SOL     OW27346   0.406   5.058   2.065
 8816SOL    HW127347   0.491   5.095   2.101
 8816SOL    HW227348   0.329   5.098   2.113
 8817SOL     OW27349   2.288   3.712   5.239
 8817SOL    HW127350   2.346   3.791   5.221
 8817SOL    HW227351   2.277   3.659   5.155
 8818SOL     OW27352   0.033   4.593   5.012
 8818SOL    HW127353   0.037   4.556   4.919
 8818SOL    HW227354   6.954   4.599   5.041
 8819SOL     OW27355   6.707   0.207   4.092
 8819SOL    HW127356   6.622   0.255   4.113
 8819SOL    HW227357   6.775   0.273   4.060
 8820SOL     OW27358   0.801   2.261   3.380
 8820SOL    HW127359   0.868   2.224   3.315
 8820SOL    HW227360   0.770   2.351   3.348
 8821SOL     OW27361   1.771   6.837   6.620
 8821SOL    HW127362   1.726   6.759   6.575
 8821SOL    HW227363   1.818   6.805   6.702
 8822SOL     OW27364   1.200   2.638   3.981
 8822SOL    HW127365   1.188   2.667   4.076
 8822SOL    HW227366   1.133   2.684   3.923
 8823SOL     OW27367   2.094   5.324   1.598
 8823SOL    HW127368   2.194   5.319   1.593
 8823SOL    HW227369   2.055   5.294   1.511
 8824SOL     OW27370   4.405   4.456   0.779
 8824SOL    HW127371   4.319   4.419   0.745
 8824SOL    HW227372   4.473   4.383   0.786
 8825SOL     OW27373   2.307   2.458   0.565
 8825SOL    HW127374   2.233   2.510   0.608
 8825SOL    HW227375   2.277   2.425   0.476
 8826SOL     OW27376   5.858   0.406   1.124
 8826SOL    HW127377   5.952   0.440   1.124
 8826SOL    HW227378   5.795   0.482   1.107
 8827SOL     OW27379   6.663   1.807   3.514
 8827SOL    HW127380   6.620   1.720   3.536
 8827SOL    HW227381   6.619   1.880   3.567
 8828SOL     OW27382   1.343   6.381   3.651
 8828SOL    HW127383   1.416   6.336   3.701
 8828SOL    HW227384   1.269   6.405   3.713
 8829SOL     OW27385   1.538   0.726   1.395
 8829SOL    HW127386   1.567   0.787   1.469
 8829SOL    HW227387   1.595   0.643   1.396
 8830SOL     OW27388   1.439   1.283   0.475
 8830SOL    HW127389   1.488   1.304   0.390
 8830SOL    HW227390   1.444   1.361   0.537
 8831SOL     OW27391   6.593   0.978   2.161
 8831SOL    HW127392   6.690   0.967   2.182
 8831SOL    HW227393   6.580   1.061   2.107
 8832SOL     OW27394   6.252   1.136   2.560
 8832SOL    HW127395   6.206   1.049   2.573
 8832SOL    HW227396   6.305   1.133   2.475
 8833SOL     OW27397   1.256   5.269   2.283
 8833SOL    HW127398   1.283   5.364   2.300
 8833SOL    HW227399   1.165   5.253   2.320
 8834SOL     OW27400   5.962   4.107   3.870
 8834SOL    HW127401   5.987   4.188   3.816
 8834SOL    HW227402   5.992   4.120   3.964
 8835SOL     OW27403   0.697   1.123   0.228
 8835SOL    HW127404   0.707   1.025   0.210
 8835SOL    HW227405   0.786   1.168   0.219
 8836SOL     OW27406   4.873   2.035   2.061
 8836SOL    HW127407   4.790   2.071   2.103
 8836SOL    HW227408   4.857   1.942   2.029
 8837SOL     OW27409   0.091   2.485   1.718
 8837SOL    HW127410   0.139   2.501   1.805
 8837SOL    HW227411   7.008   2.496   1.733
 8838SOL     OW27412   1.512   6.138   4.066
 8838SOL    HW127413   1.517   6.040   4.082
 8838SOL    HW227414   1.592   6.182   4.107
 8839SOL     OW27415   5.209   6.127   4.370
 8839SOL    HW127416   5.282   6.069   4.332
 8839SOL    HW227417   5.247   6.184   4.443
 8840SOL     OW27418   4.187   0.524   2.217
 8840SOL    HW127419   4.200   0.426   2.199
 8840SOL    HW227420   4.275   0.564   2.244
 8841SOL     OW27421   3.288   0.603   4.153
 8841SOL    HW127422   3.241   0.517   4.133
 8841SOL    HW227423   3.245   0.677   4.101
 8842SOL     OW27424   1.367   2.663   1.830
 8842SOL    HW127425   1.352   2.613   1.745
 8842SOL    HW227426   1.450   2.631   1.874
 8843SOL     OW27427   0.149   2.964   4.304
 8843SOL    HW127428   0.211   2.981   4.381
 8843SOL    HW227429   0.072   2.908   4.335
 8844SOL     OW27430   5.920   1.543   6.739
 8844SOL    HW127431   5.916   1.613   6.669
 8844SOL    HW227432   5.863   1.465   6.712
 8845SOL     OW27433   5.200   2.978   0.193
 8845SOL    HW127434   5.127   2.911   0.187
 8845SOL    HW227435   5.249   2.967   0.279
 8846SOL     OW27436   3.214   4.904   3.578
 8846SOL    HW127437   3.261   4.939   3.660
 8846SOL    HW227438   3.116   4.912   3.590
 8847SOL     OW27439   0.806   1.381   2.981
 8847SOL    HW127440   0.794   1.381   2.882
 8847SOL    HW227441   0.747   1.451   3.021
 8848SOL     OW27442   0.689   1.092   3.282
 8848SOL    HW127443   0.719   1.121   3.373
 8848SOL    HW227444   0.674   0.993   3.282
 8849SOL     OW27445   2.967   6.727   1.511
 8849SOL    HW127446   2.957   6.685   1.421
 8849SOL    HW227447   2.922   6.817   1.511
 8850SOL     OW27448   3.146   2.637   6.845
 8850SOL    HW127449   3.170   2.734   6.850
 8850SOL    HW227450   3.215   2.583   6.893
 8851SOL     OW27451   2.099   3.585   1.766
 8851SOL    HW127452   2.037   3.656   1.800
 8851SOL    HW227453   2.137   3.534   1.843
 8852SOL     OW27454   0.278   1.809   4.728
 8852SOL    HW127455   0.218   1.839   4.802
 8852SOL    HW227456   0.277   1.876   4.654
 8853SOL     OW27457   4.457   0.438   1.757
 8853SOL    HW127458   4.523   0.440   1.682
 8853SOL    HW227459   4.448   0.529   1.797
 8854SOL     OW27460   6.924   2.795   4.892
 8854SOL    HW127461   6.891   2.712   4.938
 8854SOL    HW227462   6.866   2.872   4.918
 8855SOL     OW27463   4.928   4.600   1.355
 8855SOL    HW127464   4.905   4.611   1.259
 8855SOL    HW227465   4.933   4.502   1.378
 8856SOL     OW27466   5.905   0.773   6.035
 8856SOL    HW127467   5.837   0.720   6.086
 8856SOL    HW227468   5.997   0.744   6.061
 8857SOL     OW27469   6.598   2.024   6.569
 8857SOL    HW127470   6.542   2.077   6.633
 8857SOL    HW227471   6.673   1.980   6.618
 8858SOL     OW27472   6.624   5.548   4.770
 8858SOL    HW127473   6.710   5.500   4.751
 8858SOL    HW227474   6.609   5.617   4.700
 8859SOL     OW27475   0.868   5.627   2.793
 8859SOL    HW127476   0.920   5.675   2.722
 8859SOL    HW227477   0.889   5.529   2.790
 8860SOL     OW27478   6.576   2.509   2.287
 8860SOL    HW127479   6.559   2.541   2.194
 8860SOL    HW227480   6.501   2.539   2.347
 8861SOL     OW27481   3.259   2.640   1.684
 8861SOL    HW127482   3.329   2.697   1.642
 8861SOL    HW227483   3.251   2.663   1.781
 8862SOL     OW27484   4.432   4.748   4.802
 8862SOL    HW127485   4.400   4.691   4.877
 8862SOL    HW227486   4.526   4.777   4.820
 8863SOL     OW27487   1.490   4.062   1.945
 8863SOL    HW127488   1.481   4.158   1.920
 8863SOL    HW227489   1.424   4.040   2.017
 8864SOL     OW27490   6.306   1.532   4.860
 8864SOL    HW127491   6.327   1.592   4.782
 8864SOL    HW227492   6.346   1.571   4.943
 8865SOL     OW27493   3.222   1.305   0.793
 8865SOL    HW127494   3.240   1.281   0.697
 8865SOL    HW227495   3.233   1.404   0.805
 8866SOL     OW27496   6.174   6.987   1.841
 8866SOL    HW127497   6.168   6.925   1.919
 8866SOL    HW227498   6.220   0.055   1.869
 8867SOL     OW27499   6.223   2.776   2.729
 8867SOL    HW127500   6.226   2.714   2.651
 8867SOL    HW227501   6.217   2.871   2.696
 8868SOL     OW27502   0.277   3.220   3.316
 8868SOL    HW127503   0.374   3.196   3.318
 8868SOL    HW227504   0.266   3.317   3.339
 8869SOL     OW27505   4.808   0.170   3.643
 8869SOL    HW127506   4.873   0.152   3.568
 8869SOL    HW227507   4.855   0.222   3.715
 8870SOL     OW27508   0.838   0.918   1.737
 8870SOL    HW127509   0.905   0.895   1.809
 8870SOL    HW227510   0.747   0.925   1.778
 8871SOL     OW27511   7.013   6.973   1.122
 8871SOL    HW127512   6.919   7.005   1.120
 8871SOL    HW227513   0.056   0.030   1.154
 8872SOL     OW27514   0.103   4.720   3.441
 8872SOL    HW127515   0.184   4.733   3.498
 8872SOL    HW227516   0.115   4.638   3.385
 8873SOL     OW27517   1.883   1.431   3.462
 8873SOL    HW127518   1.865   1.527   3.482
 8873SOL    HW227519   1.979   1.410   3.481
 8874SOL     OW27520   2.819   5.836   0.831
 8874SOL    HW127521   2.785   5.779   0.756
 8874SOL    HW227522   2.915   5.860   0.813
 8875SOL     OW27523   6.040   2.935   4.486
 8875SOL    HW127524   6.070   2.963   4.577
 8875SOL    HW227525   5.983   2.853   4.493
 8876SOL     OW27526   4.052   0.927   0.647
 8876SOL    HW127527   3.975   0.868   0.673
 8876SOL    HW227528   4.087   0.897   0.558
 8877SOL     OW27529   0.623   4.656   1.065
 8877SOL    HW127530   0.630   4.560   1.092
 8877SOL    HW227531   0.543   4.697   1.109
 8878SOL     OW27532   4.761   3.859   1.790
 8878SOL    HW127533   4.832   3.795   1.762
 8878SOL    HW227534   4.684   3.855   1.726
 8879SOL     OW27535   6.507   4.062   3.794
 8879SOL    HW127536   6.431   3.999   3.810
 8879SOL    HW227537   6.502   4.097   3.700
 8880SOL     OW27538   4.100   2.268   3.031
 8880SOL    HW127539   4.098   2.233   3.125
 8880SOL    HW227540   4.101   2.368   3.032
 8881SOL     OW27541   3.677   5.124   2.684
 8881SOL    HW127542   3.597   5.068   2.662
 8881SOL    HW227543   3.693   5.121   2.783
 8882SOL     OW27544   4.046   1.190   0.567
 8882SOL    HW127545   3.954   1.224   0.590
 8882SOL    HW227546   4.054   1.094   0.594
 8883SOL     OW27547   0.637   6.501   2.890
 8883SOL    HW127548   0.615   6.513   2.987
 8883SOL    HW227549   0.556   6.470   2.840
 8884SOL     OW27550   4.442   2.940   5.627
 8884SOL    HW127551   4.401   2.901   5.709
 8884SOL    HW227552   4.535   2.971   5.648
 8885SOL     OW27553   5.767   5.147   0.783
 8885SOL    HW127554   5.721   5.227   0.820
 8885SOL    HW227555   5.704   5.070   0.777
 8886SOL     OW27556   5.395   6.412   0.092
 8886SOL    HW127557   5.458   6.486   0.114
 8886SOL    HW227558   5.301   6.445   0.102
 8887SOL     OW27559   3.734   0.032   1.575
 8887SOL    HW127560   3.706   0.033   1.671
 8887SOL    HW227561   3.718   0.122   1.535
 8888SOL     OW27562   3.574   2.097   2.261
 8888SOL    HW127563   3.610   2.138   2.177
 8888SOL    HW227564   3.483   2.059   2.243
 8889SOL     OW27565   1.289   4.673   6.896
 8889SOL    HW127566   1.354   4.746   6.917
 8889SOL    HW227567   1.284   4.610   6.974
 8890SOL     OW27568   1.318   6.059   0.098
 8890SOL    HW127569   1.274   6.117   0.030
 8890SOL    HW227570   1.411   6.091   0.114
 8891SOL     OW27571   6.285   3.491   5.064
 8891SOL    HW127572   6.305   3.460   4.971
 8891SOL    HW227573   6.191   3.466   5.088
 8892SOL     OW27574   2.488   5.306   4.682
 8892SOL    HW127575   2.460   5.340   4.772
 8892SOL    HW227576   2.542   5.222   4.694
 8893SOL     OW27577   0.413   4.520   5.506
 8893SOL    HW127578   0.378   4.525   5.412
 8893SOL    HW227579   0.488   4.454   5.511
 8894SOL     OW27580   5.165   2.559   1.827
 8894SOL    HW127581   5.251   2.546   1.876
 8894SOL    HW227582   5.116   2.471   1.822
 8895SOL     OW27583   6.548   3.621   1.174
 8895SOL    HW127584   6.566   3.706   1.124
 8895SOL    HW227585   6.473   3.571   1.130
 8896SOL     OW27586   0.771   1.227   3.530
 8896SOL    HW127587   0.786   1.147   3.587
 8896SOL    HW227588   0.857   1.276   3.518
 8897SOL     OW27589   1.633   5.514   4.454
 8897SOL    HW127590   1.638   5.605   4.494
 8897SOL    HW227591   1.622   5.446   4.526
 8898SOL     OW27592   5.317   4.564   2.490
 8898SOL    HW127593   5.364   4.597   2.408
 8898SOL    HW227594   5.302   4.641   2.553
 8899SOL     OW27595   1.802   4.083   2.064
 8899SOL    HW127596   1.872   4.149   2.091
 8899SOL    HW227597   1.789   4.088   1.965
 8900SOL     OW27598   4.045   1.617   4.457
 8900SOL    HW127599   4.062   1.710   4.489
 8900SOL    HW227600   3.953   1.589   4.486
 8901SOL     OW27601   1.458   5.289   5.035
 8901SOL    HW127602   1.489   5.334   5.119
 8901SOL    HW227603   1.424   5.198   5.057
 8902SOL     OW27604   0.453   5.003   6.542
 8902SOL    HW127605   0.474   5.039   6.633
 8902SOL    HW227606   0.386   5.062   6.497
 8903SOL     OW27607   0.684   0.745   4.937
 8903SOL    HW127608   0.662   0.821   4.876
 8903SOL    HW227609   0.709   0.780   5.027
 8904SOL     OW27610   0.317   1.159   3.066
 8904SOL    HW127611   0.235   1.209   3.096
 8904SOL    HW227612   0.335   1.083   3.129
 8905SOL     OW27613   1.860   4.566   1.288
 8905SOL    HW127614   1.852   4.639   1.356
 8905SOL    HW227615   1.953   4.529   1.290
 8906SOL     OW27616   6.044   0.537   6.929
 8906SOL    HW127617   6.059   0.588   6.845
 8906SOL    HW227618   6.033   0.600   7.005
 8907SOL     OW27619   2.890   3.311   5.248
 8907SOL    HW127620   2.839   3.225   5.251
 8907SOL    HW227621   2.982   3.297   5.286
 8908SOL     OW27622   1.856   5.274   6.099
 8908SOL    HW127623   1.796   5.310   6.027
 8908SOL    HW227624   1.930   5.339   6.117
 8909SOL     OW27625   2.540   5.982   2.044
 8909SOL    HW127626   2.545   6.068   2.095
 8909SOL    HW227627   2.513   5.908   2.106
 8910SOL     OW27628   1.153   1.155   3.703
 8910SOL    HW127629   1.112   1.084   3.646
 8910SOL    HW227630   1.158   1.241   3.652
 8911SOL     OW27631   5.258   2.672   4.599
 8911SOL    HW127632   5.269   2.768   4.576
 8911SOL    HW227633   5.171   2.639   4.562
 8912SOL     OW27634   3.395   3.008   3.581
 8912SOL    HW127635   3.450   2.967   3.508
 8912SOL    HW227636   3.413   2.960   3.667
 8913SOL     OW27637   5.223   5.296   1.376
 8913SOL    HW127638   5.144   5.282   1.436
 8913SOL    HW227639   5.193   5.290   1.281
 8914SOL     OW27640   4.852   5.950   5.449
 8914SOL    HW127641   4.889   5.867   5.491
 8914SOL    HW227642   4.926   6.016   5.435
 8915SOL     OW27643   2.415   1.119   3.764
 8915SOL    HW127644   2.367   1.206   3.767
 8915SOL    HW227645   2.502   1.130   3.715
 8916SOL     OW27646   5.903   1.031   2.433
 8916SOL    HW127647   5.992   1.027   2.387
 8916SOL    HW227648   5.875   0.939   2.459
 8917SOL     OW27649   5.323   1.992   0.691
 8917SOL    HW127650   5.409   2.042   0.684
 8917SOL    HW227651   5.247   2.054   0.673
 8918SOL     OW27652   1.291   3.422   2.599
 8918SOL    HW127653   1.385   3.391   2.608
 8918SOL    HW227654   1.279   3.468   2.511
 8919SOL     OW27655   6.452   2.686   2.444
 8919SOL    HW127656   6.490   2.761   2.390
 8919SOL    HW227657   6.512   2.667   2.522
 8920SOL     OW27658   0.916   1.747   0.611
 8920SOL    HW127659   0.868   1.698   0.538
 8920SOL    HW227660   0.940   1.839   0.580
 8921SOL     OW27661   1.185   2.984   1.630
 8921SOL    HW127662   1.277   3.017   1.648
 8921SOL    HW227663   1.159   3.004   1.536
 8922SOL     OW27664   2.897   4.858   3.146
 8922SOL    HW127665   2.880   4.872   3.243
 8922SOL    HW227666   2.939   4.768   3.132
 8923SOL     OW27667   2.630   1.370   3.705
 8923SOL    HW127668   2.708   1.410   3.754
 8923SOL    HW227669   2.547   1.419   3.729
 8924SOL     OW27670   6.159   5.031   4.645
 8924SOL    HW127671   6.126   5.023   4.739
 8924SOL    HW227672   6.091   4.992   4.583
 8925SOL     OW27673   0.568   7.009   3.886
 8925SOL    HW127674   0.631   6.978   3.957
 8925SOL    HW227675   0.504   0.059   3.925
 8926SOL     OW27676   5.843   1.849   6.993
 8926SOL    HW127677   5.829   1.943   0.008
 8926SOL    HW227678   5.929   1.843   6.943
 8927SOL     OW27679   1.385   1.556   6.538
 8927SOL    HW127680   1.384   1.497   6.457
 8927SOL    HW227681   1.480   1.572   6.566
 8928SOL     OW27682   1.783   0.028   5.559
 8928SOL    HW127683   1.742   0.043   5.469
 8928SOL    HW227684   1.870   0.077   5.564
 8929SOL     OW27685   0.032   1.789   3.162
 8929SOL    HW127686   6.984   1.847   3.212
 8929SOL    HW227687   0.070   1.720   3.224
 8930SOL     OW27688   2.279   5.303   3.105
 8930SOL    HW127689   2.344   5.236   3.141
 8930SOL    HW227690   2.266   5.376   3.171
 8931SOL     OW27691   4.349   3.205   6.915
 8931SOL    HW127692   4.368   3.146   6.836
 8931SOL    HW227693   4.267   3.172   6.961
 8932SOL     OW27694   0.761   3.989   3.118
 8932SOL    HW127695   0.681   4.020   3.067
 8932SOL    HW227696   0.821   3.937   3.058
 8933SOL     OW27697   4.820   1.926   6.310
 8933SOL    HW127698   4.740   1.894   6.360
 8933SOL    HW227699   4.845   1.858   6.240
 8934SOL     OW27700   2.398   6.013   2.850
 8934SOL    HW127701   2.351   6.074   2.914
 8934SOL    HW227702   2.388   6.048   2.757
 8935SOL     OW27703   6.905   5.458   6.931
 8935SOL    HW127704   6.983   5.398   6.947
 8935SOL    HW227705   6.857   5.474   0.001
 8936SOL     OW27706   3.846   2.987   0.983
 8936SOL    HW127707   3.903   2.962   1.062
 8936SOL    HW227708   3.899   2.973   0.899
 8937SOL     OW27709   0.774   0.962   6.188
 8937SOL    HW127710   0.806   0.980   6.281
 8937SOL    HW227711   0.810   1.032   6.126
 8938SOL     OW27712   4.632   6.138   1.772
 8938SOL    HW127713   4.665   6.061   1.717
 8938SOL    HW227714   4.619   6.218   1.714
 8939SOL     OW27715   5.812   2.038   4.486
 8939SOL    HW127716   5.714   2.058   4.498
 8939SOL    HW227717   5.865   2.122   4.496
 8940SOL     OW27718   5.908   0.032   2.650
 8940SOL    HW127719   5.988   0.092   2.659
 8940SOL    HW227720   5.929   6.973   2.587
 8941SOL     OW27721   3.852   1.376   6.924
 8941SOL    HW127722   3.925   1.372   6.856
 8941SOL    HW227723   3.763   1.384   6.878
 8942SOL     OW27724   1.267   2.064   5.457
 8942SOL    HW127725   1.280   1.965   5.469
 8942SOL    HW227726   1.280   2.088   5.361
 8943SOL     OW27727   5.107   3.564   0.638
 8943SOL    HW127728   5.033   3.569   0.570
 8943SOL    HW227729   5.186   3.616   0.606
 8944SOL     OW27730   4.176   6.082   1.310
 8944SOL    HW127731   4.095   6.139   1.297
 8944SOL    HW227732   4.181   6.013   1.238
 8945SOL     OW27733   2.318   0.899   3.926
 8945SOL    HW127734   2.387   0.854   3.983
 8945SOL    HW227735   2.363   0.955   3.857
 8946SOL     OW27736   4.216   0.546   4.606
 8946SOL    HW127737   4.145   0.616   4.594
 8946SOL    HW227738   4.257   0.557   4.696
 8947SOL     OW27739   3.942   4.168   5.227
 8947SOL    HW127740   3.928   4.263   5.254
 8947SOL    HW227741   3.886   4.148   5.146
 8948SOL     OW27742   5.522   4.854   3.482
 8948SOL    HW127743   5.605   4.802   3.502
 8948SOL    HW227744   5.502   4.848   3.385
 8949SOL     OW27745   1.426   5.393   5.862
 8949SOL    HW127746   1.408   5.398   5.960
 8949SOL    HW227747   1.524   5.407   5.845
 8950SOL     OW27748   4.763   2.888   4.678
 8950SOL    HW127749   4.790   2.858   4.586
 8950SOL    HW227750   4.702   2.819   4.718
 8951SOL     OW27751   2.801   2.397   5.576
 8951SOL    HW127752   2.832   2.490   5.553
 8951SOL    HW227753   2.858   2.331   5.528
 8952SOL     OW27754   6.326   6.610   3.712
 8952SOL    HW127755   6.376   6.670   3.651
 8952SOL    HW227756   6.228   6.619   3.695
 8953SOL     OW27757   1.706   5.348   5.838
 8953SOL    HW127758   1.697   5.284   5.762
 8953SOL    HW227759   1.694   5.441   5.804
 8954SOL     OW27760   2.574   6.002   6.129
 8954SOL    HW127761   2.628   6.003   6.213
 8954SOL    HW227762   2.527   6.089   6.117
 8955SOL     OW27763   6.810   3.843   4.504
 8955SOL    HW127764   6.722   3.798   4.491
 8955SOL    HW227765   6.796   3.942   4.509
 8956SOL     OW27766   1.262   0.569   4.465
 8956SOL    HW127767   1.282   0.563   4.563
 8956SOL    HW227768   1.235   0.662   4.442
 8957SOL     OW27769   2.825   6.055   1.627
 8957SOL    HW127770   2.758   6.035   1.698
 8957SOL    HW227771   2.915   6.067   1.669
 8958SOL     OW27772   2.680   0.454   4.439
 8958SOL    HW127773   2.640   0.518   4.504
 8958SOL    HW227774   2.679   0.362   4.477
 8959SOL     OW27775   3.785   5.450   0.151
 8959SOL    HW127776   3.750   5.512   0.222
 8959SOL    HW227777   3.779   5.356   0.183
 8960SOL     OW27778   4.265   6.036   0.915
 8960SOL    HW127779   4.227   6.070   1.002
 8960SOL    HW227780   4.365   6.028   0.923
 8961SOL     OW27781   0.807   2.925   4.293
 8961SOL    HW127782   0.861   2.976   4.360
 8961SOL    HW227783   0.710   2.930   4.316
 8962SOL     OW27784   4.926   0.660   3.848
 8962SOL    HW127785   4.893   0.737   3.902
 8962SOL    HW227786   4.961   0.692   3.760
 8963SOL     OW27787   0.638   1.040   3.862
 8963SOL    HW127788   0.623   1.139   3.855
 8963SOL    HW227789   0.734   1.020   3.846
 8964SOL     OW27790   6.859   3.318   2.626
 8964SOL    HW127791   6.857   3.376   2.707
 8964SOL    HW227792   6.854   3.375   2.544
 8965SOL     OW27793   1.723   5.164   1.481
 8965SOL    HW127794   1.783   5.161   1.562
 8965SOL    HW227795   1.635   5.122   1.503
 8966SOL     OW27796   3.967   1.957   5.181
 8966SOL    HW127797   3.972   2.040   5.125
 8966SOL    HW227798   3.895   1.897   5.145
 8967SOL     OW27799   5.153   6.221   0.782
 8967SOL    HW127800   5.222   6.283   0.818
 8967SOL    HW227801   5.182   6.190   0.691
 8968SOL     OW27802   5.621   4.239   3.343
 8968SOL    HW127803   5.685   4.237   3.420
 8968SOL    HW227804   5.529   4.256   3.377
 8969SOL     OW27805   6.736   0.210   4.474
 8969SOL    HW127806   6.642   0.235   4.451
 8969SOL    HW227807   6.795   0.290   4.462
 8970SOL     OW27808   2.964   2.428   1.449
 8970SOL    HW127809   2.971   2.366   1.527
 8970SOL    HW227810   2.868   2.438   1.423
 8971SOL     OW27811   4.014   6.070   2.802
 8971SOL    HW127812   3.974   6.159   2.824
 8971SOL    HW227813   3.982   6.040   2.712
 8972SOL     OW27814   4.980   0.370   4.843
 8972SOL    HW127815   5.051   0.312   4.883
 8972SOL    HW227816   4.958   0.338   4.751
 8973SOL     OW27817   2.233   4.957   6.124
 8973SOL    HW127818   2.199   4.881   6.068
 8973SOL    HW227819   2.315   4.996   6.082
 8974SOL     OW27820   0.489   2.772   4.103
 8974SOL    HW127821   0.531   2.803   4.018
 8974SOL    HW227822   0.470   2.852   4.161
 8975SOL     OW27823   3.708   0.957   6.167
 8975SOL    HW127824   3.614   0.929   6.185
 8975SOL    HW227825   3.771   0.900   6.220
 8976SOL     OW27826   1.627   5.441   4.168
 8976SOL    HW127827   1.629   5.477   4.261
 8976SOL    HW227828   1.533   5.425   4.140
 8977SOL     OW27829   5.461   1.327   0.085
 8977SOL    HW127830   5.424   1.290   0.000
 8977SOL    HW227831   5.455   1.258   0.157
 8978SOL     OW27832   5.748   5.082   1.186
 8978SOL    HW127833   5.661   5.080   1.237
 8978SOL    HW227834   5.821   5.116   1.245
 8979SOL     OW27835   1.012   4.310   5.001
 8979SOL    HW127836   1.042   4.342   4.911
 8979SOL    HW227837   0.933   4.250   4.990
 8980SOL     OW27838   3.885   3.038   4.509
 8980SOL    HW127839   3.857   3.041   4.605
 8980SOL    HW227840   3.819   2.985   4.456
 8981SOL     OW27841   2.860   1.660   5.311
 8981SOL    HW127842   2.947   1.701   5.282
 8981SOL    HW227843   2.796   1.733   5.335
 8982SOL     OW27844   3.624   4.571   0.513
 8982SOL    HW127845   3.562   4.647   0.532
 8982SOL    HW227846   3.589   4.488   0.557
 8983SOL     OW27847   4.738   4.498   0.988
 8983SOL    HW127848   4.708   4.539   0.902
 8983SOL    HW227849   4.685   4.415   1.005
 8984SOL     OW27850   1.127   6.343   3.281
 8984SOL    HW127851   1.205   6.309   3.333
 8984SOL    HW227852   1.047   6.287   3.300
 8985SOL     OW27853   3.171   3.523   6.182
 8985SOL    HW127854   3.074   3.539   6.166
 8985SOL    HW227855   3.206   3.460   6.112
 8986SOL     OW27856   2.818   6.375   2.246
 8986SOL    HW127857   2.843   6.378   2.149
 8986SOL    HW227858   2.870   6.302   2.291
 8987SOL     OW27859   5.486   6.744   2.362
 8987SOL    HW127860   5.444   6.819   2.413
 8987SOL    HW227861   5.414   6.687   2.322
 8988SOL     OW27862   0.630   4.780   4.710
 8988SOL    HW127863   0.589   4.805   4.798
 8988SOL    HW227864   0.561   4.736   4.652
 8989SOL     OW27865   2.477   2.415   6.739
 8989SOL    HW127866   2.381   2.388   6.736
 8989SOL    HW227867   2.531   2.353   6.681
 8990SOL     OW27868   6.996   5.038   3.493
 8990SOL    HW127869   0.010   4.973   3.424
 8990SOL    HW227870   6.940   5.109   3.450
 8991SOL     OW27871   1.529   2.321   5.210
 8991SOL    HW127872   1.458   2.340   5.143
 8991SOL    HW227873   1.616   2.357   5.178
 8992SOL     OW27874   6.496   2.441   1.614
 8992SOL    HW127875   6.564   2.381   1.657
 8992SOL    HW227876   6.542   2.502   1.549
 8993SOL     OW27877   4.020   2.364   0.667
 8993SOL    HW127878   4.020   2.367   0.767
 8993SOL    HW227879   3.977   2.447   0.631
 8994SOL     OW27880   1.648   5.608   2.658
 8994SOL    HW127881   1.628   5.525   2.709
 8994SOL    HW227882   1.721   5.659   2.704
 8995SOL     OW27883   0.382   0.071   1.628
 8995SOL    HW127884   0.473   0.053   1.665
 8995SOL    HW227885   0.324   0.111   1.699
 8996SOL     OW27886   4.036   6.366   5.845
 8996SOL    HW127887   4.025   6.347   5.747
 8996SOL    HW227888   3.949   6.349   5.892
 8997SOL     OW27889   6.279   0.113   4.943
 8997SOL    HW127890   6.298   0.019   4.972
 8997SOL    HW227891   6.338   0.136   4.866
 8998SOL     OW27892   6.860   4.389   4.403
 8998SOL    HW127893   6.876   4.350   4.494
 8998SOL    HW227894   6.944   4.380   4.348
 8999SOL     OW27895   4.072   6.405   6.206
 8999SOL    HW127896   3.982   6.379   6.171
 8999SOL    HW227897   4.117   6.465   6.141
 9000SOL     OW27898   0.974   3.676   1.497
 9000SOL    HW127899   0.961   3.747   1.567
 9000SOL    HW227900   1.055   3.698   1.443
 9001SOL     OW27901   1.401   5.589   1.050
 9001SOL    HW127902   1.409   5.490   1.056
 9001SOL    HW227903   1.461   5.631   1.119
 9002SOL     OW27904   6.968   4.701   6.408
 9002SOL    HW127905   6.995   4.732   6.316
 9002SOL    HW227906   6.874   4.668   6.406
 9003SOL     OW27907   5.334   6.931   0.486
 9003SOL    HW127908   5.433   6.933   0.474
 9003SOL    HW227909   5.309   6.857   0.548
 9004SOL     OW27910   5.967   5.114   1.408
 9004SOL    HW127911   5.934   5.057   1.483
 9004SOL    HW227912   6.062   5.141   1.427
 9005SOL     OW27913   5.326   0.620   5.457
 9005SOL    HW127914   5.239   0.645   5.415
 9005SOL    HW227915   5.400   0.639   5.393
 9006SOL     OW27916   4.317   5.625   0.308
 9006SOL    HW127917   4.387   5.692   0.333
 9006SOL    HW227918   4.350   5.569   0.232
 9007SOL     OW27919   1.370   1.323   2.927
 9007SOL    HW127920   1.287   1.286   2.885
 9007SOL    HW227921   1.426   1.366   2.856
 9008SOL     OW27922   0.434   5.345   2.346
 9008SOL    HW127923   0.460   5.325   2.252
 9008SOL    HW227924   0.401   5.439   2.353
 9009SOL     OW27925   3.080   6.593   2.224
 9009SOL    HW127926   3.115   6.613   2.133
 9009SOL    HW227927   3.024   6.510   2.221
 9010SOL     OW27928   1.644   5.733   4.609
 9010SOL    HW127929   1.603   5.746   4.699
 9010SOL    HW227930   1.648   5.821   4.561
 9011SOL     OW27931   1.872   2.198   2.221
 9011SOL    HW127932   1.815   2.270   2.181
 9011SOL    HW227933   1.954   2.239   2.261
 9012SOL     OW27934   2.759   5.826   0.061
 9012SOL    HW127935   2.790   5.742   0.105
 9012SOL    HW227936   2.833   5.864   0.006
 9013SOL     OW27937   1.938   0.036   4.294
 9013SOL    HW127938   1.994   0.019   4.214
 9013SOL    HW227939   1.944   6.974   4.356
 9014SOL     OW27940   5.251   3.077   3.488
 9014SOL    HW127941   5.314   3.030   3.425
 9014SOL    HW227942   5.300   3.099   3.572
 9015SOL     OW27943   4.339   0.114   6.344
 9015SOL    HW127944   4.278   0.142   6.270
 9015SOL    HW227945   4.310   0.158   6.430
 9016SOL     OW27946   4.709   5.087   5.764
 9016SOL    HW127947   4.722   4.992   5.795
 9016SOL    HW227948   4.793   5.138   5.777
 9017SOL     OW27949   3.654   0.010   5.310
 9017SOL    HW127950   3.619   6.967   5.383
 9017SOL    HW227951   3.578   0.052   5.261
 9018SOL     OW27952   3.610   4.916   0.453
 9018SOL    HW127953   3.535   4.935   0.390
 9018SOL    HW227954   3.574   4.884   0.541
 9019SOL     OW27955   0.680   3.388   3.504
 9019SOL    HW127956   0.611   3.421   3.568
 9019SOL    HW227957   0.735   3.465   3.472
 9020SOL     OW27958   5.400   4.644   3.598
 9020SOL    HW127959   5.433   4.733   3.566
 9020SOL    HW227960   5.307   4.629   3.564
 9021SOL     OW27961   0.482   1.261   3.925
 9021SOL    HW127962   0.465   1.331   3.994
 9021SOL    HW227963   0.489   1.305   3.835
 9022SOL     OW27964   4.333   3.759   6.489
 9022SOL    HW127965   4.289   3.846   6.469
 9022SOL    HW227966   4.345   3.748   6.587
 9023SOL     OW27967   6.844   4.747   0.505
 9023SOL    HW127968   6.920   4.696   0.545
 9023SOL    HW227969   6.775   4.766   0.575
 9024SOL     OW27970   2.364   5.351   6.269
 9024SOL    HW127971   2.287   5.289   6.252
 9024SOL    HW227972   2.370   5.370   6.367
 9025SOL     OW27973   0.749   5.648   1.027
 9025SOL    HW127974   0.830   5.707   1.025
 9025SOL    HW227975   0.674   5.692   0.977
 9026SOL     OW27976   5.494   1.263   0.491
 9026SOL    HW127977   5.484   1.354   0.450
 9026SOL    HW227978   5.547   1.271   0.575
 9027SOL     OW27979   0.562   3.738   3.508
 9027SOL    HW127980   0.466   3.768   3.515
 9027SOL    HW227981   0.612   3.799   3.447
 9028SOL     OW27982   3.329   4.951   6.240
 9028SOL    HW127983   3.369   4.916   6.325
 9028SOL    HW227984   3.320   5.050   6.246
 9029SOL     OW27985   4.461   6.389   4.782
 9029SOL    HW127986   4.424   6.474   4.820
 9029SOL    HW227987   4.487   6.404   4.686
 9030SOL     OW27988   2.968   2.085   2.383
 9030SOL    HW127989   3.013   2.100   2.295
 9030SOL    HW227990   2.869   2.097   2.372
 9031SOL     OW27991   4.823   6.879   4.837
 9031SOL    HW127992   4.766   6.957   4.809
 9031SOL    HW227993   4.878   6.849   4.759
 9032SOL     OW27994   5.431   2.633   0.955
 9032SOL    HW127995   5.342   2.600   0.988
 9032SOL    HW227996   5.424   2.654   0.858
 9033SOL     OW27997   1.133   6.502   2.760
 9033SOL    HW127998   1.110   6.453   2.844
 9033SOL    HW227999   1.169   6.438   2.692
 9034SOL     OW28000   4.683   6.852   4.452
 9034SOL    HW128001   4.643   6.944   4.448
 9034SOL    HW228002   4.780   6.859   4.477
 9035SOL     OW28003   3.261   5.213   6.119
 9035SOL    HW128004   3.309   5.144   6.065
 9035SOL    HW228005   3.163   5.200   6.109
 9036SOL     OW28006   0.998   4.774   5.175
 9036SOL    HW128007   1.055   4.714   5.120
 9036SOL    HW228008   0.924   4.721   5.216
 9037SOL     OW28009   0.173   0.815   2.092
 9037SOL    HW128010   0.230   0.886   2.134
 9037SOL    HW228011   0.196   0.807   1.995
 9038SOL     OW28012   4.033   3.597   5.660
 9038SOL    HW128013   3.961   3.532   5.686
 9038SOL    HW228014   3.992   3.682   5.629
 9039SOL     OW28015   4.523   6.537   6.811
 9039SOL    HW128016   4.580   6.610   6.849
 9039SOL    HW228017   4.543   6.451   6.859
 9040SOL     OW28018   1.770   2.294   1.479
 9040SOL    HW128019   1.805   2.221   1.421
 9040SOL    HW228020   1.835   2.313   1.553
 9041SOL     OW28021   5.884   2.142   2.982
 9041SOL    HW128022   5.960   2.102   3.034
 9041SOL    HW228023   5.798   2.097   3.009
 9042SOL     OW28024   5.179   5.640   6.979
 9042SOL    HW128025   5.094   5.683   6.950
 9042SOL    HW228026   5.161   5.545   7.006
 9043SOL     OW28027   2.638   2.781   1.430
 9043SOL    HW128028   2.579   2.862   1.434
 9043SOL    HW228029   2.583   2.701   1.409
 9044SOL     OW28030   1.318   0.749   0.706
 9044SOL    HW128031   1.246   0.719   0.769
 9044SOL    HW228032   1.311   0.848   0.692
 9045SOL     OW28033   4.191   0.526   4.147
 9045SOL    HW128034   4.112   0.587   4.158
 9045SOL    HW228035   4.204   0.505   4.050
 9046SOL     OW28036   3.712   2.923   2.407
 9046SOL    HW128037   3.720   3.010   2.360
 9046SOL    HW228038   3.797   2.872   2.398
 9047SOL     OW28039   0.924   4.523   5.938
 9047SOL    HW128040   1.000   4.463   5.911
 9047SOL    HW228041   0.841   4.469   5.948
 9048SOL     OW28042   6.923   1.674   5.589
 9048SOL    HW128043   6.895   1.578   5.586
 9048SOL    HW228044   6.874   1.725   5.518
 9049SOL     OW28045   2.260   6.451   5.202
 9049SOL    HW128046   2.164   6.477   5.188
 9049SOL    HW228047   2.301   6.510   5.271
 9050SOL     OW28048   0.584   4.652   0.594
 9050SOL    HW128049   0.565   4.576   0.656
 9050SOL    HW228050   0.676   4.643   0.557
 9051SOL     OW28051   2.196   0.750   1.790
 9051SOL    HW128052   2.217   0.820   1.721
 9051SOL    HW228053   2.214   0.787   1.881
 9052SOL     OW28054   1.878   3.807   6.337
 9052SOL    HW128055   1.843   3.872   6.404
 9052SOL    HW228056   1.949   3.751   6.378
 9053SOL     OW28057   0.848   0.782   6.915
 9053SOL    HW128058   0.923   0.738   6.867
 9053SOL    HW228059   0.870   0.878   6.931
 9054SOL     OW28060   1.314   5.592   2.884
 9054SOL    HW128061   1.273   5.619   2.797
 9054SOL    HW228062   1.411   5.614   2.884
 9055SOL     OW28063   0.603   2.658   5.736
 9055SOL    HW128064   0.659   2.582   5.768
 9055SOL    HW228065   0.537   2.625   5.669
 9056SOL     OW28066   5.581   1.780   3.925
 9056SOL    HW128067   5.589   1.772   3.826
 9056SOL    HW228068   5.621   1.867   3.955
 9057SOL     OW28069   4.669   2.259   3.874
 9057SOL    HW128070   4.630   2.338   3.921
 9057SOL    HW228071   4.710   2.198   3.942
 9058SOL     OW28072   2.328   6.957   5.753
 9058SOL    HW128073   2.419   6.979   5.718
 9058SOL    HW228074   2.269   6.929   5.677
 9059SOL     OW28075   1.007   2.387   3.739
 9059SOL    HW128076   0.967   2.304   3.700
 9059SOL    HW228077   0.935   2.442   3.781
 9060SOL     OW28078   5.056   3.062   5.122
 9060SOL    HW128079   5.029   3.056   5.026
 9060SOL    HW228080   5.005   2.995   5.175
 9061SOL     OW28081   1.660   4.911   3.213
 9061SOL    HW128082   1.586   4.847   3.192
 9061SOL    HW228083   1.747   4.873   3.179
 9062SOL     OW28084   1.872   6.326   1.722
 9062SOL    HW128085   1.797   6.290   1.778
 9062SOL    HW228086   1.953   6.270   1.735
 9063SOL     OW28087   2.910   1.758   2.391
 9063SOL    HW128088   2.852   1.710   2.325
 9063SOL    HW228089   2.856   1.778   2.473
 9064SOL     OW28090   5.131   4.149   6.938
 9064SOL    HW128091   5.095   4.062   6.906
 9064SOL    HW228092   5.118   4.156   0.021
 9065SOL     OW28093   2.941   0.818   1.410
 9065SOL    HW128094   2.967   0.905   1.370
 9065SOL    HW228095   2.841   0.811   1.414
 9066SOL     OW28096   5.375   6.772   6.905
 9066SOL    HW128097   5.288   6.726   6.920
 9066SOL    HW228098   5.446   6.730   6.961
 9067SOL     OW28099   1.058   0.286   1.424
 9067SOL    HW128100   1.058   0.189   1.450
 9067SOL    HW228101   1.017   0.296   1.333
 9068SOL     OW28102   1.559   6.097   6.367
 9068SOL    HW128103   1.581   6.009   6.325
 9068SOL    HW228104   1.470   6.127   6.336
 9069SOL     OW28105   1.195   2.349   6.341
 9069SOL    HW128106   1.192   2.356   6.440
 9069SOL    HW228107   1.152   2.263   6.312
 9070SOL     OW28108   1.663   4.547   3.777
 9070SOL    HW128109   1.639   4.450   3.773
 9070SOL    HW228110   1.757   4.559   3.745
 9071SOL     OW28111   4.854   5.907   6.837
 9071SOL    HW128112   4.893   5.826   6.881
 9071SOL    HW228113   4.909   5.932   6.758
 9072SOL     OW28114   4.776   4.546   0.451
 9072SOL    HW128115   4.856   4.565   0.508
 9072SOL    HW228116   4.768   4.617   0.381
 9073SOL     OW28117   2.411   0.507   1.386
 9073SOL    HW128118   2.417   0.492   1.484
 9073SOL    HW228119   2.330   0.461   1.350
 9074SOL     OW28120   0.504   0.717   2.040
 9074SOL    HW128121   0.450   0.639   2.071
 9074SOL    HW228122   0.558   0.690   1.960
 9075SOL     OW28123   6.762   0.247   1.748
 9075SOL    HW128124   6.822   0.322   1.722
 9075SOL    HW228125   6.817   0.169   1.777
 9076SOL     OW28126   1.252   2.099   5.194
 9076SOL    HW128127   1.281   2.153   5.115
 9076SOL    HW228128   1.208   2.015   5.163
 9077SOL     OW28129   5.804   6.440   1.801
 9077SOL    HW128130   5.734   6.438   1.873
 9077SOL    HW228131   5.802   6.529   1.755
 9078SOL     OW28132   4.699   3.066   5.712
 9078SOL    HW128133   4.716   3.164   5.704
 9078SOL    HW228134   4.754   3.028   5.786
 9079SOL     OW28135   3.129   0.505   5.491
 9079SOL    HW128136   3.139   0.545   5.400
 9079SOL    HW228137   3.043   0.535   5.532
 9080SOL     OW28138   4.772   1.349   6.816
 9080SOL    HW128139   4.707   1.419   6.786
 9080SOL    HW228140   4.745   1.261   6.779
 9081SOL     OW28141   5.420   6.901   3.477
 9081SOL    HW128142   5.376   6.908   3.567
 9081SOL    HW228143   5.395   6.980   3.421
 9082SOL     OW28144   2.385   0.735   2.245
 9082SOL    HW128145   2.371   0.696   2.336
 9082SOL    HW228146   2.380   0.663   2.176
 9083SOL     OW28147   4.632   4.717   3.869
 9083SOL    HW128148   4.727   4.726   3.839
 9083SOL    HW228149   4.578   4.791   3.829
 9084SOL     OW28150   4.131   3.548   2.660
 9084SOL    HW128151   4.037   3.514   2.659
 9084SOL    HW228152   4.191   3.481   2.617
 9085SOL     OW28153   0.981   2.579   0.939
 9085SOL    HW128154   0.889   2.564   0.901
 9085SOL    HW228155   1.048   2.531   0.883
 9086SOL     OW28156   6.746   3.761   6.731
 9086SOL    HW128157   6.830   3.708   6.725
 9086SOL    HW228158   6.737   3.819   6.650
 9087SOL     OW28159   5.029   3.600   1.965
 9087SOL    HW128160   5.067   3.566   1.879
 9087SOL    HW228161   5.092   3.666   2.006
 9088SOL     OW28162   5.563   5.171   1.457
 9088SOL    HW128163   5.555   5.121   1.543
 9088SOL    HW228164   5.492   5.141   1.393
 9089SOL     OW28165   3.981   0.879   5.715
 9089SOL    HW128166   3.914   0.862   5.643
 9089SOL    HW228167   3.942   0.942   5.783
 9090SOL     OW28168   6.150   1.614   3.638
 9090SOL    HW128169   6.161   1.624   3.539
 9090SOL    HW228170   6.062   1.652   3.666
 9091SOL     OW28171   3.988   2.627   5.886
 9091SOL    HW128172   4.006   2.702   5.949
 9091SOL    HW228173   4.003   2.540   5.932
 9092SOL     OW28174   6.734   3.189   6.065
 9092SOL    HW128175   6.655   3.189   6.126
 9092SOL    HW228176   6.774   3.281   6.062
 9093SOL     OW28177   1.936   6.367   4.930
 9093SOL    HW128178   2.016   6.426   4.915
 9093SOL    HW228179   1.958   6.273   4.906
 9094SOL     OW28180   1.695   3.720   0.582
 9094SOL    HW128181   1.691   3.820   0.577
 9094SOL    HW228182   1.773   3.688   0.528
 9095SOL     OW28183   0.240   6.711   6.177
 9095SOL    HW128184   0.333   6.739   6.199
 9095SOL    HW228185   0.228   6.710   6.078
 9096SOL     OW28186   6.092   5.304   3.749
 9096SOL    HW128187   6.147   5.386   3.764
 9096SOL    HW228188   6.056   5.271   3.836
 9097SOL     OW28189   1.084   3.146   6.366
 9097SOL    HW128190   1.080   3.051   6.332
 9097SOL    HW228191   1.110   3.146   6.462
 9098SOL     OW28192   2.010   4.360   4.000
 9098SOL    HW128193   2.041   4.454   3.987
 9098SOL    HW228194   1.981   4.322   3.913
 9099SOL     OW28195   2.188   1.644   6.876
 9099SOL    HW128196   2.129   1.720   6.901
 9099SOL    HW228197   2.204   1.586   6.956
 9100SOL     OW28198   1.734   4.976   4.281
 9100SOL    HW128199   1.832   4.984   4.265
 9100SOL    HW228200   1.713   4.884   4.313
 9101SOL     OW28201   0.296   1.940   0.745
 9101SOL    HW128202   0.326   1.982   0.659
 9101SOL    HW228203   0.358   1.966   0.819
 9102SOL     OW28204   3.854   1.201   3.173
 9102SOL    HW128205   3.936   1.228   3.125
 9102SOL    HW228206   3.778   1.261   3.147
 9103SOL     OW28207   6.509   0.249   1.291
 9103SOL    HW128208   6.497   0.307   1.371
 9103SOL    HW228209   6.419   0.222   1.256
 9104SOL     OW28210   6.191   2.050   6.082
 9104SOL    HW128211   6.242   1.987   6.141
 9104SOL    HW228212   6.214   2.144   6.108
 9105SOL     OW28213   3.030   0.807   6.833
 9105SOL    HW128214   3.035   0.771   6.927
 9105SOL    HW228215   3.009   0.732   6.770
 9106SOL     OW28216   2.517   2.879   6.548
 9106SOL    HW128217   2.596   2.897   6.489
 9106SOL    HW228218   2.435   2.867   6.491
 9107SOL     OW28219   3.541   0.785   1.107
 9107SOL    HW128220   3.469   0.821   1.167
 9107SOL    HW228221   3.525   0.818   1.013
 9108SOL     OW28222   6.691   6.006   6.102
 9108SOL    HW128223   6.738   6.084   6.144
 9108SOL    HW228224   6.630   5.964   6.169
 9109SOL     OW28225   5.266   4.197   2.986
 9109SOL    HW128226   5.181   4.158   3.020
 9109SOL    HW228227   5.271   4.294   3.009
 9110SOL     OW28228   1.131   6.667   2.335
 9110SOL    HW128229   1.095   6.743   2.389
 9110SOL    HW228230   1.075   6.655   2.253
 9111SOL     OW28231   4.166   3.161   5.579
 9111SOL    HW128232   4.173   3.251   5.536
 9111SOL    HW228233   4.257   3.132   5.609
 9112SOL     OW28234   0.425   4.679   2.121
 9112SOL    HW128235   0.474   4.739   2.059
 9112SOL    HW228236   0.344   4.726   2.156
 9113SOL     OW28237   5.888   0.023   4.751
 9113SOL    HW128238   5.820   0.020   4.678
 9113SOL    HW228239   5.859   6.981   4.827
 9114SOL     OW28240   1.138   1.311   6.337
 9114SOL    HW128241   1.230   1.348   6.331
 9114SOL    HW228242   1.113   1.269   6.249
 9115SOL     OW28243   5.102   3.440   4.471
 9115SOL    HW128244   5.119   3.361   4.412
 9115SOL    HW228245   5.079   3.408   4.563
 9116SOL     OW28246   1.103   5.308   3.755
 9116SOL    HW128247   1.122   5.397   3.796
 9116SOL    HW228248   1.010   5.279   3.779
 9117SOL     OW28249   2.141   0.109   0.092
 9117SOL    HW128250   2.048   0.137   0.116
 9117SOL    HW228251   2.189   0.187   0.050
 9118SOL     OW28252   6.717   5.027   1.557
 9118SOL    HW128253   6.673   5.060   1.473
 9118SOL    HW228254   6.759   5.104   1.604
 9119SOL     OW28255   3.361   1.304   1.218
 9119SOL    HW128256   3.356   1.394   1.173
 9119SOL    HW228257   3.452   1.266   1.205
 9120SOL     OW28258   6.664   4.084   4.480
 9120SOL    HW128259   6.687   4.157   4.545
 9120SOL    HW228260   6.565   4.070   4.479
 9121SOL     OW28261   4.098   1.106   4.289
 9121SOL    HW128262   4.082   1.135   4.195
 9121SOL    HW228263   4.157   1.025   4.290
 9122SOL     OW28264   7.014   2.103   2.107
 9122SOL    HW128265   0.095   2.124   2.116
 9122SOL    HW228266   6.988   2.035   2.175
 9123SOL     OW28267   0.577   6.531   4.426
 9123SOL    HW128268   0.494   6.493   4.466
 9123SOL    HW228269   0.654   6.517   4.488
 9124SOL     OW28270   4.011   5.737   0.625
 9124SOL    HW128271   4.032   5.751   0.528
 9124SOL    HW228272   3.912   5.728   0.637
 9125SOL     OW28273   5.250   6.790   1.562
 9125SOL    HW128274   5.295   6.873   1.593
 9125SOL    HW228275   5.151   6.800   1.572
 9126SOL     OW28276   3.767   5.207   0.629
 9126SOL    HW128277   3.751   5.182   0.725
 9126SOL    HW228278   3.835   5.145   0.590
 9127SOL     OW28279   6.746   4.207   5.239
 9127SOL    HW128280   6.754   4.216   5.140
 9127SOL    HW228281   6.790   4.121   5.268
 9128SOL     OW28282   5.420   4.043   6.247
 9128SOL    HW128283   5.469   3.977   6.190
 9128SOL    HW228284   5.476   4.125   6.258
 9129SOL     OW28285   0.041   3.080   0.904
 9129SOL    HW128286   7.010   3.022   0.838
 9129SOL    HW228287   0.128   3.038   0.929
 9130SOL     OW28288   3.285   3.115   6.032
 9130SOL    HW128289   3.200   3.085   5.990
 9130SOL    HW228290   3.305   3.208   6.004
 9131SOL     OW28291   6.277   3.143   0.773
 9131SOL    HW128292   6.349   3.099   0.720
 9131SOL    HW228293   6.194   3.087   0.769
 9132SOL     OW28294   1.259   4.292   3.780
 9132SOL    HW128295   1.249   4.373   3.838
 9132SOL    HW228296   1.244   4.210   3.835
 9133SOL     OW28297   5.082   0.162   0.941
 9133SOL    HW128298   5.034   0.144   1.026
 9133SOL    HW228299   5.167   0.109   0.939
 9134SOL     OW28300   4.985   4.482   6.531
 9134SOL    HW128301   4.937   4.538   6.463
 9134SOL    HW228302   4.972   4.385   6.509
 9135SOL     OW28303   6.539   5.386   2.508
 9135SOL    HW128304   6.567   5.390   2.604
 9135SOL    HW228305   6.522   5.291   2.482
 9136SOL     OW28306   0.935   5.072   6.717
 9136SOL    HW128307   1.029   5.041   6.728
 9136SOL    HW228308   0.877   5.028   6.785
 9137SOL     OW28309   5.729   5.576   6.223
 9137SOL    HW128310   5.733   5.482   6.190
 9137SOL    HW228311   5.665   5.581   6.299
 9138SOL     OW28312   1.542   4.349   6.446
 9138SOL    HW128313   1.630   4.395   6.437
 9138SOL    HW228314   1.472   4.402   6.397
 9139SOL     OW28315   0.108   0.215   1.175
 9139SOL    HW128316   0.041   0.265   1.230
 9139SOL    HW228317   0.192   0.203   1.228
 9140SOL     OW28318   1.539   3.994   2.838
 9140SOL    HW128319   1.451   4.014   2.795
 9140SOL    HW228320   1.544   3.897   2.859
 9141SOL     OW28321   0.395   6.090   4.637
 9141SOL    HW128322   0.452   6.142   4.700
 9141SOL    HW228323   0.432   6.097   4.544
 9142SOL     OW28324   1.339   5.000   3.457
 9142SOL    HW128325   1.333   5.037   3.550
 9142SOL    HW228326   1.384   4.911   3.460
 9143SOL     OW28327   5.533   3.775   2.728
 9143SOL    HW128328   5.559   3.679   2.740
 9143SOL    HW228329   5.451   3.795   2.782
 9144SOL     OW28330   2.740   4.139   5.494
 9144SOL    HW128331   2.699   4.070   5.434
 9144SOL    HW228332   2.796   4.201   5.440
 9145SOL     OW28333   2.854   6.619   6.422
 9145SOL    HW128334   2.874   6.667   6.337
 9145SOL    HW228335   2.939   6.605   6.473
 9146SOL     OW28336   5.780   1.828   4.313
 9146SOL    HW128337   5.813   1.872   4.397
 9146SOL    HW228338   5.682   1.847   4.302
 9147SOL     OW28339   4.373   0.461   6.353
 9147SOL    HW128340   4.462   0.416   6.360
 9147SOL    HW228341   4.371   0.540   6.415
 9148SOL     OW28342   3.913   5.496   2.284
 9148SOL    HW128343   3.891   5.523   2.378
 9148SOL    HW228344   3.946   5.402   2.283
 9149SOL     OW28345   0.456   4.115   1.546
 9149SOL    HW128346   0.494   4.128   1.638
 9149SOL    HW228347   0.526   4.131   1.477
 9150SOL     OW28348   3.426   3.560   0.006
 9150SOL    HW128349   3.373   3.524   0.083
 9150SOL    HW228350   3.371   3.628   6.974
 9151SOL     OW28351   2.088   3.348   4.078
 9151SOL    HW128352   2.165   3.379   4.023
 9151SOL    HW228353   2.005   3.398   4.052
 9152SOL     OW28354   1.888   5.102   1.711
 9152SOL    HW128355   1.902   5.101   1.810
 9152SOL    HW228356   1.976   5.095   1.665
 9153SOL     OW28357   0.679   3.875   0.342
 9153SOL    HW128358   0.592   3.828   0.354
 9153SOL    HW228359   0.726   3.839   0.261
 9154SOL     OW28360   4.526   5.496   3.122
 9154SOL    HW128361   4.591   5.552   3.175
 9154SOL    HW228362   4.535   5.517   3.025
 9155SOL     OW28363   1.242   6.310   2.600
 9155SOL    HW128364   1.221   6.253   2.680
 9155SOL    HW228365   1.233   6.254   2.517
 9156SOL     OW28366   7.000   4.305   5.593
 9156SOL    HW128367   6.955   4.377   5.646
 9156SOL    HW228368   0.010   4.341   5.503
 9157SOL     OW28369   1.825   4.476   5.098
 9157SOL    HW128370   1.916   4.440   5.077
 9157SOL    HW228371   1.800   4.543   5.028
 9158SOL     OW28372   6.664   2.375   4.057
 9158SOL    HW128373   6.666   2.383   4.156
 9158SOL    HW228374   6.585   2.426   4.021
 9159SOL     OW28375   1.930   1.023   3.615
 9159SOL    HW128376   1.876   0.943   3.641
 9159SOL    HW228377   1.869   1.098   3.589
 9160SOL     OW28378   0.740   3.573   6.247
 9160SOL    HW128379   0.724   3.495   6.307
 9160SOL    HW228380   0.838   3.587   6.236
 9161SOL     OW28381   5.818   3.206   2.609
 9161SOL    HW128382   5.738   3.175   2.558
 9161SOL    HW228383   5.878   3.259   2.549
 9162SOL     OW28384   4.775   1.817   2.315
 9162SOL    HW128385   4.688   1.778   2.345
 9162SOL    HW228386   4.794   1.787   2.222
 9163SOL     OW28387   2.064   3.394   3.339
 9163SOL    HW128388   2.081   3.305   3.381
 9163SOL    HW228389   2.094   3.466   3.401
 9164SOL     OW28390   3.343   0.050   0.765
 9164SOL    HW128391   3.307   0.006   0.847
 9164SOL    HW228392   3.425   0.103   0.788
 9165SOL     OW28393   6.001   0.674   6.666
 9165SOL    HW128394   6.014   0.749   6.731
 9165SOL    HW228395   5.908   0.677   6.629
 9166SOL     OW28396   4.283   6.343   1.434
 9166SOL    HW128397   4.278   6.243   1.431
 9166SOL    HW228398   4.210   6.381   1.378
 9167SOL     OW28399   1.149   2.581   5.064
 9167SOL    HW128400   1.052   2.597   5.079
 9167SOL    HW228401   1.197   2.578   5.152
 9168SOL     OW28402   6.512   5.875   4.681
 9168SOL    HW128403   6.514   5.802   4.612
 9168SOL    HW228404   6.459   5.843   4.760
 9169SOL     OW28405   6.425   5.779   0.406
 9169SOL    HW128406   6.426   5.692   0.455
 9169SOL    HW228407   6.333   5.799   0.375
 9170SOL     OW28408   1.870   0.863   5.850
 9170SOL    HW128409   1.903   0.942   5.798
 9170SOL    HW228410   1.943   0.794   5.855
 9171SOL     OW28411   4.413   5.476   0.093
 9171SOL    HW128412   4.451   5.396   0.141
 9171SOL    HW228413   4.444   5.474   7.014
 9172SOL     OW28414   5.382   1.156   6.003
 9172SOL    HW128415   5.302   1.201   5.962
 9172SOL    HW228416   5.378   1.058   5.984
 9173SOL     OW28417   5.742   4.484   5.754
 9173SOL    HW128418   5.764   4.410   5.818
 9173SOL    HW228419   5.735   4.448   5.662
 9174SOL     OW28420   5.885   4.574   6.815
 9174SOL    HW128421   5.879   4.637   6.892
 9174SOL    HW228422   5.980   4.567   6.786
 9175SOL     OW28423   2.015   1.094   1.747
 9175SOL    HW128424   2.081   1.060   1.814
 9175SOL    HW228425   1.957   1.018   1.716
 9176SOL     OW28426   1.384   0.257   2.306
 9176SOL    HW128427   1.434   0.299   2.230
 9176SOL    HW228428   1.422   0.290   2.393
 9177SOL     OW28429   0.729   5.907   3.798
 9177SOL    HW128430   0.772   5.824   3.760
 9177SOL    HW228431   0.711   5.972   3.724
 9178SOL     OW28432   1.159   3.461   0.785
 9178SOL    HW128433   1.180   3.536   0.722
 9178SOL    HW228434   1.240   3.441   0.840
 9179SOL     OW28435   3.954   5.112   2.952
 9179SOL    HW128436   3.967   5.026   2.902
 9179SOL    HW228437   4.041   5.161   2.956
 9180SOL     OW28438   0.388   0.765   5.118
 9180SOL    HW128439   0.297   0.725   5.113
 9180SOL    HW228440   0.413   0.803   5.029
 9181SOL     OW28441   2.845   2.308   3.443
 9181SOL    HW128442   2.829   2.250   3.363
 9181SOL    HW228443   2.927   2.363   3.428
 9182SOL     OW28444   6.549   1.799   3.037
 9182SOL    HW128445   6.637   1.753   3.035
 9182SOL    HW228446   6.486   1.750   3.098
 9183SOL     OW28447   3.047   1.958   5.731
 9183SOL    HW128448   3.004   2.033   5.780
 9183SOL    HW228449   3.107   1.994   5.660
 9184SOL     OW28450   2.822   4.907   1.125
 9184SOL    HW128451   2.913   4.927   1.089
 9184SOL    HW228452   2.753   4.951   1.067
 9185SOL     OW28453   0.800   0.987   5.541
 9185SOL    HW128454   0.721   1.047   5.527
 9185SOL    HW228455   0.797   0.911   5.477
 9186SOL     OW28456   5.966   7.010   5.989
 9186SOL    HW128457   6.028   0.037   6.055
 9186SOL    HW228458   5.875   0.035   5.996
 9187SOL     OW28459   5.299   3.422   1.037
 9187SOL    HW128460   5.280   3.370   0.954
 9187SOL    HW228461   5.251   3.382   1.114
 9188SOL     OW28462   1.060   0.747   2.727
 9188SOL    HW128463   1.014   0.818   2.674
 9188SOL    HW228464   1.080   0.669   2.668
 9189SOL     OW28465   3.072   1.024   6.629
 9189SOL    HW128466   3.044   0.958   6.698
 9189SOL    HW228467   3.126   1.097   6.672
 9190SOL     OW28468   4.194   0.986   6.000
 9190SOL    HW128469   4.115   0.949   5.951
 9190SOL    HW228470   4.176   1.080   6.027
 9191SOL     OW28471   5.711   0.334   1.591
 9191SOL    HW128472   5.682   0.267   1.660
 9191SOL    HW228473   5.636   0.398   1.574
 9192SOL     OW28474   4.669   4.684   4.259
 9192SOL    HW128475   4.671   4.602   4.317
 9192SOL    HW228476   4.590   4.680   4.197
 9193SOL     OW28477   3.847   3.269   2.603
 9193SOL    HW128478   3.773   3.245   2.665
 9193SOL    HW228479   3.839   3.216   2.519
 9194SOL     OW28480   2.980   5.265   3.024
 9194SOL    HW128481   3.010   5.180   3.067
 9194SOL    HW228482   2.923   5.243   2.944
 9195SOL     OW28483   0.922   2.923   4.064
 9195SOL    HW128484   1.016   2.959   4.060
 9195SOL    HW228485   0.887   2.935   4.157
 9196SOL     OW28486   5.346   5.807   3.249
 9196SOL    HW128487   5.441   5.781   3.230
 9196SOL    HW228488   5.284   5.748   3.198
 9197SOL     OW28489   4.641   2.492   6.856
 9197SOL    HW128490   4.672   2.585   6.835
 9197SOL    HW228491   4.630   2.440   6.771
 9198SOL     OW28492   6.131   3.059   5.086
 9198SOL    HW128493   6.168   2.987   5.145
 9198SOL    HW228494   6.104   3.020   4.998
 9199SOL     OW28495   0.875   3.834   6.597
 9199SOL    HW128496   0.959   3.834   6.542
 9199SOL    HW228497   0.886   3.772   6.674
 9200SOL     OW28498   4.716   6.299   1.994
 9200SOL    HW128499   4.691   6.246   1.913
 9200SOL    HW228500   4.697   6.246   2.076
 9201SOL     OW28501   6.890   3.154   2.320
 9201SOL    HW128502   6.976   3.204   2.307
 9201SOL    HW228503   6.851   3.177   2.409
 9202SOL     OW28504   1.768   5.778   3.749
 9202SOL    HW128505   1.689   5.832   3.720
 9202SOL    HW228506   1.755   5.745   3.842
 9203SOL     OW28507   5.330   2.223   0.951
 9203SOL    HW128508   5.322   2.190   0.856
 9203SOL    HW228509   5.405   2.174   0.997
 9204SOL     OW28510   4.952   4.708   2.123
 9204SOL    HW128511   5.041   4.749   2.142
 9204SOL    HW228512   4.958   4.651   2.041
 9205SOL     OW28513   4.301   2.319   1.212
 9205SOL    HW128514   4.317   2.330   1.114
 9205SOL    HW228515   4.207   2.291   1.228
 9206SOL     OW28516   7.012   6.775   5.509
 9206SOL    HW128517   0.089   6.774   5.473
 9206SOL    HW228518   7.007   6.836   5.588
 9207SOL     OW28519   5.550   6.673   0.087
 9207SOL    HW128520   5.557   6.761   0.134
 9207SOL    HW228521   5.640   6.648   0.051
 9208SOL     OW28522   5.335   4.579   1.265
 9208SOL    HW128523   5.360   4.545   1.356
 9208SOL    HW228524   5.242   4.615   1.268
 9209SOL     OW28525   4.952   0.289   4.593
 9209SOL    HW128526   5.026   0.345   4.555
 9209SOL    HW228527   4.957   0.197   4.556
 9210SOL     OW28528   1.190   0.074   0.101
 9210SOL    HW128529   1.252   0.092   0.177
 9210SOL    HW228530   1.098   0.103   0.126
 9211SOL     OW28531   5.213   1.945   5.989
 9211SOL    HW128532   5.152   1.981   6.060
 9211SOL    HW228533   5.224   1.846   6.002
 9212SOL     OW28534   6.081   3.452   6.345
 9212SOL    HW128535   6.006   3.451   6.411
 9212SOL    HW228536   6.130   3.539   6.350
 9213SOL     OW28537   0.246   5.657   2.919
 9213SOL    HW128538   0.158   5.683   2.959
 9213SOL    HW228539   0.319   5.674   2.985
 9214SOL     OW28540   2.099   1.200   5.885
 9214SOL    HW128541   2.030   1.229   5.951
 9214SOL    HW228542   2.181   1.257   5.895
 9215SOL     OW28543   0.102   4.186   3.529
 9215SOL    HW128544   0.192   4.215   3.495
 9215SOL    HW228545   0.059   4.127   3.461
 9216SOL     OW28546   1.978   6.541   3.724
 9216SOL    HW128547   1.946   6.596   3.646
 9216SOL    HW228548   2.076   6.558   3.738
 9217SOL     OW28549   3.119   2.505   0.483
 9217SOL    HW128550   3.159   2.558   0.408
 9217SOL    HW228551   3.043   2.450   0.448
 9218SOL     OW28552   4.385   6.107   5.642
 9218SOL    HW128553   4.427   6.019   5.619
 9218SOL    HW228554   4.322   6.095   5.719
 9219SOL     OW28555   3.885   3.232   6.557
 9219SOL    HW128556   3.806   3.290   6.573
 9219SOL    HW228557   3.911   3.237   6.461
 9220SOL     OW28558   0.741   6.856   3.669
 9220SOL    HW128559   0.748   6.926   3.740
 9220SOL    HW228560   0.831   6.813   3.656
 9221SOL     OW28561   2.434   1.639   2.338
 9221SOL    HW128562   2.475   1.632   2.247
 9221SOL    HW228563   2.335   1.636   2.330
 9222SOL     OW28564   1.842   5.754   3.482
 9222SOL    HW128565   1.759   5.707   3.450
 9222SOL    HW228566   1.840   5.760   3.582
 9223SOL     OW28567   6.152   2.358   4.677
 9223SOL    HW128568   6.203   2.444   4.686
 9223SOL    HW228569   6.135   2.320   4.768
 9224SOL     OW28570   1.550   5.707   2.921
 9224SOL    HW128571   1.531   5.801   2.891
 9224SOL    HW228572   1.649   5.692   2.921
 9225SOL     OW28573   0.417   5.347   5.545
 9225SOL    HW128574   0.480   5.322   5.619
 9225SOL    HW228575   0.323   5.326   5.573
 9226SOL     OW28576   0.857   6.931   4.809
 9226SOL    HW128577   0.871   0.006   4.847
 9226SOL    HW228578   0.879   6.932   4.712
 9227SOL     OW28579   3.860   3.348   0.443
 9227SOL    HW128580   3.959   3.355   0.426
 9227SOL    HW228581   3.839   3.255   0.475
 9228SOL     OW28582   3.809   3.468   4.762
 9228SOL    HW128583   3.782   3.494   4.670
 9228SOL    HW228584   3.896   3.418   4.758
 9229SOL     OW28585   0.127   5.698   0.963
 9229SOL    HW128586   0.211   5.649   0.984
 9229SOL    HW228587   0.054   5.669   1.025
 9230SOL     OW28588   3.288   0.146   6.383
 9230SOL    HW128589   3.298   0.050   6.409
 9230SOL    HW228590   3.289   0.154   6.284
 9231SOL     OW28591   5.894   6.456   1.505
 9231SOL    HW128592   5.891   6.359   1.529
 9231SOL    HW228593   5.926   6.466   1.410
 9232SOL     OW28594   0.781   5.082   2.001
 9232SOL    HW128595   0.851   5.013   1.984
 9232SOL    HW228596   0.825   5.172   2.011
 9233SOL     OW28597   1.636   0.296   5.878
 9233SOL    HW128598   1.648   0.394   5.861
 9233SOL    HW228599   1.725   0.251   5.879
 9234SOL     OW28600   2.985   3.990   6.512
 9234SOL    HW128601   3.052   3.918   6.530
 9234SOL    HW228602   2.985   4.056   6.587
 9235SOL     OW28603   2.189   2.304   3.587
 9235SOL    HW128604   2.140   2.322   3.501
 9235SOL    HW228605   2.278   2.350   3.584
 9236SOL     OW28606   1.845   4.205   6.508
 9236SOL    HW128607   1.923   4.158   6.465
 9236SOL    HW228608   1.879   4.282   6.562
 9237SOL     OW28609   6.996   5.246   3.814
 9237SOL    HW128610   0.026   5.333   3.833
 9237SOL    HW228611   6.937   5.256   3.735
 9238SOL     OW28612   1.597   2.286   5.468
 9238SOL    HW128613   1.585   2.279   5.369
 9238SOL    HW228614   1.688   2.321   5.488
 9239SOL     OW28615   1.947   5.975   6.354
 9239SOL    HW128616   1.870   6.016   6.304
 9239SOL    HW228617   1.916   5.894   6.403
 9240SOL     OW28618   3.895   1.536   4.770
 9240SOL    HW128619   3.991   1.508   4.771
 9240SOL    HW228620   3.843   1.481   4.835
 9241SOL     OW28621   6.083   6.577   0.354
 9241SOL    HW128622   6.169   6.627   0.364
 9241SOL    HW228623   6.056   6.576   0.258
 9242SOL     OW28624   2.350   2.655   0.019
 9242SOL    HW128625   2.390   2.675   6.946
 9242SOL    HW228626   2.386   2.568   0.053
 9243SOL     OW28627   2.310   0.647   0.182
 9243SOL    HW128628   2.247   0.570   0.176
 9243SOL    HW228629   2.362   0.654   0.097
 9244SOL     OW28630   2.478   6.403   0.108
 9244SOL    HW128631   2.431   6.458   0.039
 9244SOL    HW228632   2.571   6.438   0.120
 9245SOL     OW28633   0.681   4.246   2.626
 9245SOL    HW128634   0.696   4.149   2.608
 9245SOL    HW228635   0.589   4.259   2.664
 9246SOL     OW28636   5.110   0.340   6.932
 9246SOL    HW128637   5.197   0.322   6.979
 9246SOL    HW228638   5.060   0.412   6.982
 9247SOL     OW28639   3.108   6.648   2.726
 9247SOL    HW128640   3.126   6.625   2.630
 9247SOL    HW228641   3.176   6.603   2.783
 9248SOL     OW28642   2.931   0.316   6.884
 9248SOL    HW128643   2.861   0.347   6.819
 9248SOL    HW228644   2.886   0.282   6.967
 9249SOL     OW28645   3.840   1.083   0.741
 9249SOL    HW128646   3.839   1.162   0.802
 9249SOL    HW228647   3.917   1.023   0.764
 9250SOL     OW28648   0.571   3.501   2.235
 9250SOL    HW128649   0.624   3.585   2.243
 9250SOL    HW228650   0.556   3.480   2.138
 9251SOL     OW28651   4.082   1.992   1.015
 9251SOL    HW128652   4.082   2.084   1.056
 9251SOL    HW228653   4.175   1.955   1.017
 9252SOL     OW28654   5.539   1.660   4.580
 9252SOL    HW128655   5.614   1.714   4.619
 9252SOL    HW228656   5.543   1.665   4.480
 9253SOL     OW28657   2.466   5.009   3.871
 9253SOL    HW128658   2.430   4.938   3.810
 9253SOL    HW228659   2.563   4.992   3.888
 9254SOL     OW28660   6.819   6.344   2.495
 9254SOL    HW128661   6.817   6.391   2.583
 9254SOL    HW228662   6.913   6.339   2.462
 9255SOL     OW28663   6.652   3.416   0.961
 9255SOL    HW128664   6.682   3.433   1.055
 9255SOL    HW228665   6.714   3.460   0.897
 9256SOL     OW28666   2.236   6.292   1.431
 9256SOL    HW128667   2.246   6.377   1.484
 9256SOL    HW228668   2.200   6.314   1.341
 9257SOL     OW28669   6.050   6.037   4.991
 9257SOL    HW128670   6.049   5.952   5.042
 9257SOL    HW228671   6.006   6.109   5.044
 9258SOL     OW28672   5.264   4.055   2.699
 9258SOL    HW128673   5.304   4.013   2.781
 9258SOL    HW228674   5.286   4.153   2.698
 9259SOL     OW28675   0.788   2.775   6.676
 9259SOL    HW128676   0.880   2.741   6.695
 9259SOL    HW228677   0.728   2.755   6.754
 9260SOL     OW28678   4.924   4.398   4.922
 9260SOL    HW128679   4.842   4.342   4.911
 9260SOL    HW228680   4.991   4.374   4.851
 9261SOL     OW28681   1.751   3.228   1.302
 9261SOL    HW128682   1.850   3.218   1.312
 9261SOL    HW228683   1.731   3.295   1.231
 9262SOL     OW28684   0.458   6.478   5.915
 9262SOL    HW128685   0.483   6.502   5.821
 9262SOL    HW228686   0.536   6.494   5.975
 9263SOL     OW28687   2.643   4.594   2.871
 9263SOL    HW128688   2.710   4.665   2.890
 9263SOL    HW228689   2.634   4.582   2.772
 9264SOL     OW28690   5.077   3.486   5.525
 9264SOL    HW128691   5.172   3.473   5.496
 9264SOL    HW228692   5.074   3.552   5.600
 9265SOL     OW28693   4.786   0.228   2.110
 9265SOL    HW128694   4.839   0.176   2.177
 9265SOL    HW228695   4.690   0.231   2.137
 9266SOL     OW28696   0.164   4.468   1.457
 9266SOL    HW128697   0.234   4.498   1.392
 9266SOL    HW228698   0.129   4.379   1.429
 9267SOL     OW28699   0.008   0.971   3.406
 9267SOL    HW128700   6.946   1.027   3.379
 9267SOL    HW228701   0.006   0.885   3.355
 9268SOL     OW28702   0.439   0.536   0.927
 9268SOL    HW128703   0.343   0.530   0.955
 9268SOL    HW228704   0.493   0.469   0.978
 9269SOL     OW28705   3.055   6.482   1.008
 9269SOL    HW128706   3.013   6.572   1.016
 9269SOL    HW228707   3.147   6.492   0.971
 9270SOL     OW28708   2.345   1.101   5.089
 9270SOL    HW128709   2.442   1.123   5.077
 9270SOL    HW228710   2.306   1.073   5.001
 9271SOL     OW28711   1.604   4.608   5.427
 9271SOL    HW128712   1.530   4.569   5.482
 9271SOL    HW228713   1.667   4.658   5.487
 9272SOL     OW28714   6.731   6.724   5.763
 9272SOL    HW128715   6.736   6.641   5.819
 9272SOL    HW228716   6.712   6.698   5.668
 9273SOL     OW28717   6.412   3.550   3.588
 9273SOL    HW128718   6.437   3.511   3.676
 9273SOL    HW228719   6.493   3.590   3.544
 9274SOL     OW28720   0.020   3.259   0.332
 9274SOL    HW128721   6.988   3.208   0.261
 9274SOL    HW228722   6.971   3.305   0.391
 9275SOL     OW28723   4.642   1.849   0.508
 9275SOL    HW128724   4.559   1.879   0.555
 9275SOL    HW228725   4.655   1.751   0.523
 9276SOL     OW28726   1.695   4.367   0.191
 9276SOL    HW128727   1.792   4.389   0.198
 9276SOL    HW228728   1.683   4.268   0.195
 9277SOL     OW28729   3.034   5.856   2.608
 9277SOL    HW128730   3.055   5.857   2.510
 9277SOL    HW228731   2.988   5.941   2.632
 9278SOL     OW28732   1.341   6.888   5.534
 9278SOL    HW128733   1.298   6.808   5.575
 9278SOL    HW228734   1.311   6.970   5.582
 9279SOL     OW28735   3.279   5.938   1.874
 9279SOL    HW128736   3.281   5.992   1.789
 9279SOL    HW228737   3.333   5.985   1.944
 9280SOL     OW28738   1.416   4.827   1.415
 9280SOL    HW128739   1.378   4.853   1.504
 9280SOL    HW228740   1.494   4.766   1.428
 9281SOL     OW28741   1.258   5.624   0.826
 9281SOL    HW128742   1.306   5.606   0.912
 9281SOL    HW228743   1.302   5.701   0.780
 9282SOL     OW28744   1.972   0.306   4.334
 9282SOL    HW128745   1.940   0.212   4.345
 9282SOL    HW228746   1.952   0.337   4.241
 9283SOL     OW28747   5.330   5.238   6.777
 9283SOL    HW128748   5.391   5.239   6.698
 9283SOL    HW228749   5.306   5.144   6.800
 9284SOL     OW28750   4.402   6.433   1.204
 9284SOL    HW128751   4.373   6.397   1.293
 9284SOL    HW228752   4.465   6.369   1.161
 9285SOL     OW28753   6.983   5.946   3.264
 9285SOL    HW128754   0.026   5.891   3.322
 9285SOL    HW228755   0.022   6.003   3.204
 9286SOL     OW28756   5.267   5.991   1.676
 9286SOL    HW128757   5.214   6.023   1.755
 9286SOL    HW228758   5.231   6.034   1.593
 9287SOL     OW28759   4.386   4.515   0.382
 9287SOL    HW128760   4.451   4.445   0.412
 9287SOL    HW228761   4.293   4.484   0.400
 9288SOL     OW28762   4.213   1.198   2.965
 9288SOL    HW128763   4.233   1.100   2.962
 9288SOL    HW228764   4.178   1.222   3.055
 9289SOL     OW28765   4.525   5.996   2.432
 9289SOL    HW128766   4.544   5.898   2.423
 9289SOL    HW228767   4.427   6.009   2.448
 9290SOL     OW28768   5.331   1.042   3.958
 9290SOL    HW128769   5.241   1.039   4.002
 9290SOL    HW228770   5.320   1.059   3.860
 9291SOL     OW28771   0.847   4.526   5.590
 9291SOL    HW128772   0.763   4.474   5.576
 9291SOL    HW228773   0.827   4.610   5.640
 9292SOL     OW28774   1.974   1.831   6.922
 9292SOL    HW128775   1.992   1.847   0.003
 9292SOL    HW228776   2.016   1.905   6.869
 9293SOL     OW28777   4.190   0.836   5.532
 9293SOL    HW128778   4.103   0.861   5.575
 9293SOL    HW228779   4.184   0.743   5.496
 9294SOL     OW28780   5.143   6.264   5.659
 9294SOL    HW128781   5.229   6.218   5.681
 9294SOL    HW228782   5.070   6.225   5.716
 9295SOL     OW28783   6.502   0.267   2.866
 9295SOL    HW128784   6.455   0.179   2.875
 9295SOL    HW228785   6.487   0.304   2.774
 9296SOL     OW28786   2.196   3.356   5.505
 9296SOL    HW128787   2.279   3.366   5.450
 9296SOL    HW228788   2.118   3.335   5.445
 9297SOL     OW28789   6.829   5.426   2.273
 9297SOL    HW128790   6.900   5.455   2.208
 9297SOL    HW228791   6.772   5.504   2.297
 9298SOL     OW28792   0.115   4.763   6.624
 9298SOL    HW128793   0.060   4.693   6.669
 9298SOL    HW228794   0.085   4.773   6.529
 9299SOL     OW28795   3.048   2.180   4.141
 9299SOL    HW128796   3.051   2.150   4.045
 9299SOL    HW228797   3.138   2.170   4.182
 9300SOL     OW28798   2.968   5.867   6.261
 9300SOL    HW128799   3.035   5.792   6.260
 9300SOL    HW228800   2.926   5.873   6.351
 9301SOL     OW28801   0.355   3.436   4.297
 9301SOL    HW128802   0.330   3.510   4.360
 9301SOL    HW228803   0.344   3.348   4.343
 9302SOL     OW28804   3.073   5.826   3.655
 9302SOL    HW128805   3.139   5.789   3.589
 9302SOL    HW228806   3.030   5.750   3.703
 9303SOL     OW28807   2.663   4.658   6.826
 9303SOL    HW128808   2.583   4.635   6.771
 9303SOL    HW228809   2.741   4.601   6.798
 9304SOL     OW28810   5.929   5.784   5.783
 9304SOL    HW128811   5.904   5.796   5.879
 9304SOL    HW228812   5.873   5.845   5.726
 9305SOL     OW28813   1.979   1.566   1.102
 9305SOL    HW128814   2.037   1.504   1.156
 9305SOL    HW228815   1.923   1.622   1.163
 9306SOL     OW28816   6.741   6.168   3.902
 9306SOL    HW128817   6.732   6.267   3.891
 9306SOL    HW228818   6.838   6.143   3.908
 9307SOL     OW28819   2.131   3.831   1.002
 9307SOL    HW128820   2.128   3.930   0.985
 9307SOL    HW228821   2.060   3.807   1.069
 9308SOL     OW28822   2.299   3.502   1.207
 9308SOL    HW128823   2.331   3.592   1.236
 9308SOL    HW228824   2.211   3.511   1.161
 9309SOL     OW28825   4.180   5.367   5.701
 9309SOL    HW128826   4.274   5.335   5.717
 9309SOL    HW228827   4.135   5.306   5.636
 9310SOL     OW28828   6.974   6.765   5.918
 9310SOL    HW128829   6.900   6.757   5.850
 9310SOL    HW228830   0.043   6.731   5.879
 9311SOL     OW28831   5.730   4.540   0.236
 9311SOL    HW128832   5.719   4.558   0.334
 9311SOL    HW228833   5.755   4.445   0.223
 9312SOL     OW28834   5.691   3.325   3.806
 9312SOL    HW128835   5.775   3.275   3.784
 9312SOL    HW228836   5.626   3.264   3.851
 9313SOL     OW28837   0.295   0.804   1.863
 9313SOL    HW128838   0.373   0.815   1.924
 9313SOL    HW228839   0.322   0.824   1.769
 9314SOL     OW28840   4.964   4.940   1.146
 9314SOL    HW128841   4.958   4.923   1.047
 9314SOL    HW228842   4.886   4.898   1.192
 9315SOL     OW28843   6.022   5.524   5.732
 9315SOL    HW128844   5.977   5.575   5.658
 9315SOL    HW228845   6.065   5.588   5.795
 9316SOL     OW28846   5.144   5.938   0.491
 9316SOL    HW128847   5.242   5.923   0.508
 9316SOL    HW228848   5.131   6.023   0.440
 9317SOL     OW28849   3.061   6.606   3.193
 9317SOL    HW128850   3.051   6.636   3.288
 9317SOL    HW228851   3.140   6.652   3.152
 9318SOL     OW28852   3.260   0.158   3.295
 9318SOL    HW128853   3.201   0.195   3.223
 9318SOL    HW228854   3.238   0.061   3.308
 9319SOL     OW28855   3.714   2.315   0.477
 9319SOL    HW128856   3.740   2.274   0.564
 9319SOL    HW228857   3.621   2.351   0.485
 9320SOL     OW28858   6.556   0.024   6.908
 9320SOL    HW128859   6.547   7.004   7.001
 9320SOL    HW228860   6.473   0.074   6.883
 9321SOL     OW28861   0.901   2.125   4.298
 9321SOL    HW128862   0.996   2.125   4.269
 9321SOL    HW228863   0.890   2.187   4.375
 9322SOL     OW28864   5.327   2.937   0.419
 9322SOL    HW128865   5.401   2.980   0.471
 9322SOL    HW228866   5.360   2.850   0.380
 9323SOL     OW28867   0.750   2.364   4.943
 9323SOL    HW128868   0.678   2.304   4.977
 9323SOL    HW228869   0.822   2.309   4.902
 9324SOL     OW28870   0.239   4.288   1.155
 9324SOL    HW128871   0.301   4.361   1.183
 9324SOL    HW228872   0.173   4.271   1.228
 9325SOL     OW28873   1.231   4.419   2.998
 9325SOL    HW128874   1.226   4.322   2.978
 9325SOL    HW228875   1.312   4.438   3.054
 9326SOL     OW28876   4.734   4.838   1.269
 9326SOL    HW128877   4.736   4.740   1.247
 9326SOL    HW228878   4.642   4.864   1.298
 9327SOL     OW28879   2.196   1.499   3.476
 9327SOL    HW128880   2.212   1.520   3.379
 9327SOL    HW228881   2.183   1.584   3.527
 9328SOL     OW28882   1.322   6.913   3.228
 9328SOL    HW128883   1.407   6.951   3.191
 9328SOL    HW228884   1.297   6.831   3.178
 9329SOL     OW28885   1.616   4.914   6.053
 9329SOL    HW128886   1.660   4.937   5.967
 9329SOL    HW228887   1.560   4.990   6.084
 9330SOL     OW28888   0.718   6.579   0.826
 9330SOL    HW128889   0.661   6.602   0.904
 9330SOL    HW228890   0.669   6.598   0.741
 9331SOL     OW28891   1.699   4.975   5.002
 9331SOL    HW128892   1.609   4.970   4.961
 9331SOL    HW228893   1.723   4.887   5.043
 9332SOL     OW28894   6.136   5.352   0.418
 9332SOL    HW128895   6.053   5.323   0.371
 9332SOL    HW228896   6.116   5.432   0.475
 9333SOL     OW28897   1.692   5.164   0.619
 9333SOL    HW128898   1.714   5.095   0.550
 9333SOL    HW228899   1.612   5.135   0.671
 9334SOL     OW28900   6.863   5.344   0.467
 9334SOL    HW128901   6.831   5.255   0.498
 9334SOL    HW228902   6.818   5.416   0.520
 9335SOL     OW28903   0.074   3.898   0.970
 9335SOL    HW128904   0.065   3.799   0.980
 9335SOL    HW228905   0.166   3.920   0.937
 9336SOL     OW28906   4.264   5.498   5.388
 9336SOL    HW128907   4.266   5.543   5.478
 9336SOL    HW228908   4.234   5.403   5.399
 9337SOL     OW28909   3.425   1.656   4.327
 9337SOL    HW128910   3.436   1.625   4.421
 9337SOL    HW228911   3.338   1.706   4.318
 9338SOL     OW28912   4.797   6.710   0.921
 9338SOL    HW128913   4.700   6.700   0.942
 9338SOL    HW228914   4.821   6.807   0.917
 9339SOL     OW28915   6.913   3.655   5.227
 9339SOL    HW128916   6.892   3.681   5.132
 9339SOL    HW228917   6.851   3.582   5.256
 9340SOL     OW28918   1.919   4.804   2.316
 9340SOL    HW128919   1.970   4.858   2.383
 9340SOL    HW228920   1.925   4.848   2.227
 9341SOL     OW28921   6.063   5.533   0.603
 9341SOL    HW128922   6.155   5.535   0.642
 9341SOL    HW228923   5.997   5.508   0.673
 9342SOL     OW28924   2.593   0.353   4.832
 9342SOL    HW128925   2.660   0.348   4.907
 9342SOL    HW228926   2.503   0.328   4.866
 9343SOL     OW28927   5.447   3.653   1.631
 9343SOL    HW128928   5.419   3.702   1.714
 9343SOL    HW228929   5.495   3.570   1.657
 9344SOL     OW28930   5.723   6.895   4.924
 9344SOL    HW128931   5.714   6.804   4.965
 9344SOL    HW228932   5.633   6.935   4.913
 9345SOL     OW28933   6.731   4.400   6.239
 9345SOL    HW128934   6.768   4.472   6.180
 9345SOL    HW228935   6.729   4.432   6.334
 9346SOL     OW28936   5.155   0.548   1.842
 9346SOL    HW128937   5.179   0.473   1.904
 9346SOL    HW228938   5.157   0.634   1.892
 9347SOL     OW28939   4.777   6.960   1.987
 9347SOL    HW128940   4.692   6.919   2.021
 9347SOL    HW228941   4.756   0.005   1.911
 9348SOL     OW28942   2.069   5.452   1.863
 9348SOL    HW128943   1.978   5.493   1.859
 9348SOL    HW228944   2.084   5.394   1.783
 9349SOL     OW28945   6.376   5.443   1.531
 9349SOL    HW128946   6.474   5.448   1.512
 9349SOL    HW228947   6.332   5.527   1.499
 9350SOL     OW28948   6.528   0.610   6.758
 9350SOL    HW128949   6.489   0.581   6.846
 9350SOL    HW228950   6.608   0.553   6.737
 9351SOL     OW28951   4.853   3.847   6.313
 9351SOL    HW128952   4.850   3.891   6.403
 9351SOL    HW228953   4.812   3.908   6.245
 9352SOL     OW28954   2.684   2.128   0.324
 9352SOL    HW128955   2.636   2.189   0.387
 9352SOL    HW228956   2.619   2.088   0.259
 9353SOL     OW28957   1.022   3.086   2.035
 9353SOL    HW128958   0.930   3.068   2.001
 9353SOL    HW228959   1.089   3.037   1.979
 9354SOL     OW28960   5.612   2.226   2.486
 9354SOL    HW128961   5.528   2.176   2.505
 9354SOL    HW228962   5.662   2.182   2.412
 9355SOL     OW28963   6.796   1.558   2.335
 9355SOL    HW128964   6.859   1.601   2.398
 9355SOL    HW228965   6.787   1.461   2.356
 9356SOL     OW28966   4.605   2.566   2.406
 9356SOL    HW128967   4.648   2.657   2.407
 9356SOL    HW228968   4.570   2.547   2.315
 9357SOL     OW28969   2.691   4.743   6.346
 9357SOL    HW128970   2.758   4.730   6.273
 9357SOL    HW228971   2.605   4.700   6.319
 9358SOL     OW28972   5.133   4.124   2.322
 9358SOL    HW128973   5.199   4.058   2.287
 9358SOL    HW228974   5.042   4.081   2.326
 9359SOL     OW28975   4.785   5.435   6.038
 9359SOL    HW128976   4.729   5.363   6.079
 9359SOL    HW228977   4.773   5.519   6.089
 9360SOL     OW28978   1.172   1.211   5.203
 9360SOL    HW128979   1.210   1.158   5.127
 9360SOL    HW228980   1.104   1.156   5.251
 9361SOL     OW28981   1.837   1.275   2.371
 9361SOL    HW128982   1.800   1.306   2.283
 9361SOL    HW228983   1.934   1.297   2.376
 9362SOL     OW28984   1.529   1.493   2.779
 9362SOL    HW128985   1.551   1.589   2.764
 9362SOL    HW228986   1.551   1.440   2.696
 9363SOL     OW28987   1.278   6.420   1.918
 9363SOL    HW128988   1.273   6.410   2.018
 9363SOL    HW228989   1.373   6.407   1.888
 9364SOL     OW28990   5.474   4.174   0.974
 9364SOL    HW128991   5.566   4.158   1.009
 9364SOL    HW228992   5.445   4.266   0.999
 9365SOL     OW28993   1.814   1.465   3.847
 9365SOL    HW128994   1.898   1.411   3.856
 9365SOL    HW228995   1.804   1.497   3.753
 9366SOL     OW28996   2.606   1.537   1.841
 9366SOL    HW128997   2.607   1.569   1.936
 9366SOL    HW228998   2.633   1.611   1.780
 9367SOL     OW28999   5.844   6.567   3.632
 9367SOL    HW129000   5.936   6.607   3.625
 9367SOL    HW229001   5.780   6.635   3.668
 9368SOL     OW29002   5.297   3.185   0.602
 9368SOL    HW129003   5.387   3.150   0.577
 9368SOL    HW229004   5.231   3.110   0.605
 9369SOL     OW29005   6.993   1.659   5.216
 9369SOL    HW129006   0.073   1.680   5.230
 9369SOL    HW229007   6.980   1.560   5.217
 9370SOL     OW29008   5.522   5.529   2.541
 9370SOL    HW129009   5.507   5.493   2.634
 9370SOL    HW229010   5.493   5.624   2.538
 9371SOL     OW29011   1.669   6.913   0.478
 9371SOL    HW129012   1.723   6.935   0.560
 9371SOL    HW229013   1.582   6.873   0.506
 9372SOL     OW29014   5.605   5.533   0.128
 9372SOL    HW129015   5.705   5.535   0.119
 9372SOL    HW229016   5.568   5.462   0.067
 9373SOL     OW29017   5.264   2.784   4.213
 9373SOL    HW129018   5.198   2.840   4.164
 9373SOL    HW229019   5.315   2.841   4.278
 9374SOL     OW29020   5.249   4.368   6.830
 9374SOL    HW129021   5.211   4.323   6.749
 9374SOL    HW229022   5.255   4.302   6.905
 9375SOL     OW29023   6.456   0.273   4.424
 9375SOL    HW129024   6.442   0.289   4.522
 9375SOL    HW229025   6.370   0.291   4.375
 9376SOL     OW29026   2.570   3.241   1.697
 9376SOL    HW129027   2.633   3.184   1.749
 9376SOL    HW229028   2.539   3.317   1.753
 9377SOL     OW29029   6.213   4.781   3.493
 9377SOL    HW129030   6.133   4.721   3.496
 9377SOL    HW229031   6.186   4.874   3.518
 9378SOL     OW29032   4.088   6.275   1.010
 9378SOL    HW129033   4.021   6.284   0.936
 9378SOL    HW229034   4.041   6.249   1.094
 9379SOL     OW29035   5.142   5.366   5.536
 9379SOL    HW129036   5.063   5.339   5.481
 9379SOL    HW229037   5.202   5.424   5.481
 9380SOL     OW29038   6.208   5.866   5.715
 9380SOL    HW129039   6.208   5.924   5.634
 9380SOL    HW229040   6.115   5.832   5.732
 9381SOL     OW29041   1.176   0.802   6.917
 9381SOL    HW129042   1.182   0.726   6.982
 9381SOL    HW229043   1.263   0.811   6.868
 9382SOL     OW29044   5.455   1.399   2.960
 9382SOL    HW129045   5.380   1.352   2.914
 9382SOL    HW229046   5.502   1.459   2.896
 9383SOL     OW29047   6.498   4.835   6.547
 9383SOL    HW129048   6.516   4.932   6.561
 9383SOL    HW229049   6.491   4.816   6.449
 9384SOL     OW29050   4.108   6.728   2.905
 9384SOL    HW129051   4.023   6.698   2.949
 9384SOL    HW229052   4.110   6.697   2.810
 9385SOL     OW29053   3.821   0.369   3.859
 9385SOL    HW129054   3.895   0.304   3.874
 9385SOL    HW229055   3.788   0.361   3.765
 9386SOL     OW29056   4.026   0.251   5.374
 9386SOL    HW129057   4.015   0.162   5.418
 9386SOL    HW229058   4.117   0.257   5.332
 9387SOL     OW29059   4.851   5.482   0.578
 9387SOL    HW129060   4.795   5.494   0.496
 9387SOL    HW229061   4.934   5.431   0.554
 9388SOL     OW29062   6.471   0.328   1.701
 9388SOL    HW129063   6.567   0.301   1.705
 9388SOL    HW229064   6.418   0.257   1.655
 9389SOL     OW29065   2.905   1.189   0.622
 9389SOL    HW129066   2.899   1.093   0.649
 9389SOL    HW229067   2.992   1.226   0.654
 9390SOL     OW29068   3.641   5.190   1.178
 9390SOL    HW129069   3.721   5.205   1.236
 9390SOL    HW229070   3.635   5.093   1.155
 9391SOL     OW29071   6.007   1.003   3.673
 9391SOL    HW129072   5.934   0.960   3.619
 9391SOL    HW229073   6.095   0.961   3.649
 9392SOL     OW29074   0.847   6.523   4.533
 9392SOL    HW129075   0.924   6.565   4.581
 9392SOL    HW229076   0.882   6.464   4.461
 9393SOL     OW29077   4.013   1.683   5.538
 9393SOL    HW129078   3.939   1.647   5.595
 9393SOL    HW229079   3.989   1.774   5.504
 9394SOL     OW29080   5.845   1.936   1.961
 9394SOL    HW129081   5.871   2.023   2.003
 9394SOL    HW229082   5.924   1.897   1.914
 9395SOL     OW29083   2.011   2.998   6.439
 9395SOL    HW129084   1.975   3.003   6.532
 9395SOL    HW229085   1.976   2.916   6.394
 9396SOL     OW29086   0.049   1.062   6.301
 9396SOL    HW129087   0.131   1.116   6.323
 9396SOL    HW229088   0.077   0.972   6.267
 9397SOL     OW29089   1.968   2.036   0.398
 9397SOL    HW129090   1.957   1.958   0.461
 9397SOL    HW229091   2.059   2.076   0.411
 9398SOL     OW29092   2.205   1.655   1.732
 9398SOL    HW129093   2.201   1.617   1.640
 9398SOL    HW229094   2.114   1.651   1.774
 9399SOL     OW29095   0.300   0.367   6.018
 9399SOL    HW129096   0.270   0.320   6.101
 9399SOL    HW229097   0.368   0.310   5.970
 9400SOL     OW29098   3.700   1.716   3.518
 9400SOL    HW129099   3.712   1.617   3.529
 9400SOL    HW229100   3.781   1.764   3.549
 9401SOL     OW29101   4.593   6.646   3.955
 9401SOL    HW129102   4.652   6.724   3.934
 9401SOL    HW229103   4.508   6.679   3.997
 9402SOL     OW29104   3.048   5.154   6.520
 9402SOL    HW129105   3.133   5.139   6.471
 9402SOL    HW229106   2.971   5.154   6.455
 9403SOL     OW29107   5.706   0.142   4.256
 9403SOL    HW129108   5.668   0.064   4.207
 9403SOL    HW229109   5.658   0.225   4.228
 9404SOL     OW29110   1.397   3.694   5.891
 9404SOL    HW129111   1.331   3.747   5.837
 9404SOL    HW229112   1.440   3.754   5.959
 9405SOL     OW29113   0.545   0.451   1.272
 9405SOL    HW129114   0.458   0.481   1.310
 9405SOL    HW229115   0.577   0.370   1.323
 9406SOL     OW29116   6.814   1.122   5.277
 9406SOL    HW129117   6.828   1.024   5.267
 9406SOL    HW229118   6.737   1.151   5.219
 9407SOL     OW29119   3.767   5.405   2.763
 9407SOL    HW129120   3.814   5.379   2.848
 9407SOL    HW229121   3.735   5.322   2.717
 9408SOL     OW29122   4.038   1.765   6.853
 9408SOL    HW129123   4.095   1.766   6.771
 9408SOL    HW229124   4.064   1.841   6.913
 9409SOL     OW29125   6.087   3.624   3.235
 9409SOL    HW129126   6.063   3.721   3.241
 9409SOL    HW229127   6.113   3.602   3.141
 9410SOL     OW29128   4.419   6.806   1.455
 9410SOL    HW129129   4.402   6.764   1.544
 9410SOL    HW229130   4.515   6.832   1.447
 9411SOL     OW29131   4.869   5.588   2.037
 9411SOL    HW129132   4.776   5.578   2.001
 9411SOL    HW229133   4.895   5.685   2.034
 9412SOL     OW29134   6.176   2.656   3.227
 9412SOL    HW129135   6.256   2.678   3.173
 9412SOL    HW229136   6.124   2.582   3.184
 9413SOL     OW29137   3.927   5.229   3.505
 9413SOL    HW129138   3.936   5.223   3.406
 9413SOL    HW229139   3.840   5.190   3.533
 9414SOL     OW29140   2.290   0.168   2.379
 9414SOL    HW129141   2.257   0.099   2.444
 9414SOL    HW229142   2.389   0.158   2.368
 9415SOL     OW29143   1.720   1.050   2.464
 9415SOL    HW129144   1.782   0.978   2.495
 9415SOL    HW229145   1.772   1.131   2.439
 9416SOL     OW29146   1.661   2.599   1.597
 9416SOL    HW129147   1.572   2.558   1.615
 9416SOL    HW229148   1.692   2.648   1.678
 9417SOL     OW29149   1.575   0.204   4.978
 9417SOL    HW129150   1.553   0.284   5.033
 9417SOL    HW229151   1.527   0.210   4.890
 9418SOL     OW29152   4.514   4.019   1.024
 9418SOL    HW129153   4.530   3.959   1.103
 9418SOL    HW229154   4.416   4.036   1.015
 9419SOL     OW29155   2.779   5.172   3.826
 9419SOL    HW129156   2.744   5.104   3.891
 9419SOL    HW229157   2.725   5.256   3.832
 9420SOL     OW29158   1.912   0.409   3.822
 9420SOL    HW129159   1.875   0.488   3.773
 9420SOL    HW229160   1.942   0.437   3.913
 9421SOL     OW29161   1.829   5.149   4.831
 9421SOL    HW129162   1.797   5.081   4.897
 9421SOL    HW229163   1.927   5.136   4.815
 9422SOL     OW29164   4.496   1.321   2.984
 9422SOL    HW129165   4.527   1.263   2.908
 9422SOL    HW229166   4.396   1.322   2.986
 9423SOL     OW29167   4.415   0.231   4.664
 9423SOL    HW129168   4.465   0.313   4.635
 9423SOL    HW229169   4.474   0.174   4.721
 9424SOL     OW29170   3.878   5.995   3.617
 9424SOL    HW129171   3.839   5.965   3.530
 9424SOL    HW229172   3.896   5.916   3.675
 9425SOL     OW29173   0.786   5.303   3.155
 9425SOL    HW129174   0.705   5.361   3.154
 9425SOL    HW229175   0.861   5.350   3.109
 9426SOL     OW29176   3.702   5.527   0.835
 9426SOL    HW129177   3.731   5.520   0.931
 9426SOL    HW229178   3.766   5.478   0.777
 9427SOL     OW29179   3.258   4.889   4.272
 9427SOL    HW129180   3.211   4.970   4.307
 9427SOL    HW229181   3.286   4.831   4.348
 9428SOL     OW29182   4.871   6.334   2.529
 9428SOL    HW129183   4.835   6.242   2.544
 9428SOL    HW229184   4.795   6.396   2.510
 9429SOL     OW29185   0.801   3.725   2.704
 9429SOL    HW129186   0.838   3.635   2.726
 9429SOL    HW229187   0.745   3.719   2.621
 9430SOL     OW29188   6.161   6.939   1.548
 9430SOL    HW129189   6.203   6.955   1.638
 9430SOL    HW229190   6.065   6.965   1.551
 9431SOL     OW29191   6.547   4.326   6.946
 9431SOL    HW129192   6.637   4.311   6.988
 9431SOL    HW229193   6.476   4.311   7.015
 9432SOL     OW29194   6.567   6.714   4.274
 9432SOL    HW129195   6.515   6.630   4.291
 9432SOL    HW229196   6.504   6.792   4.276
 9433SOL     OW29197   2.619   5.540   3.993
 9433SOL    HW129198   2.581   5.476   3.926
 9433SOL    HW229199   2.564   5.539   4.076
 9434SOL     OW29200   5.699   4.283   3.776
 9434SOL    HW129201   5.603   4.294   3.750
 9434SOL    HW229202   5.757   4.326   3.708
 9435SOL     OW29203   2.461   2.303   5.118
 9435SOL    HW129204   2.500   2.360   5.046
 9435SOL    HW229205   2.525   2.299   5.195
 9436SOL     OW29206   3.268   1.679   5.508
 9436SOL    HW129207   3.243   1.774   5.526
 9436SOL    HW229208   3.362   1.662   5.540
 9437SOL     OW29209   0.166   5.779   4.482
 9437SOL    HW129210   0.225   5.759   4.560
 9437SOL    HW229211   0.070   5.777   4.510
 9438SOL     OW29212   0.633   6.260   1.912
 9438SOL    HW129213   0.651   6.165   1.886
 9438SOL    HW229214   0.720   6.309   1.920
 9439SOL     OW29215   1.518   3.783   0.885
 9439SOL    HW129216   1.588   3.763   0.815
 9439SOL    HW229217   1.557   3.769   0.976
 9440SOL     OW29218   3.449   5.371   4.381
 9440SOL    HW129219   3.462   5.289   4.436
 9440SOL    HW229220   3.461   5.452   4.439
 9441SOL     OW29221   1.767   5.682   5.344
 9441SOL    HW129222   1.738   5.634   5.262
 9441SOL    HW229223   1.691   5.689   5.408
 9442SOL     OW29224   0.864   3.457   0.933
 9442SOL    HW129225   0.936   3.513   0.892
 9442SOL    HW229226   0.886   3.440   1.029
 9443SOL     OW29227   1.235   2.719   1.458
 9443SOL    HW129228   1.276   2.698   1.369
 9443SOL    HW229229   1.178   2.800   1.449
 9444SOL     OW29230   1.336   4.249   5.739
 9444SOL    HW129231   1.361   4.190   5.662
 9444SOL    HW229232   1.287   4.195   5.808
 9445SOL     OW29233   6.219   2.574   1.814
 9445SOL    HW129234   6.182   2.497   1.761
 9445SOL    HW229235   6.149   2.606   1.878
 9446SOL     OW29236   5.877   3.913   6.815
 9446SOL    HW129237   5.940   3.915   6.893
 9446SOL    HW229238   5.792   3.867   6.842
 9447SOL     OW29239   5.641   1.477   1.854
 9447SOL    HW129240   5.599   1.414   1.788
 9447SOL    HW229241   5.570   1.535   1.894
 9448SOL     OW29242   6.451   6.116   0.465
 9448SOL    HW129243   6.393   6.172   0.405
 9448SOL    HW229244   6.499   6.048   0.410
 9449SOL     OW29245   5.899   5.429   5.362
 9449SOL    HW129246   5.941   5.358   5.418
 9449SOL    HW229247   5.963   5.459   5.292
 9450SOL     OW29248   2.289   6.034   3.999
 9450SOL    HW129249   2.382   6.017   3.966
 9450SOL    HW229250   2.245   6.101   3.939
 9451SOL     OW29251   3.761   3.638   5.397
 9451SOL    HW129252   3.728   3.711   5.338
 9451SOL    HW229253   3.789   3.560   5.342
 9452SOL     OW29254   3.014   3.892   0.703
 9452SOL    HW129255   3.038   3.902   0.800
 9452SOL    HW229256   2.991   3.981   0.665
 9453SOL     OW29257   3.190   5.580   1.142
 9453SOL    HW129258   3.258   5.547   1.207
 9453SOL    HW229259   3.098   5.563   1.178
 9454SOL     OW29260   2.169   2.348   5.810
 9454SOL    HW129261   2.232   2.394   5.872
 9454SOL    HW229262   2.220   2.286   5.750
 9455SOL     OW29263   1.971   2.139   2.937
 9455SOL    HW129264   2.044   2.206   2.952
 9455SOL    HW229265   2.011   2.047   2.933
 9456SOL     OW29266   1.183   3.228   0.548
 9456SOL    HW129267   1.167   3.151   0.486
 9456SOL    HW229268   1.095   3.261   0.583
 9457SOL     OW29269   6.560   3.650   6.907
 9457SOL    HW129270   6.476   3.608   6.872
 9457SOL    HW229271   6.617   3.677   6.830
 9458SOL     OW29272   1.102   6.131   4.260
 9458SOL    HW129273   1.110   6.031   4.261
 9458SOL    HW229274   1.005   6.156   4.272
 9459SOL     OW29275   4.724   5.897   1.354
 9459SOL    HW129276   4.766   5.809   1.332
 9459SOL    HW229277   4.632   5.900   1.313
 9460SOL     OW29278   1.074   3.518   5.694
 9460SOL    HW129279   1.152   3.496   5.753
 9460SOL    HW229280   0.993   3.469   5.727
 9461SOL     OW29281   1.713   0.509   2.995
 9461SOL    HW129282   1.737   0.429   3.051
 9461SOL    HW229283   1.615   0.509   2.978
 9462SOL     OW29284   0.479   3.087   3.089
 9462SOL    HW129285   0.416   3.128   3.023
 9462SOL    HW229286   0.493   3.151   3.165
 9463SOL     OW29287   5.587   1.979   6.864
 9463SOL    HW129288   5.587   1.967   6.765
 9463SOL    HW229289   5.681   1.994   6.896
 9464SOL     OW29290   4.291   6.470   5.866
 9464SOL    HW129291   4.204   6.449   5.822
 9464SOL    HW229292   4.365   6.427   5.815
 9465SOL     OW29293   5.330   6.467   4.287
 9465SOL    HW129294   5.236   6.457   4.319
 9465SOL    HW229295   5.377   6.537   4.342
 9466SOL     OW29296   3.482   1.610   0.062
 9466SOL    HW129297   3.528   1.545   0.002
 9466SOL    HW229298   3.480   1.574   0.155
 9467SOL     OW29299   1.664   3.227   2.366
 9467SOL    HW129300   1.716   3.207   2.283
 9467SOL    HW229301   1.584   3.167   2.370
 9468SOL     OW29302   0.766   2.217   5.756
 9468SOL    HW129303   0.753   2.121   5.733
 9468SOL    HW229304   0.706   2.273   5.700
 9469SOL     OW29305   6.661   4.144   2.572
 9469SOL    HW129306   6.700   4.142   2.480
 9469SOL    HW229307   6.591   4.215   2.577
 9470SOL     OW29308   6.773   3.568   0.781
 9470SOL    HW129309   6.783   3.535   0.687
 9470SOL    HW229310   6.849   3.630   0.803
 9471SOL     OW29311   0.367   2.345   5.978
 9471SOL    HW129312   0.438   2.415   5.993
 9471SOL    HW229313   0.293   2.385   5.925
 9472SOL     OW29314   6.630   2.263   5.233
 9472SOL    HW129315   6.624   2.277   5.134
 9472SOL    HW229316   6.620   2.165   5.252
 9473SOL     OW29317   3.172   5.530   4.966
 9473SOL    HW129318   3.172   5.610   4.906
 9473SOL    HW229319   3.219   5.553   5.052
 9474SOL     OW29320   3.460   5.494   3.468
 9474SOL    HW129321   3.529   5.462   3.533
 9474SOL    HW229322   3.451   5.593   3.475
 9475SOL     OW29323   2.086   3.166   1.625
 9475SOL    HW129324   2.129   3.083   1.588
 9475SOL    HW229325   2.124   3.246   1.580
 9476SOL     OW29326   2.523   3.695   5.399
 9476SOL    HW129327   2.482   3.699   5.308
 9476SOL    HW229328   2.603   3.635   5.397
 9477SOL     OW29329   0.842   2.395   0.398
 9477SOL    HW129330   0.788   2.311   0.401
 9477SOL    HW229331   0.892   2.406   0.484
 9478SOL     OW29332   5.366   4.091   5.715
 9478SOL    HW129333   5.292   4.144   5.757
 9478SOL    HW229334   5.431   4.062   5.785
 9479SOL     OW29335   5.781   5.441   4.981
 9479SOL    HW129336   5.858   5.474   5.036
 9479SOL    HW229337   5.814   5.370   4.918
 9480SOL     OW29338   6.202   3.890   6.189
 9480SOL    HW129339   6.136   3.917   6.259
 9480SOL    HW229340   6.274   3.960   6.183
 9481SOL     OW29341   6.907   2.927   2.894
 9481SOL    HW129342   6.866   2.885   2.975
 9481SOL    HW229343   6.835   2.968   2.837
 9482SOL     OW29344   4.463   0.010   2.311
 9482SOL    HW129345   4.422   6.935   2.321
 9482SOL    HW229346   4.472   0.052   2.401
 9483SOL     OW29347   1.222   1.468   0.993
 9483SOL    HW129348   1.154   1.537   0.970
 9483SOL    HW229349   1.299   1.511   1.039
 9484SOL     OW29350   6.195   0.376   3.171
 9484SOL    HW129351   6.160   0.413   3.257
 9484SOL    HW229352   6.294   0.387   3.168
 9485SOL     OW29353   0.843   6.810   1.888
 9485SOL    HW129354   0.786   6.878   1.934
 9485SOL    HW229355   0.784   6.741   1.845
 9486SOL     OW29356   2.548   6.698   2.015
 9486SOL    HW129357   2.497   6.774   2.054
 9486SOL    HW229358   2.599   6.651   2.087
 9487SOL     OW29359   3.391   3.473   3.920
 9487SOL    HW129360   3.474   3.481   3.975
 9487SOL    HW229361   3.323   3.538   3.953
 9488SOL     OW29362   1.468   1.215   1.552
 9488SOL    HW129363   1.399   1.149   1.581
 9488SOL    HW229364   1.552   1.202   1.605
 9489SOL     OW29365   2.840   4.153   0.408
 9489SOL    HW129366   2.902   4.140   0.485
 9489SOL    HW229367   2.756   4.101   0.423
 9490SOL     OW29368   5.042   1.529   6.811
 9490SOL    HW129369   5.030   1.623   6.778
 9490SOL    HW229370   4.961   1.475   6.786
 9491SOL     OW29371   6.578   5.452   6.066
 9491SOL    HW129372   6.585   5.355   6.042
 9491SOL    HW229373   6.611   5.507   5.990
 9492SOL     OW29374   2.236   4.750   1.547
 9492SOL    HW129375   2.184   4.802   1.480
 9492SOL    HW229376   2.317   4.712   1.503
 9493SOL     OW29377   5.336   6.709   2.723
 9493SOL    HW129378   5.409   6.695   2.789
 9493SOL    HW229379   5.279   6.627   2.717
 9494SOL     OW29380   3.464   3.350   6.446
 9494SOL    HW129381   3.373   3.391   6.440
 9494SOL    HW229382   3.456   3.255   6.477
 9495SOL     OW29383   5.466   2.332   4.340
 9495SOL    HW129384   5.412   2.396   4.285
 9495SOL    HW229385   5.455   2.240   4.304
 9496SOL     OW29386   6.409   4.148   0.316
 9496SOL    HW129387   6.468   4.093   0.257
 9496SOL    HW229388   6.426   4.124   0.411
 9497SOL     OW29389   1.001   5.973   5.789
 9497SOL    HW129390   1.051   6.026   5.857
 9497SOL    HW229391   0.953   5.898   5.834
 9498SOL     OW29392   3.912   0.051   6.961
 9498SOL    HW129393   3.994   7.013   6.979
 9498SOL    HW229394   3.939   0.145   6.941
 9499SOL     OW29395   4.433   3.924   5.727
 9499SOL    HW129396   4.493   4.003   5.722
 9499SOL    HW229397   4.338   3.954   5.735
 9500SOL     OW29398   4.981   5.297   1.559
 9500SOL    HW129399   4.972   5.368   1.628
 9500SOL    HW229400   5.004   5.210   1.603
 9501SOL     OW29401   3.386   2.067   4.889
 9501SOL    HW129402   3.347   1.984   4.929
 9501SOL    HW229403   3.322   2.143   4.901
 9502SOL     OW29404   3.467   3.240   5.557
 9502SOL    HW129405   3.432   3.146   5.552
 9502SOL    HW229406   3.563   3.241   5.527
 9503SOL     OW29407   1.213   6.691   1.546
 9503SOL    HW129408   1.146   6.634   1.593
 9503SOL    HW229409   1.302   6.682   1.591
 9504SOL     OW29410   0.587   3.198   0.434
 9504SOL    HW129411   0.518   3.262   0.467
 9504SOL    HW229412   0.660   3.189   0.502
 9505SOL     OW29413   5.139   3.145   2.910
 9505SOL    HW129414   5.043   3.157   2.934
 9505SOL    HW229415   5.183   3.234   2.900
 9506SOL     OW29416   6.843   1.831   1.128
 9506SOL    HW129417   6.780   1.764   1.087
 9506SOL    HW229418   6.826   1.835   1.226
 9507SOL     OW29419   1.407   2.458   4.989
 9507SOL    HW129420   1.319   2.504   5.000
 9507SOL    HW229421   1.477   2.510   5.039
 9508SOL     OW29422   4.873   1.331   6.433
 9508SOL    HW129423   4.880   1.431   6.442
 9508SOL    HW229424   4.860   1.291   6.523
 9509SOL     OW29425   3.300   0.366   6.147
 9509SOL    HW129426   3.247   0.348   6.065
 9509SOL    HW229427   3.396   0.383   6.123
 9510SOL     OW29428   6.442   4.124   2.914
 9510SOL    HW129429   6.388   4.167   2.987
 9510SOL    HW229430   6.386   4.117   2.831
 9511SOL     OW29431   2.403   1.148   1.407
 9511SOL    HW129432   2.473   1.091   1.450
 9511SOL    HW229433   2.442   1.192   1.327
 9512SOL     OW29434   1.242   3.475   5.489
 9512SOL    HW129435   1.201   3.517   5.408
 9512SOL    HW229436   1.182   3.488   5.568
 9513SOL     OW29437   2.322   4.341   4.587
 9513SOL    HW129438   2.316   4.271   4.515
 9513SOL    HW229439   2.294   4.301   4.675
 9514SOL     OW29440   3.017   3.063   6.013
 9514SOL    HW129441   3.011   2.969   6.047
 9514SOL    HW229442   2.964   3.072   5.929
 9515SOL     OW29443   2.203   5.282   5.984
 9515SOL    HW129444   2.129   5.288   6.052
 9515SOL    HW229445   2.172   5.229   5.905
 9516SOL     OW29446   5.537   4.384   5.021
 9516SOL    HW129447   5.495   4.339   5.100
 9516SOL    HW229448   5.473   4.383   4.944
 9517SOL     OW29449   0.867   5.460   2.402
 9517SOL    HW129450   0.833   5.543   2.359
 9517SOL    HW229451   0.837   5.458   2.498
 9518SOL     OW29452   0.575   3.046   5.486
 9518SOL    HW129453   0.673   3.053   5.467
 9518SOL    HW229454   0.562   3.018   5.582
 9519SOL     OW29455   3.039   3.090   3.004
 9519SOL    HW129456   3.083   3.041   3.080
 9519SOL    HW229457   2.954   3.044   2.980
 9520SOL     OW29458   5.452   1.027   6.764
 9520SOL    HW129459   5.446   1.075   6.676
 9520SOL    HW229460   5.388   1.068   6.829
 9521SOL     OW29461   3.603   1.182   1.323
 9521SOL    HW129462   3.670   1.165   1.250
 9521SOL    HW229463   3.628   1.265   1.373
 9522SOL     OW29464   3.586   6.162   1.216
 9522SOL    HW129465   3.664   6.104   1.241
 9522SOL    HW229466   3.602   6.255   1.249
 9523SOL     OW29467   2.312   5.286   4.462
 9523SOL    HW129468   2.248   5.215   4.492
 9523SOL    HW229469   2.384   5.298   4.531
 9524SOL     OW29470   1.948   4.416   0.259
 9524SOL    HW129471   1.996   4.415   0.347
 9524SOL    HW229472   2.006   4.377   0.189
 9525SOL     OW29473   2.318   3.479   6.393
 9525SOL    HW129474   2.234   3.427   6.407
 9525SOL    HW229475   2.359   3.453   6.305
 9526SOL     OW29476   5.431   5.503   6.561
 9526SOL    HW129477   5.459   5.408   6.545
 9526SOL    HW229478   5.487   5.563   6.504
 9527SOL     OW29479   3.978   6.889   4.814
 9527SOL    HW129480   4.021   6.902   4.903
 9527SOL    HW229481   4.047   6.873   4.744
 9528SOL     OW29482   4.891   2.478   0.906
 9528SOL    HW129483   4.957   2.471   0.981
 9528SOL    HW229484   4.940   2.476   0.819
 9529SOL     OW29485   5.645   1.279   1.612
 9529SOL    HW129486   5.600   1.191   1.625
 9529SOL    HW229487   5.619   1.317   1.523
 9530SOL     OW29488   0.990   5.850   3.678
 9530SOL    HW129489   1.000   5.808   3.588
 9530SOL    HW229490   1.015   5.947   3.672
 9531SOL     OW29491   3.336   5.140   1.995
 9531SOL    HW129492   3.250   5.189   2.005
 9531SOL    HW229493   3.363   5.139   1.898
 9532SOL     OW29494   6.807   4.800   3.828
 9532SOL    HW129495   6.864   4.756   3.759
 9532SOL    HW229496   6.865   4.842   3.898
 9533SOL     OW29497   1.513   3.896   3.522
 9533SOL    HW129498   1.598   3.856   3.486
 9533SOL    HW229499   1.442   3.825   3.527
 9534SOL     OW29500   4.425   6.050   4.371
 9534SOL    HW129501   4.450   5.954   4.384
 9534SOL    HW229502   4.507   6.102   4.343
 9535SOL     OW29503   0.034   1.050   4.532
 9535SOL    HW129504   0.105   1.118   4.517
 9535SOL    HW229505   0.062   0.987   4.605
 9536SOL     OW29506   3.424   3.778   5.343
 9536SOL    HW129507   3.477   3.726   5.276
 9536SOL    HW229508   3.452   3.874   5.340
 9537SOL     OW29509   6.804   0.990   3.924
 9537SOL    HW129510   6.819   1.086   3.946
 9537SOL    HW229511   6.864   0.963   3.848
 9538SOL     OW29512   5.506   0.229   4.564
 9538SOL    HW129513   5.467   0.214   4.655
 9538SOL    HW229514   5.475   0.317   4.528
 9539SOL     OW29515   3.746   4.083   2.787
 9539SOL    HW129516   3.743   4.094   2.887
 9539SOL    HW229517   3.826   4.027   2.763
 9540SOL     OW29518   4.278   4.712   3.567
 9540SOL    HW129519   4.321   4.794   3.604
 9540SOL    HW229520   4.235   4.733   3.480
 9541SOL     OW29521   1.595   5.796   5.626
 9541SOL    HW129522   1.497   5.812   5.612
 9541SOL    HW229523   1.645   5.881   5.611
 9542SOL     OW29524   6.265   4.231   3.140
 9542SOL    HW129525   6.261   4.331   3.135
 9542SOL    HW229526   6.173   4.193   3.127
 9543SOL     OW29527   2.567   0.595   5.900
 9543SOL    HW129528   2.506   0.649   5.843
 9543SOL    HW229529   2.527   0.584   5.991
 9544SOL     OW29530   6.293   3.516   4.564
 9544SOL    HW129531   6.216   3.455   4.586
 9544SOL    HW229532   6.328   3.493   4.473
 9545SOL     OW29533   6.538   4.484   2.319
 9545SOL    HW129534   6.559   4.544   2.242
 9545SOL    HW229535   6.442   4.456   2.315
 9546SOL     OW29536   2.901   2.759   1.305
 9546SOL    HW129537   2.821   2.717   1.346
 9546SOL    HW229538   2.959   2.797   1.377
 9547SOL     OW29539   4.579   0.331   3.610
 9547SOL    HW129540   4.578   0.403   3.679
 9547SOL    HW229541   4.648   0.262   3.634
 9548SOL     OW29542   0.896   4.905   6.178
 9548SOL    HW129543   0.964   4.961   6.226
 9548SOL    HW229544   0.939   4.823   6.141
 9549SOL     OW29545   4.018   1.549   1.744
 9549SOL    HW129546   4.043   1.618   1.812
 9549SOL    HW229547   3.966   1.476   1.788
 9550SOL     OW29548   5.974   2.821   1.763
 9550SOL    HW129549   5.973   2.814   1.663
 9550SOL    HW229550   5.937   2.737   1.803
 9551SOL     OW29551   5.851   2.687   6.468
 9551SOL    HW129552   5.864   2.673   6.567
 9551SOL    HW229553   5.938   2.716   6.427
 9552SOL     OW29554   3.124   2.010   0.451
 9552SOL    HW129555   3.049   1.986   0.388
 9552SOL    HW229556   3.086   2.029   0.541
 9553SOL     OW29557   5.748   1.454   0.265
 9553SOL    HW129558   5.728   1.392   0.190
 9553SOL    HW229559   5.665   1.503   0.291
 9554SOL     OW29560   2.957   0.913   4.215
 9554SOL    HW129561   2.940   1.005   4.252
 9554SOL    HW229562   2.871   0.874   4.181
 9555SOL     OW29563   0.542   6.540   3.548
 9555SOL    HW129564   0.594   6.593   3.480
 9555SOL    HW229565   0.519   6.599   3.625
 9556SOL     OW29566   2.441   4.627   6.271
 9556SOL    HW129567   2.376   4.566   6.315
 9556SOL    HW229568   2.412   4.644   6.176
 9557SOL     OW29569   5.794   0.914   1.057
 9557SOL    HW129570   5.853   0.917   0.976
 9557SOL    HW229571   5.768   0.820   1.076
 9558SOL     OW29572   5.050   6.437   6.111
 9558SOL    HW129573   5.002   6.482   6.036
 9558SOL    HW229574   5.118   6.373   6.073
 9559SOL     OW29575   2.363   5.051   6.987
 9559SOL    HW129576   2.282   4.992   6.991
 9559SOL    HW229577   2.437   5.003   6.941
 9560SOL     OW29578   2.731   0.362   2.810
 9560SOL    HW129579   2.721   0.298   2.886
 9560SOL    HW229580   2.751   0.310   2.726
 9561SOL     OW29581   0.286   0.211   0.098
 9561SOL    HW129582   0.322   0.229   0.006
 9561SOL    HW229583   0.345   0.254   0.166
 9562SOL     OW29584   2.172   5.738   3.178
 9562SOL    HW129585   2.239   5.798   3.223
 9562SOL    HW229586   2.211   5.701   3.094
 9563SOL     OW29587   1.197   6.046   6.059
 9563SOL    HW129588   1.180   6.120   5.994
 9563SOL    HW229589   1.255   5.977   6.016
 9564SOL     OW29590   1.687   1.021   0.871
 9564SOL    HW129591   1.661   1.038   0.776
 9564SOL    HW229592   1.766   1.078   0.894
 9565SOL     OW29593   2.586   1.535   4.285
 9565SOL    HW129594   2.513   1.598   4.311
 9565SOL    HW229595   2.664   1.547   4.346
 9566SOL     OW29596   2.967   6.932   0.280
 9566SOL    HW129597   2.984   6.837   0.255
 9566SOL    HW229598   3.053   6.983   0.282
 9567SOL     OW29599   6.999   3.984   1.224
 9567SOL    HW129600   7.009   3.890   1.256
 9567SOL    HW229601   0.012   3.990   1.128
 9568SOL     OW29602   4.443   1.781   6.281
 9568SOL    HW129603   4.506   1.790   6.358
 9568SOL    HW229604   4.426   1.684   6.263
 9569SOL     OW29605   5.942   0.307   1.956
 9569SOL    HW129606   5.937   0.278   2.052
 9569SOL    HW229607   5.938   0.227   1.896
 9570SOL     OW29608   0.481   3.344   1.734
 9570SOL    HW129609   0.503   3.440   1.752
 9570SOL    HW229610   0.486   3.326   1.636
 9571SOL     OW29611   1.462   1.259   0.169
 9571SOL    HW129612   1.424   1.319   0.098
 9571SOL    HW229613   1.399   1.184   0.188
 9572SOL     OW29614   2.259   4.927   4.828
 9572SOL    HW129615   2.221   4.834   4.834
 9572SOL    HW229616   2.346   4.930   4.878
 9573SOL     OW29617   6.037   0.079   4.319
 9573SOL    HW129618   5.956   0.048   4.270
 9573SOL    HW229619   6.062   0.171   4.288
 9574SOL     OW29620   4.346   3.159   0.668
 9574SOL    HW129621   4.415   3.157   0.740
 9574SOL    HW229622   4.280   3.232   0.687
 9575SOL     OW29623   5.437   0.243   1.877
 9575SOL    HW129624   5.512   0.188   1.842
 9575SOL    HW229625   5.445   0.337   1.843
 9576SOL     OW29626   1.123   1.199   6.864
 9576SOL    HW129627   1.206   1.164   6.907
 9576SOL    HW229628   1.136   1.204   6.765
 9577SOL     OW29629   6.064   5.203   3.155
 9577SOL    HW129630   6.083   5.297   3.183
 9577SOL    HW229631   6.037   5.201   3.059
 9578SOL     OW29632   1.831   3.593   2.000
 9578SOL    HW129633   1.823   3.572   1.903
 9578SOL    HW229634   1.744   3.574   2.045
 9579SOL     OW29635   5.863   5.657   2.270
 9579SOL    HW129636   5.918   5.637   2.351
 9579SOL    HW229637   5.862   5.756   2.255
 9580SOL     OW29638   4.651   4.300   3.403
 9580SOL    HW129639   4.664   4.264   3.496
 9580SOL    HW229640   4.553   4.304   3.382
 9581SOL     OW29641   5.303   2.227   6.725
 9581SOL    HW129642   5.378   2.203   6.787
 9581SOL    HW229643   5.309   2.171   6.642
 9582SOL     OW29644   5.321   6.627   4.695
 9582SOL    HW129645   5.412   6.641   4.735
 9582SOL    HW229646   5.261   6.586   4.763
 9583SOL     OW29647   3.628   5.057   1.896
 9583SOL    HW129648   3.622   4.964   1.932
 9583SOL    HW229649   3.710   5.066   1.840
 9584SOL     OW29650   2.490   5.179   4.100
 9584SOL    HW129651   2.412   5.153   4.157
 9584SOL    HW229652   2.484   5.132   4.012
 9585SOL     OW29653   4.505   6.362   0.735
 9585SOL    HW129654   4.486   6.264   0.732
 9585SOL    HW229655   4.472   6.400   0.821
 9586SOL     OW29656   3.551   5.565   2.711
 9586SOL    HW129657   3.627   5.503   2.732
 9586SOL    HW229658   3.583   5.637   2.649
 9587SOL     OW29659   3.804   6.152   1.001
 9587SOL    HW129660   3.736   6.222   1.023
 9587SOL    HW229661   3.809   6.141   0.902
 9588SOL     OW29662   6.369   5.911   0.041
 9588SOL    HW129663   6.436   5.985   0.033
 9588SOL    HW229664   6.415   5.828   0.071
 9589SOL     OW29665   1.744   2.415   6.373
 9589SOL    HW129666   1.717   2.430   6.278
 9589SOL    HW229667   1.672   2.446   6.434
 9590SOL     OW29668   6.505   0.097   0.940
 9590SOL    HW129669   6.477   0.005   0.913
 9590SOL    HW229670   6.590   0.121   0.893
 9591SOL     OW29671   5.249   0.948   0.632
 9591SOL    HW129672   5.176   0.884   0.655
 9591SOL    HW229673   5.221   1.041   0.657
 9592SOL     OW29674   2.082   6.306   5.556
 9592SOL    HW129675   2.131   6.391   5.573
 9592SOL    HW229676   2.070   6.293   5.458
 9593SOL     OW29677   1.954   2.543   4.201
 9593SOL    HW129678   1.931   2.628   4.154
 9593SOL    HW229679   1.941   2.555   4.300
 9594SOL     OW29680   0.317   6.072   3.484
 9594SOL    HW129681   0.255   6.020   3.543
 9594SOL    HW229682   0.276   6.083   3.393
 9595SOL     OW29683   0.305   3.426   3.114
 9595SOL    HW129684   0.333   3.331   3.100
 9595SOL    HW229685   0.350   3.484   3.046
 9596SOL     OW29686   1.239   6.908   0.531
 9596SOL    HW129687   1.322   6.865   0.568
 9596SOL    HW229688   1.202   6.972   0.598
 9597SOL     OW29689   1.281   3.304   1.581
 9597SOL    HW129690   1.190   3.311   1.622
 9597SOL    HW229691   1.350   3.301   1.653
 9598SOL     OW29692   2.293   4.130   4.407
 9598SOL    HW129693   2.270   4.161   4.314
 9598SOL    HW229694   2.378   4.079   4.405
 9599SOL     OW29695   4.529   6.776   4.216
 9599SOL    HW129696   4.611   6.726   4.245
 9599SOL    HW229697   4.541   6.873   4.234
 9600SOL     OW29698   3.661   1.424   1.440
 9600SOL    HW129699   3.593   1.494   1.460
 9600SOL    HW229700   3.753   1.461   1.456
 9601SOL     OW29701   0.982   3.698   0.765
 9601SOL    HW129702   1.047   3.657   0.829
 9601SOL    HW229703   0.933   3.772   0.810
 9602SOL     OW29704   4.332   4.938   5.233
 9602SOL    HW129705   4.286   4.890   5.158
 9602SOL    HW229706   4.380   4.871   5.290
 9603SOL     OW29707   5.138   6.910   5.646
 9603SOL    HW129708   5.180   6.999   5.625
 9603SOL    HW229709   5.059   6.924   5.706
 9604SOL     OW29710   4.879   6.973   0.910
 9604SOL    HW129711   4.852   0.002   0.825
 9604SOL    HW229712   4.964   7.013   0.944
 9605SOL     OW29713   5.497   5.488   1.923
 9605SOL    HW129714   5.501   5.555   1.997
 9605SOL    HW229715   5.402   5.474   1.895
 9606SOL     OW29716   1.277   1.053   0.186
 9606SOL    HW129717   1.243   0.963   0.214
 9606SOL    HW229718   1.345   1.041   0.114
 9607SOL     OW29719   2.115   2.056   6.364
 9607SOL    HW129720   2.040   1.994   6.341
 9607SOL    HW229721   2.082   2.150   6.365
 9608SOL     OW29722   5.914   2.694   4.539
 9608SOL    HW129723   5.945   2.628   4.471
 9608SOL    HW229724   5.892   2.647   4.625
 9609SOL     OW29725   4.748   2.929   7.000
 9609SOL    HW129726   4.692   3.008   0.009
 9609SOL    HW229727   4.844   2.947   0.006
 9610SOL     OW29728   0.766   4.817   2.793
 9610SOL    HW129729   0.695   4.848   2.730
 9610SOL    HW229730   0.739   4.840   2.887
 9611SOL     OW29731   2.513   0.882   0.451
 9611SOL    HW129732   2.529   0.787   0.427
 9611SOL    HW229733   2.487   0.934   0.369
 9612SOL     OW29734   7.004   1.848   4.115
 9612SOL    HW129735   0.011   1.856   4.212
 9612SOL    HW229736   0.011   1.755   4.083
 9613SOL     OW29737   5.879   5.025   3.511
 9613SOL    HW129738   5.859   5.122   3.497
 9613SOL    HW229739   5.954   5.016   3.577
 9614SOL     OW29740   4.622   2.586   3.319
 9614SOL    HW129741   4.676   2.507   3.350
 9614SOL    HW229742   4.604   2.578   3.221
 9615SOL     OW29743   1.435   4.454   1.453
 9615SOL    HW129744   1.447   4.373   1.510
 9615SOL    HW229745   1.337   4.476   1.446
 9616SOL     OW29746   3.898   3.570   6.613
 9616SOL    HW129747   3.827   3.504   6.636
 9616SOL    HW229748   3.984   3.522   6.592
 9617SOL     OW29749   1.938   2.999   2.848
 9617SOL    HW129750   1.905   2.990   2.754
 9617SOL    HW229751   1.950   3.096   2.869
 9618SOL     OW29752   2.320   2.058   0.975
 9618SOL    HW129753   2.222   2.044   0.990
 9618SOL    HW229754   2.371   2.012   1.048
 9619SOL     OW29755   2.345   0.602   6.645
 9619SOL    HW129756   2.391   0.689   6.624
 9619SOL    HW229757   2.268   0.589   6.584
 9620SOL     OW29758   5.592   1.095   5.315
 9620SOL    HW129759   5.643   1.128   5.235
 9620SOL    HW229760   5.530   1.022   5.287
 9621SOL     OW29761   1.775   3.439   3.063
 9621SOL    HW129762   1.775   3.532   3.025
 9621SOL    HW229763   1.787   3.373   2.989
 9622SOL     OW29764   5.263   0.150   0.632
 9622SOL    HW129765   5.296   0.130   0.724
 9622SOL    HW229766   5.299   0.083   0.567
 9623SOL     OW29767   2.411   4.256   6.674
 9623SOL    HW129768   2.447   4.296   6.590
 9623SOL    HW229769   2.311   4.262   6.674
 9624SOL     OW29770   6.376   2.842   3.932
 9624SOL    HW129771   6.357   2.771   3.864
 9624SOL    HW229772   6.299   2.905   3.936
 9625SOL     OW29773   5.769   5.813   1.222
 9625SOL    HW129774   5.705   5.878   1.263
 9625SOL    HW229775   5.774   5.731   1.279
 9626SOL     OW29776   3.706   6.545   0.499
 9626SOL    HW129777   3.701   6.637   0.460
 9626SOL    HW229778   3.697   6.550   0.598
 9627SOL     OW29779   1.344   6.954   6.634
 9627SOL    HW129780   1.400   0.002   6.582
 9627SOL    HW229781   1.247   6.975   6.620
 9628SOL     OW29782   2.857   6.842   2.128
 9628SOL    HW129783   2.948   6.808   2.152
 9628SOL    HW229784   2.797   6.765   2.109
 9629SOL     OW29785   2.221   0.359   1.248
 9629SOL    HW129786   2.274   0.365   1.163
 9629SOL    HW229787   2.256   0.283   1.303
 9630SOL     OW29788   6.633   1.706   6.506
 9630SOL    HW129789   6.679   1.792   6.529
 9630SOL    HW229790   6.649   1.685   6.410
 9631SOL     OW29791   6.675   6.198   0.027
 9631SOL    HW129792   6.714   6.254   6.970
 9631SOL    HW229793   6.707   6.103   0.018
 9632SOL     OW29794   0.552   5.329   2.067
 9632SOL    HW129795   0.552   5.423   2.101
 9632SOL    HW229796   0.602   5.325   1.980
 9633SOL     OW29797   6.878   4.898   6.122
 9633SOL    HW129798   6.846   4.974   6.178
 9633SOL    HW229799   6.978   4.900   6.119
 9634SOL     OW29800   1.118   6.235   5.870
 9634SOL    HW129801   1.197   6.295   5.880
 9634SOL    HW229802   1.055   6.275   5.803
 9635SOL     OW29803   0.119   5.998   5.561
 9635SOL    HW129804   0.068   6.032   5.482
 9635SOL    HW229805   0.217   6.001   5.540
 9636SOL     OW29806   4.186   1.315   0.091
 9636SOL    HW129807   4.090   1.324   0.119
 9636SOL    HW229808   4.202   1.375   0.012
 9637SOL     OW29809   2.046   1.274   6.640
 9637SOL    HW129810   2.091   1.214   6.574
 9637SOL    HW229811   1.947   1.262   6.633
 9638SOL     OW29812   6.759   2.339   6.734
 9638SOL    HW129813   6.719   2.408   6.675
 9638SOL    HW229814   6.812   2.275   6.679
 9639SOL     OW29815   3.864   0.822   2.255
 9639SOL    HW129816   3.833   0.834   2.349
 9639SOL    HW229817   3.894   0.728   2.241
 9640SOL     OW29818   1.193   1.830   2.487
 9640SOL    HW129819   1.176   1.773   2.406
 9640SOL    HW229820   1.211   1.924   2.458
 9641SOL     OW29821   5.839   5.641   6.818
 9641SOL    HW129822   5.742   5.621   6.803
 9641SOL    HW229823   5.849   5.735   6.850
 9642SOL     OW29824   3.679   0.282   3.616
 9642SOL    HW129825   3.656   0.363   3.562
 9642SOL    HW229826   3.605   0.261   3.680
 9643SOL     OW29827   4.287   4.666   2.996
 9643SOL    HW129828   4.327   4.611   3.069
 9643SOL    HW229829   4.325   4.637   2.908
 9644SOL     OW29830   3.261   1.556   0.461
 9644SOL    HW129831   3.175   1.504   0.463
 9644SOL    HW229832   3.255   1.625   0.388
 9645SOL     OW29833   2.756   5.867   5.101
 9645SOL    HW129834   2.669   5.880   5.052
 9645SOL    HW229835   2.785   5.954   5.140
 9646SOL     OW29836   3.676   5.296   4.168
 9646SOL    HW129837   3.774   5.312   4.177
 9646SOL    HW229838   3.626   5.351   4.235
 9647SOL     OW29839   6.610   2.894   5.988
 9647SOL    HW129840   6.697   2.930   6.020
 9647SOL    HW229841   6.580   2.943   5.906
 9648SOL     OW29842   3.997   3.961   0.758
 9648SOL    HW129843   3.946   4.004   0.833
 9648SOL    HW229844   4.071   3.906   0.796
 9649SOL     OW29845   2.259   5.320   2.038
 9649SOL    HW129846   2.224   5.227   2.031
 9649SOL    HW229847   2.219   5.376   1.965
 9650SOL     OW29848   0.889   0.337   1.209
 9650SOL    HW129849   0.841   0.422   1.188
 9650SOL    HW229850   0.907   0.287   1.124
 9651SOL     OW29851   0.691   1.505   6.632
 9651SOL    HW129852   0.649   1.529   6.544
 9651SOL    HW229853   0.619   1.477   6.696
 9652SOL     OW29854   0.811   4.691   1.735
 9652SOL    HW129855   0.711   4.693   1.728
 9652SOL    HW229856   0.851   4.743   1.660
 9653SOL     OW29857   6.066   6.486   4.443
 9653SOL    HW129858   6.059   6.549   4.521
 9653SOL    HW229859   5.980   6.435   4.435
 9654SOL     OW29860   2.166   2.999   2.732
 9654SOL    HW129861   2.149   3.070   2.664
 9654SOL    HW229862   2.085   2.987   2.790
 9655SOL     OW29863   6.145   1.921   6.848
 9655SOL    HW129864   6.160   2.020   6.845
 9655SOL    HW229865   6.227   1.875   6.881
 9656SOL     OW29866   2.539   1.498   3.274
 9656SOL    HW129867   2.573   1.531   3.362
 9656SOL    HW229868   2.601   1.428   3.238
 9657SOL     OW29869   0.151   6.864   4.800
 9657SOL    HW129870   0.239   6.887   4.759
 9657SOL    HW229871   0.140   6.765   4.800
 9658SOL     OW29872   5.600   2.102   3.115
 9658SOL    HW129873   5.518   2.136   3.162
 9658SOL    HW229874   5.575   2.024   3.058
 9659SOL     OW29875   1.223   5.029   6.787
 9659SOL    HW129876   1.198   5.108   6.844
 9659SOL    HW229877   1.313   5.045   6.746
 9660SOL     OW29878   1.235   5.413   0.274
 9660SOL    HW129879   1.187   5.447   0.354
 9660SOL    HW229880   1.196   5.454   0.191
 9661SOL     OW29881   4.209   0.219   0.727
 9661SOL    HW129882   4.131   0.161   0.749
 9661SOL    HW229883   4.255   0.247   0.811
 9662SOL     OW29884   5.414   1.643   4.296
 9662SOL    HW129885   5.319   1.657   4.267
 9662SOL    HW229886   5.461   1.586   4.229
 9663SOL     OW29887   2.240   6.108   3.299
 9663SOL    HW129888   2.272   6.017   3.325
 9663SOL    HW229889   2.140   6.107   3.292
 9664SOL     OW29890   2.237   5.867   1.692
 9664SOL    HW129891   2.297   5.789   1.711
 9664SOL    HW229892   2.257   5.904   1.602
 9665SOL     OW29893   5.244   4.199   3.838
 9665SOL    HW129894   5.324   4.152   3.874
 9665SOL    HW229895   5.199   4.141   3.770
 9666SOL     OW29896   5.426   5.100   4.805
 9666SOL    HW129897   5.446   5.198   4.808
 9666SOL    HW229898   5.327   5.086   4.811
 9667SOL     OW29899   3.096   3.142   3.718
 9667SOL    HW129900   3.169   3.074   3.714
 9667SOL    HW229901   3.077   3.177   3.627
 9668SOL     OW29902   0.327   1.016   5.285
 9668SOL    HW129903   0.237   1.024   5.243
 9668SOL    HW229904   0.337   0.927   5.328
 9669SOL     OW29905   1.551   6.219   6.842
 9669SOL    HW129906   1.480   6.175   6.787
 9669SOL    HW229907   1.535   6.318   6.844
 9670SOL     OW29908   5.668   4.717   6.377
 9670SOL    HW129909   5.677   4.638   6.437
 9670SOL    HW229910   5.675   4.688   6.281
 9671SOL     OW29911   6.791   0.612   0.147
 9671SOL    HW129912   6.741   0.693   0.117
 9671SOL    HW229913   6.887   0.637   0.164
 9672SOL     OW29914   1.479   6.134   5.294
 9672SOL    HW129915   1.479   6.232   5.312
 9672SOL    HW229916   1.390   6.095   5.320
 9673SOL     OW29917   2.313   2.894   6.366
 9673SOL    HW129918   2.246   2.968   6.356
 9673SOL    HW229919   2.285   2.817   6.309
 9674SOL     OW29920   2.694   6.605   2.223
 9674SOL    HW129921   2.712   6.630   2.318
 9674SOL    HW229922   2.731   6.514   2.205
 9675SOL     OW29923   0.085   2.456   2.412
 9675SOL    HW129924   7.003   2.444   2.426
 9675SOL    HW229925   0.116   2.538   2.459
 9676SOL     OW29926   0.256   2.394   4.824
 9676SOL    HW129927   0.240   2.399   4.923
 9676SOL    HW229928   0.304   2.477   4.794
 9677SOL     OW29929   1.503   3.252   5.819
 9677SOL    HW129930   1.549   3.265   5.731
 9677SOL    HW229931   1.460   3.162   5.821
 9678SOL     OW29932   3.394   3.194   3.220
 9678SOL    HW129933   3.327   3.121   3.229
 9678SOL    HW229934   3.377   3.245   3.135
 9679SOL     OW29935   0.643   3.852   1.097
 9679SOL    HW129936   0.687   3.830   1.184
 9679SOL    HW229937   0.545   3.859   1.110
 9680SOL     OW29938   4.773   5.305   3.102
 9680SOL    HW129939   4.868   5.276   3.113
 9680SOL    HW229940   4.740   5.345   3.188
 9681SOL     OW29941   1.059   0.482   4.308
 9681SOL    HW129942   1.135   0.515   4.364
 9681SOL    HW229943   1.094   0.436   4.227
 9682SOL     OW29944   0.611   4.487   2.998
 9682SOL    HW129945   0.516   4.505   3.024
 9682SOL    HW229946   0.646   4.409   3.051
 9683SOL     OW29947   4.903   6.796   5.959
 9683SOL    HW129948   4.992   6.753   5.947
 9683SOL    HW229949   4.836   6.752   5.899
 9684SOL     OW29950   0.957   4.340   3.360
 9684SOL    HW129951   0.990   4.356   3.267
 9684SOL    HW229952   1.034   4.314   3.418
 9685SOL     OW29953   1.865   1.540   6.821
 9685SOL    HW129954   1.918   1.621   6.847
 9685SOL    HW229955   1.826   1.498   6.902
 9686SOL     OW29956   5.345   2.483   1.622
 9686SOL    HW129957   5.253   2.519   1.634
 9686SOL    HW229958   5.402   2.550   1.575
 9687SOL     OW29959   3.619   1.300   4.670
 9687SOL    HW129960   3.632   1.293   4.571
 9687SOL    HW229961   3.522   1.285   4.692
 9688SOL     OW29962   6.087   1.911   3.857
 9688SOL    HW129963   6.182   1.890   3.881
 9688SOL    HW229964   6.032   1.918   3.940
 9689SOL     OW29965   2.115   5.090   5.441
 9689SOL    HW129966   2.208   5.125   5.445
 9689SOL    HW229967   2.116   4.993   5.419
 9690SOL     OW29968   6.164   3.785   0.185
 9690SOL    HW129969   6.236   3.725   0.151
 9690SOL    HW229970   6.171   3.875   0.141
 9691SOL     OW29971   1.619   4.498   0.431
 9691SOL    HW129972   1.650   4.456   0.516
 9691SOL    HW229973   1.666   4.454   0.354
 9692SOL     OW29974   3.389   5.731   0.675
 9692SOL    HW129975   3.330   5.713   0.753
 9692SOL    HW229976   3.417   5.645   0.633
 9693SOL     OW29977   6.069   5.909   1.668
 9693SOL    HW129978   5.978   5.904   1.626
 9693SOL    HW229979   6.120   5.825   1.650
 9694SOL     OW29980   0.988   1.727   1.160
 9694SOL    HW129981   1.017   1.750   1.067
 9694SOL    HW229982   0.899   1.770   1.178
 9695SOL     OW29983   6.624   4.509   0.406
 9695SOL    HW129984   6.679   4.437   0.363
 9695SOL    HW229985   6.528   4.498   0.380
 9696SOL     OW29986   3.894   4.604   0.410
 9696SOL    HW129987   3.796   4.589   0.426
 9696SOL    HW229988   3.914   4.701   0.419
 9697SOL     OW29989   0.747   5.813   5.915
 9697SOL    HW129990   0.740   5.822   6.014
 9697SOL    HW229991   0.694   5.886   5.871
 9698SOL     OW29992   4.613   1.402   5.399
 9698SOL    HW129993   4.560   1.486   5.392
 9698SOL    HW229994   4.705   1.423   5.431
 9699SOL     OW29995   1.848   2.135   6.628
 9699SOL    HW129996   1.748   2.133   6.633
 9699SOL    HW229997   1.881   2.227   6.648
 9700SOL     OW29998   3.969   3.717   3.333
 9700SOL    HW129999   3.884   3.672   3.357
 9700SOL    HW230000   4.031   3.652   3.288
 9701SOL     OW30001   4.425   4.509   4.598
 9701SOL    HW130002   4.345   4.503   4.659
 9701SOL    HW230003   4.508   4.520   4.654
 9702SOL     OW30004   5.550   0.282   0.566
 9702SOL    HW130005   5.510   0.210   0.623
 9702SOL    HW230006   5.563   0.365   0.622
 9703SOL     OW30007   2.731   5.768   3.898
 9703SOL    HW130008   2.821   5.783   3.938
 9703SOL    HW230009   2.696   5.679   3.927
 9704SOL     OW30010   2.278   1.384   3.746
 9704SOL    HW130011   2.189   1.364   3.788
 9704SOL    HW230012   2.265   1.410   3.651
 9705SOL     OW30013   3.735   4.382   0.851
 9705SOL    HW130014   3.797   4.454   0.819
 9705SOL    HW230015   3.667   4.363   0.780
 9706SOL     OW30016   6.858   2.473   3.546
 9706SOL    HW130017   6.852   2.476   3.646
 9706SOL    HW230018   6.813   2.391   3.512
 9707SOL     OW30019   2.602   5.066   2.521
 9707SOL    HW130020   2.514   5.080   2.476
 9707SOL    HW230021   2.673   5.048   2.453
 9708SOL     OW30022   1.739   1.980   2.339
 9708SOL    HW130023   1.799   2.057   2.320
 9708SOL    HW230024   1.791   1.907   2.384
 9709SOL     OW30025   1.263   5.826   3.324
 9709SOL    HW130026   1.223   5.907   3.280
 9709SOL    HW230027   1.326   5.782   3.260
 9710SOL     OW30028   1.109   0.531   3.934
 9710SOL    HW130029   1.034   0.542   3.870
 9710SOL    HW230030   1.115   0.436   3.964
 9711SOL     OW30031   1.164   3.100   6.637
 9711SOL    HW130032   1.229   3.158   6.686
 9711SOL    HW230033   1.078   3.095   6.688
 9712SOL     OW30034   4.979   3.856   4.550
 9712SOL    HW130035   4.944   3.776   4.501
 9712SOL    HW230036   5.072   3.836   4.582
 9713SOL     OW30037   6.762   5.017   2.910
 9713SOL    HW130038   6.738   5.038   2.815
 9713SOL    HW230039   6.703   5.070   2.972
 9714SOL     OW30040   2.247   2.227   2.859
 9714SOL    HW130041   2.237   2.325   2.879
 9714SOL    HW230042   2.309   2.216   2.781
 9715SOL     OW30043   6.101   5.276   5.794
 9715SOL    HW130044   6.062   5.362   5.762
 9715SOL    HW230045   6.199   5.275   5.777
 9716SOL     OW30046   3.556   1.348   6.274
 9716SOL    HW130047   3.615   1.295   6.212
 9716SOL    HW230048   3.574   1.321   6.368
 9717SOL     OW30049   5.473   5.509   3.265
 9717SOL    HW130050   5.381   5.527   3.230
 9717SOL    HW230051   5.525   5.594   3.268
 9718SOL     OW30052   4.716   3.186   1.667
 9718SOL    HW130053   4.680   3.114   1.727
 9718SOL    HW230054   4.783   3.146   1.604
 9719SOL     OW30055   0.457   1.071   0.464
 9719SOL    HW130056   0.437   1.041   0.370
 9719SOL    HW230057   0.384   1.131   0.496
 9720SOL     OW30058   0.813   0.494   0.627
 9720SOL    HW130059   0.779   0.466   0.717
 9720SOL    HW230060   0.853   0.586   0.633
 9721SOL     OW30061   6.982   2.887   3.475
 9721SOL    HW130062   0.056   2.879   3.517
 9721SOL    HW230063   6.986   2.954   3.401
 9722SOL     OW30064   0.312   0.163   4.442
 9722SOL    HW130065   0.342   0.073   4.410
 9722SOL    HW230066   0.234   0.152   4.504
 9723SOL     OW30067   0.148   0.664   3.958
 9723SOL    HW130068   0.172   0.624   4.046
 9723SOL    HW230069   0.049   0.672   3.951
 9724SOL     OW30070   3.897   2.460   1.645
 9724SOL    HW130071   3.860   2.404   1.720
 9724SOL    HW230072   3.852   2.549   1.646
 9725SOL     OW30073   3.868   3.339   5.688
 9725SOL    HW130074   3.825   3.319   5.600
 9725SOL    HW230075   3.897   3.253   5.730
 9726SOL     OW30076   5.741   6.009   4.590
 9726SOL    HW130077   5.730   5.910   4.603
 9726SOL    HW230078   5.832   6.027   4.551
 9727SOL     OW30079   1.465   0.281   6.863
 9727SOL    HW130080   1.537   0.318   6.803
 9727SOL    HW230081   1.495   0.193   6.900
 9728SOL     OW30082   3.490   6.154   6.619
 9728SOL    HW130083   3.410   6.118   6.571
 9728SOL    HW230084   3.460   6.195   6.706
 9729SOL     OW30085   3.107   5.263   2.052
 9729SOL    HW130086   3.132   5.359   2.039
 9729SOL    HW230087   3.069   5.251   2.143
 9730SOL     OW30088   5.815   3.482   3.260
 9730SOL    HW130089   5.772   3.391   3.257
 9730SOL    HW230090   5.915   3.471   3.255
 9731SOL     OW30091   5.209   5.046   1.521
 9731SOL    HW130092   5.246   4.956   1.497
 9731SOL    HW230093   5.248   5.115   1.460
 9732SOL     OW30094   4.987   6.264   4.549
 9732SOL    HW130095   4.948   6.357   4.549
 9732SOL    HW230096   5.037   6.250   4.464
 9733SOL     OW30097   5.211   4.841   5.864
 9733SOL    HW130098   5.231   4.775   5.937
 9733SOL    HW230099   5.296   4.868   5.819
 9734SOL     OW30100   6.036   1.837   5.695
 9734SOL    HW130101   5.939   1.859   5.708
 9734SOL    HW230102   6.077   1.817   5.784
 9735SOL     OW30103   3.376   4.605   0.834
 9735SOL    HW130104   3.338   4.554   0.757
 9735SOL    HW230105   3.303   4.632   0.896
 9736SOL     OW30106   3.029   1.929   1.929
 9736SOL    HW130107   3.002   1.972   2.015
 9736SOL    HW230108   2.960   1.948   1.859
 9737SOL     OW30109   4.288   2.031   4.547
 9737SOL    HW130110   4.383   2.016   4.519
 9737SOL    HW230111   4.278   2.123   4.584
 9738SOL     OW30112   2.439   1.116   1.794
 9738SOL    HW130113   2.408   1.205   1.761
 9738SOL    HW230114   2.536   1.123   1.820
 9739SOL     OW30115   5.957   4.252   1.539
 9739SOL    HW130116   5.891   4.200   1.594
 9739SOL    HW230117   5.938   4.350   1.547
 9740SOL     OW30118   6.600   2.945   2.480
 9740SOL    HW130119   6.520   3.000   2.506
 9740SOL    HW230120   6.616   2.954   2.382
 9741SOL     OW30121   3.852   1.818   2.554
 9741SOL    HW130122   3.775   1.755   2.550
 9741SOL    HW230123   3.893   1.815   2.645
 9742SOL     OW30124   4.329   1.511   3.714
 9742SOL    HW130125   4.247   1.553   3.675
 9742SOL    HW230126   4.411   1.552   3.672
 9743SOL     OW30127   1.130   1.501   5.182
 9743SOL    HW130128   1.149   1.406   5.157
 9743SOL    HW230129   1.194   1.561   5.134
 9744SOL     OW30130   2.673   0.366   1.645
 9744SOL    HW130131   2.756   0.416   1.667
 9744SOL    HW230132   2.593   0.416   1.679
 9745SOL     OW30133   0.425   0.629   4.816
 9745SOL    HW130134   0.518   0.646   4.849
 9745SOL    HW230135   0.378   0.716   4.804
 9746SOL     OW30136   6.654   0.615   4.104
 9746SOL    HW130137   6.612   0.695   4.063
 9746SOL    HW230138   6.699   0.641   4.190
 9747SOL     OW30139   0.510   0.196   5.984
 9747SOL    HW130140   0.574   0.177   5.910
 9747SOL    HW230141   0.550   0.166   6.071
 9748SOL     OW30142   1.090   4.131   4.348
 9748SOL    HW130143   1.107   4.105   4.253
 9748SOL    HW230144   1.145   4.212   4.370
 9749SOL     OW30145   0.502   5.115   4.338
 9749SOL    HW130146   0.404   5.109   4.354
 9749SOL    HW230147   0.526   5.066   4.254
 9750SOL     OW30148   2.890   5.445   2.520
 9750SOL    HW130149   2.878   5.516   2.589
 9750SOL    HW230150   2.904   5.488   2.431
 9751SOL     OW30151   1.650   2.494   0.693
 9751SOL    HW130152   1.641   2.486   0.594
 9751SOL    HW230153   1.705   2.418   0.728
 9752SOL     OW30154   4.205   0.472   5.899
 9752SOL    HW130155   4.120   0.510   5.862
 9752SOL    HW230156   4.238   0.531   5.973
 9753SOL     OW30157   6.999   6.640   0.059
 9753SOL    HW130158   6.990   6.737   0.040
 9753SOL    HW230159   0.035   6.627   0.144
 9754SOL     OW30160   0.110   3.123   6.105
 9754SOL    HW130161   0.072   3.151   6.193
 9754SOL    HW230162   0.162   3.198   6.066
 9755SOL     OW30163   3.753   5.472   5.241
 9755SOL    HW130164   3.705   5.490   5.155
 9755SOL    HW230165   3.837   5.526   5.244
 9756SOL     OW30166   5.174   2.659   5.780
 9756SOL    HW130167   5.084   2.700   5.765
 9756SOL    HW230168   5.244   2.730   5.776
 9757SOL     OW30169   6.599   0.896   4.074
 9757SOL    HW130170   6.673   0.923   4.013
 9757SOL    HW230171   6.609   0.943   4.162
 9758SOL     OW30172   3.592   0.317   0.509
 9758SOL    HW130173   3.567   0.413   0.515
 9758SOL    HW230174   3.691   0.309   0.491
 9759SOL     OW30175   2.956   5.828   1.455
 9759SOL    HW130176   3.004   5.755   1.503
 9759SOL    HW230177   2.932   5.901   1.520
 9760SOL     OW30178   5.798   4.786   5.840
 9760SOL    HW130179   5.826   4.694   5.869
 9760SOL    HW230180   5.853   4.815   5.762
 9761SOL     OW30181   5.350   5.200   2.451
 9761SOL    HW130182   5.349   5.150   2.537
 9761SOL    HW230183   5.268   5.256   2.443
 9762SOL     OW30184   3.350   0.464   2.823
 9762SOL    HW130185   3.338   0.556   2.785
 9762SOL    HW230186   3.332   0.466   2.921
 9763SOL     OW30187   2.208   1.992   1.926
 9763SOL    HW130188   2.112   2.001   1.952
 9763SOL    HW230189   2.261   1.956   2.003
 9764SOL     OW30190   0.843   2.649   3.020
 9764SOL    HW130191   0.929   2.647   2.969
 9764SOL    HW230192   0.858   2.616   3.113
 9765SOL     OW30193   0.280   0.541   5.727
 9765SOL    HW130194   0.238   0.536   5.817
 9765SOL    HW230195   0.375   0.571   5.736
 9766SOL     OW30196   2.291   0.840   3.255
 9766SOL    HW130197   2.319   0.936   3.252
 9766SOL    HW230198   2.372   0.781   3.251
 9767SOL     OW30199   4.916   0.439   5.553
 9767SOL    HW130200   4.828   0.484   5.566
 9767SOL    HW230201   4.920   0.402   5.460
 9768SOL     OW30202   4.535   2.442   4.075
 9768SOL    HW130203   4.512   2.351   4.109
 9768SOL    HW230204   4.578   2.495   4.148
 9769SOL     OW30205   0.466   2.099   0.911
 9769SOL    HW130206   0.446   2.047   0.994
 9769SOL    HW230207   0.438   2.194   0.923
 9770SOL     OW30208   0.581   2.945   5.759
 9770SOL    HW130209   0.600   2.856   5.716
 9770SOL    HW230210   0.613   2.943   5.854
 9771SOL     OW30211   2.775   5.694   3.602
 9771SOL    HW130212   2.772   5.714   3.700
 9771SOL    HW230213   2.807   5.774   3.552
 9772SOL     OW30214   6.082   6.893   0.608
 9772SOL    HW130215   6.154   6.865   0.545
 9772SOL    HW230216   6.083   6.993   0.617
 9773SOL     OW30217   4.806   5.397   4.077
 9773SOL    HW130218   4.884   5.452   4.108
 9773SOL    HW230219   4.838   5.305   4.055
 9774SOL     OW30220   6.878   4.849   4.390
 9774SOL    HW130221   6.934   4.814   4.315
 9774SOL    HW230222   6.934   4.859   4.472
 9775SOL     OW30223   2.986   2.041   5.071
 9775SOL    HW130224   3.024   2.120   5.022
 9775SOL    HW230225   2.886   2.050   5.075
 9776SOL     OW30226   0.050   4.698   4.270
 9776SOL    HW130227   0.113   4.730   4.199
 9776SOL    HW230228   6.998   4.638   4.229
 9777SOL     OW30229   5.007   5.907   6.301
 9777SOL    HW130230   5.083   5.971   6.290
 9777SOL    HW230231   4.984   5.868   6.212
 9778SOL     OW30232   3.924   0.567   4.389
 9778SOL    HW130233   3.889   0.647   4.342
 9778SOL    HW230234   3.983   0.596   4.465
 9779SOL     OW30235   3.310   2.200   6.735
 9779SOL    HW130236   3.389   2.178   6.677
 9779SOL    HW230237   3.231   2.220   6.678
 9780SOL     OW30238   2.409   3.911   0.996
 9780SOL    HW130239   2.399   4.010   1.010
 9780SOL    HW230240   2.372   3.862   1.075
 9781SOL     OW30241   1.116   6.668   4.460
 9781SOL    HW130242   1.158   6.696   4.547
 9781SOL    HW230243   1.120   6.569   4.452
 9782SOL     OW30244   5.801   0.068   0.684
 9782SOL    HW130245   5.770   0.132   0.755
 9782SOL    HW230246   5.898   0.083   0.666
 9783SOL     OW30247   6.190   0.111   3.132
 9783SOL    HW130248   6.286   0.084   3.135
 9783SOL    HW230249   6.184   0.211   3.137
 9784SOL     OW30250   5.727   0.064   4.535
 9784SOL    HW130251   5.773   0.076   4.447
 9784SOL    HW230252   5.646   0.122   4.538
 9785SOL     OW30253   1.008   2.530   1.480
 9785SOL    HW130254   1.022   2.564   1.387
 9785SOL    HW230255   0.998   2.608   1.542
 9786SOL     OW30256   2.330   6.740   4.241
 9786SOL    HW130257   2.373   6.664   4.194
 9786SOL    HW230258   2.274   6.706   4.317
 9787SOL     OW30259   5.676   4.293   1.312
 9787SOL    HW130260   5.764   4.340   1.312
 9787SOL    HW230261   5.615   4.337   1.377
 9788SOL     OW30262   6.632   0.573   5.969
 9788SOL    HW130263   6.727   0.603   5.972
 9788SOL    HW230264   6.619   0.510   5.892
 9789SOL     OW30265   1.797   4.791   4.668
 9789SOL    HW130266   1.888   4.795   4.628
 9789SOL    HW230267   1.774   4.881   4.707
 9790SOL     OW30268   6.882   1.234   3.683
 9790SOL    HW130269   6.817   1.264   3.753
 9790SOL    HW230270   6.974   1.227   3.723
 9791SOL     OW30271   1.303   2.605   1.202
 9791SOL    HW130272   1.246   2.674   1.158
 9791SOL    HW230273   1.306   2.522   1.147
 9792SOL     OW30274   3.509   5.592   1.922
 9792SOL    HW130275   3.536   5.523   1.988
 9792SOL    HW230276   3.539   5.682   1.954
 9793SOL     OW30277   5.338   6.405   2.443
 9793SOL    HW130278   5.328   6.430   2.539
 9793SOL    HW230279   5.280   6.325   2.424
 9794SOL     OW30280   3.597   3.352   6.909
 9794SOL    HW130281   3.508   3.383   6.942
 9794SOL    HW230282   3.644   3.303   6.982
 9795SOL     OW30283   1.868   5.300   3.178
 9795SOL    HW130284   1.927   5.381   3.179
 9795SOL    HW230285   1.919   5.223   3.138
 9796SOL     OW30286   3.745   5.149   6.972
 9796SOL    HW130287   3.830   5.194   6.946
 9796SOL    HW230288   3.701   5.110   6.890
 9797SOL     OW30289   5.680   3.263   5.415
 9797SOL    HW130290   5.642   3.202   5.345
 9797SOL    HW230291   5.635   3.245   5.502
 9798SOL     OW30292   2.325   1.578   2.037
 9798SOL    HW130293   2.424   1.583   2.050
 9798SOL    HW230294   2.303   1.606   1.943
 9799SOL     OW30295   3.763   3.693   2.826
 9799SOL    HW130296   3.737   3.715   2.920
 9799SOL    HW230297   3.838   3.752   2.796
 9800SOL     OW30298   4.094   5.813   0.355
 9800SOL    HW130299   4.136   5.722   0.351
 9800SOL    HW230300   4.163   5.880   0.383
 9801SOL     OW30301   5.412   4.893   1.323
 9801SOL    HW130302   5.337   4.831   1.303
 9801SOL    HW230303   5.444   4.935   1.237
 9802SOL     OW30304   0.734   5.700   1.928
 9802SOL    HW130305   0.747   5.798   1.912
 9802SOL    HW230306   0.813   5.650   1.892
 9803SOL     OW30307   5.204   6.752   6.437
 9803SOL    HW130308   5.203   6.689   6.360
 9803SOL    HW230309   5.223   6.845   6.405
 9804SOL     OW30310   4.907   5.139   4.884
 9804SOL    HW130311   5.006   5.147   4.875
 9804SOL    HW230312   4.867   5.113   4.796
 9805SOL     OW30313   3.712   3.783   0.925
 9805SOL    HW130314   3.713   3.848   1.001
 9805SOL    HW230315   3.720   3.833   0.838
 9806SOL     OW30316   6.892   1.736   2.505
 9806SOL    HW130317   6.936   1.741   2.594
 9806SOL    HW230318   6.900   1.824   2.458
 9807SOL     OW30319   2.001   3.232   1.179
 9807SOL    HW130320   2.095   3.248   1.149
 9807SOL    HW230321   1.961   3.156   1.127
 9808SOL     OW30322   1.994   1.867   4.038
 9808SOL    HW130323   2.005   1.913   3.950
 9808SOL    HW230324   1.920   1.800   4.030
 9809SOL     OW30325   0.580   0.890   4.088
 9809SOL    HW130326   0.596   0.948   4.007
 9809SOL    HW230327   0.552   0.947   4.165
 9810SOL     OW30328   4.284   1.622   2.606
 9810SOL    HW130329   4.311   1.643   2.700
 9810SOL    HW230330   4.269   1.707   2.555
 9811SOL     OW30331   1.238   0.277   3.274
 9811SOL    HW130332   1.200   0.237   3.190
 9811SOL    HW230333   1.186   0.359   3.298
 9812SOL     OW30334   5.872   3.481   5.925
 9812SOL    HW130335   5.965   3.446   5.939
 9812SOL    HW230336   5.872   3.549   5.853
 9813SOL     OW30337   6.346   4.406   0.368
 9813SOL    HW130338   6.308   4.383   0.458
 9813SOL    HW230339   6.386   4.324   0.327
 9814SOL     OW30340   6.408   0.764   5.748
 9814SOL    HW130341   6.425   0.832   5.819
 9814SOL    HW230342   6.495   0.729   5.713
 9815SOL     OW30343   6.883   4.644   2.186
 9815SOL    HW130344   6.961   4.581   2.185
 9815SOL    HW230345   6.798   4.593   2.175
 9816SOL     OW30346   6.450   1.608   5.095
 9816SOL    HW130347   6.402   1.648   5.174
 9816SOL    HW230348   6.548   1.621   5.106
 9817SOL     OW30349   2.590   1.068   0.779
 9817SOL    HW130350   2.676   1.037   0.820
 9817SOL    HW230351   2.526   0.992   0.772
 9818SOL     OW30352   0.743   0.001   2.031
 9818SOL    HW130353   0.807   0.057   1.979
 9818SOL    HW230354   0.664   0.056   2.058
 9819SOL     OW30355   5.952   1.630   4.193
 9819SOL    HW130356   5.918   1.576   4.116
 9819SOL    HW230357   5.877   1.681   4.235
 9820SOL     OW30358   3.800   0.844   6.598
 9820SOL    HW130359   3.733   0.858   6.525
 9820SOL    HW230360   3.782   0.909   6.672
 9821SOL     OW30361   4.955   3.687   6.949
 9821SOL    HW130362   4.969   3.620   0.006
 9821SOL    HW230363   5.039   3.696   6.896
 9822SOL     OW30364   3.048   5.213   4.200
 9822SOL    HW130365   3.141   5.249   4.187
 9822SOL    HW230366   3.015   5.175   4.113
 9823SOL     OW30367   4.717   6.506   3.153
 9823SOL    HW130368   4.675   6.487   3.242
 9823SOL    HW230369   4.766   6.593   3.158
 9824SOL     OW30370   1.075   5.603   5.697
 9824SOL    HW130371   1.156   5.547   5.678
 9824SOL    HW230372   0.998   5.568   5.645
 9825SOL     OW30373   1.090   6.465   4.677
 9825SOL    HW130374   1.025   6.446   4.750
 9825SOL    HW230375   1.111   6.381   4.628
 9826SOL     OW30376   2.098   5.722   6.221
 9826SOL    HW130377   2.196   5.718   6.240
 9826SOL    HW230378   2.047   5.715   6.307
 9827SOL     OW30379   1.885   4.780   1.507
 9827SOL    HW130380   1.943   4.742   1.579
 9827SOL    HW230381   1.790   4.753   1.523
 9828SOL     OW30382   4.534   2.123   4.157
 9828SOL    HW130383   4.482   2.049   4.114
 9828SOL    HW230384   4.631   2.111   4.136
 9829SOL     OW30385   5.613   5.011   5.918
 9829SOL    HW130386   5.550   5.011   5.840
 9829SOL    HW230387   5.685   4.943   5.904
 9830SOL     OW30388   6.608   0.917   3.270
 9830SOL    HW130389   6.515   0.942   3.297
 9830SOL    HW230390   6.639   0.839   3.323
 9831SOL     OW30391   0.580   4.843   1.961
 9831SOL    HW130392   0.517   4.916   1.987
 9831SOL    HW230393   0.654   4.880   1.906
 9832SOL     OW30394   4.646   6.367   5.138
 9832SOL    HW130395   4.580   6.295   5.160
 9832SOL    HW230396   4.739   6.331   5.145
 9833SOL     OW30397   4.085   3.368   4.851
 9833SOL    HW130398   4.102   3.314   4.769
 9833SOL    HW230399   4.079   3.308   4.931
 9834SOL     OW30400   3.287   6.149   6.214
 9834SOL    HW130401   3.297   6.237   6.260
 9834SOL    HW230402   3.214   6.155   6.145
 9835SOL     OW30403   3.761   3.409   3.873
 9835SOL    HW130404   3.717   3.425   3.962
 9835SOL    HW230405   3.860   3.424   3.882
 9836SOL     OW30406   6.087   3.080   5.844
 9836SOL    HW130407   6.092   3.167   5.893
 9836SOL    HW230408   6.063   3.007   5.908
 9837SOL     OW30409   6.677   0.674   3.805
 9837SOL    HW130410   6.749   0.672   3.874
 9837SOL    HW230411   6.677   0.763   3.759
 9838SOL     OW30412   0.296   5.905   0.870
 9838SOL    HW130413   0.242   5.837   0.920
 9838SOL    HW230414   0.248   5.992   0.871
 9839SOL     OW30415   3.947   6.628   3.539
 9839SOL    HW130416   3.910   6.536   3.540
 9839SOL    HW230417   3.929   6.673   3.627
 9840SOL     OW30418   6.448   2.197   6.719
 9840SOL    HW130419   6.351   2.181   6.738
 9840SOL    HW230420   6.499   2.200   6.804
 9841SOL     OW30421   0.159   6.079   2.337
 9841SOL    HW130422   0.236   6.015   2.343
 9841SOL    HW230423   0.094   6.060   2.410
 9842SOL     OW30424   3.853   0.348   0.484
 9842SOL    HW130425   3.892   0.440   0.480
 9842SOL    HW230426   3.926   0.282   0.501
 9843SOL     OW30427   0.515   0.089   0.389
 9843SOL    HW130428   0.535   0.186   0.402
 9843SOL    HW230429   0.594   0.034   0.420
 9844SOL     OW30430   5.035   0.770   4.892
 9844SOL    HW130431   5.023   0.790   4.795
 9844SOL    HW230432   5.127   0.797   4.921
 9845SOL     OW30433   0.952   3.443   1.895
 9845SOL    HW130434   0.899   3.369   1.938
 9845SOL    HW230435   1.013   3.483   1.963
 9846SOL     OW30436   5.497   2.117   2.117
 9846SOL    HW130437   5.578   2.124   2.176
 9846SOL    HW230438   5.448   2.033   2.138
 9847SOL     OW30439   3.894   4.299   6.872
 9847SOL    HW130440   3.917   4.361   6.796
 9847SOL    HW230441   3.837   4.348   6.939
 9848SOL     OW30442   2.484   3.951   5.516
 9848SOL    HW130443   2.437   4.035   5.489
 9848SOL    HW230444   2.527   3.910   5.435
 9849SOL     OW30445   1.463   2.089   2.874
 9849SOL    HW130446   1.520   2.062   2.952
 9849SOL    HW230447   1.411   2.009   2.842
 9850SOL     OW30448   1.558   0.038   4.400
 9850SOL    HW130449   1.563   0.100   4.479
 9850SOL    HW230450   1.550   0.092   4.316
 9851SOL     OW30451   3.535   5.182   3.542
 9851SOL    HW130452   3.592   5.265   3.542
 9851SOL    HW230453   3.439   5.207   3.533
 9852SOL     OW30454   2.492   6.959   0.526
 9852SOL    HW130455   2.441   6.887   0.479
 9852SOL    HW230456   2.465   6.962   0.622
 9853SOL     OW30457   0.494   4.205   3.732
 9853SOL    HW130458   0.482   4.304   3.738
 9853SOL    HW230459   0.405   4.161   3.745
 9854SOL     OW30460   6.316   3.781   6.643
 9854SOL    HW130461   6.371   3.790   6.726
 9854SOL    HW230462   6.373   3.795   6.563
 9855SOL     OW30463   1.031   5.967   0.533
 9855SOL    HW130464   1.099   5.999   0.600
 9855SOL    HW230465   0.991   6.045   0.486
 9856SOL     OW30466   5.167   3.985   3.610
 9856SOL    HW130467   5.191   3.895   3.646
 9856SOL    HW230468   5.072   3.984   3.576
 9857SOL     OW30469   5.437   0.273   5.958
 9857SOL    HW130470   5.451   0.182   5.919
 9857SOL    HW230471   5.506   0.290   6.029
 9858SOL     OW30472   0.090   5.174   2.469
 9858SOL    HW130473   0.090   5.267   2.507
 9858SOL    HW230474   0.110   5.108   2.542
 9859SOL     OW30475   0.706   5.037   2.261
 9859SOL    HW130476   0.710   5.059   2.164
 9859SOL    HW230477   0.737   5.116   2.314
 9860SOL     OW30478   1.893   3.396   3.752
 9860SOL    HW130479   1.864   3.474   3.697
 9860SOL    HW230480   1.851   3.312   3.717
 9861SOL     OW30481   3.561   2.095   4.215
 9861SOL    HW130482   3.581   2.000   4.237
 9861SOL    HW230483   3.645   2.149   4.219
 9862SOL     OW30484   1.922   2.961   6.691
 9862SOL    HW130485   1.867   2.997   6.767
 9862SOL    HW230486   1.902   2.864   6.679
 9863SOL     OW30487   3.778   6.374   1.722
 9863SOL    HW130488   3.788   6.370   1.821
 9863SOL    HW230489   3.691   6.331   1.696
 9864SOL     OW30490   3.191   5.926   5.036
 9864SOL    HW130491   3.146   6.016   5.034
 9864SOL    HW230492   3.284   5.937   5.069
 9865SOL     OW30493   2.268   6.209   6.016
 9865SOL    HW130494   2.199   6.176   6.080
 9865SOL    HW230495   2.290   6.304   6.035
 9866SOL     OW30496   6.933   5.392   6.114
 9866SOL    HW130497   6.908   5.485   6.139
 9866SOL    HW230498   0.016   5.383   6.117
 9867SOL     OW30499   4.717   0.963   2.392
 9867SOL    HW130500   4.751   0.987   2.483
 9867SOL    HW230501   4.631   0.912   2.401
 9868SOL     OW30502   2.421   4.419   2.852
 9868SOL    HW130503   2.383   4.511   2.841
 9868SOL    HW230504   2.519   4.426   2.872
 9869SOL     OW30505   5.918   2.516   3.110
 9869SOL    HW130506   5.973   2.556   3.036
 9869SOL    HW230507   5.846   2.459   3.071
 9870SOL     OW30508   1.854   2.715   2.884
 9870SOL    HW130509   1.840   2.812   2.902
 9870SOL    HW230510   1.948   2.689   2.908
 9871SOL     OW30511   5.594   5.768   3.192
 9871SOL    HW130512   5.658   5.840   3.221
 9871SOL    HW230513   5.628   5.725   3.108
 9872SOL     OW30514   1.037   6.436   5.148
 9872SOL    HW130515   1.111   6.503   5.144
 9872SOL    HW230516   1.035   6.393   5.238
 9873SOL     OW30517   0.214   0.439   4.848
 9873SOL    HW130518   0.297   0.482   4.884
 9873SOL    HW230519   0.134   0.483   4.890
 9874SOL     OW30520   6.878   1.849   3.784
 9874SOL    HW130521   6.864   1.759   3.825
 9874SOL    HW230522   6.791   1.897   3.778
 9875SOL     OW30523   6.585   5.965   0.872
 9875SOL    HW130524   6.624   6.036   0.813
 9875SOL    HW230525   6.590   5.995   0.968
 9876SOL     OW30526   0.310   0.186   3.478
 9876SOL    HW130527   0.355   0.198   3.390
 9876SOL    HW230528   0.372   0.139   3.541
 9877SOL     OW30529   1.632   5.964   5.120
 9877SOL    HW130530   1.582   6.043   5.156
 9877SOL    HW230531   1.722   5.960   5.161
 9878SOL     OW30532   4.587   3.162   0.042
 9878SOL    HW130533   4.614   3.239   0.100
 9878SOL    HW230534   4.498   3.181   0.001
 9879SOL     OW30535   5.400   5.909   4.822
 9879SOL    HW130536   5.393   5.831   4.885
 9879SOL    HW230537   5.373   5.992   4.870
 9880SOL     OW30538   2.880   1.262   1.083
 9880SOL    HW130539   2.894   1.293   0.989
 9880SOL    HW230540   2.951   1.197   1.108
 9881SOL     OW30541   6.858   6.852   3.163
 9881SOL    HW130542   6.918   6.835   3.242
 9881SOL    HW230543   6.795   6.775   3.152
 9882SOL     OW30544   3.189   3.315   4.535
 9882SOL    HW130545   3.100   3.348   4.566
 9882SOL    HW230546   3.244   3.393   4.503
 9883SOL     OW30547   1.693   6.058   2.537
 9883SOL    HW130548   1.692   5.964   2.572
 9883SOL    HW230549   1.775   6.071   2.481
 9884SOL     OW30550   3.293   2.514   5.366
 9884SOL    HW130551   3.351   2.461   5.429
 9884SOL    HW230552   3.249   2.451   5.301
 9885SOL     OW30553   5.364   2.252   5.063
 9885SOL    HW130554   5.315   2.178   5.018
 9885SOL    HW230555   5.381   2.228   5.158
 9886SOL     OW30556   2.559   6.281   1.331
 9886SOL    HW130557   2.474   6.308   1.286
 9886SOL    HW230558   2.624   6.356   1.329
 9887SOL     OW30559   4.237   1.080   6.945
 9887SOL    HW130560   4.205   1.132   0.008
 9887SOL    HW230561   4.221   0.982   6.961
 9888SOL     OW30562   6.198   6.537   4.212
 9888SOL    HW130563   6.168   6.508   4.303
 9888SOL    HW230564   6.295   6.516   4.201
 9889SOL     OW30565   6.212   5.938   2.122
 9889SOL    HW130566   6.143   5.969   2.056
 9889SOL    HW230567   6.301   5.977   2.097
 9890SOL     OW30568   1.666   3.005   3.054
 9890SOL    HW130569   1.595   2.972   3.115
 9890SOL    HW230570   1.736   3.053   3.108
 9891SOL     OW30571   3.961   6.593   1.673
 9891SOL    HW130572   4.039   6.572   1.733
 9891SOL    HW230573   3.885   6.532   1.695
 9892SOL     OW30574   1.993   6.128   3.201
 9892SOL    HW130575   1.980   6.125   3.102
 9892SOL    HW230576   1.928   6.067   3.245
 9893SOL     OW30577   5.772   4.311   5.108
 9893SOL    HW130578   5.686   4.327   5.060
 9893SOL    HW230579   5.777   4.372   5.187
 9894SOL     OW30580   4.299   3.715   5.865
 9894SOL    HW130581   4.339   3.774   5.795
 9894SOL    HW230582   4.200   3.711   5.851
 9895SOL     OW30583   5.192   2.034   5.540
 9895SOL    HW130584   5.175   1.935   5.541
 9895SOL    HW230585   5.238   2.060   5.455
 9896SOL     OW30586   4.209   4.035   0.605
 9896SOL    HW130587   4.128   4.024   0.662
 9896SOL    HW230588   4.184   4.029   0.508
 9897SOL     OW30589   1.237   1.544   2.375
 9897SOL    HW130590   1.246   1.624   2.316
 9897SOL    HW230591   1.238   1.572   2.471
 9898SOL     OW30592   0.488   5.362   0.145
 9898SOL    HW130593   0.430   5.427   0.096
 9898SOL    HW230594   0.479   5.377   0.243
 9899SOL     OW30595   4.128   5.673   1.366
 9899SOL    HW130596   4.090   5.636   1.450
 9899SOL    HW230597   4.217   5.631   1.348
 9900SOL     OW30598   2.044   4.817   3.549
 9900SOL    HW130599   1.964   4.860   3.590
 9900SOL    HW230600   2.062   4.859   3.459
 9901SOL     OW30601   3.123   1.801   5.953
 9901SOL    HW130602   3.088   1.709   5.934
 9901SOL    HW230603   3.090   1.864   5.884
 9902SOL     OW30604   4.153   4.050   0.329
 9902SOL    HW130605   4.089   3.978   0.301
 9902SOL    HW230606   4.135   4.133   0.276
 9903SOL     OW30607   2.657   0.974   1.120
 9903SOL    HW130608   2.603   0.898   1.156
 9903SOL    HW230609   2.752   0.946   1.109
 9904SOL     OW30610   6.735   6.346   2.214
 9904SOL    HW130611   6.646   6.392   2.220
 9904SOL    HW230612   6.775   6.339   2.306
 9905SOL     OW30613   2.374   0.029   6.679
 9905SOL    HW130614   2.303   7.012   6.740
 9905SOL    HW230615   2.463   7.016   6.712
 9906SOL     OW30616   3.596   4.002   5.686
 9906SOL    HW130617   3.587   3.920   5.743
 9906SOL    HW230618   3.536   4.074   5.721
 9907SOL     OW30619   0.860   6.563   2.725
 9907SOL    HW130620   0.782   6.522   2.772
 9907SOL    HW230621   0.945   6.533   2.768
 9908SOL     OW30622   6.654   2.966   4.566
 9908SOL    HW130623   6.731   3.029   4.579
 9908SOL    HW230624   6.586   3.010   4.508
 9909SOL     OW30625   2.300   6.188   3.050
 9909SOL    HW130626   2.297   6.145   3.141
 9909SOL    HW230627   2.374   6.255   3.048
 9910SOL     OW30628   0.499   5.555   0.752
 9910SOL    HW130629   0.423   5.532   0.692
 9910SOL    HW230630   0.520   5.652   0.744
 9911SOL     OW30631   3.933   4.826   2.688
 9911SOL    HW130632   3.845   4.787   2.713
 9911SOL    HW230633   3.927   4.866   2.596
 9912SOL     OW30634   5.950   6.685   6.882
 9912SOL    HW130635   5.938   6.779   6.851
 9912SOL    HW230636   6.026   6.643   6.833
 9913SOL     OW30637   5.460   1.868   3.024
 9913SOL    HW130638   5.369   1.906   3.036
 9913SOL    HW230639   5.477   1.851   2.927
 9914SOL     OW30640   1.832   5.117   3.868
 9914SOL    HW130641   1.817   5.157   3.958
 9914SOL    HW230642   1.862   5.187   3.805
 9915SOL     OW30643   6.278   4.614   4.446
 9915SOL    HW130644   6.334   4.610   4.363
 9915SOL    HW230645   6.329   4.662   4.517
 9916SOL     OW30646   1.855   3.326   0.439
 9916SOL    HW130647   1.943   3.282   0.452
 9916SOL    HW230648   1.862   3.423   0.465
 9917SOL     OW30649   1.866   3.521   4.787
 9917SOL    HW130650   1.857   3.493   4.692
 9917SOL    HW230651   1.943   3.584   4.797
 9918SOL     OW30652   1.847   1.703   4.664
 9918SOL    HW130653   1.760   1.752   4.665
 9918SOL    HW230654   1.897   1.722   4.749
 9919SOL     OW30655   1.059   5.534   1.163
 9919SOL    HW130656   1.054   5.452   1.106
 9919SOL    HW230657   1.066   5.615   1.105
 9920SOL     OW30658   3.326   0.646   3.094
 9920SOL    HW130659   3.323   0.643   3.194
 9920SOL    HW230660   3.321   0.741   3.064
 9921SOL     OW30661   5.081   0.734   2.449
 9921SOL    HW130662   5.114   0.691   2.365
 9921SOL    HW230663   5.044   0.824   2.428
 9922SOL     OW30664   5.859   2.802   2.154
 9922SOL    HW130665   5.886   2.848   2.238
 9922SOL    HW230666   5.759   2.794   2.151
 9923SOL     OW30667   5.996   0.014   6.401
 9923SOL    HW130668   5.916   0.066   6.433
 9923SOL    HW230669   6.030   0.055   6.316
 9924SOL     OW30670   5.424   0.865   3.726
 9924SOL    HW130671   5.379   0.784   3.686
 9924SOL    HW230672   5.357   0.938   3.735
 9925SOL     OW30673   3.979   2.202   5.024
 9925SOL    HW130674   4.048   2.274   5.032
 9925SOL    HW230675   3.962   2.181   4.928
 9926SOL     OW30676   2.303   0.962   5.684
 9926SOL    HW130677   2.213   0.997   5.657
 9926SOL    HW230678   2.367   0.973   5.608
 9927SOL     OW30679   1.429   3.441   3.896
 9927SOL    HW130680   1.472   3.521   3.854
 9927SOL    HW230681   1.481   3.413   3.976
 9928SOL     OW30682   6.814   2.739   1.916
 9928SOL    HW130683   6.856   2.824   1.950
 9928SOL    HW230684   6.771   2.757   1.827
 9929SOL     OW30685   0.897   4.992   5.064
 9929SOL    HW130686   0.959   5.039   5.000
 9929SOL    HW230687   0.947   4.918   5.110
 9930SOL     OW30688   7.015   5.085   6.524
 9930SOL    HW130689   0.089   5.104   6.485
 9930SOL    HW230690   0.002   4.999   6.575
 9931SOL     OW30691   2.144   4.361   0.054
 9931SOL    HW130692   2.213   4.292   0.075
 9931SOL    HW230693   2.104   4.343   6.981
 9932SOL     OW30694   2.081   2.076   1.362
 9932SOL    HW130695   2.058   2.132   1.441
 9932SOL    HW230696   2.152   2.009   1.388
 9933SOL     OW30697   1.056   1.358   3.518
 9933SOL    HW130698   1.080   1.295   3.444
 9933SOL    HW230699   1.036   1.448   3.480
 9934SOL     OW30700   5.112   0.628   6.113
 9934SOL    HW130701   5.173   0.691   6.066
 9934SOL    HW230702   5.152   0.536   6.111
 9935SOL     OW30703   2.659   3.225   0.204
 9935SOL    HW130704   2.570   3.182   0.218
 9935SOL    HW230705   2.720   3.202   0.279
 9936SOL     OW30706   4.634   6.165   6.780
 9936SOL    HW130707   4.604   6.153   6.685
 9936SOL    HW230708   4.684   6.084   6.810
 9937SOL     OW30709   1.523   6.792   4.139
 9937SOL    HW130710   1.502   6.695   4.128
 9937SOL    HW230711   1.441   6.846   4.125
 9938SOL     OW30712   0.304   1.629   3.034
 9938SOL    HW130713   0.294   1.530   3.042
 9938SOL    HW230714   0.221   1.668   2.995
 9939SOL     OW30715   2.951   3.759   1.308
 9939SOL    HW130716   3.017   3.696   1.269
 9939SOL    HW230717   2.931   3.731   1.402
 9940SOL     OW30718   0.296   0.786   2.959
 9940SOL    HW130719   0.299   0.861   2.893
 9940SOL    HW230720   0.386   0.742   2.964
 9941SOL     OW30721   6.048   3.252   0.328
 9941SOL    HW130722   6.043   3.238   0.229
 9941SOL    HW230723   5.982   3.321   0.356
 9942SOL     OW30724   5.800   5.561   2.651
 9942SOL    HW130725   5.847   5.473   2.645
 9942SOL    HW230726   5.731   5.567   2.578
 9943SOL     OW30727   1.192   4.617   5.065
 9943SOL    HW130728   1.206   4.526   5.106
 9943SOL    HW230729   1.179   4.607   4.967
 9944SOL     OW30730   2.581   5.762   6.447
 9944SOL    HW130731   2.634   5.705   6.510
 9944SOL    HW230732   2.639   5.836   6.412
 9945SOL     OW30733   6.362   3.201   5.889
 9945SOL    HW130734   6.346   3.290   5.845
 9945SOL    HW230735   6.302   3.132   5.847
 9946SOL     OW30736   5.964   2.053   1.276
 9946SOL    HW130737   6.055   2.093   1.291
 9946SOL    HW230738   5.954   1.971   1.332
 9947SOL     OW30739   0.623   0.385   3.004
 9947SOL    HW130740   0.660   0.432   2.924
 9947SOL    HW230741   0.532   0.422   3.024
 9948SOL     OW30742   5.347   0.979   5.566
 9948SOL    HW130743   5.289   0.982   5.648
 9948SOL    HW230744   5.306   0.918   5.499
 9949SOL     OW30745   6.719   3.066   2.697
 9949SOL    HW130746   6.696   3.014   2.615
 9949SOL    HW230747   6.748   3.158   2.670
 9950SOL     OW30748   5.013   5.137   6.490
 9950SOL    HW130749   5.069   5.217   6.512
 9950SOL    HW230750   5.065   5.077   6.429
 9951SOL     OW30751   0.260   2.286   2.525
 9951SOL    HW130752   0.214   2.219   2.583
 9951SOL    HW230753   0.192   2.340   2.476
 9952SOL     OW30754   1.350   4.898   1.667
 9952SOL    HW130755   1.386   4.989   1.650
 9952SOL    HW230756   1.253   4.904   1.692
 9953SOL     OW30757   5.760   4.808   4.971
 9953SOL    HW130758   5.772   4.743   4.897
 9953SOL    HW230759   5.676   4.786   5.022
 9954SOL     OW30760   4.426   1.608   1.704
 9954SOL    HW130761   4.492   1.683   1.695
 9954SOL    HW230762   4.471   1.530   1.747
 9955SOL     OW30763   6.287   5.140   1.465
 9955SOL    HW130764   6.385   5.121   1.467
 9955SOL    HW230765   6.272   5.238   1.451
 9956SOL     OW30766   1.743   3.765   3.422
 9956SOL    HW130767   1.704   3.734   3.335
 9956SOL    HW230768   1.805   3.842   3.405
 9957SOL     OW30769   5.873   6.824   0.200
 9957SOL    HW130770   5.774   6.841   0.206
 9957SOL    HW230771   5.921   6.912   0.192
 9958SOL     OW30772   6.599   6.030   5.653
 9958SOL    HW130773   6.566   5.939   5.628
 9958SOL    HW230774   6.521   6.086   5.680
 9959SOL     OW30775   5.989   5.223   6.586
 9959SOL    HW130776   5.960   5.233   6.681
 9959SOL    HW230777   6.082   5.184   6.583
 9960SOL     OW30778   6.966   0.107   6.236
 9960SOL    HW130779   0.012   0.031   6.258
 9960SOL    HW230780   6.927   0.092   6.145
 9961SOL     OW30781   3.371   6.642   0.527
 9961SOL    HW130782   3.344   6.664   0.433
 9961SOL    HW230783   3.319   6.562   0.558
 9962SOL     OW30784   3.294   0.451   1.372
 9962SOL    HW130785   3.369   0.470   1.309
 9962SOL    HW230786   3.331   0.418   1.459
 9963SOL     OW30787   1.233   0.165   6.476
 9963SOL    HW130788   1.172   0.235   6.514
 9963SOL    HW230789   1.327   0.197   6.479
 9964SOL     OW30790   4.472   5.289   5.436
 9964SOL    HW130791   4.468   5.247   5.527
 9964SOL    HW230792   4.407   5.243   5.375
 9965SOL     OW30793   1.983   5.299   4.457
 9965SOL    HW130794   1.973   5.293   4.358
 9965SOL    HW230795   2.036   5.220   4.490
 9966SOL     OW30796   2.554   5.339   1.875
 9966SOL    HW130797   2.561   5.389   1.789
 9966SOL    HW230798   2.504   5.394   1.942
 9967SOL     OW30799   0.243   0.646   2.361
 9967SOL    HW130800   0.166   0.707   2.339
 9967SOL    HW230801   0.223   0.597   2.446
 9968SOL     OW30802   4.791   6.156   0.300
 9968SOL    HW130803   4.879   6.164   0.347
 9968SOL    HW230804   4.800   6.095   0.221
 9969SOL     OW30805   0.552   6.127   2.817
 9969SOL    HW130806   0.567   6.032   2.792
 9969SOL    HW230807   0.635   6.163   2.860
 9970SOL     OW30808   6.853   3.315   1.563
 9970SOL    HW130809   6.890   3.260   1.488
 9970SOL    HW230810   6.927   3.341   1.625
 9971SOL     OW30811   6.712   5.123   5.744
 9971SOL    HW130812   6.753   5.033   5.727
 9971SOL    HW230813   6.771   5.174   5.807
 9972SOL     OW30814   2.940   4.452   5.625
 9972SOL    HW130815   2.945   4.551   5.623
 9972SOL    HW230816   2.921   4.417   5.533
 9973SOL     OW30817   2.890   2.253   3.156
 9973SOL    HW130818   2.968   2.257   3.095
 9973SOL    HW230819   2.817   2.312   3.122
 9974SOL     OW30820   0.730   3.051   3.283
 9974SOL    HW130821   0.718   2.956   3.255
 9974SOL    HW230822   0.822   3.082   3.258
 9975SOL     OW30823   1.096   4.350   0.286
 9975SOL    HW130824   1.104   4.325   0.383
 9975SOL    HW230825   1.052   4.440   0.279
 9976SOL     OW30826   4.308   6.041   5.365
 9976SOL    HW130827   4.369   5.985   5.421
 9976SOL    HW230828   4.251   6.098   5.424
 9977SOL     OW30829   4.336   0.233   5.424
 9977SOL    HW130830   4.342   0.152   5.483
 9977SOL    HW230831   4.333   0.315   5.480
 9978SOL     OW30832   6.568   2.539   0.402
 9978SOL    HW130833   6.664   2.564   0.418
 9978SOL    HW230834   6.509   2.594   0.461
 9979SOL     OW30835   3.836   3.874   3.537
 9979SOL    HW130836   3.881   3.866   3.449
 9979SOL    HW230837   3.849   3.791   3.590
 9980SOL     OW30838   0.390   6.938   0.056
 9980SOL    HW130839   0.475   6.990   0.048
 9980SOL    HW230840   0.335   6.949   6.990
 9981SOL     OW30841   5.591   1.548   0.907
 9981SOL    HW130842   5.661   1.477   0.904
 9981SOL    HW230843   5.590   1.597   0.820
 9982SOL     OW30844   2.644   2.252   5.297
 9982SOL    HW130845   2.652   2.163   5.341
 9982SOL    HW230846   2.733   2.278   5.259
 9983SOL     OW30847   6.958   2.904   2.298
 9983SOL    HW130848   6.905   2.835   2.348
 9983SOL    HW230849   6.904   2.988   2.292
 9984SOL     OW30850   0.610   4.414   1.208
 9984SOL    HW130851   0.669   4.412   1.289
 9984SOL    HW230852   0.616   4.327   1.160
 9985SOL     OW30853   4.856   4.216   6.456
 9985SOL    HW130854   4.926   4.238   6.389
 9985SOL    HW230855   4.765   4.228   6.416
 9986SOL     OW30856   5.445   4.574   6.659
 9986SOL    HW130857   5.482   4.484   6.682
 9986SOL    HW230858   5.352   4.564   6.626
 9987SOL     OW30859   4.703   2.621   1.186
 9987SOL    HW130860   4.632   2.673   1.234
 9987SOL    HW230861   4.706   2.650   1.091
 9988SOL     OW30862   5.688   6.346   3.514
 9988SOL    HW130863   5.753   6.411   3.553
 9988SOL    HW230864   5.615   6.328   3.580
 9989SOL     OW30865   5.665   5.648   1.726
 9989SOL    HW130866   5.586   5.693   1.685
 9989SOL    HW230867   5.635   5.593   1.804
 9990SOL     OW30868   0.615   5.870   2.783
 9990SOL    HW130869   0.574   5.805   2.718
 9990SOL    HW230870   0.681   5.821   2.840
 9991SOL     OW30871   1.795   3.464   1.702
 9991SOL    HW130872   1.738   3.489   1.623
 9991SOL    HW230873   1.891   3.465   1.675
 9992SOL     OW30874   2.147   4.864   0.034
 9992SOL    HW130875   2.119   4.788   6.992
 9992SOL    HW230876   2.194   4.829   0.115
 9993SOL     OW30877   3.554   0.018   4.775
 9993SOL    HW130878   3.608   6.958   4.741
 9993SOL    HW230879   3.474   7.001   4.824
 9994SOL     OW30880   5.604   5.015   5.255
 9994SOL    HW130881   5.519   5.010   5.202
 9994SOL    HW230882   5.602   4.947   5.329
 9995SOL     OW30883   4.353   1.272   6.286
 9995SOL    HW130884   4.253   1.263   6.279
 9995SOL    HW230885   4.378   1.290   6.381
 9996SOL     OW30886   2.471   4.650   0.616
 9996SOL    HW130887   2.492   4.554   0.636
 9996SOL    HW230888   2.546   4.708   0.646
 9997SOL     OW30889   6.412   0.531   2.921
 9997SOL    HW130890   6.428   0.432   2.919
 9997SOL    HW230891   6.410   0.563   3.016
 9998SOL     OW30892   5.142   3.711   2.509
 9998SOL    HW130893   5.162   3.640   2.442
 9998SOL    HW230894   5.065   3.681   2.566
 9999SOL     OW30895   0.742   6.664   5.128
 9999SOL    HW130896   0.748   6.679   5.030
 9999SOL    HW230897   0.646   6.672   5.157
10000SOL     OW30898   4.442   3.091   1.118
10000SOL    HW130899   4.477   3.179   1.150
10000SOL    HW230900   4.343   3.097   1.108
10001SOL     OW30901   3.782   6.579   1.453
10001SOL    HW130902   3.747   6.665   1.416
10001SOL    HW230903   3.868   6.596   1.501
10002SOL     OW30904   1.879   6.633   2.379
10002SOL    HW130905   1.794   6.678   2.407
10002SOL    HW230906   1.919   6.683   2.302
10003SOL     OW30907   0.846   1.025   2.112
10003SOL    HW130908   0.852   1.124   2.125
10003SOL    HW230909   0.838   0.981   2.201
10004SOL     OW30910   0.028   3.096   3.280
10004SOL    HW130911   0.033   3.098   3.181
10004SOL    HW230912   0.116   3.123   3.319
10005SOL     OW30913   2.269   5.794   2.674
10005SOL    HW130914   2.316   5.719   2.626
10005SOL    HW230915   2.324   5.821   2.753
10006SOL     OW30916   5.568   2.125   5.742
10006SOL    HW130917   5.468   2.121   5.744
10006SOL    HW230918   5.605   2.090   5.828
10007SOL     OW30919   1.282   5.065   3.704
10007SOL    HW130920   1.220   5.139   3.730
10007SOL    HW230921   1.332   5.033   3.785
10008SOL     OW30922   3.979   0.617   5.812
10008SOL    HW130923   3.921   0.627   5.893
10008SOL    HW230924   4.007   0.707   5.779
10009SOL     OW30925   1.001   4.915   1.951
10009SOL    HW130926   1.085   4.960   1.977
10009SOL    HW230927   1.002   4.820   1.984
10010SOL     OW30928   2.124   4.416   1.005
10010SOL    HW130929   2.197   4.445   0.944
10010SOL    HW230930   2.145   4.443   1.099
10011SOL     OW30931   3.292   3.997   0.500
10011SOL    HW130932   3.238   3.925   0.457
10011SOL    HW230933   3.349   4.042   0.431
10012SOL     OW30934   5.326   2.023   3.481
10012SOL    HW130935   5.313   1.983   3.572
10012SOL    HW230936   5.363   1.953   3.420
10013SOL     OW30937   0.690   6.040   5.169
10013SOL    HW130938   0.676   6.121   5.111
10013SOL    HW230939   0.761   5.983   5.128
10014SOL     OW30940   1.304   0.825   3.086
10014SOL    HW130941   1.373   0.887   3.049
10014SOL    HW230942   1.219   0.875   3.102
10015SOL     OW30943   4.512   0.049   6.727
10015SOL    HW130944   4.437   0.087   6.674
10015SOL    HW230945   4.475   0.003   6.808
10016SOL     OW30946   2.906   1.040   4.545
10016SOL    HW130947   2.940   0.962   4.492
10016SOL    HW230948   2.877   1.009   4.635
10017SOL     OW30949   2.814   1.451   2.830
10017SOL    HW130950   2.885   1.518   2.806
10017SOL    HW230951   2.735   1.498   2.869
10018SOL     OW30952   6.859   4.744   5.382
10018SOL    HW130953   6.922   4.677   5.421
10018SOL    HW230954   6.910   4.823   5.348
10019SOL     OW30955   6.409   1.843   2.785
10019SOL    HW130956   6.455   1.828   2.872
10019SOL    HW230957   6.475   1.832   2.710
10020SOL     OW30958   6.438   0.840   2.596
10020SOL    HW130959   6.514   0.867   2.537
10020SOL    HW230960   6.352   0.846   2.545
10021SOL     OW30961   1.231   3.651   1.735
10021SOL    HW130962   1.178   3.607   1.663
10021SOL    HW230963   1.322   3.609   1.740
10022SOL     OW30964   1.538   6.641   6.156
10022SOL    HW130965   1.465   6.574   6.171
10022SOL    HW230966   1.608   6.601   6.097
10023SOL     OW30967   0.941   1.699   5.721
10023SOL    HW130968   0.848   1.662   5.722
10023SOL    HW230969   0.951   1.762   5.644
10024SOL     OW30970   2.272   4.202   3.639
10024SOL    HW130971   2.273   4.301   3.626
10024SOL    HW230972   2.264   4.158   3.550
10025SOL     OW30973   0.728   2.452   1.120
10025SOL    HW130974   0.816   2.455   1.168
10025SOL    HW230975   0.743   2.468   1.023
10026SOL     OW30976   6.445   0.977   5.137
10026SOL    HW130977   6.448   1.058   5.196
10026SOL    HW230978   6.504   0.906   5.175
10027SOL     OW30979   3.524   0.920   5.489
10027SOL    HW130980   3.491   0.981   5.417
10027SOL    HW230981   3.446   0.872   5.531
10028SOL     OW30982   4.043   6.706   2.272
10028SOL    HW130983   3.971   6.716   2.342
10028SOL    HW230984   4.025   6.624   2.219
10029SOL     OW30985   6.568   4.939   3.742
10029SOL    HW130986   6.563   5.028   3.787
10029SOL    HW230987   6.644   4.887   3.779
10030SOL     OW30988   2.715   6.812   4.104
10030SOL    HW130989   2.689   6.838   4.197
10030SOL    HW230990   2.812   6.786   4.102
10031SOL     OW30991   2.208   6.227   3.828
10031SOL    HW130992   2.165   6.192   3.744
10031SOL    HW230993   2.144   6.287   3.875
10032SOL     OW30994   3.012   6.030   3.893
10032SOL    HW130995   3.025   5.978   3.809
10032SOL    HW230996   3.015   5.969   3.972
10033SOL     OW30997   2.831   1.258   4.833
10033SOL    HW130998   2.837   1.159   4.819
10033SOL    HW230999   2.921   1.294   4.856
10034SOL     OW31000   2.229   1.020   1.928
10034SOL    HW131001   2.321   1.034   1.891
10034SOL    HW231002   2.235   1.011   2.028
10035SOL     OW31003   0.326   3.258   2.232
10035SOL    HW131004   0.362   3.293   2.145
10035SOL    HW231005   0.263   3.182   2.214
10036SOL     OW31006   0.429   0.944   7.009
10036SOL    HW131007   0.501   0.963   6.943
10036SOL    HW231008   0.380   0.861   6.983
10037SOL     OW31009   6.084   0.426   6.053
10037SOL    HW131010   6.174   0.468   6.048
10037SOL    HW231011   6.038   0.454   6.137
10038SOL     OW31012   5.685   6.656   6.768
10038SOL    HW131013   5.657   6.743   6.810
10038SOL    HW231014   5.705   6.671   6.671
10039SOL     OW31015   6.979   5.472   2.058
10039SOL    HW131016   0.037   5.537   2.047
10039SOL    HW231017   7.013   5.379   2.044
10040SOL     OW31018   2.384   0.232   0.305
10040SOL    HW131019   2.296   0.259   0.342
10040SOL    HW231020   2.393   0.132   0.309
10041SOL     OW31021   5.395   5.007   5.072
10041SOL    HW131022   5.311   4.954   5.089
10041SOL    HW231023   5.408   5.019   4.974
10042SOL     OW31024   6.380   0.618   5.342
10042SOL    HW131025   6.332   0.592   5.258
10042SOL    HW231026   6.314   0.658   5.407
10043SOL     OW31027   0.685   0.679   2.614
10043SOL    HW131028   0.776   0.677   2.572
10043SOL    HW231029   0.616   0.693   2.543
10044SOL     OW31030   2.972   2.182   6.926
10044SOL    HW131031   3.071   2.168   6.932
10044SOL    HW231032   2.936   2.205   7.016
10045SOL     OW31033   4.076   6.802   3.976
10045SOL    HW131034   4.164   6.761   4.001
10045SOL    HW231035   4.026   6.827   4.059
10046SOL     OW31036   0.092   2.365   1.478
10046SOL    HW131037   0.171   2.304   1.485
10046SOL    HW231038   0.078   2.412   1.566
10047SOL     OW31039   1.417   2.659   3.256
10047SOL    HW131040   1.332   2.704   3.226
10047SOL    HW231041   1.463   2.619   3.176
10048SOL     OW31042   3.569   2.532   1.686
10048SOL    HW131043   3.539   2.611   1.739
10048SOL    HW231044   3.604   2.462   1.748
10049SOL     OW31045   2.078   5.817   4.435
10049SOL    HW131046   1.999   5.797   4.378
10049SOL    HW231047   2.056   5.798   4.531
10050SOL     OW31048   5.782   1.511   4.730
10050SOL    HW131049   5.738   1.592   4.692
10050SOL    HW231050   5.880   1.513   4.707
10051SOL     OW31051   6.346   2.366   0.686
10051SOL    HW131052   6.394   2.303   0.747
10051SOL    HW231053   6.340   2.326   0.595
10052SOL     OW31054   2.013   5.128   1.044
10052SOL    HW131055   2.076   5.053   1.024
10052SOL    HW231056   2.011   5.192   0.967
10053SOL     OW31057   2.891   6.384   3.145
10053SOL    HW131058   2.955   6.321   3.191
10053SOL    HW231059   2.927   6.477   3.150
10054SOL     OW31060   4.644   5.354   3.648
10054SOL    HW131061   4.582   5.367   3.726
10054SOL    HW231062   4.726   5.307   3.678
10055SOL     OW31063   5.651   2.894   6.744
10055SOL    HW131064   5.580   2.959   6.773
10055SOL    HW231065   5.741   2.937   6.755
10056SOL     OW31066   5.391   4.324   2.739
10056SOL    HW131067   5.377   4.298   2.835
10056SOL    HW231068   5.333   4.403   2.717
10057SOL     OW31069   2.366   2.742   3.337
10057SOL    HW131070   2.338   2.774   3.427
10057SOL    HW231071   2.457   2.700   3.344
10058SOL     OW31072   0.543   4.903   4.138
10058SOL    HW131073   0.578   4.959   4.063
10058SOL    HW231074   0.599   4.820   4.147
10059SOL     OW31075   5.221   0.255   1.602
10059SOL    HW131076   5.136   0.244   1.654
10059SOL    HW231077   5.236   0.352   1.583
10060SOL     OW31078   2.359   2.354   2.168
10060SOL    HW131079   2.404   2.393   2.249
10060SOL    HW231080   2.426   2.303   2.115
10061SOL     OW31081   6.250   1.983   4.930
10061SOL    HW131082   6.261   1.940   4.840
10061SOL    HW231083   6.224   1.914   4.996
10062SOL     OW31084   5.774   6.372   2.900
10062SOL    HW131085   5.678   6.350   2.919
10062SOL    HW231086   5.814   6.299   2.844
10063SOL     OW31087   0.754   2.661   2.080
10063SOL    HW131088   0.676   2.671   2.019
10063SOL    HW231089   0.796   2.750   2.096
10064SOL     OW31090   4.906   5.629   5.485
10064SOL    HW131091   4.822   5.580   5.461
10064SOL    HW231092   4.935   5.602   5.577
10065SOL     OW31093   0.772   6.823   2.691
10065SOL    HW131094   0.830   6.848   2.613
10065SOL    HW231095   0.786   6.726   2.712
10066SOL     OW31096   0.371   0.809   3.470
10066SOL    HW131097   0.454   0.779   3.518
10066SOL    HW231098   0.291   0.776   3.519
10067SOL     OW31099   4.901   6.711   3.668
10067SOL    HW131100   4.931   6.782   3.603
10067SOL    HW231101   4.852   6.754   3.743
10068SOL     OW31102   5.004   3.691   5.355
10068SOL    HW131103   4.906   3.693   5.336
10068SOL    HW231104   5.032   3.598   5.375
10069SOL     OW31105   5.314   1.258   4.210
10069SOL    HW131106   5.361   1.240   4.124
10069SOL    HW231107   5.238   1.321   4.195
10070SOL     OW31108   1.189   0.018   4.531
10070SOL    HW131109   1.260   6.998   4.591
10070SOL    HW231110   1.222   0.016   4.436
10071SOL     OW31111   4.917   5.102   5.399
10071SOL    HW131112   4.982   5.029   5.416
10071SOL    HW231113   4.911   5.161   5.479
10072SOL     OW31114   1.174   6.579   4.114
10072SOL    HW131115   1.175   6.597   4.212
10072SOL    HW231116   1.202   6.484   4.097
10073SOL     OW31117   6.949   5.968   6.461
10073SOL    HW131118   6.920   6.027   6.537
10073SOL    HW231119   6.872   5.955   6.398
10074SOL     OW31120   2.436   0.104   5.468
10074SOL    HW131121   2.399   0.036   5.405
10074SOL    HW231122   2.498   0.164   5.418
10075SOL     OW31123   1.608   2.404   4.117
10075SOL    HW131124   1.545   2.434   4.188
10075SOL    HW231125   1.658   2.323   4.149
10076SOL     OW31126   5.862   0.012   3.852
10076SOL    HW131127   5.958   0.021   3.827
10076SOL    HW231128   5.809   7.000   3.773
10077SOL     OW31129   2.651   1.599   6.834
10077SOL    HW131130   2.583   1.626   6.902
10077SOL    HW231131   2.713   1.531   6.873
10078SOL     OW31132   5.493   5.995   5.587
10078SOL    HW131133   5.397   5.976   5.571
10078SOL    HW231134   5.521   6.074   5.534
10079SOL     OW31135   0.080   2.459   6.343
10079SOL    HW131136   0.117   2.551   6.332
10079SOL    HW231137   6.996   2.463   6.337
10080SOL     OW31138   0.895   2.803   5.304
10080SOL    HW131139   0.836   2.737   5.257
10080SOL    HW231140   0.910   2.773   5.398
10081SOL     OW31141   0.375   1.569   0.317
10081SOL    HW131142   0.444   1.498   0.316
10081SOL    HW231143   0.357   1.597   0.412
10082SOL     OW31144   6.999   0.396   0.534
10082SOL    HW131145   6.935   0.448   0.590
10082SOL    HW231146   0.076   0.412   0.566
10083SOL     OW31147   5.609   1.525   4.141
10083SOL    HW131148   5.678   1.461   4.175
10083SOL    HW231149   5.649   1.581   4.068
10084SOL     OW31150   2.471   0.912   6.935
10084SOL    HW131151   2.444   0.815   6.940
10084SOL    HW231152   2.564   0.918   6.899
10085SOL     OW31153   0.963   5.131   2.695
10085SOL    HW131154   1.046   5.077   2.709
10085SOL    HW231155   0.884   5.079   2.725
10086SOL     OW31156   6.719   3.471   2.029
10086SOL    HW131157   6.651   3.513   1.970
10086SOL    HW231158   6.804   3.523   2.025
10087SOL     OW31159   1.948   0.200   3.320
10087SOL    HW131160   1.929   0.102   3.315
10087SOL    HW231161   2.037   0.215   3.361
10088SOL     OW31162   6.436   0.226   4.744
10088SOL    HW131163   6.507   0.264   4.804
10088SOL    HW231164   6.366   0.294   4.727
10089SOL     OW31165   2.106   2.366   2.077
10089SOL    HW131166   2.205   2.354   2.081
10089SOL    HW231167   2.070   2.380   2.169
10090SOL     OW31168   6.827   5.185   2.398
10090SOL    HW131169   6.798   5.271   2.355
10090SOL    HW231170   6.927   5.184   2.405
10091SOL     OW31171   0.176   1.635   3.727
10091SOL    HW131172   0.274   1.623   3.709
10091SOL    HW231173   0.140   1.706   3.667
10092SOL     OW31174   1.680   2.884   5.205
10092SOL    HW131175   1.777   2.908   5.205
10092SOL    HW231176   1.627   2.960   5.168
10093SOL     OW31177   0.103   5.924   5.945
10093SOL    HW131178   0.080   5.950   6.038
10093SOL    HW231179   0.075   5.996   5.882
10094SOL     OW31180   1.865   1.147   2.021
10094SOL    HW131181   1.824   1.073   1.969
10094SOL    HW231182   1.891   1.114   2.112
10095SOL     OW31183   0.094   2.121   5.167
10095SOL    HW131184   0.150   2.193   5.127
10095SOL    HW231185   0.084   2.136   5.265
10096SOL     OW31186   0.104   5.711   2.520
10096SOL    HW131187   0.158   5.766   2.583
10096SOL    HW231188   0.008   5.737   2.528
10097SOL     OW31189   1.093   2.267   5.817
10097SOL    HW131190   1.192   2.252   5.821
10097SOL    HW231191   1.063   2.319   5.897
10098SOL     OW31192   3.647   4.984   6.232
10098SOL    HW131193   3.724   5.047   6.230
10098SOL    HW231194   3.590   4.999   6.151
10099SOL     OW31195   6.714   4.961   4.822
10099SOL    HW131196   6.782   4.952   4.750
10099SOL    HW231197   6.738   5.037   4.882
10100SOL     OW31198   5.163   0.872   5.780
10100SOL    HW131199   5.078   0.920   5.802
10100SOL    HW231200   5.142   0.782   5.743
10101SOL     OW31201   6.816   4.499   2.847
10101SOL    HW131202   6.787   4.420   2.901
10101SOL    HW231203   6.765   4.502   2.761
10102SOL     OW31204   3.666   0.117   4.189
10102SOL    HW131205   3.740   0.184   4.182
10102SOL    HW231206   3.584   0.154   4.146
10103SOL     OW31207   1.062   1.976   0.599
10103SOL    HW131208   1.073   2.067   0.638
10103SOL    HW231209   1.103   1.908   0.661
10104SOL     OW31210   2.063   5.942   5.763
10104SOL    HW131211   1.965   5.932   5.780
10104SOL    HW231212   2.092   6.035   5.787
10105SOL     OW31213   3.244   0.470   0.154
10105SOL    HW131214   3.315   0.481   0.086
10105SOL    HW231215   3.283   0.433   0.238
10106SOL     OW31216   4.665   5.195   1.613
10106SOL    HW131217   4.648   5.294   1.623
10106SOL    HW231218   4.759   5.180   1.584
10107SOL     OW31219   5.881   1.148   5.763
10107SOL    HW131220   5.792   1.154   5.807
10107SOL    HW231221   5.902   1.052   5.743
10108SOL     OW31222   5.741   6.035   6.774
10108SOL    HW131223   5.774   6.006   6.684
10108SOL    HW231224   5.761   5.964   6.841
10109SOL     OW31225   4.432   5.856   3.436
10109SOL    HW131226   4.338   5.881   3.413
10109SOL    HW231227   4.442   5.855   3.536
10110SOL     OW31228   3.435   1.508   5.265
10110SOL    HW131229   3.433   1.473   5.359
10110SOL    HW231230   3.419   1.607   5.266
10111SOL     OW31231   0.143   2.657   2.600
10111SOL    HW131232   0.135   2.593   2.677
10111SOL    HW231233   0.103   2.746   2.626
10112SOL     OW31234   4.126   3.417   5.956
10112SOL    HW131235   4.205   3.434   5.897
10112SOL    HW231236   4.075   3.502   5.970
10113SOL     OW31237   4.285   6.919   0.419
10113SOL    HW131238   4.231   6.882   0.494
10113SOL    HW231239   4.327   7.005   0.446
10114SOL     OW31240   4.567   1.394   1.777
10114SOL    HW131241   4.628   1.393   1.698
10114SOL    HW231242   4.616   1.360   1.858
10115SOL     OW31243   1.102   1.615   4.356
10115SOL    HW131244   1.179   1.615   4.293
10115SOL    HW231245   1.091   1.706   4.396
10116SOL     OW31246   0.529   0.362   0.487
10116SOL    HW131247   0.571   0.384   0.575
10116SOL    HW231248   0.438   0.403   0.483
10117SOL     OW31249   4.668   0.534   5.571
10117SOL    HW131250   4.626   0.607   5.626
10117SOL    HW231251   4.660   0.557   5.474
10118SOL     OW31252   5.966   5.183   2.297
10118SOL    HW131253   6.028   5.247   2.252
10118SOL    HW231254   5.935   5.223   2.383
10119SOL     OW31255   2.366   0.469   6.028
10119SOL    HW131256   2.292   0.459   6.094
10119SOL    HW231257   2.449   0.426   6.063
10120SOL     OW31258   5.727   3.094   3.456
10120SOL    HW131259   5.656   3.160   3.431
10120SOL    HW231260   5.804   3.101   3.393
10121SOL     OW31261   5.638   5.079   3.847
10121SOL    HW131262   5.594   5.109   3.762
10121SOL    HW231263   5.633   4.979   3.853
10122SOL     OW31264   5.218   3.345   6.786
10122SOL    HW131265   5.215   3.410   6.862
10122SOL    HW231266   5.125   3.326   6.756
10123SOL     OW31267   0.069   6.686   0.300
10123SOL    HW131268   0.078   6.782   0.272
10123SOL    HW231269   0.159   6.648   0.320
10124SOL     OW31270   3.253   4.380   1.073
10124SOL    HW131271   3.171   4.433   1.093
10124SOL    HW231272   3.301   4.360   1.158
10125SOL     OW31273   2.186   0.720   0.640
10125SOL    HW131274   2.150   0.770   0.562
10125SOL    HW231275   2.284   0.702   0.626
10126SOL     OW31276   5.477   4.989   6.952
10126SOL    HW131277   5.505   4.925   6.880
10126SOL    HW231278   5.558   5.020   7.002
10127SOL     OW31279   3.420   5.116   5.225
10127SOL    HW131280   3.359   5.099   5.148
10127SOL    HW231281   3.514   5.124   5.192
10128SOL     OW31282   0.237   1.916   1.438
10128SOL    HW131283   0.202   1.892   1.347
10128SOL    HW231284   0.185   1.866   1.508
10129SOL     OW31285   5.285   2.433   3.280
10129SOL    HW131286   5.356   2.471   3.221
10129SOL    HW231287   5.324   2.360   3.337
10130SOL     OW31288   6.126   6.146   1.335
10130SOL    HW131289   6.202   6.191   1.380
10130SOL    HW231290   6.044   6.154   1.391
10131SOL     OW31291   0.191   0.185   0.408
10131SOL    HW131292   0.169   0.277   0.374
10131SOL    HW231293   0.290   0.174   0.410
10132SOL     OW31294   2.779   0.128   2.686
10132SOL    HW131295   2.718   0.049   2.699
10132SOL    HW231296   2.847   0.106   2.617
10133SOL     OW31297   6.018   4.632   2.442
10133SOL    HW131298   6.088   4.668   2.379
10133SOL    HW231299   6.032   4.672   2.532
10134SOL     OW31300   0.235   1.583   1.970
10134SOL    HW131301   0.269   1.675   1.991
10134SOL    HW231302   0.294   1.515   2.012
10135SOL     OW31303   3.077   6.311   2.896
10135SOL    HW131304   2.994   6.366   2.884
10135SOL    HW231305   3.114   6.327   2.987
10136SOL     OW31306   6.459   6.660   2.230
10136SOL    HW131307   6.551   6.696   2.219
10136SOL    HW231308   6.419   6.641   2.140
10137SOL     OW31309   5.652   5.075   4.491
10137SOL    HW131310   5.649   5.003   4.422
10137SOL    HW231311   5.662   5.033   4.581
10138SOL     OW31312   5.419   2.080   6.170
10138SOL    HW131313   5.368   2.029   6.100
10138SOL    HW231314   5.397   2.177   6.164
10139SOL     OW31315   3.581   2.899   3.430
10139SOL    HW131316   3.572   2.832   3.356
10139SOL    HW231317   3.677   2.908   3.455
10140SOL     OW31318   1.212   5.467   4.372
10140SOL    HW131319   1.297   5.423   4.400
10140SOL    HW231320   1.197   5.452   4.274
10141SOL     OW31321   2.214   0.516   3.804
10141SOL    HW131322   2.166   0.595   3.766
10141SOL    HW231323   2.246   0.538   3.897
10142SOL     OW31324   5.134   6.217   4.133
10142SOL    HW131325   5.168   6.216   4.227
10142SOL    HW231326   5.104   6.125   4.107
10143SOL     OW31327   4.672   5.905   1.626
10143SOL    HW131328   4.672   5.897   1.527
10143SOL    HW231329   4.644   5.817   1.666
10144SOL     OW31330   2.780   4.855   2.911
10144SOL    HW131331   2.754   4.943   2.869
10144SOL    HW231332   2.825   4.872   2.998
10145SOL     OW31333   2.763   6.874   6.008
10145SOL    HW131334   2.727   6.966   6.028
10145SOL    HW231335   2.729   6.810   6.077
10146SOL     OW31336   5.061   5.027   4.132
10146SOL    HW131337   5.053   4.977   4.218
10146SOL    HW231338   4.973   5.029   4.086
10147SOL     OW31339   4.682   5.799   4.307
10147SOL    HW131340   4.755   5.780   4.373
10147SOL    HW231341   4.594   5.772   4.346
10148SOL     OW31342   6.227   5.127   0.522
10148SOL    HW131343   6.150   5.064   0.526
10148SOL    HW231344   6.201   5.207   0.466
10149SOL     OW31345   4.361   3.378   0.956
10149SOL    HW131346   4.442   3.347   0.906
10149SOL    HW231347   4.308   3.298   0.986
10150SOL     OW31348   5.272   4.065   0.760
10150SOL    HW131349   5.286   4.025   0.669
10150SOL    HW231350   5.355   4.111   0.790
10151SOL     OW31351   1.074   5.963   5.522
10151SOL    HW131352   0.992   5.942   5.469
10151SOL    HW231353   1.051   5.962   5.620
10152SOL     OW31354   0.163   5.649   4.216
10152SOL    HW131355   0.112   5.575   4.173
10152SOL    HW231356   0.153   5.645   4.315
10153SOL     OW31357   5.088   5.958   4.037
10153SOL    HW131358   5.086   5.896   4.115
10153SOL    HW231359   5.018   5.931   3.971
10154SOL     OW31360   6.722   5.847   5.880
10154SOL    HW131361   6.667   5.884   5.805
10154SOL    HW231362   6.709   5.904   5.962
10155SOL     OW31363   3.752   1.712   6.305
10155SOL    HW131364   3.824   1.657   6.261
10155SOL    HW231365   3.663   1.682   6.273
10156SOL     OW31366   5.845   0.105   2.274
10156SOL    HW131367   5.928   0.049   2.278
10156SOL    HW231368   5.866   0.197   2.307
10157SOL     OW31369   4.784   0.562   4.688
10157SOL    HW131370   4.752   0.647   4.730
10157SOL    HW231371   4.833   0.508   4.755
10158SOL     OW31372   4.938   3.439   5.865
10158SOL    HW131373   4.863   3.382   5.832
10158SOL    HW231374   4.902   3.516   5.917
10159SOL     OW31375   1.697   1.329   6.297
10159SOL    HW131376   1.731   1.243   6.337
10159SOL    HW231377   1.774   1.392   6.283
10160SOL     OW31378   0.714   5.928   3.402
10160SOL    HW131379   0.664   5.988   3.465
10160SOL    HW231380   0.710   5.834   3.435
10161SOL     OW31381   2.333   5.906   5.648
10161SOL    HW131382   2.238   5.910   5.678
10161SOL    HW231383   2.385   5.978   5.694
10162SOL     OW31384   3.358   2.775   6.682
10162SOL    HW131385   3.382   2.697   6.625
10162SOL    HW231386   3.287   2.829   6.637
10163SOL     OW31387   0.160   2.992   5.801
10163SOL    HW131388   0.189   3.062   5.866
10163SOL    HW231389   0.192   3.017   5.709
10164SOL     OW31390   1.547   2.575   5.391
10164SOL    HW131391   1.596   2.498   5.431
10164SOL    HW231392   1.580   2.660   5.431
10165SOL     OW31393   0.189   1.981   3.053
10165SOL    HW131394   0.153   2.068   3.089
10165SOL    HW231395   0.139   1.905   3.093
10166SOL     OW31396   0.595   1.309   2.146
10166SOL    HW131397   0.667   1.365   2.106
10166SOL    HW231398   0.586   1.224   2.095
10167SOL     OW31399   4.836   0.630   0.954
10167SOL    HW131400   4.884   0.550   0.916
10167SOL    HW231401   4.845   0.707   0.891
10168SOL     OW31402   6.538   4.528   4.730
10168SOL    HW131403   6.524   4.613   4.780
10168SOL    HW231404   6.624   4.532   4.679
10169SOL     OW31405   6.626   4.286   4.254
10169SOL    HW131406   6.704   4.275   4.315
10169SOL    HW231407   6.547   4.320   4.306
10170SOL     OW31408   1.360   3.867   4.753
10170SOL    HW131409   1.302   3.894   4.830
10170SOL    HW231410   1.304   3.820   4.684
10171SOL     OW31411   5.934   2.964   6.208
10171SOL    HW131412   5.868   2.954   6.283
10171SOL    HW231413   5.994   3.041   6.227
10172SOL     OW31414   4.592   1.025   4.376
10172SOL    HW131415   4.504   0.994   4.413
10172SOL    HW231416   4.665   1.006   4.441
10173SOL     OW31417   2.636   2.342   3.107
10173SOL    HW131418   2.579   2.260   3.101
10173SOL    HW231419   2.583   2.422   3.083
10174SOL     OW31420   5.959   4.210   0.889
10174SOL    HW131421   5.945   4.309   0.895
10174SOL    HW231422   5.904   4.173   0.814
10175SOL     OW31423   6.241   2.329   6.060
10175SOL    HW131424   6.162   2.383   6.034
10175SOL    HW231425   6.320   2.355   6.004
10176SOL     OW31426   2.219   3.608   0.098
10176SOL    HW131427   2.276   3.689   0.088
10176SOL    HW231428   2.267   3.540   0.154
10177SOL     OW31429   2.070   0.061   5.830
10177SOL    HW131430   2.169   0.055   5.830
10177SOL    HW231431   2.038   0.070   5.735
10178SOL     OW31432   5.344   3.159   5.490
10178SOL    HW131433   5.326   3.255   5.469
10178SOL    HW231434   5.386   3.114   5.411
10179SOL     OW31435   6.916   3.460   6.224
10179SOL    HW131436   6.924   3.369   6.183
10179SOL    HW231437   6.988   3.520   6.187
10180SOL     OW31438   2.311   6.506   5.639
10180SOL    HW131439   2.357   6.418   5.624
10180SOL    HW231440   2.334   6.541   5.730
10181SOL     OW31441   5.851   3.489   1.621
10181SOL    HW131442   5.815   3.546   1.695
10181SOL    HW231443   5.950   3.483   1.627
10182SOL     OW31444   4.404   1.243   0.280
10182SOL    HW131445   4.336   1.231   0.208
10182SOL    HW231446   4.475   1.306   0.250
10183SOL     OW31447   1.677   1.231   6.707
10183SOL    HW131448   1.585   1.266   6.724
10183SOL    HW231449   1.731   1.301   6.659
10184SOL     OW31450   4.708   0.335   6.761
10184SOL    HW131451   4.676   0.380   6.677
10184SOL    HW231452   4.750   0.248   6.737
10185SOL     OW31453   4.912   1.135   6.984
10185SOL    HW131454   4.900   1.055   6.924
10185SOL    HW231455   4.906   1.219   6.929
10186SOL     OW31456   4.671   2.153   2.907
10186SOL    HW131457   4.666   2.253   2.920
10186SOL    HW231458   4.678   2.133   2.810
10187SOL     OW31459   0.511   2.365   1.986
10187SOL    HW131460   0.513   2.442   1.923
10187SOL    HW231461   0.499   2.399   2.080
10188SOL     OW31462   3.962   4.979   0.719
10188SOL    HW131463   3.969   4.976   0.619
10188SOL    HW231464   4.052   4.967   0.759
10189SOL     OW31465   1.589   6.793   5.713
10189SOL    HW131466   1.680   6.786   5.672
10189SOL    HW231467   1.524   6.829   5.646
10190SOL     OW31468   4.794   2.613   0.109
10190SOL    HW131469   4.715   2.599   0.168
10190SOL    HW231470   4.764   2.630   0.015
10191SOL     OW31471   6.771   4.891   6.605
10191SOL    HW131472   6.818   4.979   6.603
10191SOL    HW231473   6.737   4.869   6.514
10192SOL     OW31474   3.852   1.504   0.540
10192SOL    HW131475   3.832   1.595   0.505
10192SOL    HW231476   3.927   1.464   0.488
10193SOL     OW31477   4.182   4.343   0.623
10193SOL    HW131478   4.178   4.243   0.630
10193SOL    HW231479   4.199   4.369   0.528
10194SOL     OW31480   4.944   2.855   5.233
10194SOL    HW131481   4.917   2.821   5.143
10194SOL    HW231482   4.979   2.779   5.288
10195SOL     OW31483   6.196   4.305   1.678
10195SOL    HW131484   6.126   4.244   1.641
10195SOL    HW231485   6.256   4.335   1.605
10196SOL     OW31486   0.377   1.571   4.790
10196SOL    HW131487   0.321   1.496   4.757
10196SOL    HW231488   0.329   1.657   4.778
10197SOL     OW31489   5.453   0.660   6.683
10197SOL    HW131490   5.525   0.594   6.707
10197SOL    HW231491   5.369   0.635   6.731
10198SOL     OW31492   4.304   6.744   3.629
10198SOL    HW131493   4.270   6.791   3.547
10198SOL    HW231494   4.402   6.729   3.621
10199SOL     OW31495   0.596   2.144   5.246
10199SOL    HW131496   0.673   2.187   5.294
10199SOL    HW231497   0.552   2.078   5.307
10200SOL     OW31498   5.155   1.914   1.815
10200SOL    HW131499   5.150   1.983   1.887
10200SOL    HW231500   5.210   1.948   1.739
10201SOL     OW31501   1.203   3.889   0.621
10201SOL    HW131502   1.174   3.851   0.709
10201SOL    HW231503   1.124   3.929   0.574
10202SOL     OW31504   5.092   0.765   4.269
10202SOL    HW131505   5.044   0.736   4.352
10202SOL    HW231506   5.113   0.862   4.274
10203SOL     OW31507   6.926   2.817   4.380
10203SOL    HW131508   6.858   2.791   4.449
10203SOL    HW231509   6.985   2.739   4.360
10204SOL     OW31510   5.544   4.965   6.401
10204SOL    HW131511   5.574   4.869   6.399
10204SOL    HW231512   5.624   5.024   6.402
10205SOL     OW31513   0.490   1.369   6.424
10205SOL    HW131514   0.533   1.288   6.464
10205SOL    HW231515   0.561   1.433   6.396
10206SOL     OW31516   1.874   1.278   5.063
10206SOL    HW131517   1.851   1.181   5.063
10206SOL    HW231518   1.815   1.327   5.128
10207SOL     OW31519   2.353   2.650   5.762
10207SOL    HW131520   2.398   2.562   5.752
10207SOL    HW231521   2.374   2.688   5.852
10208SOL     OW31522   0.085   6.402   5.355
10208SOL    HW131523   0.182   6.394   5.378
10208SOL    HW231524   0.038   6.317   5.376
10209SOL     OW31525   0.172   6.459   5.844
10209SOL    HW131526   0.129   6.378   5.884
10209SOL    HW231527   0.251   6.485   5.899
10210SOL     OW31528   3.648   0.039   1.851
10210SOL    HW131529   3.572   6.991   1.858
10210SOL    HW231530   3.615   0.132   1.868
10211SOL     OW31531   5.207   5.651   5.927
10211SOL    HW131532   5.173   5.562   5.958
10211SOL    HW231533   5.249   5.641   5.837
10212SOL     OW31534   0.843   0.541   6.561
10212SOL    HW131535   0.767   0.477   6.546
10212SOL    HW231536   0.912   0.496   6.617
10213SOL     OW31537   6.642   2.519   0.924
10213SOL    HW131538   6.605   2.577   0.996
10213SOL    HW231539   6.699   2.573   0.863
10214SOL     OW31540   1.411   2.631   0.155
10214SOL    HW131541   1.503   2.660   0.129
10214SOL    HW231542   1.367   2.587   0.077
10215SOL     OW31543   3.201   4.066   2.642
10215SOL    HW131544   3.168   4.034   2.731
10215SOL    HW231545   3.142   4.029   2.570
10216SOL     OW31546   0.697   5.969   1.956
10216SOL    HW131547   0.658   5.978   1.864
10216SOL    HW231548   0.624   5.974   2.024
10217SOL     OW31549   4.125   1.735   5.203
10217SOL    HW131550   4.047   1.798   5.190
10217SOL    HW231551   4.210   1.787   5.198
10218SOL     OW31552   1.068   3.316   2.713
10218SOL    HW131553   1.012   3.276   2.641
10218SOL    HW231554   1.151   3.355   2.674
10219SOL     OW31555   0.097   6.034   3.038
10219SOL    HW131556   0.048   5.951   3.011
10219SOL    HW231557   0.121   6.087   2.956
10220SOL     OW31558   3.257   3.422   0.173
10220SOL    HW131559   3.288   3.330   0.148
10220SOL    HW231560   3.275   3.439   0.270
10221SOL     OW31561   0.878   5.126   3.547
10221SOL    HW131562   0.944   5.051   3.549
10221SOL    HW231563   0.873   5.168   3.637
10222SOL     OW31564   3.407   3.767   3.697
10222SOL    HW131565   3.500   3.748   3.727
10222SOL    HW231566   3.409   3.833   3.622
10223SOL     OW31567   2.659   6.563   0.988
10223SOL    HW131568   2.692   6.471   0.965
10223SOL    HW231569   2.559   6.563   0.991
10224SOL     OW31570   6.573   3.219   2.952
10224SOL    HW131571   6.575   3.312   2.916
10224SOL    HW231572   6.608   3.156   2.883
10225SOL     OW31573   1.864   3.652   5.914
10225SOL    HW131574   1.948   3.649   5.859
10225SOL    HW231575   1.787   3.622   5.858
10226SOL     OW31576   5.100   4.234   0.196
10226SOL    HW131577   5.028   4.303   0.198
10226SOL    HW231578   5.103   4.185   0.283
10227SOL     OW31579   5.754   3.668   1.412
10227SOL    HW131580   5.663   3.626   1.417
10227SOL    HW231581   5.818   3.613   1.466
10228SOL     OW31582   5.013   0.432   0.831
10228SOL    HW131583   5.051   0.426   0.739
10228SOL    HW231584   5.017   0.342   0.874
10229SOL     OW31585   0.417   2.650   5.109
10229SOL    HW131586   0.487   2.590   5.146
10229SOL    HW231587   0.400   2.626   5.013
10230SOL     OW31588   6.551   6.318   1.278
10230SOL    HW131589   6.510   6.369   1.354
10230SOL    HW231590   6.533   6.367   1.192
10231SOL     OW31591   0.006   4.373   2.678
10231SOL    HW131592   6.985   4.293   2.725
10231SOL    HW231593   6.947   4.433   2.649
10232SOL     OW31594   5.022   4.496   3.056
10232SOL    HW131595   4.962   4.443   2.997
10232SOL    HW231596   4.992   4.592   3.056
10233SOL     OW31597   2.476   4.205   5.267
10233SOL    HW131598   2.431   4.218   5.355
10233SOL    HW231599   2.460   4.112   5.234
10234SOL     OW31600   0.658   0.968   1.912
10234SOL    HW131601   0.582   1.032   1.901
10234SOL    HW231602   0.700   0.982   2.002
10235SOL     OW31603   1.005   1.211   3.084
10235SOL    HW131604   1.044   1.206   2.993
10235SOL    HW231605   0.924   1.270   3.084
10236SOL     OW31606   0.923   0.235   2.530
10236SOL    HW131607   0.955   0.166   2.465
10236SOL    HW231608   0.843   0.200   2.579
10237SOL     OW31609   6.956   3.438   4.374
10237SOL    HW131610   0.007   3.370   4.403
10237SOL    HW231611   6.991   3.487   4.293
10238SOL     OW31612   2.869   6.583   1.289
10238SOL    HW131613   2.781   6.565   1.333
10238SOL    HW231614   2.886   6.514   1.219
10239SOL     OW31615   1.088   2.447   4.797
10239SOL    HW131616   1.022   2.373   4.815
10239SOL    HW231617   1.104   2.499   4.881
10240SOL     OW31618   2.043   6.117   1.093
10240SOL    HW131619   2.137   6.151   1.085
10240SOL    HW231620   2.004   6.106   1.002
10241SOL     OW31621   4.541   3.847   1.565
10241SOL    HW131622   4.457   3.856   1.619
10241SOL    HW231623   4.540   3.913   1.490
10242SOL     OW31624   6.895   3.403   0.541
10242SOL    HW131625   6.844   3.321   0.567
10242SOL    HW231626   6.961   3.425   0.614
10243SOL     OW31627   2.855   5.961   2.327
10243SOL    HW131628   2.872   5.888   2.261
10243SOL    HW231629   2.902   6.044   2.298
10244SOL     OW31630   2.775   5.070   1.943
10244SOL    HW131631   2.809   4.977   1.929
10244SOL    HW231632   2.834   5.135   1.894
10245SOL     OW31633   5.372   4.414   1.037
10245SOL    HW131634   5.359   4.405   1.136
10245SOL    HW231635   5.390   4.510   1.015
10246SOL     OW31636   3.516   3.230   4.220
10246SOL    HW131637   3.416   3.226   4.219
10246SOL    HW231638   3.548   3.243   4.314
10247SOL     OW31639   0.719   2.624   4.586
10247SOL    HW131640   0.792   2.665   4.640
10247SOL    HW231641   0.759   2.568   4.512
10248SOL     OW31642   0.176   1.283   5.466
10248SOL    HW131643   0.272   1.287   5.436
10248SOL    HW231644   0.147   1.375   5.494
10249SOL     OW31645   2.365   4.590   6.004
10249SOL    HW131646   2.292   4.654   5.983
10249SOL    HW231647   2.389   4.538   5.921
10250SOL     OW31648   3.188   2.386   0.853
10250SOL    HW131649   3.185   2.376   0.952
10250SOL    HW231650   3.259   2.452   0.829
10251SOL     OW31651   1.549   0.951   4.435
10251SOL    HW131652   1.555   1.046   4.404
10251SOL    HW231653   1.594   0.891   4.369
10252SOL     OW31654   4.425   4.734   5.749
10252SOL    HW131655   4.381   4.662   5.695
10252SOL    HW231656   4.371   4.818   5.744
10253SOL     OW31657   3.737   6.226   6.595
10253SOL    HW131658   3.640   6.221   6.617
10253SOL    HW231659   3.777   6.134   6.597
10254SOL     OW31660   6.741   1.588   5.845
10254SOL    HW131661   6.701   1.538   5.922
10254SOL    HW231662   6.839   1.571   5.842
10255SOL     OW31663   3.857   4.441   1.640
10255SOL    HW131664   3.954   4.419   1.636
10255SOL    HW231665   3.809   4.370   1.691
10256SOL     OW31666   3.346   1.332   4.706
10256SOL    HW131667   3.332   1.395   4.783
10256SOL    HW231668   3.268   1.337   4.644
10257SOL     OW31669   3.772   5.692   2.976
10257SOL    HW131670   3.850   5.722   2.921
10257SOL    HW231671   3.692   5.747   2.953
10258SOL     OW31672   2.551   1.584   2.590
10258SOL    HW131673   2.463   1.581   2.637
10258SOL    HW231674   2.542   1.546   2.498
10259SOL     OW31675   1.619   3.838   4.429
10259SOL    HW131676   1.524   3.841   4.399
10259SOL    HW231677   1.625   3.870   4.524
10260SOL     OW31678   0.477   0.261   3.249
10260SOL    HW131679   0.478   0.213   3.162
10260SOL    HW231680   0.567   0.253   3.293
10261SOL     OW31681   0.027   4.290   0.734
10261SOL    HW131682   0.116   4.295   0.778
10261SOL    HW231683   6.973   4.326   0.796
10262SOL     OW31684   3.629   0.646   6.675
10262SOL    HW131685   3.719   0.688   6.662
10262SOL    HW231686   3.630   0.554   6.637
10263SOL     OW31687   5.745   0.525   3.008
10263SOL    HW131688   5.768   0.429   2.990
10263SOL    HW231689   5.747   0.542   3.106
10264SOL     OW31690   6.756   0.262   6.244
10264SOL    HW131691   6.843   0.213   6.241
10264SOL    HW231692   6.702   0.242   6.162
10265SOL     OW31693   1.953   1.767   2.080
10265SOL    HW131694   1.883   1.755   2.150
10265SOL    HW231695   1.965   1.864   2.061
10266SOL     OW31696   2.842   3.422   1.734
10266SOL    HW131697   2.753   3.441   1.693
10266SOL    HW231698   2.868   3.327   1.715
10267SOL     OW31699   6.594   0.326   0.494
10267SOL    HW131700   6.526   0.266   0.452
10267SOL    HW231701   6.640   0.379   0.423
10268SOL     OW31702   3.364   5.618   2.404
10268SOL    HW131703   3.344   5.585   2.496
10268SOL    HW231704   3.300   5.691   2.379
10269SOL     OW31705   2.117   1.383   0.706
10269SOL    HW131706   2.173   1.466   0.709
10269SOL    HW231707   2.170   1.308   0.668
10270SOL     OW31708   2.714   0.401   3.470
10270SOL    HW131709   2.631   0.448   3.499
10270SOL    HW231710   2.792   0.463   3.480
10271SOL     OW31711   2.104   1.213   6.925
10271SOL    HW131712   2.157   1.129   6.932
10271SOL    HW231713   2.084   1.231   6.828
10272SOL     OW31714   6.178   6.762   4.652
10272SOL    HW131715   6.147   6.770   4.747
10272SOL    HW231716   6.162   6.848   4.604
10273SOL     OW31717   1.985   5.328   3.741
10273SOL    HW131718   2.081   5.357   3.736
10273SOL    HW231719   1.932   5.378   3.672
10274SOL     OW31720   0.955   3.946   5.087
10274SOL    HW131721   0.878   3.885   5.070
10274SOL    HW231722   0.923   4.029   5.131
10275SOL     OW31723   6.514   1.339   2.203
10275SOL    HW131724   6.614   1.342   2.199
10275SOL    HW231725   6.483   1.389   2.284
10276SOL     OW31726   2.844   5.643   5.193
10276SOL    HW131727   2.934   5.677   5.222
10276SOL    HW231728   2.785   5.720   5.168
10277SOL     OW31729   1.115   5.619   3.830
10277SOL    HW131730   1.201   5.665   3.851
10277SOL    HW231731   1.068   5.668   3.756
10278SOL     OW31732   6.604   0.046   4.657
10278SOL    HW131733   6.662   0.072   4.579
10278SOL    HW231734   6.543   0.122   4.680
10279SOL     OW31735   1.107   4.998   3.963
10279SOL    HW131736   1.168   5.051   4.022
10279SOL    HW231737   1.030   5.055   3.935
10280SOL     OW31738   6.466   5.007   0.560
10280SOL    HW131739   6.396   5.075   0.537
10280SOL    HW231740   6.503   4.967   0.476
10281SOL     OW31741   6.425   0.750   3.551
10281SOL    HW131742   6.524   0.763   3.551
10281SOL    HW231743   6.402   0.667   3.498
10282SOL     OW31744   5.012   2.814   3.347
10282SOL    HW131745   4.984   2.809   3.443
10282SOL    HW231746   5.079   2.887   3.335
10283SOL     OW31747   0.745   2.718   1.365
10283SOL    HW131748   0.811   2.654   1.405
10283SOL    HW231749   0.793   2.780   1.302
10284SOL     OW31750   0.311   4.521   4.131
10284SOL    HW131751   0.303   4.505   4.033
10284SOL    HW231752   0.302   4.619   4.150
10285SOL     OW31753   0.173   6.418   6.179
10285SOL    HW131754   0.098   6.375   6.129
10285SOL    HW231755   0.143   6.507   6.213
10286SOL     OW31756   2.641   1.598   2.988
10286SOL    HW131757   2.550   1.640   2.990
10286SOL    HW231758   2.683   1.604   3.078
10287SOL     OW31759   1.248   5.298   2.652
10287SOL    HW131760   1.286   5.297   2.744
10287SOL    HW231761   1.313   5.253   2.589
10288SOL     OW31762   3.906   5.999   4.818
10288SOL    HW131763   3.808   6.008   4.838
10288SOL    HW231764   3.953   6.082   4.848
10289SOL     OW31765   4.128   6.341   0.034
10289SOL    HW131766   4.044   6.320   0.085
10289SOL    HW231767   4.207   6.335   0.095
10290SOL     OW31768   2.865   3.538   2.221
10290SOL    HW131769   2.788   3.516   2.161
10290SOL    HW231770   2.926   3.603   2.175
10291SOL     OW31771   2.309   2.015   2.494
10291SOL    HW131772   2.352   2.104   2.512
10291SOL    HW231773   2.380   1.945   2.484
10292SOL     OW31774   0.241   6.758   5.885
10292SOL    HW131775   0.254   6.857   5.885
10292SOL    HW231776   0.302   6.716   5.818
10293SOL     OW31777   1.144   3.578   5.237
10293SOL    HW131778   1.226   3.533   5.201
10293SOL    HW231779   1.162   3.676   5.247
10294SOL     OW31780   2.941   0.232   2.179
10294SOL    HW131781   2.869   0.187   2.127
10294SOL    HW231782   2.910   0.323   2.208
10295SOL     OW31783   1.096   1.394   0.494
10295SOL    HW131784   1.101   1.485   0.452
10295SOL    HW231785   1.162   1.334   0.449
10296SOL     OW31786   6.389   1.849   5.907
10296SOL    HW131787   6.312   1.913   5.910
10296SOL    HW231788   6.365   1.771   5.849
10297SOL     OW31789   4.203   0.983   0.867
10297SOL    HW131790   4.190   1.082   0.874
10297SOL    HW231791   4.156   0.949   0.786
10298SOL     OW31792   0.680   2.089   2.049
10298SOL    HW131793   0.623   2.172   2.045
10298SOL    HW231794   0.776   2.114   2.036
10299SOL     OW31795   4.505   0.139   2.569
10299SOL    HW131796   4.557   0.222   2.591
10299SOL    HW231797   4.424   0.135   2.627
10300SOL     OW31798   1.350   3.200   0.769
10300SOL    HW131799   1.396   3.111   0.760
10300SOL    HW231800   1.287   3.213   0.693
10301SOL     OW31801   3.831   0.716   0.354
10301SOL    HW131802   3.878   0.669   0.428
10301SOL    HW231803   3.897   0.764   0.297
10302SOL     OW31804   3.189   6.478   4.862
10302SOL    HW131805   3.105   6.423   4.867
10302SOL    HW231806   3.186   6.549   4.932
10303SOL     OW31807   0.229   4.798   4.481
10303SOL    HW131808   0.160   4.754   4.423
10303SOL    HW231809   0.259   4.883   4.438
10304SOL     OW31810   5.435   6.445   0.791
10304SOL    HW131811   5.497   6.519   0.816
10304SOL    HW231812   5.428   6.439   0.691
10305SOL     OW31813   2.904   3.884   5.544
10305SOL    HW131814   2.918   3.877   5.642
10305SOL    HW231815   2.871   3.976   5.521
10306SOL     OW31816   3.916   0.726   0.801
10306SOL    HW131817   3.925   0.661   0.876
10306SOL    HW231818   3.821   0.727   0.769
10307SOL     OW31819   1.862   0.258   5.155
10307SOL    HW131820   1.930   0.326   5.185
10307SOL    HW231821   1.851   0.264   5.056
10308SOL     OW31822   2.950   4.664   1.654
10308SOL    HW131823   3.030   4.713   1.688
10308SOL    HW231824   2.928   4.589   1.717
10309SOL     OW31825   0.250   0.929   5.650
10309SOL    HW131826   0.196   0.901   5.730
10309SOL    HW231827   0.199   0.998   5.599
10310SOL     OW31828   2.877   3.964   5.848
10310SOL    HW131829   2.797   4.015   5.820
10310SOL    HW231830   2.960   4.017   5.829
10311SOL     OW31831   5.393   5.793   6.914
10311SOL    HW131832   5.473   5.748   6.874
10311SOL    HW231833   5.317   5.728   6.920
10312SOL     OW31834   3.471   6.510   2.508
10312SOL    HW131835   3.543   6.519   2.440
10312SOL    HW231836   3.508   6.533   2.598
10313SOL     OW31837   4.894   6.958   2.609
10313SOL    HW131838   4.981   6.908   2.614
10313SOL    HW231839   4.909   0.036   2.640
10314SOL     OW31840   0.687   0.181   0.915
10314SOL    HW131841   0.785   0.201   0.918
10314SOL    HW231842   0.658   0.140   1.001
10315SOL     OW31843   5.344   5.186   3.347
10315SOL    HW131844   5.437   5.166   3.317
10315SOL    HW231845   5.346   5.258   3.417
10316SOL     OW31846   0.687   1.609   6.965
10316SOL    HW131847   0.717   1.547   0.021
10316SOL    HW231848   0.747   1.602   6.886
10317SOL     OW31849   3.739   6.090   5.210
10317SOL    HW131850   3.833   6.121   5.199
10317SOL    HW231851   3.735   5.991   5.197
10318SOL     OW31852   6.448   0.525   0.238
10318SOL    HW131853   6.431   0.606   0.295
10318SOL    HW231854   6.388   0.451   0.266
10319SOL     OW31855   0.625   4.484   4.196
10319SOL    HW131856   0.540   4.481   4.143
10319SOL    HW231857   0.668   4.574   4.185
10320SOL     OW31858   0.003   6.921   2.951
10320SOL    HW131859   6.942   6.875   2.995
10320SOL    HW231860   0.041   6.990   3.012
10321SOL     OW31861   6.103   2.942   2.323
10321SOL    HW131862   6.149   2.911   2.240
10321SOL    HW231863   6.065   2.863   2.371
10322SOL     OW31864   4.600   4.558   4.943
10322SOL    HW131865   4.631   4.467   4.915
10322SOL    HW231866   4.505   4.553   4.973
10323SOL     OW31867   1.177   4.041   5.783
10323SOL    HW131868   1.173   3.952   5.737
10323SOL    HW231869   1.173   4.027   5.882
10324SOL     OW31870   3.112   3.363   2.591
10324SOL    HW131871   3.166   3.446   2.599
10324SOL    HW231872   3.149   3.292   2.651
10325SOL     OW31873   6.155   6.098   4.743
10325SOL    HW131874   6.128   6.108   4.839
10325SOL    HW231875   6.152   6.001   4.718
10326SOL     OW31876   5.131   3.337   6.461
10326SOL    HW131877   5.102   3.340   6.557
10326SOL    HW231878   5.120   3.245   6.425
10327SOL     OW31879   2.630   5.251   6.922
10327SOL    HW131880   2.589   5.251   6.831
10327SOL    HW231881   2.591   5.326   6.976
10328SOL     OW31882   5.357   2.345   2.128
10328SOL    HW131883   5.398   2.265   2.086
10328SOL    HW231884   5.354   2.333   2.228
10329SOL     OW31885   3.347   1.992   2.194
10329SOL    HW131886   3.273   1.933   2.227
10329SOL    HW231887   3.316   2.044   2.115
10330SOL     OW31888   5.653   0.844   1.763
10330SOL    HW131889   5.723   0.914   1.775
10330SOL    HW231890   5.691   0.767   1.712
10331SOL     OW31891   5.690   6.156   5.939
10331SOL    HW131892   5.690   6.125   6.034
10331SOL    HW231893   5.757   6.229   5.927
10332SOL     OW31894   1.528   1.895   6.263
10332SOL    HW131895   1.435   1.900   6.301
10332SOL    HW231896   1.563   1.802   6.274
10333SOL     OW31897   1.219   3.445   4.503
10333SOL    HW131898   1.223   3.345   4.507
10333SOL    HW231899   1.311   3.481   4.484
10334SOL     OW31900   3.188   1.740   4.313
10334SOL    HW131901   3.141   1.783   4.235
10334SOL    HW231902   3.151   1.777   4.398
10335SOL     OW31903   1.573   2.658   5.123
10335SOL    HW131904   1.574   2.606   5.209
10335SOL    HW231905   1.607   2.750   5.139
10336SOL     OW31906   5.742   6.685   2.906
10336SOL    HW131907   5.806   6.732   2.845
10336SOL    HW231908   5.789   6.609   2.951
10337SOL     OW31909   6.502   5.478   6.723
10337SOL    HW131910   6.415   5.471   6.674
10337SOL    HW231911   6.489   5.451   6.818
10338SOL     OW31912   1.273   6.553   1.305
10338SOL    HW131913   1.244   6.608   1.384
10338SOL    HW231914   1.344   6.603   1.255
10339SOL     OW31915   5.734   2.487   5.950
10339SOL    HW131916   5.729   2.442   6.039
10339SOL    HW231917   5.641   2.506   5.917
10340SOL     OW31918   2.151   4.083   6.057
10340SOL    HW131919   2.114   3.994   6.082
10340SOL    HW231920   2.218   4.072   5.984
10341SOL     OW31921   2.255   4.471   3.721
10341SOL    HW131922   2.308   4.552   3.696
10341SOL    HW231923   2.285   4.437   3.810
10342SOL     OW31924   0.756   0.871   3.577
10342SOL    HW131925   0.668   0.843   3.616
10342SOL    HW231926   0.821   0.796   3.585
10343SOL     OW31927   3.877   5.390   1.841
10343SOL    HW131928   3.932   5.310   1.867
10343SOL    HW231929   3.876   5.456   1.916
10344SOL     OW31930   4.888   6.706   0.051
10344SOL    HW131931   4.835   6.767   7.008
10344SOL    HW231932   4.830   6.673   0.125
10345SOL     OW31933   1.943   4.115   4.248
10345SOL    HW131934   1.897   4.174   4.315
10345SOL    HW231935   2.040   4.140   4.242
10346SOL     OW31936   0.188   6.327   6.949
10346SOL    HW131937   0.142   6.358   6.865
10346SOL    HW231938   0.215   6.231   6.938
10347SOL     OW31939   5.412   1.930   4.916
10347SOL    HW131940   5.501   1.969   4.895
10347SOL    HW231941   5.368   1.899   4.831
10348SOL     OW31942   6.633   5.478   1.457
10348SOL    HW131943   6.653   5.551   1.392
10348SOL    HW231944   6.698   5.482   1.533
10349SOL     OW31945   0.646   6.778   6.136
10349SOL    HW131946   0.626   6.795   6.039
10349SOL    HW231947   0.737   6.814   6.158
10350SOL     OW31948   3.036   0.929   6.367
10350SOL    HW131949   3.029   0.956   6.463
10350SOL    HW231950   3.074   1.005   6.314
10351SOL     OW31951   4.020   5.419   6.140
10351SOL    HW131952   3.957   5.496   6.128
10351SOL    HW231953   4.113   5.454   6.151
10352SOL     OW31954   3.889   3.902   6.463
10352SOL    HW131955   3.931   3.891   6.553
10352SOL    HW231956   3.933   3.977   6.414
10353SOL     OW31957   0.205   2.817   5.170
10353SOL    HW131958   0.232   2.893   5.110
10353SOL    HW231959   0.263   2.738   5.150
10354SOL     OW31960   5.407   1.904   1.153
10354SOL    HW131961   5.402   1.805   1.155
10354SOL    HW231962   5.441   1.935   1.065
10355SOL     OW31963   1.410   4.723   2.951
10355SOL    HW131964   1.350   4.802   2.939
10355SOL    HW231965   1.398   4.686   3.043
10356SOL     OW31966   0.163   2.154   4.734
10356SOL    HW131967   0.169   2.085   4.807
10356SOL    HW231968   0.206   2.238   4.764
10357SOL     OW31969   3.458   2.979   6.868
10357SOL    HW131970   3.548   2.970   6.910
10357SOL    HW231971   3.456   2.926   6.783
10358SOL     OW31972   6.811   1.302   2.443
10358SOL    HW131973   6.725   1.251   2.440
10358SOL    HW231974   6.888   1.240   2.426
10359SOL     OW31975   0.587   1.523   1.075
10359SOL    HW131976   0.633   1.468   1.005
10359SOL    HW231977   0.597   1.479   1.164
10360SOL     OW31978   0.302   4.511   2.968
10360SOL    HW131979   0.340   4.603   2.967
10360SOL    HW231980   0.217   4.509   2.915
10361SOL     OW31981   2.081   4.860   0.966
10361SOL    HW131982   2.179   4.853   0.952
10361SOL    HW231983   2.051   4.790   1.030
10362SOL     OW31984   1.406   4.332   5.363
10362SOL    HW131985   1.456   4.245   5.362
10362SOL    HW231986   1.356   4.343   5.278
10363SOL     OW31987   5.903   6.900   3.497
10363SOL    HW131988   5.810   6.877   3.467
10363SOL    HW231989   5.934   6.982   3.449
10364SOL     OW31990   1.692   4.054   0.768
10364SOL    HW131991   1.715   4.024   0.861
10364SOL    HW231992   1.662   4.149   0.770
10365SOL     OW31993   4.935   5.299   0.023
10365SOL    HW131994   5.030   5.322   0.000
10365SOL    HW231995   4.877   5.314   6.960
10366SOL     OW31996   3.675   6.523   3.769
10366SOL    HW131997   3.683   6.455   3.695
10366SOL    HW231998   3.762   6.570   3.780
10367SOL     OW31999   0.053   1.563   3.317
10367SOL    HW132000   0.044   1.528   3.411
10367SOL    HW232001   6.988   1.539   3.264
10368SOL     OW32002   2.448   0.533   1.663
10368SOL    HW132003   2.475   0.616   1.711
10368SOL    HW232004   2.357   0.505   1.693
10369SOL     OW32005   4.254   2.726   6.768
10369SOL    HW132006   4.273   2.736   6.865
10369SOL    HW232007   4.196   2.646   6.753
10370SOL     OW32008   3.758   1.235   5.265
10370SOL    HW132009   3.821   1.158   5.262
10370SOL    HW232010   3.671   1.206   5.306
10371SOL     OW32011   5.198   6.498   5.547
10371SOL    HW132012   5.155   6.416   5.585
10371SOL    HW232013   5.127   6.567   5.528
10372SOL     OW32014   1.337   0.587   3.477
10372SOL    HW132015   1.351   0.546   3.567
10372SOL    HW232016   1.364   0.683   3.480
10373SOL     OW32017   1.159   5.070   4.994
10373SOL    HW132018   1.201   5.107   4.911
10373SOL    HW232019   1.231   5.048   5.060
10374SOL     OW32020   3.079   1.857   4.090
10374SOL    HW132021   2.992   1.838   4.043
10374SOL    HW232022   3.153   1.859   4.023
10375SOL     OW32023   0.000   1.634   0.750
10375SOL    HW132024   0.091   1.647   0.789
10375SOL    HW232025   7.015   1.672   0.657
10376SOL     OW32026   6.494   0.016   3.107
10376SOL    HW132027   6.568   0.029   3.173
10376SOL    HW232028   6.519   6.962   3.041
10377SOL     OW32029   0.250   6.390   4.206
10377SOL    HW132030   0.339   6.366   4.165
10377SOL    HW232031   0.249   6.361   4.302
10378SOL     OW32032   6.276   6.330   5.948
10378SOL    HW132033   6.230   6.277   6.020
10378SOL    HW232034   6.208   6.385   5.899
10379SOL     OW32035   4.621   1.845   4.228
10379SOL    HW132036   4.560   1.921   4.250
10379SOL    HW232037   4.612   1.823   4.131
10380SOL     OW32038   4.100   0.932   3.632
10380SOL    HW132039   4.101   0.963   3.537
10380SOL    HW232040   4.059   0.841   3.636
10381SOL     OW32041   3.792   5.095   4.864
10381SOL    HW132042   3.717   5.072   4.802
10381SOL    HW232043   3.871   5.037   4.845
10382SOL     OW32044   0.811   5.640   0.296
10382SOL    HW132045   0.795   5.719   0.237
10382SOL    HW232046   0.843   5.563   0.241
10383SOL     OW32047   5.636   2.531   0.309
10383SOL    HW132048   5.668   2.534   0.215
10383SOL    HW232049   5.630   2.435   0.339
10384SOL     OW32050   5.739   1.125   6.791
10384SOL    HW132051   5.667   1.072   6.747
10384SOL    HW232052   5.720   1.223   6.780
10385SOL     OW32053   0.178   2.464   6.579
10385SOL    HW132054   0.154   2.448   6.483
10385SOL    HW232055   0.168   2.379   6.630
10386SOL     OW32056   6.755   1.784   6.240
10386SOL    HW132057   6.822   1.762   6.170
10386SOL    HW232058   6.717   1.875   6.222
10387SOL     OW32059   1.581   3.718   2.719
10387SOL    HW132060   1.661   3.673   2.680
10387SOL    HW232061   1.512   3.730   2.648
10388SOL     OW32062   1.790   4.488   2.301
10388SOL    HW132063   1.713   4.548   2.279
10388SOL    HW232064   1.859   4.540   2.352
10389SOL     OW32065   0.753   5.694   3.584
10389SOL    HW132066   0.753   5.600   3.549
10389SOL    HW232067   0.842   5.736   3.567
10390SOL     OW32068   2.105   3.902   3.580
10390SOL    HW132069   2.136   3.912   3.674
10390SOL    HW232070   2.179   3.930   3.518
10391SOL     OW32071   3.729   6.189   4.556
10391SOL    HW132072   3.772   6.273   4.523
10391SOL    HW232073   3.733   6.120   4.484
10392SOL     OW32074   6.280   5.237   6.318
10392SOL    HW132075   6.237   5.249   6.407
10392SOL    HW232076   6.213   5.257   6.246
10393SOL     OW32077   0.388   0.911   4.850
10393SOL    HW132078   0.363   1.005   4.874
10393SOL    HW232079   0.471   0.913   4.794
10394SOL     OW32080   3.260   6.930   0.973
10394SOL    HW132081   3.188   6.931   1.042
10394SOL    HW232082   3.334   6.870   1.003
10395SOL     OW32083   1.400   1.010   4.134
10395SOL    HW132084   1.373   1.072   4.060
10395SOL    HW232085   1.318   0.975   4.180
10396SOL     OW32086   0.381   0.116   4.846
10396SOL    HW132087   0.384   0.029   4.797
10396SOL    HW232088   0.424   0.187   4.790
10397SOL     OW32089   4.167   2.117   2.332
10397SOL    HW132090   4.189   2.192   2.269
10397SOL    HW232091   4.069   2.116   2.350
10398SOL     OW32092   6.765   3.136   2.061
10398SOL    HW132093   6.819   3.129   2.145
10398SOL    HW232094   6.826   3.149   1.983
10399SOL     OW32095   6.729   3.298   5.560
10399SOL    HW132096   6.752   3.221   5.501
10399SOL    HW232097   6.719   3.266   5.654
10400SOL     OW32098   1.578   4.914   1.837
10400SOL    HW132099   1.497   4.937   1.782
10400SOL    HW232100   1.623   4.833   1.798
10401SOL     OW32101   1.145   5.130   1.220
10401SOL    HW132102   1.218   5.070   1.187
10401SOL    HW232103   1.097   5.171   1.142
10402SOL     OW32104   1.003   2.332   4.528
10402SOL    HW132105   1.067   2.405   4.550
10402SOL    HW232106   0.924   2.370   4.480
10403SOL     OW32107   5.453   0.784   2.462
10403SOL    HW132108   5.550   0.802   2.475
10403SOL    HW232109   5.417   0.738   2.543
10404SOL     OW32110   0.054   0.296   4.210
10404SOL    HW132111   0.132   0.357   4.221
10404SOL    HW232112   7.001   0.317   4.279
10405SOL     OW32113   2.977   6.921   6.945
10405SOL    HW132114   2.952   6.862   0.006
10405SOL    HW232115   2.941   6.881   6.861
10406SOL     OW32116   2.010   5.732   5.191
10406SOL    HW132117   1.928   5.706   5.242
10406SOL    HW232118   2.082   5.759   5.255
10407SOL     OW32119   2.179   1.035   6.456
10407SOL    HW132120   2.264   1.075   6.491
10407SOL    HW232121   2.193   1.003   6.363
10408SOL     OW32122   3.830   6.769   2.901
10408SOL    HW132123   3.754   6.816   2.946
10408SOL    HW232124   3.844   6.808   2.810
10409SOL     OW32125   6.912   4.751   2.444
10409SOL    HW132126   6.879   4.726   2.353
10409SOL    HW232127   6.893   4.848   2.461
10410SOL     OW32128   4.877   5.664   1.290
10410SOL    HW132129   4.899   5.737   1.225
10410SOL    HW232130   4.957   5.604   1.301
10411SOL     OW32131   1.971   4.753   2.699
10411SOL    HW132132   1.941   4.699   2.620
10411SOL    HW232133   1.900   4.752   2.769
10412SOL     OW32134   0.593   2.680   6.859
10412SOL    HW132135   0.571   2.775   6.881
10412SOL    HW232136   0.529   2.646   6.789
10413SOL     OW32137   6.580   1.725   4.845
10413SOL    HW132138   6.602   1.636   4.883
10413SOL    HW232139   6.541   1.783   4.917
10414SOL     OW32140   5.638   6.128   5.386
10414SOL    HW132141   5.725   6.095   5.348
10414SOL    HW232142   5.630   6.226   5.370
10415SOL     OW32143   6.853   5.207   3.327
10415SOL    HW132144   6.902   5.209   3.239
10415SOL    HW232145   6.765   5.161   3.315
10416SOL     OW32146   5.302   0.523   0.400
10416SOL    HW132147   5.317   0.582   0.479
10416SOL    HW232148   5.292   0.428   0.430
10417SOL     OW32149   4.649   4.465   4.433
10417SOL    HW132150   4.676   4.377   4.393
10417SOL    HW232151   4.552   4.462   4.458
10418SOL     OW32152   6.024   3.302   6.862
10418SOL    HW132153   5.985   3.292   6.770
10418SOL    HW232154   6.096   3.234   6.875
10419SOL     OW32155   1.447   0.296   4.751
10419SOL    HW132156   1.473   0.273   4.657
10419SOL    HW232157   1.434   0.394   4.759
10420SOL     OW32158   6.420   3.921   4.224
10420SOL    HW132159   6.421   3.833   4.177
10420SOL    HW232160   6.460   3.991   4.165
10421SOL     OW32161   0.287   3.670   4.439
10421SOL    HW132162   0.331   3.729   4.371
10421SOL    HW232163   0.201   3.712   4.468
10422SOL     OW32164   5.610   3.248   5.684
10422SOL    HW132165   5.669   3.180   5.726
10422SOL    HW232166   5.565   3.303   5.755
10423SOL     OW32167   2.395   5.558   2.584
10423SOL    HW132168   2.414   5.479   2.642
10423SOL    HW232169   2.324   5.534   2.517
10424SOL     OW32170   4.408   0.698   2.239
10424SOL    HW132171   4.485   0.639   2.263
10424SOL    HW232172   4.420   0.733   2.146
10425SOL     OW32173   0.981   4.219   0.563
10425SOL    HW132174   0.944   4.131   0.533
10425SOL    HW232175   0.936   4.293   0.512
10426SOL     OW32176   6.435   2.029   0.476
10426SOL    HW132177   6.519   2.075   0.448
10426SOL    HW232178   6.442   2.002   0.572
10427SOL     OW32179   6.050   0.346   4.100
10427SOL    HW132180   5.971   0.314   4.046
10427SOL    HW232181   6.134   0.310   4.060
10428SOL     OW32182   1.702   6.593   4.626
10428SOL    HW132183   1.668   6.679   4.589
10428SOL    HW232184   1.635   6.521   4.609
10429SOL     OW32185   2.456   4.128   1.698
10429SOL    HW132186   2.451   4.211   1.643
10429SOL    HW232187   2.549   4.091   1.696
10430SOL     OW32188   3.179   0.335   4.076
10430SOL    HW132189   3.087   0.326   4.037
10430SOL    HW232190   3.190   0.269   4.150
10431SOL     OW32191   4.180   2.230   4.143
10431SOL    HW132192   4.220   2.207   4.055
10431SOL    HW232193   4.120   2.310   4.133
10432SOL     OW32194   0.352   4.698   0.980
10432SOL    HW132195   0.342   4.757   0.900
10432SOL    HW232196   0.285   4.624   0.975
10433SOL     OW32197   3.439   6.444   4.396
10433SOL    HW132198   3.365   6.466   4.459
10433SOL    HW232199   3.525   6.482   4.430
10434SOL     OW32200   4.146   1.488   6.872
10434SOL    HW132201   4.206   1.568   6.880
10434SOL    HW232202   4.051   1.517   6.871
10435SOL     OW32203   2.417   1.395   1.705
10435SOL    HW132204   2.494   1.451   1.736
10435SOL    HW232205   2.349   1.454   1.661
10436SOL     OW32206   0.704   3.703   5.304
10436SOL    HW132207   0.765   3.627   5.281
10436SOL    HW232208   0.687   3.757   5.222
10437SOL     OW32209   6.766   6.716   4.945
10437SOL    HW132210   6.694   6.663   4.899
10437SOL    HW232211   6.855   6.677   4.922
10438SOL     OW32212   7.003   5.651   6.758
10438SOL    HW132213   0.086   5.663   6.756
10438SOL    HW232214   6.980   5.566   6.807
10439SOL     OW32215   6.090   5.836   4.755
10439SOL    HW132216   6.053   5.858   4.845
10439SOL    HW232217   6.130   5.745   4.756
10440SOL     OW32218   6.012   2.628   1.263
10440SOL    HW132219   6.043   2.534   1.281
10440SOL    HW232220   5.999   2.639   1.164
10441SOL     OW32221   4.659   1.767   6.466
10441SOL    HW132222   4.682   1.782   6.562
10441SOL    HW232223   4.649   1.669   6.448
10442SOL     OW32224   2.184   0.898   5.222
10442SOL    HW132225   2.238   0.830   5.271
10442SOL    HW232226   2.242   0.976   5.199
10443SOL     OW32227   0.740   0.844   0.201
10443SOL    HW132228   0.738   0.794   0.115
10443SOL    HW232229   0.714   0.783   0.276
10444SOL     OW32230   4.325   5.500   3.463
10444SOL    HW132231   4.352   5.596   3.459
10444SOL    HW232232   4.399   5.446   3.504
10445SOL     OW32233   1.123   3.532   4.038
10445SOL    HW132234   1.154   3.438   4.055
10445SOL    HW232235   1.055   3.531   3.965
10446SOL     OW32236   2.612   4.639   4.830
10446SOL    HW132237   2.681   4.633   4.903
10446SOL    HW232238   2.530   4.588   4.858
10447SOL     OW32239   1.211   2.100   2.972
10447SOL    HW132240   1.228   2.039   3.049
10447SOL    HW232241   1.298   2.121   2.927
10448SOL     OW32242   0.647   5.485   2.621
10448SOL    HW132243   0.553   5.517   2.635
10448SOL    HW232244   0.668   5.412   2.686
10449SOL     OW32245   3.880   4.937   4.548
10449SOL    HW132246   3.920   4.904   4.634
10449SOL    HW232247   3.784   4.960   4.563
10450SOL     OW32248   0.394   2.033   4.213
10450SOL    HW132249   0.382   2.035   4.114
10450SOL    HW232250   0.359   2.117   4.253
10451SOL     OW32251   2.971   1.835   4.762
10451SOL    HW132252   2.930   1.925   4.774
10451SOL    HW232253   2.989   1.794   4.851
10452SOL     OW32254   6.660   2.659   4.201
10452SOL    HW132255   6.755   2.662   4.170
10452SOL    HW232256   6.648   2.581   4.262
10453SOL     OW32257   3.022   5.498   4.078
10453SOL    HW132258   3.050   5.460   3.990
10453SOL    HW232259   3.016   5.424   4.145
10454SOL     OW32260   6.471   1.305   6.946
10454SOL    HW132261   6.467   1.337   6.851
10454SOL    HW232262   6.528   1.367   7.000
10455SOL     OW32263   0.436   6.063   2.278
10455SOL    HW132264   0.495   6.142   2.263
10455SOL    HW232265   0.428   6.045   2.376
10456SOL     OW32266   1.896   5.392   6.455
10456SOL    HW132267   1.921   5.320   6.521
10456SOL    HW232268   1.806   5.371   6.417
10457SOL     OW32269   4.140   1.327   0.835
10457SOL    HW132270   4.155   1.303   0.931
10457SOL    HW232271   4.051   1.371   0.825
10458SOL     OW32272   1.386   6.469   0.097
10458SOL    HW132273   1.342   6.467   0.187
10458SOL    HW232274   1.483   6.491   0.108
10459SOL     OW32275   5.561   5.940   1.350
10459SOL    HW132276   5.544   5.844   1.375
10459SOL    HW232277   5.476   5.992   1.357
10460SOL     OW32278   6.196   0.990   6.187
10460SOL    HW132279   6.185   0.897   6.150
10460SOL    HW232280   6.151   1.056   6.127
10461SOL     OW32281   6.870   3.952   5.283
10461SOL    HW132282   6.911   3.868   5.247
10461SOL    HW232283   6.886   3.957   5.382
10462SOL     OW32284   4.359   3.770   6.764
10462SOL    HW132285   4.309   3.753   6.849
10462SOL    HW232286   4.457   3.768   6.781
10463SOL     OW32287   4.641   2.274   5.237
10463SOL    HW132288   4.556   2.312   5.202
10463SOL    HW232289   4.663   2.190   5.188
10464SOL     OW32290   6.368   4.664   2.029
10464SOL    HW132291   6.457   4.619   2.041
10464SOL    HW232292   6.317   4.617   1.956
10465SOL     OW32293   5.254   4.202   1.264
10465SOL    HW132294   5.156   4.206   1.245
10465SOL    HW232295   5.294   4.125   1.215
10466SOL     OW32296   5.911   4.073   4.983
10466SOL    HW132297   5.894   4.159   5.031
10466SOL    HW232298   6.000   4.037   5.010
10467SOL     OW32299   0.347   2.876   6.652
10467SOL    HW132300   0.351   2.912   6.559
10467SOL    HW232301   0.378   2.945   6.716
10468SOL     OW32302   1.566   3.656   3.785
10468SOL    HW132303   1.494   3.646   3.717
10468SOL    HW232304   1.655   3.647   3.740
10469SOL     OW32305   1.312   1.202   3.956
10469SOL    HW132306   1.363   1.288   3.952
10469SOL    HW232307   1.258   1.192   3.872
10470SOL     OW32308   2.111   3.919   1.858
10470SOL    HW132309   2.031   3.905   1.800
10470SOL    HW232310   2.121   3.842   1.921
10471SOL     OW32311   2.681   4.673   5.837
10471SOL    HW132312   2.614   4.602   5.859
10471SOL    HW232313   2.759   4.632   5.790
10472SOL     OW32314   4.438   5.398   5.952
10472SOL    HW132315   4.499   5.368   6.025
10472SOL    HW232316   4.392   5.482   5.979
10473SOL     OW32317   6.313   5.503   0.217
10473SOL    HW132318   6.397   5.501   0.271
10473SOL    HW232319   6.261   5.419   0.234
10474SOL     OW32320   6.118   5.708   5.341
10474SOL    HW132321   6.040   5.718   5.403
10474SOL    HW232322   6.201   5.687   5.394
10475SOL     OW32323   0.682   5.563   1.254
10475SOL    HW132324   0.712   5.602   1.168
10475SOL    HW232325   0.637   5.633   1.309
10476SOL     OW32326   5.211   6.587   1.285
10476SOL    HW132327   5.201   6.662   1.219
10476SOL    HW232328   5.156   6.509   1.255
10477SOL     OW32329   0.017   5.511   3.678
10477SOL    HW132330   6.996   5.603   3.692
10477SOL    HW232331   6.974   5.460   3.617
10478SOL     OW32332   0.102   0.709   6.458
10478SOL    HW132333   0.188   0.670   6.423
10478SOL    HW232334   0.028   0.686   6.395
10479SOL     OW32335   0.202   4.032   2.432
10479SOL    HW132336   0.115   4.077   2.413
10479SOL    HW232337   0.207   4.011   2.530
10480SOL     OW32338   2.492   0.642   3.268
10480SOL    HW132339   2.562   0.685   3.210
10480SOL    HW232340   2.536   0.586   3.338
10481SOL     OW32341   6.434   1.052   1.291
10481SOL    HW132342   6.508   0.985   1.280
10481SOL    HW232343   6.437   1.117   1.215
10482SOL     OW32344   5.770   4.066   4.060
10482SOL    HW132345   5.797   3.971   4.077
10482SOL    HW232346   5.807   4.095   3.972
10483SOL     OW32347   6.063   0.825   6.914
10483SOL    HW132348   6.146   0.807   6.860
10483SOL    HW232349   6.039   0.922   6.907
10484SOL     OW32350   5.865   1.037   1.807
10484SOL    HW132351   5.928   1.073   1.738
10484SOL    HW232352   5.822   1.113   1.856
10485SOL     OW32353   5.915   3.264   5.572
10485SOL    HW132354   5.844   3.219   5.517
10485SOL    HW232355   5.891   3.259   5.669
10486SOL     OW32356   5.581   2.743   2.145
10486SOL    HW132357   5.629   2.656   2.151
10486SOL    HW232358   5.535   2.750   2.057
10487SOL     OW32359   4.346   6.763   2.307
10487SOL    HW132360   4.250   6.737   2.305
10487SOL    HW232361   4.398   6.699   2.364
10488SOL     OW32362   4.207   3.989   6.711
10488SOL    HW132363   4.117   3.950   6.689
10488SOL    HW232364   4.276   3.917   6.710
10489SOL     OW32365   1.734   4.946   5.395
10489SOL    HW132366   1.637   4.969   5.404
10489SOL    HW232367   1.769   4.914   5.483
10490SOL     OW32368   6.075   6.997   4.568
10490SOL    HW132369   6.050   0.025   4.482
10490SOL    HW232370   6.002   7.010   4.635
10491SOL     OW32371   6.416   5.575   5.334
10491SOL    HW132372   6.374   5.492   5.372
10491SOL    HW232373   6.432   5.562   5.236
10492SOL     OW32374   5.114   4.339   5.578
10492SOL    HW132375   5.047   4.399   5.534
10492SOL    HW232376   5.068   4.281   5.645
10493SOL     OW32377   3.150   1.722   1.099
10493SOL    HW132378   3.157   1.762   1.008
10493SOL    HW232379   3.056   1.695   1.117
10494SOL     OW32380   5.679   1.736   5.534
10494SOL    HW132381   5.640   1.649   5.504
10494SOL    HW232382   5.766   1.751   5.488
10495SOL     OW32383   2.181   6.883   6.416
10495SOL    HW132384   2.148   6.957   6.357
10495SOL    HW232385   2.220   6.810   6.359
10496SOL     OW32386   6.277   6.935   5.423
10496SOL    HW132387   6.323   0.007   5.426
10496SOL    HW232388   6.343   6.864   5.397
10497SOL     OW32389   1.627   1.613   6.633
10497SOL    HW132390   1.712   1.560   6.637
10497SOL    HW232391   1.649   1.711   6.634
10498SOL     OW32392   3.273   5.398   5.837
10498SOL    HW132393   3.294   5.496   5.825
10498SOL    HW232394   3.232   5.383   5.926
10499SOL     OW32395   3.222   6.021   3.061
10499SOL    HW132396   3.188   6.033   3.154
10499SOL    HW232397   3.145   6.011   2.998
10500SOL     OW32398   2.232   2.320   6.814
10500SOL    HW132399   2.156   2.257   6.826
10500SOL    HW232400   2.210   2.388   6.745
10501SOL     OW32401   1.999   3.782   2.797
10501SOL    HW132402   2.018   3.768   2.700
10501SOL    HW232403   1.940   3.862   2.808
10502SOL     OW32404   3.043   5.704   4.405
10502SOL    HW132405   3.045   5.678   4.502
10502SOL    HW232406   3.133   5.736   4.377
10503SOL     OW32407   2.083   3.301   6.093
10503SOL    HW132408   2.061   3.399   6.090
10503SOL    HW232409   2.181   3.289   6.103
10504SOL     OW32410   1.920   3.503   1.225
10504SOL    HW132411   1.932   3.413   1.184
10504SOL    HW232412   1.943   3.498   1.323
10505SOL     OW32413   1.227   6.432   0.402
10505SOL    HW132414   1.201   6.338   0.380
10505SOL    HW232415   1.146   6.491   0.398
10506SOL     OW32416   6.784   4.493   5.661
10506SOL    HW132417   6.860   4.549   5.693
10506SOL    HW232418   6.793   4.478   5.562
10507SOL     OW32419   2.446   0.090   3.643
10507SOL    HW132420   2.534   0.123   3.608
10507SOL    HW232421   2.398   0.166   3.688
10508SOL     OW32422   5.979   4.125   3.108
10508SOL    HW132423   5.954   4.080   3.022
10508SOL    HW232424   5.912   4.196   3.130
10509SOL     OW32425   1.923   0.930   5.293
10509SOL    HW132426   1.896   0.854   5.351
10509SOL    HW232427   2.021   0.928   5.276
10510SOL     OW32428   5.727   0.764   6.623
10510SOL    HW132429   5.628   0.751   6.628
10510SOL    HW232430   5.747   0.862   6.619
10511SOL     OW32431   6.465   2.775   1.619
10511SOL    HW132432   6.426   2.683   1.631
10511SOL    HW232433   6.561   2.774   1.650
10512SOL     OW32434   2.543   0.627   6.327
10512SOL    HW132435   2.572   0.600   6.419
10512SOL    HW232436   2.555   0.726   6.316
10513SOL     OW32437   0.355   2.103   0.481
10513SOL    HW132438   0.266   2.149   0.473
10513SOL    HW232439   0.399   2.101   0.391
10514SOL     OW32440   0.548   2.965   1.797
10514SOL    HW132441   0.598   2.913   1.728
10514SOL    HW232442   0.496   2.902   1.855
10515SOL     OW32443   0.080   3.124   4.826
10515SOL    HW132444   0.114   3.138   4.919
10515SOL    HW232445   0.107   3.201   4.769
10516SOL     OW32446   2.456   6.993   1.172
10516SOL    HW132447   2.512   6.911   1.181
10516SOL    HW232448   2.489   0.031   1.095
10517SOL     OW32449   0.618   2.794   3.214
10517SOL    HW132450   0.522   2.789   3.240
10517SOL    HW232451   0.625   2.803   3.115
10518SOL     OW32452   0.711   5.714   2.500
10518SOL    HW132453   0.803   5.742   2.528
10518SOL    HW232454   0.692   5.622   2.535
10519SOL     OW32455   4.502   3.074   5.938
10519SOL    HW132456   4.408   3.100   5.961
10519SOL    HW232457   4.544   3.145   5.882
10520SOL     OW32458   3.083   4.923   6.109
10520SOL    HW132459   3.064   4.841   6.054
10520SOL    HW232460   3.162   4.906   6.167
10521SOL     OW32461   6.583   5.576   2.321
10521SOL    HW132462   6.600   5.665   2.364
10521SOL    HW232463   6.568   5.507   2.392
10522SOL     OW32464   0.026   0.039   2.102
10522SOL    HW132465   6.955   0.022   2.055
10522SOL    HW232466   0.073   6.968   2.118
10523SOL     OW32467   6.762   6.249   6.215
10523SOL    HW132468   6.672   6.293   6.204
10523SOL    HW232469   6.834   6.313   6.186
10524SOL     OW32470   4.759   0.961   4.600
10524SOL    HW132471   4.850   0.921   4.608
10524SOL    HW232472   4.699   0.920   4.668
10525SOL     OW32473   3.069   6.910   4.914
10525SOL    HW132474   2.982   6.882   4.874
10525SOL    HW232475   3.052   6.964   4.997
10526SOL     OW32476   4.604   6.496   2.725
10526SOL    HW132477   4.643   6.583   2.755
10526SOL    HW232478   4.622   6.426   2.793
10527SOL     OW32479   1.569   2.809   4.682
10527SOL    HW132480   1.539   2.750   4.607
10527SOL    HW232481   1.660   2.780   4.713
10528SOL     OW32482   5.829   4.955   5.616
10528SOL    HW132483   5.816   4.949   5.517
10528SOL    HW232484   5.925   4.976   5.635
10529SOL     OW32485   0.217   6.271   4.460
10529SOL    HW132486   0.129   6.310   4.489
10529SOL    HW232487   0.205   6.174   4.438
10530SOL     OW32488   1.991   2.190   5.130
10530SOL    HW132489   1.922   2.262   5.120
10530SOL    HW232490   2.078   2.232   5.156
10531SOL     OW32491   1.897   2.498   4.715
10531SOL    HW132492   1.820   2.435   4.724
10531SOL    HW232493   1.961   2.463   4.646
10532SOL     OW32494   3.324   3.568   4.822
10532SOL    HW132495   3.233   3.550   4.859
10532SOL    HW232496   3.392   3.517   4.875
10533SOL     OW32497   3.119   1.170   6.252
10533SOL    HW132498   3.085   1.202   6.164
10533SOL    HW232499   3.072   1.220   6.325
10534SOL     OW32500   5.863   4.949   1.627
10534SOL    HW132501   5.942   4.923   1.683
10534SOL    HW232502   5.787   4.973   1.686
10535SOL     OW32503   6.790   0.843   1.744
10535SOL    HW132504   6.700   0.841   1.787
10535SOL    HW232505   6.780   0.872   1.648
10536SOL     OW32506   5.599   6.017   2.988
10536SOL    HW132507   5.545   6.101   2.986
10536SOL    HW232508   5.650   6.013   3.073
10537SOL     OW32509   6.286   5.648   1.074
10537SOL    HW132510   6.293   5.731   1.018
10537SOL    HW232511   6.195   5.643   1.114
10538SOL     OW32512   4.189   3.750   6.985
10538SOL    HW132513   4.185   3.799   0.056
10538SOL    HW232514   4.098   3.749   6.943
10539SOL     OW32515   0.786   3.086   5.043
10539SOL    HW132516   0.799   3.037   4.956
10539SOL    HW232517   0.807   3.183   5.029
10540SOL     OW32518   3.517   0.518   0.051
10540SOL    HW132519   3.568   0.472   0.123
10540SOL    HW232520   3.549   0.613   0.042
10541SOL     OW32521   3.767   2.717   1.619
10541SOL    HW132522   3.672   2.689   1.634
10541SOL    HW232523   3.770   2.816   1.604
10542SOL     OW32524   1.609   1.931   0.551
10542SOL    HW132525   1.510   1.927   0.539
10542SOL    HW232526   1.630   1.962   0.644
10543SOL     OW32527   2.182   0.011   4.647
10543SOL    HW132528   2.242   0.084   4.615
10543SOL    HW232529   2.143   6.979   4.568
10544SOL     OW32530   7.001   2.673   1.474
10544SOL    HW132531   6.970   2.592   1.424
10544SOL    HW232532   0.083   2.666   1.490
10545SOL     OW32533   4.607   1.701   3.038
10545SOL    HW132534   4.530   1.703   3.101
10545SOL    HW232535   4.658   1.787   3.046
10546SOL     OW32536   4.362   1.444   5.606
10546SOL    HW132537   4.331   1.421   5.513
10546SOL    HW232538   4.352   1.542   5.621
10547SOL     OW32539   4.869   6.492   1.753
10547SOL    HW132540   4.920   6.460   1.833
10547SOL    HW232541   4.834   6.584   1.770
10548SOL     OW32542   4.229   4.237   5.322
10548SOL    HW132543   4.256   4.312   5.261
10548SOL    HW232544   4.139   4.203   5.294
10549SOL     OW32545   1.144   1.740   1.679
10549SOL    HW132546   1.235   1.731   1.638
10549SOL    HW232547   1.117   1.653   1.720
10550SOL     OW32548   5.174   6.852   4.698
10550SOL    HW132549   5.238   6.776   4.689
10550SOL    HW232550   5.213   6.921   4.759
10551SOL     OW32551   1.035   2.840   6.317
10551SOL    HW132552   1.042   2.741   6.318
10551SOL    HW232553   0.939   2.868   6.321
10552SOL     OW32554   3.560   1.747   5.438
10552SOL    HW132555   3.570   1.723   5.535
10552SOL    HW232556   3.631   1.700   5.385
10553SOL     OW32557   2.925   5.160   6.161
10553SOL    HW132558   2.972   5.073   6.149
10553SOL    HW232559   2.888   5.166   6.254
10554SOL     OW32560   6.118   4.092   5.520
10554SOL    HW132561   6.110   4.167   5.585
10554SOL    HW232562   6.068   4.012   5.555
10555SOL     OW32563   3.793   2.992   1.619
10555SOL    HW132564   3.758   3.037   1.701
10555SOL    HW232565   3.886   3.026   1.599
10556SOL     OW32566   1.219   3.780   3.905
10556SOL    HW132567   1.299   3.840   3.904
10556SOL    HW232568   1.237   3.701   3.964
10557SOL     OW32569   5.383   1.396   3.645
10557SOL    HW132570   5.346   1.471   3.591
10557SOL    HW232571   5.461   1.355   3.597
10558SOL     OW32572   4.823   6.119   5.064
10558SOL    HW132573   4.776   6.133   4.976
10558SOL    HW232574   4.791   6.034   5.105
10559SOL     OW32575   4.364   2.587   0.676
10559SOL    HW132576   4.372   2.658   0.606
10559SOL    HW232577   4.354   2.497   0.633
10560SOL     OW32578   6.909   2.252   4.220
10560SOL    HW132579   6.885   2.255   4.317
10560SOL    HW232580   6.926   2.345   4.187
10561SOL     OW32581   2.165   4.322   6.584
10561SOL    HW132582   2.195   4.416   6.575
10561SOL    HW232583   2.118   4.293   6.500
10562SOL     OW32584   3.776   1.773   0.427
10562SOL    HW132585   3.677   1.759   0.425
10562SOL    HW232586   3.811   1.782   0.334
10563SOL     OW32587   1.050   2.273   2.758
10563SOL    HW132588   1.082   2.200   2.818
10563SOL    HW232589   1.120   2.292   2.688
10564SOL     OW32590   6.585   2.326   2.616
10564SOL    HW132591   6.636   2.287   2.692
10564SOL    HW232592   6.508   2.266   2.593
10565SOL     OW32593   5.134   1.674   4.932
10565SOL    HW132594   5.096   1.581   4.928
10565SOL    HW232595   5.177   1.697   4.845
10566SOL     OW32596   4.611   5.307   6.683
10566SOL    HW132597   4.660   5.268   6.605
10566SOL    HW232598   4.527   5.256   6.699
10567SOL     OW32599   2.734   5.358   4.437
10567SOL    HW132600   2.715   5.260   4.439
10567SOL    HW232601   2.673   5.403   4.372
10568SOL     OW32602   3.633   1.310   3.063
10568SOL    HW132603   3.656   1.276   2.972
10568SOL    HW232604   3.540   1.347   3.062
10569SOL     OW32605   6.723   2.333   3.230
10569SOL    HW132606   6.792   2.281   3.280
10569SOL    HW232607   6.669   2.270   3.173
10570SOL     OW32608   1.524   4.462   0.862
10570SOL    HW132609   1.475   4.535   0.814
10570SOL    HW232610   1.548   4.493   0.954
10571SOL     OW32611   6.584   6.807   4.626
10571SOL    HW132612   6.673   6.769   4.600
10571SOL    HW232613   6.592   6.906   4.634
10572SOL     OW32614   6.993   3.718   1.284
10572SOL    HW132615   6.913   3.661   1.303
10572SOL    HW232616   0.043   3.710   1.358
10573SOL     OW32617   6.211   4.744   5.611
10573SOL    HW132618   6.220   4.654   5.654
10573SOL    HW232619   6.283   4.805   5.646
10574SOL     OW32620   0.349   2.466   3.119
10574SOL    HW132621   0.438   2.478   3.163
10574SOL    HW232622   0.360   2.473   3.019
10575SOL     OW32623   1.037   6.690   6.573
10575SOL    HW132624   1.080   6.724   6.489
10575SOL    HW232625   1.094   6.619   6.614
10576SOL     OW32626   1.167   5.560   3.103
10576SOL    HW132627   1.209   5.550   3.193
10576SOL    HW232628   1.236   5.592   3.038
10577SOL     OW32629   0.604   2.342   5.573
10577SOL    HW132630   0.535   2.304   5.635
10577SOL    HW232631   0.578   2.435   5.547
10578SOL     OW32632   5.139   1.263   5.601
10578SOL    HW132633   5.096   1.221   5.521
10578SOL    HW232634   5.233   1.287   5.579
10579SOL     OW32635   5.397   6.744   0.695
10579SOL    HW132636   5.373   6.664   0.640
10579SOL    HW232637   5.326   6.759   0.764
10580SOL     OW32638   0.588   5.509   6.824
10580SOL    HW132639   0.489   5.500   6.830
10580SOL    HW232640   0.617   5.497   6.729
10581SOL     OW32641   4.659   2.774   3.494
10581SOL    HW132642   4.679   2.863   3.454
10581SOL    HW232643   4.643   2.707   3.421
10582SOL     OW32644   3.190   4.595   0.063
10582SOL    HW132645   3.188   4.522   7.011
10582SOL    HW232646   3.155   4.680   0.023
10583SOL     OW32647   4.529   1.171   1.417
10583SOL    HW132648   4.475   1.155   1.500
10583SOL    HW232649   4.567   1.084   1.385
10584SOL     OW32650   5.935   6.470   1.222
10584SOL    HW132651   5.934   6.565   1.190
10584SOL    HW232652   5.962   6.410   1.146
10585SOL     OW32653   2.721   4.122   6.213
10585SOL    HW132654   2.654   4.157   6.148
10585SOL    HW232655   2.709   4.167   6.301
10586SOL     OW32656   4.641   1.989   1.355
10586SOL    HW132657   4.624   2.084   1.382
10586SOL    HW232658   4.732   1.982   1.314
10587SOL     OW32659   6.280   3.188   0.442
10587SOL    HW132660   6.285   3.125   0.519
10587SOL    HW232661   6.185   3.202   0.416
10588SOL     OW32662   1.630   5.082   3.451
10588SOL    HW132663   1.631   5.041   3.360
10588SOL    HW232664   1.539   5.118   3.471
10589SOL     OW32665   5.838   1.515   3.492
10589SOL    HW132666   5.830   1.564   3.579
10589SOL    HW232667   5.894   1.433   3.505
10590SOL     OW32668   1.665   0.133   5.311
10590SOL    HW132669   1.642   0.049   5.262
10590SOL    HW232670   1.733   0.185   5.259
10591SOL     OW32671   1.562   2.491   1.916
10591SOL    HW132672   1.661   2.481   1.930
10591SOL    HW232673   1.513   2.430   1.979
10592SOL     OW32674   5.343   1.531   6.254
10592SOL    HW132675   5.329   1.584   6.338
10592SOL    HW232676   5.398   1.450   6.275
10593SOL     OW32677   1.053   4.298   1.610
10593SOL    HW132678   1.102   4.354   1.543
10593SOL    HW232679   1.100   4.302   1.698
10594SOL     OW32680   1.312   1.290   4.580
10594SOL    HW132681   1.323   1.193   4.601
10594SOL    HW232682   1.247   1.301   4.505
10595SOL     OW32683   2.205   6.035   4.708
10595SOL    HW132684   2.288   5.979   4.713
10595SOL    HW232685   2.217   6.106   4.639
10596SOL     OW32686   3.053   1.129   2.010
10596SOL    HW132687   3.101   1.093   2.089
10596SOL    HW232688   3.085   1.084   1.927
10597SOL     OW32689   1.566   0.429   3.862
10597SOL    HW132690   1.531   0.449   3.771
10597SOL    HW232691   1.634   0.356   3.856
10598SOL     OW32692   2.446   0.590   0.648
10598SOL    HW132693   2.501   0.509   0.671
10598SOL    HW232694   2.450   0.607   0.550
10599SOL     OW32695   4.628   0.477   6.553
10599SOL    HW132696   4.699   0.546   6.541
10599SOL    HW232697   4.639   0.405   6.485
10600SOL     OW32698   1.641   3.406   4.881
10600SOL    HW132699   1.715   3.469   4.855
10600SOL    HW232700   1.630   3.337   4.810
10601SOL     OW32701   3.270   6.280   5.357
10601SOL    HW132702   3.368   6.298   5.345
10601SOL    HW232703   3.222   6.299   5.272
10602SOL     OW32704   4.631   2.059   1.685
10602SOL    HW132705   4.580   2.106   1.613
10602SOL    HW232706   4.729   2.068   1.668
10603SOL     OW32707   0.761   4.888   5.377
10603SOL    HW132708   0.688   4.957   5.377
10603SOL    HW232709   0.837   4.919   5.321
10604SOL     OW32710   0.448   4.094   6.172
10604SOL    HW132711   0.424   4.147   6.091
10604SOL    HW232712   0.475   4.156   6.245
10605SOL     OW32713   1.984   5.124   6.534
10605SOL    HW132714   2.047   5.152   6.461
10605SOL    HW232715   1.923   5.053   6.500
10606SOL     OW32716   0.352   1.459   2.181
10606SOL    HW132717   0.447   1.440   2.160
10606SOL    HW232718   0.347   1.525   2.256
10607SOL     OW32719   5.564   4.289   6.344
10607SOL    HW132720   5.662   4.270   6.337
10607SOL    HW232721   5.539   4.303   6.440
10608SOL     OW32722   5.647   0.024   2.516
10608SOL    HW132723   5.635   0.034   2.417
10608SOL    HW232724   5.736   0.059   2.542
10609SOL     OW32725   4.145   6.923   2.582
10609SOL    HW132726   4.155   6.991   2.654
10609SOL    HW232727   4.172   6.833   2.617
10610SOL     OW32728   2.038   4.331   5.010
10610SOL    HW132729   2.040   4.241   5.055
10610SOL    HW232730   2.131   4.359   4.989
10611SOL     OW32731   4.896   2.325   5.946
10611SOL    HW132732   4.811   2.290   5.986
10611SOL    HW232733   4.927   2.263   5.874
10612SOL     OW32734   1.828   0.318   1.044
10612SOL    HW132735   1.732   0.327   1.069
10612SOL    HW232736   1.867   0.237   1.088
10613SOL     OW32737   0.828   6.400   6.944
10613SOL    HW132738   0.866   6.378   6.854
10613SOL    HW232739   0.798   6.496   6.944
10614SOL     OW32740   0.447   0.441   2.690
10614SOL    HW132741   0.477   0.524   2.738
10614SOL    HW232742   0.361   0.459   2.643
10615SOL     OW32743   0.259   6.750   5.369
10615SOL    HW132744   0.284   6.653   5.370
10615SOL    HW232745   0.215   6.773   5.282
10616SOL     OW32746   2.862   5.730   1.066
10616SOL    HW132747   2.840   5.763   0.975
10616SOL    HW232748   2.938   5.785   1.104
10617SOL     OW32749   0.673   1.145   6.508
10617SOL    HW132750   0.757   1.091   6.520
10617SOL    HW232751   0.594   1.087   6.526
10618SOL     OW32752   6.518   4.189   0.558
10618SOL    HW132753   6.543   4.280   0.526
10618SOL    HW232754   6.598   4.146   0.601
10619SOL     OW32755   0.284   3.487   3.415
10619SOL    HW132756   0.296   3.584   3.436
10619SOL    HW232757   0.271   3.475   3.317
10620SOL     OW32758   1.414   5.263   4.337
10620SOL    HW132759   1.491   5.204   4.362
10620SOL    HW232760   1.415   5.278   4.238
10621SOL     OW32761   3.620   6.451   0.766
10621SOL    HW132762   3.651   6.478   0.857
10621SOL    HW232763   3.643   6.355   0.750
10622SOL     OW32764   3.918   2.059   0.789
10622SOL    HW132765   3.969   2.006   0.858
10622SOL    HW232766   3.911   2.154   0.818
10623SOL     OW32767   6.695   1.230   4.811
10623SOL    HW132768   6.790   1.255   4.829
10623SOL    HW232769   6.635   1.280   4.873
10624SOL     OW32770   2.888   1.177   4.307
10624SOL    HW132771   2.788   1.188   4.303
10624SOL    HW232772   2.917   1.170   4.402
10625SOL     OW32773   0.727   2.881   0.668
10625SOL    HW132774   0.820   2.845   0.671
10625SOL    HW232775   0.679   2.843   0.589
10626SOL     OW32776   6.681   2.201   2.835
10626SOL    HW132777   6.688   2.101   2.842
10626SOL    HW232778   6.619   2.235   2.906
10627SOL     OW32779   5.147   5.809   5.101
10627SOL    HW132780   5.141   5.754   5.184
10627SOL    HW232781   5.208   5.765   5.035
10628SOL     OW32782   6.724   5.655   5.216
10628SOL    HW132783   6.788   5.586   5.250
10628SOL    HW232784   6.641   5.610   5.184
10629SOL     OW32785   2.706   4.410   6.375
10629SOL    HW132786   2.748   4.490   6.418
10629SOL    HW232787   2.709   4.419   6.276
10630SOL     OW32788   5.246   0.977   1.794
10630SOL    HW132789   5.305   1.055   1.817
10630SOL    HW232790   5.241   0.915   1.872
10631SOL     OW32791   1.285   6.896   4.775
10631SOL    HW132792   1.298   6.813   4.720
10631SOL    HW232793   1.220   6.877   4.848
10632SOL     OW32794   0.066   3.229   6.582
10632SOL    HW132795   0.151   3.282   6.584
10632SOL    HW232796   0.042   3.201   6.675
10633SOL     OW32797   1.242   5.166   0.154
10633SOL    HW132798   1.234   5.241   0.219
10633SOL    HW232799   1.289   5.089   0.197
10634SOL     OW32800   3.617   6.544   2.265
10634SOL    HW132801   3.526   6.585   2.269
10634SOL    HW232802   3.609   6.445   2.281
10635SOL     OW32803   1.730   1.294   1.670
10635SOL    HW132804   1.815   1.308   1.721
10635SOL    HW232805   1.694   1.382   1.642
10636SOL     OW32806   5.007   1.700   0.230
10636SOL    HW132807   5.086   1.752   0.198
10636SOL    HW232808   4.989   1.625   0.166
10637SOL     OW32809   3.134   3.915   6.201
10637SOL    HW132810   3.178   3.877   6.119
10637SOL    HW232811   3.035   3.919   6.187
10638SOL     OW32812   6.224   0.604   5.590
10638SOL    HW132813   6.229   0.504   5.598
10638SOL    HW232814   6.298   0.645   5.643
10639SOL     OW32815   3.653   2.078   5.029
10639SOL    HW132816   3.566   2.040   4.998
10639SOL    HW232817   3.637   2.162   5.080
10640SOL     OW32818   4.915   6.068   0.726
10640SOL    HW132819   4.926   6.007   0.647
10640SOL    HW232820   5.000   6.116   0.743
10641SOL     OW32821   3.424   6.786   0.238
10641SOL    HW132822   3.394   6.691   0.246
10641SOL    HW232823   3.470   6.799   0.150
10642SOL     OW32824   0.069   5.001   0.835
10642SOL    HW132825   0.140   5.031   0.899
10642SOL    HW232826   0.051   4.904   0.849
10643SOL     OW32827   4.063   3.312   5.308
10643SOL    HW132828   4.136   3.377   5.285
10643SOL    HW232829   3.974   3.354   5.293
10644SOL     OW32830   3.915   1.147   5.607
10644SOL    HW132831   3.888   1.062   5.562
10644SOL    HW232832   4.014   1.159   5.597
10645SOL     OW32833   2.128   7.004   4.914
10645SOL    HW132834   2.032   6.976   4.909
10645SOL    HW232835   2.169   7.000   4.823
10646SOL     OW32836   6.851   5.189   6.875
10646SOL    HW132837   6.945   5.154   6.877
10646SOL    HW232838   6.853   5.288   6.864
10647SOL     OW32839   0.257   5.822   0.613
10647SOL    HW132840   0.290   5.825   0.707
10647SOL    HW232841   0.177   5.881   0.604
10648SOL     OW32842   4.962   4.251   5.785
10648SOL    HW132843   4.912   4.338   5.783
10648SOL    HW232844   4.897   4.175   5.779
10649SOL     OW32845   0.319   4.636   6.779
10649SOL    HW132846   0.264   4.683   6.711
10649SOL    HW232847   0.406   4.684   6.790
10650SOL     OW32848   2.456   0.279   5.656
10650SOL    HW132849   2.521   0.350   5.628
10650SOL    HW232850   2.443   0.215   5.580
10651SOL     OW32851   2.277   0.433   4.754
10651SOL    HW132852   2.184   0.435   4.789
10651SOL    HW232853   2.287   0.502   4.682
10652SOL     OW32854   4.656   1.167   0.773
10652SOL    HW132855   4.685   1.111   0.851
10652SOL    HW232856   4.576   1.221   0.800
10653SOL     OW32857   6.306   3.899   3.891
10653SOL    HW132858   6.270   3.835   3.824
10653SOL    HW232859   6.232   3.927   3.953
10654SOL     OW32860   4.791   0.857   1.645
10654SOL    HW132861   4.860   0.887   1.711
10654SOL    HW232862   4.700   0.882   1.678
10655SOL     OW32863   2.429   5.798   0.823
10655SOL    HW132864   2.359   5.760   0.883
10655SOL    HW232865   2.499   5.843   0.878
10656SOL     OW32866   6.401   2.718   6.298
10656SOL    HW132867   6.439   2.699   6.388
10656SOL    HW232868   6.439   2.654   6.231
10657SOL     OW32869   6.627   0.529   0.938
10657SOL    HW132870   6.623   0.621   0.898
10657SOL    HW232871   6.591   0.463   0.872
10658SOL     OW32872   7.000   6.321   4.139
10658SOL    HW132873   0.080   6.349   4.145
10658SOL    HW232874   6.979   6.291   4.046
10659SOL     OW32875   4.790   1.329   1.273
10659SOL    HW132876   4.772   1.387   1.352
10659SOL    HW232877   4.791   1.233   1.301
10660SOL     OW32878   4.978   5.546   5.744
10660SOL    HW132879   5.015   5.597   5.822
10660SOL    HW232880   5.040   5.472   5.721
10661SOL     OW32881   6.931   1.002   1.903
10661SOL    HW132882   6.850   0.984   1.847
10661SOL    HW232883   6.917   0.965   1.995
10662SOL     OW32884   6.906   2.002   0.521
10662SOL    HW132885   6.847   1.976   0.597
10662SOL    HW232886   6.925   2.100   0.525
10663SOL     OW32887   0.779   2.119   1.242
10663SOL    HW132888   0.686   2.088   1.261
10663SOL    HW232889   0.777   2.214   1.210
10664SOL     OW32890   2.605   5.317   6.160
10664SOL    HW132891   2.594   5.278   6.068
10664SOL    HW232892   2.514   5.331   6.200
10665SOL     OW32893   5.458   1.753   0.083
10665SOL    HW132894   5.414   1.684   0.141
10665SOL    HW232895   5.396   1.830   0.070
10666SOL     OW32896   0.980   6.555   0.420
10666SOL    HW132897   0.900   6.538   0.363
10666SOL    HW232898   0.952   6.566   0.515
10667SOL     OW32899   3.154   2.532   5.635
10667SOL    HW132900   3.109   2.568   5.554
10667SOL    HW232901   3.194   2.443   5.615
10668SOL     OW32902   1.781   0.751   6.130
10668SOL    HW132903   1.864   0.772   6.079
10668SOL    HW232904   1.781   0.655   6.157
10669SOL     OW32905   2.014   6.016   6.796
10669SOL    HW132906   2.110   6.020   6.823
10669SOL    HW232907   1.989   5.921   6.775
10670SOL     OW32908   6.103   4.190   4.714
10670SOL    HW132909   6.108   4.138   4.799
10670SOL    HW232910   6.086   4.287   4.735
10671SOL     OW32911   1.829   2.739   3.310
10671SOL    HW132912   1.809   2.659   3.366
10671SOL    HW232913   1.743   2.782   3.282
10672SOL     OW32914   6.711   2.260   0.727
10672SOL    HW132915   6.804   2.277   0.762
10672SOL    HW232916   6.645   2.308   0.784
10673SOL     OW32917   3.533   3.977   3.961
10673SOL    HW132918   3.629   3.966   3.985
10673SOL    HW232919   3.526   4.010   3.867
10674SOL     OW32920   4.167   1.407   2.348
10674SOL    HW132921   4.127   1.398   2.439
10674SOL    HW232922   4.119   1.478   2.297
10675SOL     OW32923   1.358   1.556   6.091
10675SOL    HW132924   1.363   1.654   6.072
10675SOL    HW232925   1.309   1.509   6.018
10676SOL     OW32926   6.677   0.865   0.138
10676SOL    HW132927   6.593   0.859   0.084
10676SOL    HW232928   6.723   0.951   0.118
10677SOL     OW32929   5.514   1.538   0.381
10677SOL    HW132930   5.453   1.548   0.302
10677SOL    HW232931   5.545   1.628   0.410
10678SOL     OW32932   1.436   5.557   3.640
10678SOL    HW132933   1.419   5.616   3.719
10678SOL    HW232934   1.350   5.543   3.590
10679SOL     OW32935   5.583   5.426   3.694
10679SOL    HW132936   5.646   5.473   3.756
10679SOL    HW232937   5.629   5.346   3.655
10680SOL     OW32938   0.231   2.346   4.087
10680SOL    HW132939   0.136   2.369   4.063
10680SOL    HW232940   0.256   2.259   4.045
10681SOL     OW32941   0.621   3.186   0.156
10681SOL    HW132942   0.592   3.170   0.251
10681SOL    HW232943   0.658   3.102   0.118
10682SOL     OW32944   6.039   2.155   3.421
10682SOL    HW132945   5.998   2.239   3.386
10682SOL    HW232946   5.998   2.131   3.509
10683SOL     OW32947   1.223   0.762   3.990
10683SOL    HW132948   1.302   0.760   4.051
10683SOL    HW232949   1.185   0.670   3.981
10684SOL     OW32950   5.204   5.769   1.020
10684SOL    HW132951   5.174   5.731   0.933
10684SOL    HW232952   5.125   5.800   1.072
10685SOL     OW32953   6.184   2.627   2.487
10685SOL    HW132954   6.274   2.661   2.460
10685SOL    HW232955   6.113   2.675   2.435
10686SOL     OW32956   4.431   4.382   1.299
10686SOL    HW132957   4.465   4.395   1.392
10686SOL    HW232958   4.339   4.344   1.302
10687SOL     OW32959   0.030   5.397   0.924
10687SOL    HW132960   0.026   5.367   0.828
10687SOL    HW232961   6.968   5.456   0.943
10688SOL     OW32962   1.478   4.769   0.903
10688SOL    HW132963   1.541   4.766   0.826
10688SOL    HW232964   1.390   4.731   0.876
10689SOL     OW32965   0.583   0.376   0.752
10689SOL    HW132966   0.543   0.445   0.813
10689SOL    HW232967   0.631   0.308   0.807
10690SOL     OW32968   4.108   0.325   3.645
10690SOL    HW132969   4.196   0.283   3.621
10690SOL    HW232970   4.057   0.344   3.562
10691SOL     OW32971   4.889   1.713   1.387
10691SOL    HW132972   4.904   1.799   1.340
10691SOL    HW232973   4.916   1.723   1.483
10692SOL     OW32974   5.927   6.265   4.296
10692SOL    HW132975   5.963   6.239   4.207
10692SOL    HW232976   5.830   6.288   4.287
10693SOL     OW32977   4.633   2.724   3.926
10693SOL    HW132978   4.670   2.804   3.974
10693SOL    HW232979   4.594   2.660   3.992
10694SOL     OW32980   2.669   6.084   0.094
10694SOL    HW132981   2.581   6.077   0.140
10694SOL    HW232982   2.698   5.993   0.062
10695SOL     OW32983   5.780   3.264   6.088
10695SOL    HW132984   5.776   3.285   6.185
10695SOL    HW232985   5.811   3.344   6.037
10696SOL     OW32986   6.517   6.995   0.392
10696SOL    HW132987   6.459   6.940   0.453
10696SOL    HW232988   6.604   7.014   0.438
10697SOL     OW32989   2.359   5.868   3.358
10697SOL    HW132990   2.451   5.837   3.335
10697SOL    HW232991   2.345   5.862   3.457
10698SOL     OW32992   3.108   0.467   4.522
10698SOL    HW132993   3.082   0.556   4.484
10698SOL    HW232994   3.057   0.395   4.475
10699SOL     OW32995   0.902   2.669   3.620
10699SOL    HW132996   0.924   2.676   3.717
10699SOL    HW232997   0.855   2.582   3.603
10700SOL     OW32998   1.073   3.105   2.381
10700SOL    HW132999   1.150   3.078   2.438
10700SOL    HW233000   1.106   3.133   2.291
10701SOL     OW33001   2.862   6.973   1.113
10701SOL    HW133002   2.781   6.920   1.137
10701SOL    HW233003   2.838   0.027   1.047
10702SOL     OW33004   4.741   2.181   0.502
10702SOL    HW133005   4.794   2.151   0.581
10702SOL    HW233006   4.755   2.118   0.426
10703SOL     OW33007   3.833   3.948   3.977
10703SOL    HW133008   3.862   3.974   4.069
10703SOL    HW233009   3.902   3.889   3.935
10704SOL     OW33010   5.213   5.810   1.973
10704SOL    HW133011   5.202   5.711   1.987
10704SOL    HW233012   5.310   5.833   1.977
10705SOL     OW33013   1.179   3.163   0.020
10705SOL    HW133014   1.171   3.212   6.949
10705SOL    HW233015   1.163   3.066   0.005
10706SOL     OW33016   3.469   3.615   0.674
10706SOL    HW133017   3.398   3.663   0.725
10706SOL    HW233018   3.536   3.577   0.738
10707SOL     OW33019   5.534   0.288   6.482
10707SOL    HW133020   5.604   0.230   6.440
10707SOL    HW233021   5.514   0.256   6.574
10708SOL     OW33022   4.437   1.971   1.854
10708SOL    HW133023   4.356   2.017   1.819
10708SOL    HW233024   4.513   1.983   1.790
10709SOL     OW33025   0.994   0.596   6.316
10709SOL    HW133026   1.052   0.525   6.275
10709SOL    HW233027   0.955   0.561   6.401
10710SOL     OW33028   0.246   6.613   3.537
10710SOL    HW133029   0.205   6.534   3.493
10710SOL    HW233030   0.282   6.675   3.468
10711SOL     OW33031   2.030   3.912   5.312
10711SOL    HW133032   2.082   3.856   5.376
10711SOL    HW233033   1.932   3.902   5.331
10712SOL     OW33034   3.275   1.974   6.895
10712SOL    HW133035   3.368   1.939   6.907
10712SOL    HW233036   3.277   2.057   6.840
10713SOL     OW33037   2.560   7.000   0.027
10713SOL    HW133038   2.461   7.007   0.044
10713SOL    HW233039   2.608   7.004   0.114
10714SOL     OW33040   5.009   5.733   4.205
10714SOL    HW133041   5.066   5.653   4.187
10714SOL    HW233042   4.980   5.733   4.301
10715SOL     OW33043   6.115   0.187   2.696
10715SOL    HW133044   6.114   0.256   2.768
10715SOL    HW233045   6.163   0.222   2.616
10716SOL     OW33046   6.799   1.343   2.038
10716SOL    HW133047   6.844   1.318   1.952
10716SOL    HW233048   6.806   1.441   2.052
10717SOL     OW33049   0.658   6.623   1.775
10717SOL    HW133050   0.588   6.552   1.779
10717SOL    HW233051   0.731   6.594   1.713
10718SOL     OW33052   7.002   4.932   5.255
10718SOL    HW133053   0.058   4.886   5.205
10718SOL    HW233054   0.026   5.002   5.314
10719SOL     OW33055   3.503   6.812   3.411
10719SOL    HW133056   3.596   6.838   3.386
10719SOL    HW233057   3.506   6.739   3.480
10720SOL     OW33058   0.342   2.916   6.142
10720SOL    HW133059   0.281   2.974   6.087
10720SOL    HW233060   0.292   2.881   6.221
10721SOL     OW33061   5.602   1.228   3.872
10721SOL    HW133062   5.580   1.147   3.926
10721SOL    HW233063   5.531   1.297   3.886
10722SOL     OW33064   0.994   5.527   0.453
10722SOL    HW133065   0.996   5.547   0.551
10722SOL    HW233066   0.903   5.546   0.417
10723SOL     OW33067   6.889   3.978   6.383
10723SOL    HW133068   6.947   3.909   6.426
10723SOL    HW233069   6.944   4.035   6.322
10724SOL     OW33070   3.489   6.357   6.026
10724SOL    HW133071   3.511   6.298   6.104
10724SOL    HW233072   3.481   6.302   5.943
10725SOL     OW33073   6.852   0.069   5.557
10725SOL    HW133074   6.757   0.084   5.585
10725SOL    HW233075   6.903   0.032   5.634
10726SOL     OW33076   0.095   0.077   3.143
10726SOL    HW133077   0.060   0.170   3.157
10726SOL    HW233078   0.108   0.033   3.232
10727SOL     OW33079   4.895   6.325   6.311
10727SOL    HW133080   4.951   6.361   6.237
10727SOL    HW233081   4.869   6.399   6.373
10728SOL     OW33082   5.362   5.891   4.026
10728SOL    HW133083   5.400   5.925   4.112
10728SOL    HW233084   5.267   5.921   4.018
10729SOL     OW33085   0.152   3.116   4.082
10729SOL    HW133086   0.119   3.057   4.007
10729SOL    HW233087   0.161   3.061   4.165
10730SOL     OW33088   1.740   5.998   4.493
10730SOL    HW133089   1.757   6.081   4.440
10730SOL    HW233090   1.777   5.919   4.445
10731SOL     OW33091   4.968   4.452   5.347
10731SOL    HW133092   4.878   4.457   5.391
10731SOL    HW233093   4.979   4.362   5.304
10732SOL     OW33094   5.465   5.946   1.984
10732SOL    HW133095   5.558   5.980   1.975
10732SOL    HW233096   5.405   6.021   2.013
10733SOL     OW33097   0.468   1.537   5.971
10733SOL    HW133098   0.446   1.509   6.065
10733SOL    HW233099   0.390   1.518   5.912
10734SOL     OW33100   0.499   0.576   4.500
10734SOL    HW133101   0.544   0.496   4.461
10734SOL    HW233102   0.469   0.555   4.593
10735SOL     OW33103   6.485   0.785   1.782
10735SOL    HW133104   6.413   0.854   1.786
10735SOL    HW233105   6.445   0.695   1.799
10736SOL     OW33106   5.587   5.867   3.521
10736SOL    HW133107   5.534   5.854   3.605
10736SOL    HW233108   5.530   5.912   3.453
10737SOL     OW33109   6.952   0.735   0.472
10737SOL    HW133110   0.021   0.721   0.522
10737SOL    HW233111   6.878   0.686   0.517
10738SOL     OW33112   1.454   6.632   1.690
10738SOL    HW133113   1.456   6.533   1.701
10738SOL    HW233114   1.521   6.660   1.622
10739SOL     OW33115   5.086   2.735   3.967
10739SOL    HW133116   5.147   2.746   3.888
10739SOL    HW233117   5.003   2.686   3.938
10740SOL     OW33118   2.851   0.665   6.035
10740SOL    HW133119   2.814   0.741   6.088
10740SOL    HW233120   2.787   0.587   6.039
10741SOL     OW33121   1.754   2.688   4.389
10741SOL    HW133122   1.689   2.708   4.316
10741SOL    HW233123   1.784   2.773   4.432
10742SOL     OW33124   0.479   0.362   1.962
10742SOL    HW133125   0.469   0.370   1.863
10742SOL    HW233126   0.412   0.421   2.007
10743SOL     OW33127   3.800   2.730   6.241
10743SOL    HW133128   3.884   2.743   6.188
10743SOL    HW233129   3.822   2.734   6.339
10744SOL     OW33130   1.768   1.892   1.206
10744SOL    HW133131   1.838   1.941   1.154
10744SOL    HW233132   1.682   1.942   1.201
10745SOL     OW33133   2.939   5.528   1.206
10745SOL    HW133134   2.884   5.503   1.286
10745SOL    HW233135   2.895   5.605   1.159
10746SOL     OW33136   2.671   5.743   6.075
10746SOL    HW133137   2.598   5.679   6.100
10746SOL    HW233138   2.643   5.836   6.098
10747SOL     OW33139   6.879   6.893   4.614
10747SOL    HW133140   6.858   6.818   4.551
10747SOL    HW233141   6.905   6.855   4.703
10748SOL     OW33142   2.810   6.227   2.548
10748SOL    HW133143   2.766   6.258   2.632
10748SOL    HW233144   2.820   6.128   2.550
10749SOL     OW33145   4.858   3.222   2.208
10749SOL    HW133146   4.841   3.151   2.139
10749SOL    HW233147   4.841   3.185   2.299
10750SOL     OW33148   3.450   1.413   4.206
10750SOL    HW133149   3.430   1.495   4.259
10750SOL    HW233150   3.534   1.426   4.153
10751SOL     OW33151   6.366   6.029   3.595
10751SOL    HW133152   6.418   5.959   3.546
10751SOL    HW233153   6.292   6.064   3.538
10752SOL     OW33154   0.342   6.012   6.643
10752SOL    HW133155   0.272   6.077   6.615
10752SOL    HW233156   0.329   5.925   6.595
10753SOL     OW33157   5.448   6.959   5.198
10753SOL    HW133158   5.488   6.896   5.265
10753SOL    HW233159   5.350   6.969   5.216
10754SOL     OW33160   6.870   5.847   2.492
10754SOL    HW133161   6.818   5.836   2.577
10754SOL    HW233162   6.829   5.920   2.438
10755SOL     OW33163   0.672   2.250   2.361
10755SOL    HW133164   0.617   2.170   2.334
10755SOL    HW233165   0.682   2.251   2.460
10756SOL     OW33166   1.305   6.996   6.283
10756SOL    HW133167   1.393   6.954   6.302
10756SOL    HW233168   1.280   0.040   6.359
10757SOL     OW33169   6.746   2.765   1.642
10757SOL    HW133170   6.718   2.851   1.599
10757SOL    HW233171   6.811   2.718   1.584
10758SOL     OW33172   0.672   1.744   0.225
10758SOL    HW133173   0.575   1.732   0.247
10758SOL    HW233174   0.687   1.716   0.130
10759SOL     OW33175   3.728   4.739   5.543
10759SOL    HW133176   3.809   4.784   5.580
10759SOL    HW233177   3.711   4.654   5.593
10760SOL     OW33178   0.605   5.119   0.192
10760SOL    HW133179   0.616   5.104   0.290
10760SOL    HW233180   0.542   5.196   0.177
10761SOL     OW33181   1.413   1.334   6.740
10761SOL    HW133182   1.369   1.367   6.823
10761SOL    HW233183   1.413   1.407   6.671
10762SOL     OW33184   1.749   6.221   1.209
10762SOL    HW133185   1.764   6.125   1.236
10762SOL    HW233186   1.746   6.278   1.291
10763SOL     OW33187   4.983   1.111   2.028
10763SOL    HW133188   5.034   1.197   2.029
10763SOL    HW233189   4.981   1.073   2.120
10764SOL     OW33190   5.335   6.352   5.040
10764SOL    HW133191   5.326   6.271   5.097
10764SOL    HW233192   5.392   6.329   4.960
10765SOL     OW33193   6.744   2.775   1.284
10765SOL    HW133194   6.836   2.774   1.246
10765SOL    HW233195   6.729   2.861   1.333
10766SOL     OW33196   3.367   5.087   6.703
10766SOL    HW133197   3.332   5.180   6.715
10766SOL    HW233198   3.315   5.024   6.761
10767SOL     OW33199   1.838   4.894   6.457
10767SOL    HW133200   1.767   4.824   6.469
10767SOL    HW233201   1.858   4.903   6.359
10768SOL     OW33202   5.742   6.185   0.302
10768SOL    HW133203   5.832   6.142   0.298
10768SOL    HW233204   5.734   6.252   0.228
10769SOL     OW33205   3.090   3.532   4.942
10769SOL    HW133206   3.086   3.531   5.042
10769SOL    HW233207   3.037   3.610   4.908
10770SOL     OW33208   4.654   6.939   3.740
10770SOL    HW133209   4.579   6.998   3.710
10770SOL    HW233210   4.733   6.995   3.764
10771SOL     OW33211   4.822   5.813   5.847
10771SOL    HW133212   4.768   5.894   5.826
10771SOL    HW233213   4.768   5.731   5.825
10772SOL     OW33214   4.894   3.950   3.514
10772SOL    HW133215   4.902   3.856   3.547
10772SOL    HW233216   4.858   4.008   3.587
10773SOL     OW33217   0.254   4.278   0.892
10773SOL    HW133218   0.244   4.267   0.991
10773SOL    HW233219   0.305   4.200   0.855
10774SOL     OW33220   6.837   2.927   0.421
10774SOL    HW133221   6.811   3.019   0.451
10774SOL    HW233222   6.932   2.909   0.446
10775SOL     OW33223   3.032   4.559   6.598
10775SOL    HW133224   2.988   4.646   6.575
10775SOL    HW233225   2.988   4.519   6.678
10776SOL     OW33226   0.842   3.595   3.440
10776SOL    HW133227   0.939   3.571   3.444
10776SOL    HW233228   0.824   3.671   3.502
10777SOL     OW33229   1.094   6.605   1.795
10777SOL    HW133230   1.149   6.544   1.852
10777SOL    HW233231   1.131   6.698   1.802
10778SOL     OW33232   5.027   0.459   4.028
10778SOL    HW133233   4.985   0.524   3.964
10778SOL    HW233234   5.103   0.503   4.075
10779SOL     OW33235   5.525   3.165   6.063
10779SOL    HW133236   5.619   3.197   6.053
10779SOL    HW233237   5.478   3.171   5.974
10780SOL     OW33238   1.000   5.004   4.711
10780SOL    HW133239   0.946   5.075   4.756
10780SOL    HW233240   0.977   4.915   4.750
10781SOL     OW33241   6.226   2.625   5.641
10781SOL    HW133242   6.185   2.711   5.672
10781SOL    HW233243   6.156   2.569   5.598
10782SOL     OW33244   1.064   3.215   5.251
10782SOL    HW133245   1.062   3.147   5.178
10782SOL    HW233246   1.142   3.197   5.311
10783SOL     OW33247   1.443   3.928   4.029
10783SOL    HW133248   1.475   4.022   4.014
10783SOL    HW233249   1.517   3.864   4.006
10784SOL     OW33250   4.840   5.132   4.002
10784SOL    HW133251   4.848   5.136   3.903
10784SOL    HW233252   4.761   5.077   4.027
10785SOL     OW33253   1.582   5.189   1.819
10785SOL    HW133254   1.537   5.172   1.907
10785SOL    HW233255   1.605   5.102   1.776
10786SOL     OW33256   5.119   1.470   2.378
10786SOL    HW133257   5.075   1.508   2.296
10786SOL    HW233258   5.217   1.485   2.373
10787SOL     OW33259   3.086   1.506   3.862
10787SOL    HW133260   3.154   1.569   3.824
10787SOL    HW233261   3.106   1.489   3.958
10788SOL     OW33262   1.552   3.124   0.369
10788SOL    HW133263   1.502   3.197   0.415
10788SOL    HW233264   1.512   3.108   0.279
10789SOL     OW33265   5.979   2.281   2.764
10789SOL    HW133266   6.077   2.301   2.771
10789SOL    HW233267   5.941   2.271   2.856
10790SOL     OW33268   0.006   2.259   5.455
10790SOL    HW133269   6.923   2.268   5.448
10790SOL    HW233270   0.049   2.341   5.418
10791SOL     OW33271   1.650   3.529   3.305
10791SOL    HW133272   1.695   3.583   3.377
10791SOL    HW233273   1.719   3.494   3.242
10792SOL     OW33274   3.868   1.286   2.336
10792SOL    HW133275   3.916   1.303   2.423
10792SOL    HW233276   3.794   1.352   2.326
10793SOL     OW33277   3.814   2.042   4.342
10793SOL    HW133278   3.844   1.950   4.316
10793SOL    HW233279   3.833   2.106   4.267
10794SOL     OW33280   4.632   2.932   6.497
10794SOL    HW133281   4.574   2.862   6.538
10794SOL    HW233282   4.674   2.896   6.413
10795SOL     OW33283   6.240   3.005   3.248
10795SOL    HW133284   6.226   3.066   3.170
10795SOL    HW233285   6.285   2.921   3.218
10796SOL     OW33286   0.002   1.253   6.675
10796SOL    HW133287   6.979   1.336   6.714
10796SOL    HW233288   0.102   1.262   6.673
10797SOL     OW33289   5.555   4.831   6.732
10797SOL    HW133290   5.648   4.861   6.711
10797SOL    HW233291   5.541   4.739   6.695
10798SOL     OW33292   2.446   5.682   0.255
10798SOL    HW133293   2.424   5.760   0.314
10798SOL    HW233294   2.402   5.694   0.166
10799SOL     OW33295   2.289   0.475   3.192
10799SOL    HW133296   2.354   0.539   3.232
10799SOL    HW233297   2.316   0.455   3.098
10800SOL     OW33298   1.839   0.846   4.844
10800SOL    HW133299   1.882   0.827   4.756
10800SOL    HW233300   1.767   0.779   4.862
10801SOL     OW33301   2.931   6.096   6.712
10801SOL    HW133302   2.949   6.143   6.798
10801SOL    HW233303   2.834   6.072   6.707
10802SOL     OW33304   0.744   4.707   4.142
10802SOL    HW133305   0.821   4.756   4.182
10802SOL    HW233306   0.777   4.647   4.069
10803SOL     OW33307   6.859   4.565   4.763
10803SOL    HW133308   6.958   4.571   4.750
10803SOL    HW233309   6.815   4.565   4.673
10804SOL     OW33310   4.335   4.819   6.682
10804SOL    HW133311   4.360   4.787   6.590
10804SOL    HW233312   4.360   4.750   6.749
10805SOL     OW33313   4.890   5.826   0.578
10805SOL    HW133314   4.988   5.848   0.574
10805SOL    HW233315   4.878   5.727   0.569
10806SOL     OW33316   5.659   2.903   5.577
10806SOL    HW133317   5.715   2.884   5.496
10806SOL    HW233318   5.698   2.981   5.627
10807SOL     OW33319   4.419   2.999   5.350
10807SOL    HW133320   4.412   2.977   5.448
10807SOL    HW233321   4.515   3.001   5.323
10808SOL     OW33322   0.606   2.702   1.050
10808SOL    HW133323   0.659   2.620   1.073
10808SOL    HW233324   0.649   2.782   1.091
10809SOL     OW33325   1.128   1.186   2.843
10809SOL    HW133326   1.113   1.235   2.757
10809SOL    HW233327   1.169   1.097   2.824
10810SOL     OW33328   2.015   1.674   6.158
10810SOL    HW133329   1.981   1.759   6.200
10810SOL    HW233330   2.011   1.682   6.058
10811SOL     OW33331   4.128   5.889   6.608
10811SOL    HW133332   4.187   5.959   6.567
10811SOL    HW233333   4.172   5.852   6.689
10812SOL     OW33334   6.398   3.021   2.771
10812SOL    HW133335   6.467   2.952   2.791
10812SOL    HW233336   6.353   3.049   2.856
10813SOL     OW33337   3.150   5.856   2.320
10813SOL    HW133338   3.074   5.799   2.288
10813SOL    HW233339   3.132   5.952   2.296
10814SOL     OW33340   2.097   6.087   4.378
10814SOL    HW133341   2.088   6.148   4.457
10814SOL    HW233342   2.103   5.993   4.411
10815SOL     OW33343   5.649   2.369   5.649
10815SOL    HW133344   5.603   2.432   5.712
10815SOL    HW233345   5.661   2.280   5.694
10816SOL     OW33346   2.128   2.451   0.972
10816SOL    HW133347   2.087   2.509   1.043
10816SOL    HW233348   2.190   2.385   1.015
10817SOL     OW33349   3.706   1.618   1.903
10817SOL    HW133350   3.669   1.690   1.844
10817SOL    HW233351   3.797   1.644   1.935
10818SOL     OW33352   4.549   3.330   6.134
10818SOL    HW133353   4.497   3.288   6.059
10818SOL    HW233354   4.487   3.358   6.206
10819SOL     OW33355   2.170   3.057   5.239
10819SOL    HW133356   2.230   3.055   5.319
10819SOL    HW233357   2.217   3.014   5.161
10820SOL     OW33358   1.533   6.389   5.735
10820SOL    HW133359   1.510   6.292   5.728
10820SOL    HW233360   1.544   6.427   5.643
10821SOL     OW33361   0.028   0.323   6.864
10821SOL    HW133362   0.043   0.261   6.787
10821SOL    HW233363   6.950   0.356   6.863
10822SOL     OW33364   0.367   4.720   5.979
10822SOL    HW133365   0.456   4.751   5.948
10822SOL    HW233366   0.375   4.630   6.021
10823SOL     OW33367   1.901   1.837   0.964
10823SOL    HW133368   1.906   1.915   0.902
10823SOL    HW233369   1.857   1.760   0.917
10824SOL     OW33370   5.262   1.409   4.710
10824SOL    HW133371   5.313   1.406   4.624
10824SOL    HW233372   5.327   1.417   4.786
10825SOL     OW33373   3.761   0.882   2.485
10825SOL    HW133374   3.761   0.887   2.585
10825SOL    HW233375   3.716   0.963   2.448
10826SOL     OW33376   6.986   3.532   1.048
10826SOL    HW133377   6.956   3.469   1.119
10826SOL    HW233378   0.002   3.617   1.090
10827SOL     OW33379   0.609   2.318   4.430
10827SOL    HW133380   0.584   2.321   4.334
10827SOL    HW233381   0.536   2.356   4.486
10828SOL     OW33382   2.778   4.697   0.092
10828SOL    HW133383   2.727   4.782   0.080
10828SOL    HW233384   2.749   4.631   0.023
10829SOL     OW33385   2.114   3.745   1.431
10829SOL    HW133386   2.069   3.819   1.480
10829SOL    HW233387   2.197   3.779   1.387
10830SOL     OW33388   6.514   0.366   3.574
10830SOL    HW133389   6.602   0.321   3.591
10830SOL    HW233390   6.491   0.423   3.654
10831SOL     OW33391   5.228   2.853   2.002
10831SOL    HW133392   5.301   2.908   2.044
10831SOL    HW233393   5.252   2.834   1.906
10832SOL     OW33394   1.776   2.864   2.205
10832SOL    HW133395   1.694   2.867   2.262
10832SOL    HW233396   1.794   2.955   2.168
10833SOL     OW33397   3.492   0.244   4.944
10833SOL    HW133398   3.551   0.183   4.891
10833SOL    HW233399   3.473   0.326   4.890
10834SOL     OW33400   0.004   1.831   5.803
10834SOL    HW133401   6.982   1.923   5.797
10834SOL    HW233402   6.984   1.775   5.728
10835SOL     OW33403   0.291   1.283   0.574
10835SOL    HW133404   0.297   1.377   0.543
10835SOL    HW233405   0.205   1.268   0.622
10836SOL     OW33406   0.326   2.366   1.250
10836SOL    HW133407   0.279   2.292   1.297
10836SOL    HW233408   0.411   2.387   1.298
10837SOL     OW33409   1.406   5.360   0.855
10837SOL    HW133410   1.493   5.343   0.809
10837SOL    HW233411   1.355   5.431   0.807
10838SOL     OW33412   6.737   5.912   0.448
10838SOL    HW133413   6.729   5.997   0.396
10838SOL    HW233414   6.739   5.835   0.384
10839SOL     OW33415   2.224   2.009   6.863
10839SOL    HW133416   2.252   2.104   6.878
10839SOL    HW233417   2.253   1.979   6.772
10840SOL     OW33418   1.883   0.467   3.261
10840SOL    HW133419   1.963   0.497   3.208
10840SOL    HW233420   1.896   0.372   3.289
10841SOL     OW33421   4.607   3.851   0.170
10841SOL    HW133422   4.518   3.892   0.190
10841SOL    HW233423   4.679   3.917   0.193
10842SOL     OW33424   6.097   1.801   1.933
10842SOL    HW133425   6.028   1.728   1.928
10842SOL    HW233426   6.132   1.807   2.026
10843SOL     OW33427   0.978   2.302   1.065
10843SOL    HW133428   1.067   2.331   1.101
10843SOL    HW233429   0.991   2.257   0.977
10844SOL     OW33430   4.886   0.024   4.209
10844SOL    HW133431   4.930   0.113   4.201
10844SOL    HW233432   4.795   0.027   4.167
10845SOL     OW33433   2.595   3.539   1.550
10845SOL    HW133434   2.525   3.583   1.606
10845SOL    HW233435   2.550   3.479   1.483
10846SOL     OW33436   3.542   2.750   1.858
10846SOL    HW133437   3.448   2.783   1.869
10846SOL    HW233438   3.605   2.814   1.901
10847SOL     OW33439   5.423   1.763   5.361
10847SOL    HW133440   5.417   1.687   5.426
10847SOL    HW233441   5.477   1.837   5.402
10848SOL     OW33442   1.780   1.036   6.881
10848SOL    HW133443   1.819   1.065   6.968
10848SOL    HW233444   1.718   1.107   6.847
10849SOL     OW33445   0.850   4.277   4.698
10849SOL    HW133446   0.804   4.211   4.638
10849SOL    HW233447   0.788   4.354   4.715
10850SOL     OW33448   6.144   0.374   2.896
10850SOL    HW133449   6.142   0.359   2.995
10850SOL    HW233450   6.105   0.463   2.875
10851SOL     OW33451   4.548   2.820   0.142
10851SOL    HW133452   4.613   2.830   0.066
10851SOL    HW233453   4.574   2.882   0.216
10852SOL     OW33454   6.198   1.401   5.870
10852SOL    HW133455   6.208   1.430   5.774
10852SOL    HW233456   6.280   1.353   5.899
10853SOL     OW33457   2.727   0.353   5.557
10853SOL    HW133458   2.739   0.345   5.458
10853SOL    HW233459   2.761   0.269   5.601
10854SOL     OW33460   6.118   0.335   6.714
10854SOL    HW133461   6.022   0.320   6.688
10854SOL    HW233462   6.121   0.395   6.795
10855SOL     OW33463   1.191   6.178   0.315
10855SOL    HW133464   1.097   6.145   0.315
10855SOL    HW233465   1.237   6.148   0.232
10856SOL     OW33466   4.974   6.938   6.534
10856SOL    HW133467   5.042   6.866   6.542
10856SOL    HW233468   4.923   6.926   6.448
10857SOL     OW33469   6.491   6.684   4.853
10857SOL    HW133470   6.510   6.740   4.772
10857SOL    HW233471   6.516   6.589   4.834
10858SOL     OW33472   2.039   2.818   0.973
10858SOL    HW133473   2.091   2.774   1.047
10858SOL    HW233474   1.963   2.759   0.947
10859SOL     OW33475   2.453   5.708   1.746
10859SOL    HW133476   2.378   5.666   1.798
10859SOL    HW233477   2.529   5.643   1.739
10860SOL     OW33478   5.900   1.389   1.542
10860SOL    HW133479   5.923   1.470   1.596
10860SOL    HW233480   5.819   1.345   1.580
10861SOL     OW33481   1.858   4.793   0.831
10861SOL    HW133482   1.946   4.815   0.873
10861SOL    HW233483   1.789   4.780   0.903
10862SOL     OW33484   3.725   4.541   5.303
10862SOL    HW133485   3.701   4.445   5.312
10862SOL    HW233486   3.642   4.597   5.310
10863SOL     OW33487   0.594   6.725   3.339
10863SOL    HW133488   0.518   6.745   3.401
10863SOL    HW233489   0.603   6.799   3.272
10864SOL     OW33490   3.076   4.026   2.382
10864SOL    HW133491   3.126   4.011   2.297
10864SOL    HW233492   3.002   4.092   2.366
10865SOL     OW33493   3.082   2.026   2.615
10865SOL    HW133494   3.039   2.047   2.527
10865SOL    HW233495   3.123   1.935   2.611
10866SOL     OW33496   0.364   3.416   4.633
10866SOL    HW133497   0.327   3.507   4.613
10866SOL    HW233498   0.435   3.423   4.702
10867SOL     OW33499   4.836   2.661   0.572
10867SOL    HW133500   4.763   2.686   0.634
10867SOL    HW233501   4.798   2.616   0.491
10868SOL     OW33502   0.774   6.911   5.573
10868SOL    HW133503   0.803   6.883   5.481
10868SOL    HW233504   0.700   6.978   5.566
10869NA      NA33505   0.018   0.796   6.672
10870NA      NA33506   4.727   4.749   5.025
10871NA      NA33507   0.876   4.633   2.719
10872NA      NA33508   6.252   3.563   3.419
10873NA      NA33509   4.220   2.346   5.301
10874NA      NA33510   2.405   3.372   6.936
10875NA      NA33511   1.586   5.697   0.237
10876NA      NA33512   4.148   4.900   2.028
10877NA      NA33513   5.375   3.716   1.425
10878NA      NA33514   3.870   1.924   0.598
10879NA      NA33515   5.379   6.608   1.432
10880NA      NA33516   2.804   6.517   4.454
10881NA      NA33517   3.307   5.509   2.810
10882NA      NA33518   4.081   4.962   6.126
   7.01629   7.01629   7.01629
