Generated by trjconv : CNT in water t= 421.00000
33518
    1C        C    1   2.849   2.779   4.750
    1C        C    2   2.899   2.722   4.869
    1C        C    3   2.846   2.777   4.986
    1C        C    4   2.852   2.780   4.263
    1C        C    5   2.904   2.733   4.386
    1C        C    6   2.850   2.779   4.508
    1C        C    7   3.018   2.647   4.629
    1C        C    8   2.905   2.732   4.629
    1C        C    9   3.084   2.613   4.750
    1C        C   10   3.015   2.641   4.870
    1C        C   11   3.186   2.496   4.976
    1C        C   12   3.067   2.570   4.978
    1C        C   13   2.851   2.778   3.775
    1C        C   14   2.906   2.732   3.897
    1C        C   15   2.855   2.783   4.018
    1C        C   16   3.024   2.655   4.142
    1C        C   17   2.909   2.737   4.141
    1C        C   18   3.087   2.624   4.265
    1C        C   19   3.024   2.658   4.387
    1C        C   20   3.213   2.561   4.508
    1C        C   21   3.082   2.614   4.508
    1C        C   22   3.284   2.539   4.628
    1C        C   23   3.217   2.562   4.750
    1C        C   24   3.420   2.493   4.867
    1C        C   25   3.277   2.508   4.867
    1C        C   26   3.498   2.483   4.982
    1C        C   27   2.850   2.773   3.284
    1C        C   28   2.904   2.727   3.405
    1C        C   29   2.853   2.775   3.528
    1C        C   30   3.022   2.652   3.653
    1C        C   31   2.904   2.730   3.652
    1C        C   32   3.083   2.619   3.776
    1C        C   33   3.022   2.651   3.899
    1C        C   34   3.215   2.563   4.023
    1C        C   35   3.082   2.612   4.020
    1C        C   36   3.283   2.542   4.144
    1C        C   37   3.217   2.570   4.266
    1C        C   38   3.422   2.513   4.386
    1C        C   39   3.284   2.541   4.387
    1C        C   40   3.494   2.510   4.508
    1C        C   41   3.423   2.513   4.630
    1C        C   42   3.639   2.484   4.750
    1C        C   43   3.497   2.489   4.747
    1C        C   44   3.714   2.491   4.869
    1C        C   45   3.637   2.486   4.986
    1C        C   46   2.841   2.761   2.798
    1C        C   47   2.896   2.713   2.918
    1C        C   48   2.846   2.768   3.039
    1C        C   49   3.018   2.646   3.164
    1C        C   50   2.900   2.723   3.162
    1C        C   51   3.083   2.616   3.286
    1C        C   52   3.020   2.646   3.409
    1C        C   53   3.213   2.561   3.532
    1C        C   54   3.082   2.614   3.531
    1C        C   55   3.282   2.543   3.654
    1C        C   56   3.214   2.566   3.776
    1C        C   57   3.420   2.519   3.898
    1C        C   58   3.281   2.545   3.899
    1C        C   59   3.492   2.513   4.019
    1C        C   60   3.422   2.515   4.142
    1C        C   61   3.634   2.508   4.263
    1C        C   62   3.493   2.510   4.264
    1C        C   63   3.705   2.512   4.385
    1C        C   64   3.635   2.507   4.507
    1C        C   65   3.844   2.540   4.625
    1C        C   66   3.708   2.500   4.628
    1C        C   67   3.913   2.563   4.746
    1C        C   68   3.850   2.529   4.868
    1C        C   69   4.061   2.583   4.980
    1C        C   70   3.931   2.531   4.983
    1C        C   71   2.827   2.737   2.313
    1C        C   72   2.888   2.696   2.434
    1C        C   73   2.836   2.750   2.554
    1C        C   74   3.011   2.633   2.676
    1C        C   75   2.892   2.709   2.677
    1C        C   76   3.077   2.602   2.797
    1C        C   77   3.013   2.635   2.919
    1C        C   78   3.211   2.559   3.041
    1C        C   79   3.078   2.607   3.042
    1C        C   80   3.280   2.542   3.163
    1C        C   81   3.215   2.567   3.286
    1C        C   82   3.418   2.513   3.407
    1C        C   83   3.280   2.540   3.409
    1C        C   84   3.489   2.509   3.529
    1C        C   85   3.421   2.518   3.653
    1C        C   86   3.631   2.511   3.774
    1C        C   87   3.490   2.509   3.776
    1C        C   88   3.703   2.520   3.896
    1C        C   89   3.633   2.509   4.019
    1C        C   90   3.840   2.552   4.144
    1C        C   91   3.704   2.512   4.141
    1C        C   92   3.909   2.578   4.264
    1C        C   93   3.842   2.547   4.384
    1C        C   94   4.036   2.636   4.504
    1C        C   95   3.912   2.569   4.505
    1C        C   96   4.097   2.675   4.626
    1C        C   97   4.034   2.637   4.746
    1C        C   98   4.198   2.769   4.870
    1C        C   99   4.103   2.662   4.868
    1C        C  100   4.214   2.854   4.980
    1C        C  101   2.824   2.730   2.073
    1C        C  102   2.994   2.597   2.194
    1C        C  103   2.876   2.679   2.193
    1C        C  104   3.068   2.580   2.315
    1C        C  105   3.006   2.619   2.436
    1C        C  106   3.203   2.536   2.558
    1C        C  107   3.074   2.592   2.557
    1C        C  108   3.276   2.525   2.678
    1C        C  109   3.207   2.548   2.800
    1C        C  110   3.418   2.508   2.920
    1C        C  111   3.278   2.530   2.920
    1C        C  112   3.490   2.502   3.041
    1C        C  113   3.418   2.510   3.163
    1C        C  114   3.630   2.505   3.284
    1C        C  115   3.488   2.504   3.285
    1C        C  116   3.700   2.515   3.406
    1C        C  117   3.630   2.515   3.529
    1C        C  118   3.838   2.552   3.651
    1C        C  119   3.700   2.521   3.651
    1C        C  120   3.905   2.572   3.774
    1C        C  121   3.840   2.550   3.897
    1C        C  122   4.030   2.640   4.017
    1C        C  123   3.905   2.574   4.021
    1C        C  124   4.094   2.679   4.137
    1C        C  125   4.038   2.638   4.259
    1C        C  126   4.202   2.769   4.381
    1C        C  127   4.094   2.678   4.382
    1C        C  128   4.248   2.824   4.503
    1C        C  129   4.200   2.773   4.625
    1C        C  130   4.333   2.937   4.743
    1C        C  131   4.245   2.825   4.748
    1C        C  132   4.364   3.003   4.863
    1C        C  133   4.295   2.966   4.980
    1C        C  134   3.177   2.472   2.086
    1C        C  135   3.043   2.514   2.089
    1C        C  136   3.264   2.486   2.195
    1C        C  137   3.199   2.526   2.314
    1C        C  138   3.409   2.487   2.433
    1C        C  139   3.269   2.510   2.435
    1C        C  140   3.485   2.488   2.552
    1C        C  141   3.416   2.505   2.674
    1C        C  142   3.627   2.502   2.793
    1C        C  143   3.486   2.500   2.796
    1C        C  144   3.698   2.511   2.915
    1C        C  145   3.631   2.504   3.039
    1C        C  146   3.839   2.538   3.160
    1C        C  147   3.701   2.510   3.162
    1C        C  148   3.905   2.563   3.282
    1C        C  149   3.838   2.547   3.406
    1C        C  150   4.034   2.627   3.527
    1C        C  151   3.905   2.569   3.528
    1C        C  152   4.091   2.669   3.649
    1C        C  153   4.029   2.640   3.773
    1C        C  154   4.197   2.771   3.894
    1C        C  155   4.090   2.679   3.895
    1C        C  156   4.255   2.818   4.014
    1C        C  157   4.206   2.765   4.135
    1C        C  158   4.345   2.923   4.258
    1C        C  159   4.257   2.813   4.258
    1C        C  160   4.382   2.988   4.378
    1C        C  161   4.339   2.932   4.501
    1C        C  162   4.440   3.121   4.620
    1C        C  163   4.377   2.995   4.622
    1C        C  164   4.467   3.191   4.740
    1C        C  165   4.435   3.125   4.861
    1C        C  166   4.517   3.327   4.979
    1C        C  167   4.483   3.193   4.974
    1C        C  168   3.475   2.443   2.080
    1C        C  169   3.403   2.460   2.198
    1C        C  170   3.624   2.474   2.310
    1C        C  171   3.482   2.467   2.314
    1C        C  172   3.698   2.494   2.428
    1C        C  173   3.626   2.498   2.550
    1C        C  174   3.837   2.535   2.672
    1C        C  175   3.698   2.508   2.671
    1C        C  176   3.901   2.564   2.794
    1C        C  177   3.835   2.544   2.917
    1C        C  178   4.032   2.626   3.038
    1C        C  179   3.906   2.561   3.038
    1C        C  180   4.094   2.661   3.160
    1C        C  181   4.033   2.623   3.282
    1C        C  182   4.200   2.754   3.403
    1C        C  183   4.093   2.662   3.404
    1C        C  184   4.249   2.806   3.525
    1C        C  185   4.201   2.759   3.649
    1C        C  186   4.342   2.920   3.770
    1C        C  187   4.251   2.813   3.770
    1C        C  188   4.387   2.981   3.890
    1C        C  189   4.346   2.926   4.013
    1C        C  190   4.451   3.108   4.131
    1C        C  191   4.386   2.982   4.136
    1C        C  192   4.474   3.175   4.253
    1C        C  193   4.448   3.113   4.377
    1C        C  194   4.506   3.321   4.496
    1C        C  195   4.470   3.184   4.497
    1C        C  196   4.527   3.393   4.616
    1C        C  197   4.515   3.324   4.738
    1C        C  198   4.559   3.538   4.857
    1C        C  199   4.539   3.396   4.859
    1C        C  200   4.591   3.625   4.966
    1C        C  201   3.614   2.422   2.080
    1C        C  202   3.833   2.509   2.186
    1C        C  203   3.697   2.466   2.188
    1C        C  204   3.905   2.540   2.305
    1C        C  205   3.837   2.522   2.428
    1C        C  206   4.029   2.618   2.547
    1C        C  207   3.902   2.556   2.548
    1C        C  208   4.090   2.657   2.668
    1C        C  209   4.027   2.629   2.791
    1C        C  210   4.198   2.752   2.912
    1C        C  211   4.086   2.667   2.914
    1C        C  212   4.252   2.800   3.033
    1C        C  213   4.204   2.749   3.156
    1C        C  214   4.334   2.914   3.276
    1C        C  215   4.252   2.799   3.279
    1C        C  216   4.372   2.973   3.399
    1C        C  217   4.338   2.916   3.523
    1C        C  218   4.434   3.106   3.644
    1C        C  219   4.373   2.978   3.645
    1C        C  220   4.468   3.173   3.764
    1C        C  221   4.449   3.108   3.888
    1C        C  222   4.511   3.312   4.009
    1C        C  223   4.478   3.174   4.009
    1C        C  224   4.524   3.383   4.131
    1C        C  225   4.516   3.310   4.252
    1C        C  226   4.525   3.526   4.371
    1C        C  227   4.519   3.385   4.371
    1C        C  228   4.520   3.601   4.491
    1C        C  229   4.532   3.534   4.615
    1C        C  230   4.505   3.747   4.731
    1C        C  231   4.536   3.608   4.735
    1C        C  232   4.500   3.826   4.848
    1C        C  233   4.549   3.758   4.961
    1C        C  234   4.021   2.616   2.065
    1C        C  235   3.904   2.540   2.069
    1C        C  236   4.086   2.655   2.182
    1C        C  237   4.026   2.615   2.303
    1C        C  238   4.203   2.737   2.425
    1C        C  239   4.089   2.652   2.424
    1C        C  240   4.256   2.789   2.545
    1C        C  241   4.202   2.744   2.668
    1C        C  242   4.341   2.906   2.789
    1C        C  243   4.254   2.794   2.789
    1C        C  244   4.378   2.967   2.911
    1C        C  245   4.341   2.910   3.035
    1C        C  246   4.445   3.097   3.154
    1C        C  247   4.380   2.972   3.156
    1C        C  248   4.462   3.165   3.277
    1C        C  249   4.434   3.100   3.399
    1C        C  250   4.495   3.305   3.519
    1C        C  251   4.457   3.169   3.520
    1C        C  252   4.509   3.376   3.640
    1C        C  253   4.499   3.311   3.765
    1C        C  254   4.523   3.522   3.885
    1C        C  255   4.515   3.381   3.886
    1C        C  256   4.521   3.595   4.006
    1C        C  257   4.527   3.524   4.129
    1C        C  258   4.494   3.737   4.247
    1C        C  259   4.519   3.598   4.249
    1C        C  260   4.477   3.808   4.368
    1C        C  261   4.493   3.740   4.491
    1C        C  262   4.431   3.947   4.607
    1C        C  263   4.480   3.814   4.610
    1C        C  264   4.409   4.016   4.727
    1C        C  265   4.442   3.955   4.850
    1C        C  266   4.317   4.133   4.961
    1C        C  267   4.391   4.015   4.966
    1C        C  268   4.260   2.784   2.065
    1C        C  269   4.202   2.736   2.183
    1C        C  270   4.345   2.897   2.303
    1C        C  271   4.256   2.786   2.303
    1C        C  272   4.384   2.959   2.423
    1C        C  273   4.341   2.902   2.544
    1C        C  274   4.443   3.090   2.664
    1C        C  275   4.376   2.965   2.666
    1C        C  276   4.470   3.157   2.785
    1C        C  277   4.443   3.092   2.908
    1C        C  278   4.501   3.297   3.030
    1C        C  279   4.470   3.159   3.029
    1C        C  280   4.507   3.371   3.150
    1C        C  281   4.494   3.303   3.273
    1C        C  282   4.518   3.514   3.395
    1C        C  283   4.506   3.373   3.395
    1C        C  284   4.518   3.587   3.516
    1C        C  285   4.517   3.517   3.639
    1C        C  286   4.494   3.728   3.758
    1C        C  287   4.519   3.589   3.760
    1C        C  288   4.485   3.801   3.879
    1C        C  289   4.505   3.735   4.002
    1C        C  290   4.435   3.938   4.121
    1C        C  291   4.483   3.805   4.123
    1C        C  292   4.404   4.004   4.242
    1C        C  293   4.432   3.941   4.365
    1C        C  294   4.334   4.135   4.482
    1C        C  295   4.401   4.011   4.484
    1C        C  296   4.294   4.196   4.603
    1C        C  297   4.338   4.140   4.725
    1C        C  298   4.204   4.317   4.844
    1C        C  299   4.290   4.203   4.843
    1C        C  300   4.176   4.407   4.952
    1C        C  301   4.353   2.887   2.065
    1C        C  302   4.467   3.076   2.182
    1C        C  303   4.394   2.953   2.182
    1C        C  304   4.487   3.150   2.301
    1C        C  305   4.453   3.083   2.420
    1C        C  306   4.509   3.289   2.543
    1C        C  307   4.477   3.152   2.541
    1C        C  308   4.511   3.363   2.664
    1C        C  309   4.504   3.294   2.787
    1C        C  310   4.525   3.507   2.903
    1C        C  311   4.519   3.366   2.907
    1C        C  312   4.523   3.578   3.025
    1C        C  313   4.519   3.512   3.150
    1C        C  314   4.490   3.722   3.272
    1C        C  315   4.510   3.582   3.272
    1C        C  316   4.478   3.794   3.392
    1C        C  317   4.498   3.727   3.515
    1C        C  318   4.431   3.930   3.632
    1C        C  319   4.480   3.798   3.636
    1C        C  320   4.403   3.995   3.754
    1C        C  321   4.434   3.932   3.877
    1C        C  322   4.323   4.116   3.994
    1C        C  323   4.399   3.997   3.998
    1C        C  324   4.289   4.180   4.116
    1C        C  325   4.330   4.124   4.239
    1C        C  326   4.191   4.290   4.358
    1C        C  327   4.287   4.186   4.358
    1C        C  328   4.142   4.342   4.479
    1C        C  329   4.199   4.300   4.602
    1C        C  330   4.031   4.440   4.717
    1C        C  331   4.144   4.355   4.720
    1C        C  332   3.974   4.497   4.833
    1C        C  333   4.056   4.479   4.945
    1C        C  334   4.546   3.271   2.063
    1C        C  335   4.530   3.132   2.066
    1C        C  336   4.536   3.355   2.174
    1C        C  337   4.516   3.290   2.298
    1C        C  338   4.528   3.499   2.417
    1C        C  339   4.520   3.358   2.421
    1C        C  340   4.527   3.575   2.536
    1C        C  341   4.523   3.504   2.658
    1C        C  342   4.497   3.715   2.778
    1C        C  343   4.521   3.575   2.780
    1C        C  344   4.480   3.783   2.900
    1C        C  345   4.494   3.717   3.024
    1C        C  346   4.430   3.918   3.141
    1C        C  347   4.478   3.785   3.146
    1C        C  348   4.401   3.986   3.261
    1C        C  349   4.430   3.927   3.385
    1C        C  350   4.326   4.111   3.507
    1C        C  351   4.401   3.991   3.508
    1C        C  352   4.279   4.168   3.627
    1C        C  353   4.324   4.112   3.749
    1C        C  354   4.186   4.275   3.871
    1C        C  355   4.280   4.169   3.871
    1C        C  356   4.135   4.327   3.992
    1C        C  357   4.189   4.279   4.114
    1C        C  358   4.017   4.407   4.235
    1C        C  359   4.136   4.331   4.235
    1C        C  360   3.960   4.453   4.356
    1C        C  361   4.023   4.418   4.477
    1C        C  362   3.835   4.526   4.594
    1C        C  363   3.963   4.466   4.596
    1C        C  364   3.767   4.554   4.714
    1C        C  365   3.841   4.545   4.834
    1C        C  366   3.635   4.603   4.950
    1C        C  367   3.771   4.572   4.952
    1C        C  368   4.514   3.568   2.054
    1C        C  369   4.533   3.497   2.173
    1C        C  370   4.509   3.709   2.291
    1C        C  371   4.529   3.570   2.294
    1C        C  372   4.493   3.783   2.410
    1C        C  373   4.504   3.714   2.533
    1C        C  374   4.435   3.915   2.654
    1C        C  375   4.483   3.783   2.655
    1C        C  376   4.400   3.979   2.776
    1C        C  377   4.431   3.916   2.898
    1C        C  378   4.326   4.103   3.017
    1C        C  379   4.404   3.985   3.019
    1C        C  380   4.281   4.161   3.138
    1C        C  381   4.327   4.107   3.260
    1C        C  382   4.182   4.261   3.382
    1C        C  383   4.284   4.163   3.382
    1C        C  384   4.126   4.309   3.502
    1C        C  385   4.181   4.269   3.626
    1C        C  386   4.012   4.395   3.748
    1C        C  387   4.131   4.318   3.749
    1C        C  388   3.949   4.428   3.869
    1C        C  389   4.017   4.404   3.991
    1C        C  390   3.822   4.490   4.111
    1C        C  391   3.953   4.437   4.113
    1C        C  392   3.756   4.514   4.233
    1C        C  393   3.829   4.506   4.353
    1C        C  394   3.622   4.555   4.476
    1C        C  395   3.763   4.540   4.473
    1C        C  396   3.552   4.572   4.598
    1C        C  397   3.628   4.575   4.717
    1C        C  398   3.417   4.552   4.840
    1C        C  399   3.555   4.582   4.838
    1C        C  400   3.349   4.524   4.960
    1C        C  401   4.512   3.707   2.054
    1C        C  402   4.458   3.918   2.172
    1C        C  403   4.499   3.783   2.171
    1C        C  404   4.413   3.981   2.290
    1C        C  405   4.443   3.915   2.411
    1C        C  406   4.330   4.098   2.530
    1C        C  407   4.408   3.980   2.531
    1C        C  408   4.281   4.153   2.650
    1C        C  409   4.317   4.093   2.773
    1C        C  410   4.178   4.254   2.895
    1C        C  411   4.276   4.152   2.895
    1C        C  412   4.128   4.304   3.017
    1C        C  413   4.181   4.261   3.140
    1C        C  414   4.004   4.382   3.257
    1C        C  415   4.123   4.306   3.261
    1C        C  416   3.944   4.418   3.380
    1C        C  417   4.005   4.382   3.502
    1C        C  418   3.817   4.477   3.625
    1C        C  419   3.946   4.419   3.625
    1C        C  420   3.749   4.500   3.746
    1C        C  421   3.818   4.480   3.868
    1C        C  422   3.614   4.539   3.990
    1C        C  423   3.753   4.510   3.989
    1C        C  424   3.546   4.543   4.113
    1C        C  425   3.617   4.542   4.235
    1C        C  426   3.405   4.553   4.359
    1C        C  427   3.546   4.554   4.357
    1C        C  428   3.336   4.553   4.482
    1C        C  429   3.411   4.565   4.601
    1C        C  430   3.202   4.515   4.727
    1C        C  431   3.340   4.549   4.722
    1C        C  432   3.133   4.497   4.851
    1C        C  433   3.212   4.501   4.966
    1C        C  434   4.388   4.127   2.056
    1C        C  435   4.448   4.000   2.059
    1C        C  436   4.307   4.169   2.165
    1C        C  437   4.341   4.103   2.287
    1C        C  438   4.189   4.255   2.409
    1C        C  439   4.291   4.156   2.407
    1C        C  440   4.129   4.298   2.529
    1C        C  441   4.187   4.258   2.651
    1C        C  442   4.010   4.378   2.773
    1C        C  443   4.130   4.304   2.772
    1C        C  444   3.945   4.415   2.893
    1C        C  445   4.008   4.379   3.014
    1C        C  446   3.814   4.473   3.137
    1C        C  447   3.942   4.413   3.134
    1C        C  448   3.747   4.497   3.259
    1C        C  449   3.813   4.472   3.381
    1C        C  450   3.610   4.528   3.502
    1C        C  451   3.749   4.500   3.504
    1C        C  452   3.541   4.543   3.624
    1C        C  453   3.611   4.531   3.746
    1C        C  454   3.400   4.548   3.870
    1C        C  455   3.542   4.544   3.869
    1C        C  456   3.333   4.541   3.994
    1C        C  457   3.405   4.547   4.115
    1C        C  458   3.196   4.514   4.240
    1C        C  459   3.335   4.542   4.237
    1C        C  460   3.127   4.499   4.362
    1C        C  461   3.199   4.517   4.483
    1C        C  462   3.003   4.439   4.610
    1C        C  463   3.135   4.489   4.605
    1C        C  464   2.933   4.408   4.728
    1C        C  465   2.998   4.449   4.848
    1C        C  466   2.804   4.345   4.963
    1C        C  467   2.912   4.435   4.961
    1C        C  468   4.133   4.299   2.044
    1C        C  469   4.194   4.257   2.164
    1C        C  470   4.012   4.371   2.286
    1C        C  471   4.135   4.300   2.286
    1C        C  472   3.945   4.404   2.406
    1C        C  473   4.011   4.375   2.527
    1C        C  474   3.817   4.461   2.648
    1C        C  475   3.948   4.409   2.649
    1C        C  476   3.748   4.489   2.768
    1C        C  477   3.815   4.471   2.891
    1C        C  478   3.611   4.523   3.014
    1C        C  479   3.748   4.492   3.013
    1C        C  480   3.538   4.528   3.136
    1C        C  481   3.609   4.528   3.258
    1C        C  482   3.398   4.540   3.383
    1C        C  483   3.539   4.538   3.380
    1C        C  484   3.326   4.538   3.505
    1C        C  485   3.400   4.549   3.625
    1C        C  486   3.193   4.509   3.751
    1C        C  487   3.330   4.541   3.748
    1C        C  488   3.128   4.481   3.874
    1C        C  489   3.196   4.504   3.996
    1C        C  490   3.003   4.424   4.120
    1C        C  491   3.128   4.488   4.119
    1C        C  492   2.946   4.389   4.245
    1C        C  493   3.001   4.437   4.367
    1C        C  494   2.832   4.310   4.487
    1C        C  495   2.942   4.399   4.489
    1C        C  496   2.778   4.262   4.609
    1C        C  497   2.823   4.318   4.730
    1C        C  498   2.673   4.166   4.850
    1C        C  499   2.758   4.278   4.849
    1C        C  500   2.613   4.115   4.966
    1C        C  501   4.012   4.366   2.047
    1C        C  502   3.820   4.466   2.160
    1C        C  503   3.948   4.406   2.165
    1C        C  504   3.750   4.486   2.281
    1C        C  505   3.815   4.459   2.404
    1C        C  506   3.611   4.511   2.525
    1C        C  507   3.749   4.483   2.526
    1C        C  508   3.538   4.518   2.646
    1C        C  509   3.609   4.516   2.768
    1C        C  510   3.400   4.529   2.892
    1C        C  511   3.541   4.527   2.892
    1C        C  512   3.327   4.524   3.013
    1C        C  513   3.397   4.528   3.136
    1C        C  514   3.191   4.496   3.260
    1C        C  515   3.329   4.527   3.260
    1C        C  516   3.125   4.474   3.383
    1C        C  517   3.190   4.501   3.505
    1C        C  518   3.002   4.415   3.629
    1C        C  519   3.125   4.485   3.630
    1C        C  520   2.943   4.375   3.751
    1C        C  521   3.003   4.417   3.872
    1C        C  522   2.837   4.294   4.000
    1C        C  523   2.947   4.382   3.997
    1C        C  524   2.793   4.242   4.123
    1C        C  525   2.837   4.299   4.245
    1C        C  526   2.700   4.139   4.369
    1C        C  527   2.785   4.252   4.367
    1C        C  528   2.660   4.083   4.492
    1C        C  529   2.695   4.148   4.612
    1C        C  530   2.589   3.962   4.734
    1C        C  531   2.647   4.092   4.733
    1C        C  532   2.549   3.904   4.857
    1C        C  533   2.535   3.998   4.963
    1C        C  534   3.621   4.565   2.046
    1C        C  535   3.751   4.514   2.048
    1C        C  536   3.541   4.538   2.162
    1C        C  537   3.612   4.519   2.283
    1C        C  538   3.398   4.520   2.406
    1C        C  539   3.539   4.524   2.404
    1C        C  540   3.324   4.516   2.527
    1C        C  541   3.397   4.522   2.648
    1C        C  542   3.191   4.485   2.769
    1C        C  543   3.328   4.520   2.771
    1C        C  544   3.124   4.465   2.892
    1C        C  545   3.190   4.488   3.015
    1C        C  546   3.000   4.404   3.138
    1C        C  547   3.124   4.470   3.138
    1C        C  548   2.939   4.372   3.261
    1C        C  549   2.998   4.412   3.383
    1C        C  550   2.833   4.287   3.510
    1C        C  551   2.941   4.378   3.507
    1C        C  552   2.781   4.238   3.632
    1C        C  553   2.831   4.289   3.754
    1C        C  554   2.710   4.122   3.879
    1C        C  555   2.786   4.241   3.879
    1C        C  556   2.671   4.068   4.003
    1C        C  557   2.706   4.131   4.125
    1C        C  558   2.605   3.947   4.247
    1C        C  559   2.665   4.075   4.248
    1C        C  560   2.580   3.886   4.371
    1C        C  561   2.601   3.955   4.493
    1C        C  562   2.539   3.751   4.620
    1C        C  563   2.573   3.888   4.614
    1C        C  564   2.521   3.685   4.743
    1C        C  565   2.522   3.763   4.861
    1C        C  566   2.525   3.549   4.977
    1C        C  567   2.525   3.688   4.980
    1C        C  568   3.330   4.481   2.044
    1C        C  569   3.401   4.513   2.161
    1C        C  570   3.191   4.476   2.285
    1C        C  571   3.329   4.509   2.283
    1C        C  572   3.117   4.460   2.404
    1C        C  573   3.186   4.486   2.525
    1C        C  574   2.991   4.408   2.650
    1C        C  575   3.120   4.465   2.648
    1C        C  576   2.929   4.371   2.771
    1C        C  577   2.996   4.407   2.891
    1C        C  578   2.830   4.280   3.019
    1C        C  579   2.939   4.370   3.015
    1C        C  580   2.785   4.229   3.143
    1C        C  581   2.831   4.281   3.266
    1C        C  582   2.703   4.116   3.388
    1C        C  583   2.784   4.232   3.390
    1C        C  584   2.664   4.059   3.511
    1C        C  585   2.701   4.122   3.632
    1C        C  586   2.604   3.938   3.760
    1C        C  587   2.669   4.063   3.757
    1C        C  588   2.574   3.876   3.883
    1C        C  589   2.609   3.941   4.004
    1C        C  590   2.546   3.740   4.130
    1C        C  591   2.583   3.876   4.127
    1C        C  592   2.531   3.675   4.255
    1C        C  593   2.544   3.749   4.374
    1C        C  594   2.516   3.541   4.499
    1C        C  595   2.531   3.681   4.497
    1C        C  596   2.520   3.469   4.621
    1C        C  597   2.525   3.542   4.741
    1C        C  598   2.533   3.328   4.862
    1C        C  599   2.526   3.469   4.862
    1C        C  600   2.538   3.257   4.982
    1C        C  601   3.195   4.453   2.045
    1C        C  602   2.985   4.403   2.166
    1C        C  603   3.122   4.443   2.165
    1C        C  604   2.923   4.368   2.289
    1C        C  605   2.986   4.409   2.409
    1C        C  606   2.820   4.277   2.532
    1C        C  607   2.926   4.370   2.531
    1C        C  608   2.771   4.227   2.655
    1C        C  609   2.822   4.279   2.775
    1C        C  610   2.694   4.115   2.901
    1C        C  611   2.775   4.231   2.899
    1C        C  612   2.656   4.056   3.023
    1C        C  613   2.698   4.118   3.143
    1C        C  614   2.601   3.930   3.268
    1C        C  615   2.662   4.057   3.266
    1C        C  616   2.578   3.867   3.392
    1C        C  617   2.601   3.933   3.515
    1C        C  618   2.534   3.735   3.641
    1C        C  619   2.580   3.868   3.639
    1C        C  620   2.520   3.669   3.765
    1C        C  621   2.534   3.741   3.886
    1C        C  622   2.513   3.530   4.012
    1C        C  623   2.523   3.671   4.009
    1C        C  624   2.517   3.462   4.136
    1C        C  625   2.520   3.534   4.258
    1C        C  626   2.534   3.324   4.381
    1C        C  627   2.520   3.464   4.380
    1C        C  628   2.558   3.256   4.502
    1C        C  629   2.543   3.330   4.622
    1C        C  630   2.600   3.122   4.747
    1C        C  631   2.553   3.256   4.742
    1C        C  632   2.619   3.055   4.871
    1C        C  633   2.569   3.120   4.988
    1C        C  634   2.786   4.314   2.058
    1C        C  635   2.896   4.400   2.054
    1C        C  636   2.754   4.235   2.169
    1C        C  637   2.813   4.278   2.290
    1C        C  638   2.677   4.117   2.414
    1C        C  639   2.761   4.230   2.412
    1C        C  640   2.646   4.053   2.537
    1C        C  641   2.690   4.111   2.658
    1C        C  642   2.592   3.924   2.780
    1C        C  643   2.660   4.048   2.781
    1C        C  644   2.562   3.863   2.904
    1C        C  645   2.594   3.929   3.025
    1C        C  646   2.541   3.724   3.152
    1C        C  647   2.574   3.861   3.147
    1C        C  648   2.526   3.656   3.275
    1C        C  649   2.543   3.730   3.394
    1C        C  650   2.513   3.524   3.521
    1C        C  651   2.526   3.665   3.519
    1C        C  652   2.519   3.458   3.646
    1C        C  653   2.517   3.528   3.768
    1C        C  654   2.534   3.318   3.892
    1C        C  655   2.514   3.457   3.891
    1C        C  656   2.550   3.251   4.016
    1C        C  657   2.531   3.322   4.137
    1C        C  658   2.605   3.124   4.262
    1C        C  659   2.550   3.253   4.259
    1C        C  660   2.632   3.056   4.383
    1C        C  661   2.600   3.121   4.504
    1C        C  662   2.713   2.943   4.628
    1C        C  663   2.627   3.054   4.626
    1C        C  664   2.754   2.885   4.750
    1C        C  665   2.698   2.935   4.871
    1C        C  666   2.750   2.877   4.987
    1C        C  667   2.683   4.030   2.058
    1C        C  668   2.686   4.111   2.171
    1C        C  669   2.592   3.920   2.294
    1C        C  670   2.647   4.051   2.293
    1C        C  671   2.564   3.853   2.415
    1C        C  672   2.588   3.925   2.535
    1C        C  673   2.523   3.724   2.663
    1C        C  674   2.566   3.859   2.658
    1C        C  675   2.516   3.652   2.784
    1C        C  676   2.529   3.725   2.905
    1C        C  677   2.512   3.517   3.032
    1C        C  678   2.524   3.657   3.029
    1C        C  679   2.513   3.446   3.155
    1C        C  680   2.508   3.516   3.277
    1C        C  681   2.528   3.309   3.407
    1C        C  682   2.507   3.449   3.401
    1C        C  683   2.550   3.244   3.530
    1C        C  684   2.534   3.318   3.650
    1C        C  685   2.597   3.114   3.775
    1C        C  686   2.548   3.246   3.771
    1C        C  687   2.632   3.054   3.897
    1C        C  688   2.602   3.120   4.019
    1C        C  689   2.716   2.941   4.143
    1C        C  690   2.640   3.059   4.141
    1C        C  691   2.755   2.882   4.265
    1C        C  692   2.706   2.936   4.386
    1C        C  693   2.750   2.879   4.508
    1C        C  694   2.634   3.898   2.058
    1C        C  695   2.537   3.709   2.177
    1C        C  696   2.583   3.842   2.176
    1C        C  697   2.516   3.642   2.300
    1C        C  698   2.531   3.716   2.419
    1C        C  699   2.493   3.511   2.548
    1C        C  700   2.509   3.651   2.543
    1C        C  701   2.507   3.439   2.669
    1C        C  702   2.512   3.511   2.790
    1C        C  703   2.529   3.301   2.910
    1C        C  704   2.510   3.441   2.913
    1C        C  705   2.549   3.240   3.036
    1C        C  706   2.532   3.306   3.160
    1C        C  707   2.596   3.109   3.284
    1C        C  708   2.546   3.241   3.284
    1C        C  709   2.628   3.046   3.406
    1C        C  710   2.599   3.111   3.528
    1C        C  711   2.712   2.937   3.653
    1C        C  712   2.627   3.050   3.652
    1C        C  713   2.756   2.882   3.775
    1C        C  714   2.708   2.935   3.897
    1C        C  715   2.761   2.888   4.019
    1C        C  716   2.453   3.504   2.068
    1C        C  717   2.499   3.636   2.063
    1C        C  718   2.469   3.426   2.187
    1C        C  719   2.486   3.503   2.305
    1C        C  720   2.517   3.296   2.427
    1C        C  721   2.490   3.435   2.429
    1C        C  722   2.540   3.227   2.549
    1C        C  723   2.527   3.299   2.669
    1C        C  724   2.588   3.095   2.796
    1C        C  725   2.539   3.228   2.790
    1C        C  726   2.624   3.038   2.920
    1C        C  727   2.596   3.107   3.040
    1C        C  728   2.703   2.924   3.164
    1C        C  729   2.625   3.042   3.163
    1C        C  730   2.750   2.873   3.287
    1C        C  731   2.710   2.931   3.410
    1C        C  732   2.756   2.878   3.532
    1C        C  733   2.501   3.202   2.076
    1C        C  734   2.484   3.284   2.188
    1C        C  735   2.587   3.092   2.309
    1C        C  736   2.526   3.221   2.308
    1C        C  737   2.617   3.026   2.430
    1C        C  738   2.592   3.096   2.551
    1C        C  739   2.696   2.913   2.672
    1C        C  740   2.620   3.032   2.674
    1C        C  741   2.741   2.861   2.795
    1C        C  742   2.702   2.920   2.918
    1C        C  743   2.751   2.872   3.042
    1C        C  744   2.547   3.071   2.075
    1C        C  745   2.693   2.906   2.190
    1C        C  746   2.612   3.021   2.189
    1C        C  747   2.736   2.846   2.310
    1C        C  748   2.691   2.906   2.430
    1C        C  749   2.738   2.851   2.552
    1C        C  750   2.738   2.839   2.075
    1C        C  751   3.669   2.319   1.989
    1C        O  752   3.703   2.204   2.028
    1C        O  753   3.696   2.346   1.854
    1C        C  754   4.635   3.059   1.992
    1C        O  755   4.620   3.017   1.874
    1C        O  756   4.768   3.029   2.026
    1C        C  757   4.463   4.224   1.972
    1C        O  758   4.544   4.306   2.022
    1C        O  759   4.408   4.264   1.850
    1C        C  760   3.600   4.697   1.983
    1C        O  761   3.669   4.799   2.005
    1C        O  762   3.545   4.698   1.854
    1C        C  763   2.876   4.520   1.969
    1C        O  764   2.844   4.515   1.847
    1C        O  765   2.825   4.643   2.011
    1C        C  766   2.345   3.461   1.977
    1C        O  767   2.363   3.447   1.853
    1C        O  768   2.212   3.487   2.013
    1C        C  769   4.697   3.614   5.069
    1C        O  770   4.685   3.643   5.191
    1C        O  771   4.826   3.581   5.026
    1C        C  772   4.291   4.473   5.018
    1C        O  773   4.345   4.427   5.122
    1C        O  774   4.386   4.532   4.933
    1C        C  775   4.161   2.505   5.056
    1C        O  776   4.188   2.389   5.016
    1C        O  777   4.151   2.492   5.195
    1C        C  778   2.901   4.542   5.062
    1C        O  779   2.834   4.646   5.037
    1C        O  780   2.904   4.504   5.196
    1C        C  781   2.499   3.053   5.100
    1C        O  782   2.379   3.018   5.087
    1C        O  783   2.550   3.069   5.228
    1C        C  784   2.407   4.009   5.036
    1C        O  785   2.327   4.103   5.013
    1C        O  786   2.379   3.948   5.159
    1C        C  787   2.949   2.431   2.010
    1C        O  788   2.956   2.431   1.884
    1C        O  789   2.912   2.305   2.055
    1C        C  790   3.171   2.367   5.048
    1C        O  791   3.079   2.284   5.022
    1C        O  792   3.239   2.306   5.153
    1C        H  793   4.266   3.045   5.046
    1C        H  794   4.149   2.842   5.064
    1C        H  795   4.501   3.137   5.064
    1C        H  796   4.469   3.383   5.057
    1C        H  797   4.552   3.809   5.055
    1C        H  798   4.448   4.008   5.056
    1C        H  799   4.263   4.149   5.051
    1C        H  800   4.041   4.548   5.026
    1C        H  801   3.822   4.590   5.044
    1C        H  802   3.613   4.690   5.009
    1C        H  803   3.411   4.503   5.045
    1C        H  804   3.168   4.502   5.063
    1C        H  805   3.907   2.470   5.067
    1C        H  806   3.684   2.492   5.081
    1C        H  807   2.989   2.519   5.032
    1C        H  808   3.458   2.425   5.063
    1C        H  809   2.910   2.779   5.072
    1C        H  810   2.691   2.881   5.076
    1C        H  811   2.507   3.306   5.072
    1C        H  812   2.471   3.509   5.060
    1C        H  813   2.516   3.743   5.072
    1C        H  814   2.664   4.133   5.059
    1C        H  815   2.737   4.356   5.046
    1C        H  816   2.700   2.870   1.980
    1C        H  817   2.848   2.685   1.979
    1C        H  818   3.205   2.407   2.006
    1C        H  819   3.433   2.490   1.993
    1C        H  820   3.886   2.475   1.986
    1C        H  821   4.018   2.692   1.989
    1C        H  822   4.246   2.723   1.978
    1C        H  823   4.392   2.917   1.970
    1C        H  824   4.536   3.315   1.966
    1C        H  825   4.455   3.520   1.978
    1C        H  826   4.568   3.750   1.974
    1C        H  827   3.802   4.504   1.955
    1C        H  828   3.957   4.361   1.955
    1C        H  829   4.182   4.272   1.953
    1C        H  830   4.496   3.960   1.972
    1C        H  831   2.675   3.836   1.981
    1C        H  832   2.698   4.073   1.961
    1C        H  833   2.722   4.312   1.972
    1C        H  834   3.369   4.515   1.951
    1C        H  835   3.157   4.403   1.958
    1C        H  836   2.509   2.999   2.005
    1C        H  837   2.493   3.243   1.977
    1C        H  838   2.532   3.669   1.967
    2V3OU   H29  839   2.804   3.558   5.037
    2V3OU   C27  840   2.785   3.506   5.135
    2V3OU   H27  841   2.728   3.573   5.205
    2V3OU   H28  842   2.727   3.410   5.127
    2V3OU   O11  843   2.913   3.473   5.188
    2V3OU   C15  844   2.925   3.400   5.304
    2V3OU   C13  845   3.057   3.379   5.349
    2V3OU   C14  846   3.080   3.272   5.437
    2V3OU   C16  847   2.977   3.188   5.476
    2V3OU    H6  848   2.998   3.101   5.540
    2V3OU   C12  849   3.220   3.237   5.469
    2V3OU    O2  850   3.245   3.135   5.537
    2V3OU   C10  851   3.331   3.312   5.408
    2V3OU    C8  852   3.465   3.283   5.430
    2V3OU   O10  853   3.493   3.159   5.478
    2V3OU   H26  854   3.409   3.118   5.505
    2V3OU    C6  855   3.570   3.357   5.368
    2V3OU    C5  856   3.543   3.474   5.298
    2V3OU    C4  857   3.707   3.299   5.370
    2V3OU    H4  858   3.729   3.233   5.460
    2V3OU    H5  859   3.713   3.230   5.281
    2V3OU    C2  860   3.820   3.402   5.362
    2V3OU    O6  861   3.815   3.477   5.483
    2V3OU   H21  862   3.763   3.555   5.458
    2V3OU    C3  863   3.790   3.502   5.250
    2V3OU    H2  864   3.870   3.579   5.235
    2V3OU    H3  865   3.787   3.445   5.153
    2V3OU   C25  866   3.954   3.330   5.346
    2V3OU    O7  867   4.005   3.301   5.238
    2V3OU   C26  868   4.035   3.297   5.471
    2V3OU   H22  869   4.066   3.394   5.518
    2V3OU   H23  870   4.121   3.231   5.446
    2V3OU    O8  871   3.966   3.211   5.559
    2V3OU   H24  872   3.923   3.269   5.624
    2V3OU    C1  873   3.653   3.567   5.258
    2V3OU    H1  874   3.631   3.622   5.162
    2V3OU    O3  875   3.656   3.662   5.365
    2V3OU   C19  876   3.619   3.798   5.344
    2V3OU    H9  877   3.524   3.803   5.284
    2V3OU    O4  878   3.721   3.850   5.262
    2V3OU   C20  879   3.853   3.877   5.311
    2V3OU   H10  880   3.901   3.776   5.324
    2V3OU   C24  881   3.609   3.859   5.484
    2V3OU   H16  882   3.540   3.798   5.546
    2V3OU   H17  883   3.564   3.961   5.473
    2V3OU   C23  884   3.752   3.877   5.537
    2V3OU   H15  885   3.795   3.774   5.562
    2V3OU    N1  886   3.746   3.960   5.655
    2V3OU   H19  887   3.819   3.929   5.715
    2V3OU   H20  888   3.659   3.941   5.702
    2V3OU   C21  889   3.853   3.953   5.444
    2V3OU   H11  890   3.956   3.929   5.485
    2V3OU    O5  891   3.838   4.093   5.455
    2V3OU   H18  892   3.785   4.104   5.536
    2V3OU   C22  893   3.918   3.953   5.197
    2V3OU   H12  894   3.866   4.052   5.185
    2V3OU   H13  895   3.906   3.898   5.100
    2V3OU   H14  896   4.026   3.967   5.222
    2V3OU   C11  897   3.165   3.472   5.315
    2V3OU    O1  898   3.141   3.594   5.329
    2V3OU    C9  899   3.304   3.422   5.322
    2V3OU    C7  900   3.405   3.503   5.271
    2V3OU    O9  901   3.390   3.615   5.192
    2V3OU   H25  902   3.299   3.633   5.162
    2V3OU   C17  903   2.822   3.324   5.364
    2V3OU    H7  904   2.717   3.355   5.361
    2V3OU   C18  905   2.844   3.214   5.445
    2V3OU    H8  906   2.763   3.150   5.483
    3SOL     OW  907   3.731   3.800   4.538
    3SOL    HW1  908   3.687   3.885   4.568
    3SOL    HW2  909   3.828   3.803   4.561
    4SOL     OW  910   6.403   7.027   0.470
    4SOL    HW1  911   6.433   6.936   0.499
    4SOL    HW2  912   6.417   0.006   0.372
    5SOL     OW  913   4.237   0.999   1.104
    5SOL    HW1  914   4.192   0.949   1.031
    5SOL    HW2  915   4.335   0.978   1.103
    6SOL     OW  916   5.384   0.055   2.163
    6SOL    HW1  917   5.349   0.147   2.178
    6SOL    HW2  918   5.360   7.028   2.240
    7SOL     OW  919   2.279   4.382   3.696
    7SOL    HW1  920   2.337   4.412   3.619
    7SOL    HW2  921   2.332   4.386   3.781
    8SOL     OW  922   2.100   3.018   5.762
    8SOL    HW1  923   2.001   3.031   5.761
    8SOL    HW2  924   2.134   3.027   5.855
    9SOL     OW  925   6.179   1.264   6.515
    9SOL    HW1  926   6.082   1.273   6.491
    9SOL    HW2  927   6.212   1.351   6.552
   10SOL     OW  928   4.656   4.752   3.199
   10SOL    HW1  929   4.686   4.724   3.290
   10SOL    HW2  930   4.583   4.690   3.168
   11SOL     OW  931   2.070   1.031   0.715
   11SOL    HW1  932   2.037   0.986   0.797
   11SOL    HW2  933   2.163   0.999   0.694
   12SOL     OW  934   2.896   5.231   3.559
   12SOL    HW1  935   2.990   5.264   3.564
   12SOL    HW2  936   2.867   5.228   3.463
   13SOL     OW  937   4.675   5.774   2.029
   13SOL    HW1  938   4.698   5.678   2.016
   13SOL    HW2  939   4.749   5.831   1.995
   14SOL     OW  940   4.582   5.255   4.798
   14SOL    HW1  941   4.541   5.164   4.796
   14SOL    HW2  942   4.677   5.249   4.767
   15SOL     OW  943   0.080   5.590   5.967
   15SOL    HW1  944   0.133   5.675   5.970
   15SOL    HW2  945   7.016   5.610   5.991
   16SOL     OW  946   0.308   3.584   5.207
   16SOL    HW1  947   0.286   3.493   5.171
   16SOL    HW2  948   0.322   3.578   5.306
   17SOL     OW  949   6.208   1.290   5.355
   17SOL    HW1  950   6.126   1.320   5.403
   17SOL    HW2  951   6.269   1.242   5.419
   18SOL     OW  952   3.428   0.701   5.737
   18SOL    HW1  953   3.523   0.730   5.744
   18SOL    HW2  954   3.368   0.781   5.735
   19SOL     OW  955   1.037   1.466   2.908
   19SOL    HW1  956   0.959   1.526   2.921
   19SOL    HW2  957   1.114   1.518   2.871
   20SOL     OW  958   5.744   1.791   5.209
   20SOL    HW1  959   5.804   1.799   5.129
   20SOL    HW2  960   5.744   1.696   5.241
   21SOL     OW  961   2.787   5.586   2.291
   21SOL    HW1  962   2.752   5.626   2.206
   21SOL    HW2  963   2.741   5.499   2.309
   22SOL     OW  964   2.309   6.446   5.383
   22SOL    HW1  965   2.236   6.515   5.385
   22SOL    HW2  966   2.306   6.392   5.467
   23SOL     OW  967   5.362   4.046   2.036
   23SOL    HW1  968   5.378   3.997   2.122
   23SOL    HW2  969   5.326   4.137   2.057
   24SOL     OW  970   4.393   0.691   1.657
   24SOL    HW1  971   4.298   0.668   1.679
   24SOL    HW2  972   4.395   0.752   1.578
   25SOL     OW  973   2.519   0.468   4.348
   25SOL    HW1  974   2.482   0.549   4.394
   25SOL    HW2  975   2.605   0.492   4.303
   26SOL     OW  976   0.855   3.095   7.003
   26SOL    HW1  977   0.863   3.190   0.001
   26SOL    HW2  978   0.828   3.093   6.906
   27SOL     OW  979   6.307   1.341   1.132
   27SOL    HW1  980   6.385   1.376   1.081
   27SOL    HW2  981   6.334   1.321   1.226
   28SOL     OW  982   2.652   0.610   4.652
   28SOL    HW1  983   2.734   0.557   4.674
   28SOL    HW2  984   2.571   0.555   4.671
   29SOL     OW  985   6.955   0.731   0.445
   29SOL    HW1  986   6.867   0.709   0.488
   29SOL    HW2  987   7.007   0.647   0.432
   30SOL     OW  988   4.089   0.475   5.343
   30SOL    HW1  989   4.116   0.404   5.278
   30SOL    HW2  990   4.113   0.445   5.436
   31SOL     OW  991   0.834   3.079   5.131
   31SOL    HW1  992   0.836   3.141   5.209
   31SOL    HW2  993   0.856   3.129   5.048
   32SOL     OW  994   1.784   0.114   1.382
   32SOL    HW1  995   1.763   0.197   1.432
   32SOL    HW2  996   1.874   0.123   1.339
   33SOL     OW  997   0.383   4.962   6.092
   33SOL    HW1  998   0.364   5.060   6.082
   33SOL    HW2  999   0.473   4.941   6.056
   34SOL     OW 1000   2.134   4.931   5.400
   34SOL    HW1 1001   2.074   5.008   5.418
   34SOL    HW2 1002   2.081   4.846   5.403
   35SOL     OW 1003   3.685   2.779   0.272
   35SOL    HW1 1004   3.587   2.791   0.261
   35SOL    HW2 1005   3.720   2.844   0.340
   36SOL     OW 1006   4.766   0.857   4.339
   36SOL    HW1 1007   4.814   0.773   4.366
   36SOL    HW2 1008   4.811   0.936   4.380
   37SOL     OW 1009   2.078   1.019   3.464
   37SOL    HW1 1010   2.090   0.924   3.492
   37SOL    HW2 1011   2.134   1.038   3.383
   38SOL     OW 1012   0.834   4.645   2.509
   38SOL    HW1 1013   0.781   4.606   2.433
   38SOL    HW2 1014   0.882   4.727   2.478
   39SOL     OW 1015   6.564   5.157   6.322
   39SOL    HW1 1016   6.532   5.251   6.333
   39SOL    HW2 1017   6.572   5.135   6.225
   40SOL     OW 1018   3.841   0.686   6.410
   40SOL    HW1 1019   3.772   0.627   6.368
   40SOL    HW2 1020   3.795   0.754   6.468
   41SOL     OW 1021   6.345   3.921   1.830
   41SOL    HW1 1022   6.286   3.900   1.753
   41SOL    HW2 1023   6.441   3.921   1.800
   42SOL     OW 1024   2.290   5.650   5.706
   42SOL    HW1 1025   2.262   5.589   5.632
   42SOL    HW2 1026   2.372   5.700   5.678
   43SOL     OW 1027   4.966   6.756   4.362
   43SOL    HW1 1028   4.968   6.664   4.400
   43SOL    HW2 1029   5.037   6.812   4.405
   44SOL     OW 1030   6.083   2.268   5.884
   44SOL    HW1 1031   6.151   2.225   5.826
   44SOL    HW2 1032   5.991   2.239   5.855
   45SOL     OW 1033   3.559   5.168   0.219
   45SOL    HW1 1034   3.564   5.071   0.243
   45SOL    HW2 1035   3.646   5.213   0.242
   46SOL     OW 1036   0.659   3.067   4.710
   46SOL    HW1 1037   0.602   3.106   4.782
   46SOL    HW2 1038   0.644   3.117   4.625
   47SOL     OW 1039   6.058   2.556   1.591
   47SOL    HW1 1040   6.111   2.640   1.574
   47SOL    HW2 1041   6.014   2.563   1.681
   48SOL     OW 1042   6.590   3.941   0.150
   48SOL    HW1 1043   6.553   3.990   0.229
   48SOL    HW2 1044   6.532   3.862   0.130
   49SOL     OW 1045   4.006   2.907   6.902
   49SOL    HW1 1046   3.982   2.905   6.805
   49SOL    HW2 1047   3.940   2.853   6.954
   50SOL     OW 1048   6.300   3.484   6.573
   50SOL    HW1 1049   6.330   3.432   6.653
   50SOL    HW2 1050   6.324   3.434   6.490
   51SOL     OW 1051   2.381   5.846   3.156
   51SOL    HW1 1052   2.426   5.929   3.124
   51SOL    HW2 1053   2.450   5.776   3.176
   52SOL     OW 1054   5.718   2.388   1.617
   52SOL    HW1 1055   5.717   2.458   1.689
   52SOL    HW2 1056   5.691   2.300   1.656
   53SOL     OW 1057   3.824   0.693   2.785
   53SOL    HW1 1058   3.867   0.780   2.809
   53SOL    HW2 1059   3.724   0.702   2.791
   54SOL     OW 1060   5.369   6.983   0.104
   54SOL    HW1 1061   5.285   6.929   0.098
   54SOL    HW2 1062   5.425   6.967   0.022
   55SOL     OW 1063   1.554   3.450   6.275
   55SOL    HW1 1064   1.524   3.417   6.185
   55SOL    HW2 1065   1.531   3.547   6.284
   56SOL     OW 1066   1.116   2.284   6.703
   56SOL    HW1 1067   1.084   2.232   6.781
   56SOL    HW2 1068   1.177   2.228   6.648
   57SOL     OW 1069   4.541   0.769   0.040
   57SOL    HW1 1070   4.469   0.824   7.030
   57SOL    HW2 1071   4.571   0.812   0.126
   58SOL     OW 1072   0.772   0.769   6.338
   58SOL    HW1 1073   0.738   0.685   6.380
   58SOL    HW2 1074   0.853   0.801   6.387
   59SOL     OW 1075   5.083   3.407   6.181
   59SOL    HW1 1076   5.132   3.457   6.252
   59SOL    HW2 1077   4.984   3.416   6.198
   60SOL     OW 1078   5.457   0.486   2.649
   60SOL    HW1 1079   5.447   0.464   2.552
   60SOL    HW2 1080   5.402   0.566   2.671
   61SOL     OW 1081   0.016   0.098   5.063
   61SOL    HW1 1082   6.990   0.178   5.076
   61SOL    HW2 1083   6.991   0.016   5.055
   62SOL     OW 1084   7.007   2.009   2.246
   62SOL    HW1 1085   6.988   1.959   2.162
   62SOL    HW2 1086   0.029   2.090   2.225
   63SOL     OW 1087   4.104   6.506   4.750
   63SOL    HW1 1088   4.157   6.425   4.774
   63SOL    HW2 1089   4.136   6.541   4.662
   64SOL     OW 1090   0.937   4.753   0.204
   64SOL    HW1 1091   0.951   4.673   0.145
   64SOL    HW2 1092   0.881   4.727   0.283
   65SOL     OW 1093   0.599   0.528   5.435
   65SOL    HW1 1094   0.501   0.551   5.436
   65SOL    HW2 1095   0.614   0.444   5.487
   66SOL     OW 1096   4.183   0.712   2.431
   66SOL    HW1 1097   4.128   0.649   2.375
   66SOL    HW2 1098   4.234   0.773   2.371
   67SOL     OW 1099   0.614   2.355   0.990
   67SOL    HW1 1100   0.537   2.321   0.936
   67SOL    HW2 1101   0.590   2.444   1.028
   68SOL     OW 1102   6.688   2.687   5.730
   68SOL    HW1 1103   6.658   2.712   5.638
   68SOL    HW2 1104   6.610   2.688   5.792
   69SOL     OW 1105   0.944   4.989   6.281
   69SOL    HW1 1106   0.871   4.938   6.326
   69SOL    HW2 1107   0.951   5.080   6.321
   70SOL     OW 1108   5.274   3.173   4.656
   70SOL    HW1 1109   5.225   3.178   4.569
   70SOL    HW2 1110   5.229   3.106   4.716
   71SOL     OW 1111   4.297   1.598   4.305
   71SOL    HW1 1112   4.278   1.687   4.347
   71SOL    HW2 1113   4.378   1.558   4.347
   72SOL     OW 1114   0.201   0.873   3.630
   72SOL    HW1 1115   0.295   0.856   3.658
   72SOL    HW2 1116   0.175   0.809   3.558
   73SOL     OW 1117   2.443   0.696   0.965
   73SOL    HW1 1118   2.521   0.738   0.918
   73SOL    HW2 1119   2.410   0.759   1.035
   74SOL     OW 1120   2.005   2.135   0.190
   74SOL    HW1 1121   2.071   2.153   0.264
   74SOL    HW2 1122   2.017   2.042   0.158
   75SOL     OW 1123   4.087   2.269   0.671
   75SOL    HW1 1124   4.098   2.358   0.626
   75SOL    HW2 1125   4.145   2.202   0.626
   76SOL     OW 1126   3.266   4.624   5.371
   76SOL    HW1 1127   3.254   4.529   5.342
   76SOL    HW2 1128   3.178   4.670   5.373
   77SOL     OW 1129   1.849   4.369   4.178
   77SOL    HW1 1130   1.818   4.359   4.083
   77SOL    HW2 1131   1.867   4.279   4.217
   78SOL     OW 1132   4.482   1.685   1.011
   78SOL    HW1 1133   4.531   1.731   1.085
   78SOL    HW2 1134   4.521   1.594   0.997
   79SOL     OW 1135   2.045   5.228   2.414
   79SOL    HW1 1136   1.966   5.186   2.458
   79SOL    HW2 1137   2.109   5.158   2.385
   80SOL     OW 1138   4.609   1.686   4.950
   80SOL    HW1 1139   4.704   1.671   4.976
   80SOL    HW2 1140   4.602   1.771   4.897
   81SOL     OW 1141   2.954   5.903   1.485
   81SOL    HW1 1142   3.000   5.974   1.538
   81SOL    HW2 1143   2.914   5.943   1.402
   82SOL     OW 1144   1.293   6.170   1.313
   82SOL    HW1 1145   1.287   6.086   1.367
   82SOL    HW2 1146   1.245   6.157   1.226
   83SOL     OW 1147   5.244   1.280   4.691
   83SOL    HW1 1148   5.175   1.241   4.752
   83SOL    HW2 1149   5.313   1.328   4.745
   84SOL     OW 1150   5.891   2.646   3.025
   84SOL    HW1 1151   5.890   2.584   2.946
   84SOL    HW2 1152   5.868   2.595   3.107
   85SOL     OW 1153   2.315   0.372   4.139
   85SOL    HW1 1154   2.404   0.389   4.181
   85SOL    HW2 1155   2.250   0.443   4.167
   86SOL     OW 1156   5.526   0.746   6.531
   86SOL    HW1 1157   5.480   0.668   6.488
   86SOL    HW2 1158   5.558   0.719   6.622
   87SOL     OW 1159   3.097   4.164   6.538
   87SOL    HW1 1160   3.186   4.119   6.542
   87SOL    HW2 1161   3.050   4.154   6.626
   88SOL     OW 1162   2.926   3.750   6.977
   88SOL    HW1 1163   2.856   3.705   0.002
   88SOL    HW2 1164   2.990   3.799   0.005
   89SOL     OW 1165   2.950   3.745   2.826
   89SOL    HW1 1166   2.939   3.647   2.808
   89SOL    HW2 1167   2.933   3.763   2.923
   90SOL     OW 1168   4.691   4.197   2.801
   90SOL    HW1 1169   4.761   4.128   2.778
   90SOL    HW2 1170   4.637   4.217   2.719
   91SOL     OW 1171   5.339   5.173   6.372
   91SOL    HW1 1172   5.378   5.264   6.381
   91SOL    HW2 1173   5.286   5.168   6.287
   92SOL     OW 1174   5.391   4.161   6.799
   92SOL    HW1 1175   5.296   4.179   6.826
   92SOL    HW2 1176   5.447   4.147   6.880
   93SOL     OW 1177   2.951   3.206   1.953
   93SOL    HW1 1178   3.024   3.256   1.999
   93SOL    HW2 1179   2.990   3.125   1.908
   94SOL     OW 1180   3.177   1.380   6.120
   94SOL    HW1 1181   3.115   1.327   6.062
   94SOL    HW2 1182   3.215   1.321   6.191
   95SOL     OW 1183   0.251   0.596   4.218
   95SOL    HW1 1184   0.266   0.684   4.262
   95SOL    HW2 1185   0.245   0.524   4.287
   96SOL     OW 1186   4.372   5.072   0.430
   96SOL    HW1 1187   4.397   5.069   0.526
   96SOL    HW2 1188   4.273   5.063   0.421
   97SOL     OW 1189   1.989   5.171   5.331
   97SOL    HW1 1190   1.923   5.189   5.404
   97SOL    HW2 1191   1.945   5.187   5.243
   98SOL     OW 1192   0.887   2.885   2.926
   98SOL    HW1 1193   0.833   2.907   3.007
   98SOL    HW2 1194   0.845   2.809   2.876
   99SOL     OW 1195   4.119   3.349   4.404
   99SOL    HW1 1196   4.143   3.309   4.493
   99SOL    HW2 1197   4.128   3.280   4.333
  100SOL     OW 1198   7.026   0.033   3.636
  100SOL    HW1 1199   0.073   0.083   3.600
  100SOL    HW2 1200   0.000   0.031   3.736
  101SOL     OW 1201   7.011   3.319   2.815
  101SOL    HW1 1202   6.915   3.339   2.794
  101SOL    HW2 1203   0.035   3.399   2.795
  102SOL     OW 1204   2.678   6.817   0.988
  102SOL    HW1 1205   2.749   6.841   1.054
  102SOL    HW2 1206   2.717   6.817   0.896
  103SOL     OW 1207   1.985   0.564   1.729
  103SOL    HW1 1208   2.050   0.635   1.703
  103SOL    HW2 1209   2.016   0.518   1.812
  104SOL     OW 1210   1.190   4.873   1.480
  104SOL    HW1 1211   1.161   4.968   1.472
  104SOL    HW2 1212   1.179   4.843   1.575
  105SOL     OW 1213   4.878   1.602   6.055
  105SOL    HW1 1214   4.831   1.614   6.142
  105SOL    HW2 1215   4.925   1.687   6.031
  106SOL     OW 1216   5.986   5.106   2.124
  106SOL    HW1 1217   6.007   5.010   2.105
  106SOL    HW2 1218   6.071   5.157   2.138
  107SOL     OW 1219   6.056   0.433   0.951
  107SOL    HW1 1220   5.980   0.389   0.999
  107SOL    HW2 1221   6.056   0.531   0.970
  108SOL     OW 1222   1.900   0.792   6.201
  108SOL    HW1 1223   1.976   0.840   6.157
  108SOL    HW2 1224   1.814   0.824   6.163
  109SOL     OW 1225   2.203   1.079   3.691
  109SOL    HW1 1226   2.270   1.006   3.680
  109SOL    HW2 1227   2.136   1.075   3.617
  110SOL     OW 1228   2.985   4.198   5.615
  110SOL    HW1 1229   2.929   4.145   5.679
  110SOL    HW2 1230   3.031   4.136   5.552
  111SOL     OW 1231   6.626   1.908   2.000
  111SOL    HW1 1232   6.556   1.841   1.973
  111SOL    HW2 1233   6.623   1.920   2.099
  112SOL     OW 1234   4.876   0.435   6.944
  112SOL    HW1 1235   4.914   0.481   6.864
  112SOL    HW2 1236   4.859   0.503   7.016
  113SOL     OW 1237   6.662   6.086   1.926
  113SOL    HW1 1238   6.612   6.161   1.968
  113SOL    HW2 1239   6.684   6.110   1.831
  114SOL     OW 1240   0.636   3.898   3.228
  114SOL    HW1 1241   0.730   3.901   3.262
  114SOL    HW2 1242   0.626   3.819   3.167
  115SOL     OW 1243   6.019   1.154   3.327
  115SOL    HW1 1244   5.971   1.127   3.244
  115SOL    HW2 1245   6.029   1.253   3.329
  116SOL     OW 1246   1.267   4.815   0.566
  116SOL    HW1 1247   1.352   4.766   0.586
  116SOL    HW2 1248   1.240   4.798   0.472
  117SOL     OW 1249   2.331   1.379   0.054
  117SOL    HW1 1250   2.419   1.383   0.102
  117SOL    HW2 1251   2.311   1.284   0.029
  118SOL     OW 1252   1.607   1.194   4.503
  118SOL    HW1 1253   1.510   1.216   4.513
  118SOL    HW2 1254   1.633   1.124   4.570
  119SOL     OW 1255   0.063   6.041   6.184
  119SOL    HW1 1256   0.008   6.113   6.225
  119SOL    HW2 1257   0.004   5.981   6.130
  120SOL     OW 1258   4.714   2.443   4.533
  120SOL    HW1 1259   4.674   2.502   4.462
  120SOL    HW2 1260   4.675   2.467   4.622
  121SOL     OW 1261   1.230   3.813   6.468
  121SOL    HW1 1262   1.151   3.856   6.425
  121SOL    HW2 1263   1.250   3.858   6.555
  122SOL     OW 1264   0.847   4.182   0.016
  122SOL    HW1 1265   0.758   4.136   0.006
  122SOL    HW2 1266   0.907   4.127   0.074
  123SOL     OW 1267   1.331   1.304   1.519
  123SOL    HW1 1268   1.402   1.343   1.577
  123SOL    HW2 1269   1.242   1.343   1.543
  124SOL     OW 1270   2.046   2.564   0.812
  124SOL    HW1 1271   2.071   2.468   0.822
  124SOL    HW2 1272   2.127   2.618   0.789
  125SOL     OW 1273   3.666   3.329   0.257
  125SOL    HW1 1274   3.667   3.409   0.317
  125SOL    HW2 1275   3.579   3.281   0.267
  126SOL     OW 1276   3.468   3.203   4.360
  126SOL    HW1 1277   3.406   3.279   4.380
  126SOL    HW2 1278   3.549   3.239   4.312
  127SOL     OW 1279   0.380   6.345   5.981
  127SOL    HW1 1280   0.396   6.260   5.931
  127SOL    HW2 1281   0.310   6.330   6.051
  128SOL     OW 1282   4.950   3.845   0.898
  128SOL    HW1 1283   4.897   3.772   0.942
  128SOL    HW2 1284   4.947   3.832   0.798
  129SOL     OW 1285   2.192   6.046   1.145
  129SOL    HW1 1286   2.222   5.951   1.143
  129SOL    HW2 1287   2.108   6.056   1.091
  130SOL     OW 1288   5.642   2.329   4.780
  130SOL    HW1 1289   5.618   2.242   4.821
  130SOL    HW2 1290   5.602   2.335   4.688
  131SOL     OW 1291   6.930   2.685   3.508
  131SOL    HW1 1292   6.854   2.635   3.550
  131SOL    HW2 1293   6.959   2.637   3.425
  132SOL     OW 1294   3.576   3.928   1.854
  132SOL    HW1 1295   3.526   3.879   1.783
  132SOL    HW2 1296   3.551   4.025   1.850
  133SOL     OW 1297   5.399   6.635   5.731
  133SOL    HW1 1298   5.340   6.685   5.668
  133SOL    HW2 1299   5.493   6.636   5.696
  134SOL     OW 1300   5.660   0.723   1.800
  134SOL    HW1 1301   5.688   0.631   1.772
  134SOL    HW2 1302   5.741   0.779   1.815
  135SOL     OW 1303   4.893   3.680   4.374
  135SOL    HW1 1304   4.888   3.665   4.275
  135SOL    HW2 1305   4.838   3.760   4.398
  136SOL     OW 1306   3.369   0.176   5.650
  136SOL    HW1 1307   3.382   0.275   5.653
  136SOL    HW2 1308   3.409   0.140   5.565
  137SOL     OW 1309   3.027   2.242   5.283
  137SOL    HW1 1310   3.071   2.165   5.330
  137SOL    HW2 1311   3.081   2.267   5.203
  138SOL     OW 1312   0.765   5.995   5.599
  138SOL    HW1 1313   0.792   5.978   5.693
  138SOL    HW2 1314   0.687   5.936   5.575
  139SOL     OW 1315   2.146   6.183   7.020
  139SOL    HW1 1316   2.087   6.172   6.941
  139SOL    HW2 1317   2.092   6.177   0.072
  140SOL     OW 1318   2.336   0.408   2.670
  140SOL    HW1 1319   2.278   0.423   2.590
  140SOL    HW2 1320   2.366   0.496   2.706
  141SOL     OW 1321   6.884   4.467   0.278
  141SOL    HW1 1322   6.868   4.516   0.364
  141SOL    HW2 1323   6.940   4.524   0.218
  142SOL     OW 1324   1.757   4.126   2.582
  142SOL    HW1 1325   1.817   4.112   2.503
  142SOL    HW2 1326   1.694   4.201   2.563
  143SOL     OW 1327   4.438   6.712   1.704
  143SOL    HW1 1328   4.523   6.674   1.740
  143SOL    HW2 1329   4.432   6.694   1.605
  144SOL     OW 1330   3.507   5.058   3.510
  144SOL    HW1 1331   3.606   5.051   3.521
  144SOL    HW2 1332   3.482   5.028   3.418
  145SOL     OW 1333   6.953   4.598   3.027
  145SOL    HW1 1334   7.015   4.591   2.948
  145SOL    HW2 1335   6.998   4.647   3.101
  146SOL     OW 1336   5.742   1.645   6.258
  146SOL    HW1 1337   5.842   1.636   6.252
  146SOL    HW2 1338   5.716   1.661   6.353
  147SOL     OW 1339   5.052   1.243   5.518
  147SOL    HW1 1340   5.068   1.313   5.587
  147SOL    HW2 1341   5.090   1.273   5.431
  148SOL     OW 1342   1.178   5.359   0.761
  148SOL    HW1 1343   1.214   5.428   0.698
  148SOL    HW2 1344   1.125   5.403   0.834
  149SOL     OW 1345   1.820   2.609   5.919
  149SOL    HW1 1346   1.864   2.649   5.999
  149SOL    HW2 1347   1.856   2.654   5.836
  150SOL     OW 1348   4.393   1.831   4.487
  150SOL    HW1 1349   4.486   1.795   4.486
  150SOL    HW2 1350   4.341   1.786   4.560
  151SOL     OW 1351   4.380   2.538   0.534
  151SOL    HW1 1352   4.435   2.454   0.533
  151SOL    HW2 1353   4.440   2.617   0.524
  152SOL     OW 1354   0.980   1.003   0.103
  152SOL    HW1 1355   0.966   1.039   0.011
  152SOL    HW2 1356   0.905   0.941   0.126
  153SOL     OW 1357   3.045   1.356   4.101
  153SOL    HW1 1358   2.966   1.407   4.136
  153SOL    HW2 1359   3.045   1.264   4.142
  154SOL     OW 1360   5.813   1.763   1.636
  154SOL    HW1 1361   5.744   1.707   1.681
  154SOL    HW2 1362   5.772   1.812   1.559
  155SOL     OW 1363   1.723   0.015   1.878
  155SOL    HW1 1364   1.752   7.009   1.790
  155SOL    HW2 1365   1.758   0.108   1.887
  156SOL     OW 1366   5.525   2.295   0.360
  156SOL    HW1 1367   5.448   2.271   0.301
  156SOL    HW2 1368   5.490   2.341   0.442
  157SOL     OW 1369   4.504   5.148   0.216
  157SOL    HW1 1370   4.462   5.132   0.305
  157SOL    HW2 1371   4.432   5.168   0.149
  158SOL     OW 1372   0.435   2.953   2.992
  158SOL    HW1 1373   0.349   2.923   2.951
  158SOL    HW2 1374   0.424   2.960   3.091
  159SOL     OW 1375   5.609   5.585   0.631
  159SOL    HW1 1376   5.511   5.585   0.609
  159SOL    HW2 1377   5.649   5.498   0.603
  160SOL     OW 1378   6.407   6.918   1.012
  160SOL    HW1 1379   6.494   6.967   0.999
  160SOL    HW2 1380   6.355   6.921   0.927
  161SOL     OW 1381   0.257   6.657   0.493
  161SOL    HW1 1382   0.217   6.597   0.562
  161SOL    HW2 1383   0.233   6.752   0.513
  162SOL     OW 1384   4.082   0.056   0.616
  162SOL    HW1 1385   4.155   0.078   0.550
  162SOL    HW2 1386   3.997   0.041   0.566
  163SOL     OW 1387   6.933   3.607   3.654
  163SOL    HW1 1388   6.862   3.540   3.676
  163SOL    HW2 1389   6.958   3.658   3.737
  164SOL     OW 1390   1.802   1.897   3.464
  164SOL    HW1 1391   1.823   1.800   3.476
  164SOL    HW2 1392   1.714   1.917   3.507
  165SOL     OW 1393   0.831   5.667   3.524
  165SOL    HW1 1394   0.746   5.651   3.573
  165SOL    HW2 1395   0.831   5.614   3.439
  166SOL     OW 1396   6.746   3.468   3.115
  166SOL    HW1 1397   6.784   3.436   3.202
  166SOL    HW2 1398   6.814   3.524   3.068
  167SOL     OW 1399   4.965   2.177   6.807
  167SOL    HW1 1400   4.896   2.161   6.877
  167SOL    HW2 1401   4.924   2.225   6.730
  168SOL     OW 1402   4.923   3.840   2.157
  168SOL    HW1 1403   4.871   3.833   2.072
  168SOL    HW2 1404   4.901   3.927   2.202
  169SOL     OW 1405   6.368   2.505   1.003
  169SOL    HW1 1406   6.324   2.415   1.011
  169SOL    HW2 1407   6.447   2.509   1.064
  170SOL     OW 1408   0.660   5.064   2.915
  170SOL    HW1 1409   0.599   4.994   2.952
  170SOL    HW2 1410   0.661   5.058   2.815
  171SOL     OW 1411   2.889   3.556   0.475
  171SOL    HW1 1412   2.863   3.617   0.400
  171SOL    HW2 1413   2.989   3.557   0.486
  172SOL     OW 1414   6.214   2.028   0.606
  172SOL    HW1 1415   6.114   2.026   0.613
  172SOL    HW2 1416   6.253   2.002   0.694
  173SOL     OW 1417   6.601   2.085   5.642
  173SOL    HW1 1418   6.661   2.022   5.592
  173SOL    HW2 1419   6.602   2.175   5.599
  174SOL     OW 1420   6.301   5.249   5.635
  174SOL    HW1 1421   6.348   5.165   5.608
  174SOL    HW2 1422   6.215   5.225   5.681
  175SOL     OW 1423   0.772   0.134   0.822
  175SOL    HW1 1424   0.847   0.124   0.887
  175SOL    HW2 1425   0.687   0.150   0.872
  176SOL     OW 1426   5.335   4.717   2.484
  176SOL    HW1 1427   5.392   4.704   2.565
  176SOL    HW2 1428   5.332   4.814   2.461
  177SOL     OW 1429   5.949   2.136   4.296
  177SOL    HW1 1430   6.043   2.104   4.283
  177SOL    HW2 1431   5.886   2.058   4.288
  178SOL     OW 1432   1.745   6.431   5.363
  178SOL    HW1 1433   1.814   6.427   5.291
  178SOL    HW2 1434   1.655   6.452   5.323
  179SOL     OW 1435   3.799   4.987   1.160
  179SOL    HW1 1436   3.848   4.905   1.130
  179SOL    HW2 1437   3.811   5.059   1.091
  180SOL     OW 1438   4.345   1.768   0.798
  180SOL    HW1 1439   4.381   1.747   0.889
  180SOL    HW2 1440   4.407   1.833   0.753
  181SOL     OW 1441   3.283   2.223   5.524
  181SOL    HW1 1442   3.376   2.209   5.488
  181SOL    HW2 1443   3.219   2.166   5.473
  182SOL     OW 1444   4.696   2.264   6.362
  182SOL    HW1 1445   4.640   2.328   6.309
  182SOL    HW2 1446   4.700   2.176   6.314
  183SOL     OW 1447   3.225   1.686   3.588
  183SOL    HW1 1448   3.194   1.692   3.682
  183SOL    HW2 1449   3.152   1.716   3.526
  184SOL     OW 1450   6.489   6.352   3.175
  184SOL    HW1 1451   6.477   6.404   3.091
  184SOL    HW2 1452   6.533   6.265   3.155
  185SOL     OW 1453   0.470   1.231   4.361
  185SOL    HW1 1454   0.511   1.302   4.304
  185SOL    HW2 1455   0.542   1.184   4.412
  186SOL     OW 1456   4.484   5.858   3.517
  186SOL    HW1 1457   4.409   5.894   3.460
  186SOL    HW2 1458   4.490   5.759   3.504
  187SOL     OW 1459   4.262   6.087   1.896
  187SOL    HW1 1460   4.360   6.075   1.879
  187SOL    HW2 1461   4.212   6.079   1.810
  188SOL     OW 1462   2.125   2.783   3.119
  188SOL    HW1 1463   2.165   2.871   3.145
  188SOL    HW2 1464   2.051   2.798   3.053
  189SOL     OW 1465   6.270   5.011   6.339
  189SOL    HW1 1466   6.249   4.983   6.433
  189SOL    HW2 1467   6.225   5.099   6.320
  190SOL     OW 1468   6.058   0.147   0.484
  190SOL    HW1 1469   6.123   0.125   0.557
  190SOL    HW2 1470   5.965   0.137   0.518
  191SOL     OW 1471   6.104   0.637   5.590
  191SOL    HW1 1472   6.163   0.714   5.564
  191SOL    HW2 1473   6.030   0.629   5.523
  192SOL     OW 1474   0.787   5.266   0.550
  192SOL    HW1 1475   0.854   5.339   0.555
  192SOL    HW2 1476   0.832   5.178   0.562
  193SOL     OW 1477   2.743   5.411   6.237
  193SOL    HW1 1478   2.715   5.317   6.220
  193SOL    HW2 1479   2.834   5.426   6.199
  194SOL     OW 1480   3.894   0.005   2.295
  194SOL    HW1 1481   3.859   0.036   2.207
  194SOL    HW2 1482   3.828   6.977   2.339
  195SOL     OW 1483   3.214   1.111   1.713
  195SOL    HW1 1484   3.208   1.020   1.753
  195SOL    HW2 1485   3.307   1.146   1.722
  196SOL     OW 1486   1.987   1.041   0.001
  196SOL    HW1 1487   1.956   1.060   6.939
  196SOL    HW2 1488   1.916   0.990   0.050
  197SOL     OW 1489   2.249   5.723   0.360
  197SOL    HW1 1490   2.262   5.797   0.293
  197SOL    HW2 1491   2.173   5.665   0.330
  198SOL     OW 1492   4.261   6.252   0.024
  198SOL    HW1 1493   4.318   6.228   6.976
  198SOL    HW2 1494   4.274   6.348   0.047
  199SOL     OW 1495   6.020   6.493   3.029
  199SOL    HW1 1496   5.923   6.472   3.016
  199SOL    HW2 1497   6.032   6.548   3.111
  200SOL     OW 1498   0.572   4.003   2.885
  200SOL    HW1 1499   0.561   4.080   2.948
  200SOL    HW2 1500   0.653   3.950   2.911
  201SOL     OW 1501   3.055   0.877   0.106
  201SOL    HW1 1502   3.068   0.837   0.015
  201SOL    HW2 1503   2.957   0.889   0.124
  202SOL     OW 1504   3.763   0.156   3.397
  202SOL    HW1 1505   3.829   0.086   3.424
  202SOL    HW2 1506   3.670   0.120   3.405
  203SOL     OW 1507   5.319   3.779   6.161
  203SOL    HW1 1508   5.229   3.821   6.167
  203SOL    HW2 1509   5.384   3.829   6.218
  204SOL     OW 1510   2.376   6.831   0.519
  204SOL    HW1 1511   2.312   6.812   0.445
  204SOL    HW2 1512   2.432   6.750   0.536
  205SOL     OW 1513   6.090   1.828   0.964
  205SOL    HW1 1514   6.143   1.790   1.040
  205SOL    HW2 1515   6.065   1.755   0.901
  206SOL     OW 1516   0.189   4.832   2.057
  206SOL    HW1 1517   0.283   4.810   2.033
  206SOL    HW2 1518   0.165   4.921   2.018
  207SOL     OW 1519   4.773   0.778   5.691
  207SOL    HW1 1520   4.750   0.867   5.651
  207SOL    HW2 1521   4.690   0.724   5.701
  208SOL     OW 1522   5.004   5.830   6.472
  208SOL    HW1 1523   4.976   5.834   6.376
  208SOL    HW2 1524   5.025   5.923   6.504
  209SOL     OW 1525   6.424   5.319   5.851
  209SOL    HW1 1526   6.459   5.244   5.907
  209SOL    HW2 1527   6.365   5.282   5.779
  210SOL     OW 1528   4.031   2.325   1.310
  210SOL    HW1 1529   3.994   2.241   1.270
  210SOL    HW2 1530   4.078   2.378   1.238
  211SOL     OW 1531   0.994   1.263   0.790
  211SOL    HW1 1532   0.913   1.249   0.846
  211SOL    HW2 1533   0.966   1.301   0.701
  212SOL     OW 1534   0.686   5.160   3.810
  212SOL    HW1 1535   0.724   5.109   3.888
  212SOL    HW2 1536   0.755   5.166   3.738
  213SOL     OW 1537   5.058   2.505   6.510
  213SOL    HW1 1538   5.149   2.465   6.506
  213SOL    HW2 1539   5.008   2.482   6.426
  214SOL     OW 1540   0.915   6.863   2.063
  214SOL    HW1 1541   0.960   6.788   2.113
  214SOL    HW2 1542   0.891   6.936   2.126
  215SOL     OW 1543   3.549   3.126   2.491
  215SOL    HW1 1544   3.579   3.220   2.473
  215SOL    HW2 1545   3.450   3.125   2.505
  216SOL     OW 1546   0.863   0.321   5.539
  216SOL    HW1 1547   0.917   0.403   5.518
  216SOL    HW2 1548   0.837   0.276   5.453
  217SOL     OW 1549   0.924   3.278   3.730
  217SOL    HW1 1550   0.929   3.341   3.808
  217SOL    HW2 1551   0.894   3.188   3.761
  218SOL     OW 1552   1.199   3.304   5.082
  218SOL    HW1 1553   1.192   3.301   4.982
  218SOL    HW2 1554   1.172   3.395   5.114
  219SOL     OW 1555   4.265   4.735   0.520
  219SOL    HW1 1556   4.223   4.801   0.583
  219SOL    HW2 1557   4.347   4.697   0.563
  220SOL     OW 1558   2.575   5.136   0.221
  220SOL    HW1 1559   2.558   5.215   0.280
  220SOL    HW2 1560   2.521   5.144   0.138
  221SOL     OW 1561   5.153   2.279   3.929
  221SOL    HW1 1562   5.208   2.224   3.992
  221SOL    HW2 1563   5.109   2.219   3.862
  222SOL     OW 1564   0.302   5.757   5.658
  222SOL    HW1 1565   0.232   5.818   5.694
  222SOL    HW2 1566   0.260   5.690   5.598
  223SOL     OW 1567   7.017   3.795   1.931
  223SOL    HW1 1568   0.071   3.815   1.979
  223SOL    HW2 1569   0.002   3.796   1.832
  224SOL     OW 1570   2.710   2.124   2.087
  224SOL    HW1 1571   2.776   2.198   2.074
  224SOL    HW2 1572   2.673   2.096   1.998
  225SOL     OW 1573   5.777   0.700   0.024
  225SOL    HW1 1574   5.706   0.645   0.068
  225SOL    HW2 1575   5.769   0.795   0.056
  226SOL     OW 1576   0.566   5.885   0.711
  226SOL    HW1 1577   0.641   5.906   0.648
  226SOL    HW2 1578   0.517   5.804   0.679
  227SOL     OW 1579   1.343   3.477   3.990
  227SOL    HW1 1580   1.413   3.407   3.977
  227SOL    HW2 1581   1.283   3.451   4.065
  228SOL     OW 1582   4.664   6.681   3.808
  228SOL    HW1 1583   4.741   6.723   3.856
  228SOL    HW2 1584   4.690   6.589   3.777
  229SOL     OW 1585   6.106   6.304   2.231
  229SOL    HW1 1586   6.080   6.215   2.268
  229SOL    HW2 1587   6.169   6.291   2.154
  230SOL     OW 1588   2.337   4.338   5.168
  230SOL    HW1 1589   2.374   4.387   5.089
  230SOL    HW2 1590   2.333   4.240   5.146
  231SOL     OW 1591   0.596   3.137   6.030
  231SOL    HW1 1592   0.656   3.059   6.048
  231SOL    HW2 1593   0.564   3.175   6.117
  232SOL     OW 1594   1.253   3.557   6.948
  232SOL    HW1 1595   1.348   3.524   6.954
  232SOL    HW2 1596   1.235   3.586   6.854
  233SOL     OW 1597   2.342   1.715   5.427
  233SOL    HW1 1598   2.371   1.774   5.351
  233SOL    HW2 1599   2.387   1.745   5.511
  234SOL     OW 1600   2.653   5.224   6.898
  234SOL    HW1 1601   2.687   5.309   6.859
  234SOL    HW2 1602   2.612   5.169   6.826
  235SOL     OW 1603   3.248   3.397   4.200
  235SOL    HW1 1604   3.218   3.409   4.295
  235SOL    HW2 1605   3.171   3.368   4.144
  236SOL     OW 1606   6.757   2.555   5.317
  236SOL    HW1 1607   6.818   2.500   5.260
  236SOL    HW2 1608   6.808   2.593   5.394
  237SOL     OW 1609   0.373   0.143   1.371
  237SOL    HW1 1610   0.390   0.192   1.285
  237SOL    HW2 1611   0.392   0.203   1.448
  238SOL     OW 1612   5.471   3.033   2.554
  238SOL    HW1 1613   5.516   2.968   2.493
  238SOL    HW2 1614   5.461   2.991   2.645
  239SOL     OW 1615   6.798   5.849   6.856
  239SOL    HW1 1616   6.879   5.793   6.874
  239SOL    HW2 1617   6.821   5.921   6.792
  240SOL     OW 1618   0.495   4.149   6.036
  240SOL    HW1 1619   0.475   4.179   6.129
  240SOL    HW2 1620   0.488   4.228   5.974
  241SOL     OW 1621   0.420   0.658   3.013
  241SOL    HW1 1622   0.499   0.715   2.989
  241SOL    HW2 1623   0.339   0.693   2.966
  242SOL     OW 1624   1.842   3.749   4.551
  242SOL    HW1 1625   1.879   3.796   4.631
  242SOL    HW2 1626   1.755   3.790   4.525
  243SOL     OW 1627   5.751   6.693   5.096
  243SOL    HW1 1628   5.832   6.717   5.043
  243SOL    HW2 1629   5.727   6.598   5.078
  244SOL     OW 1630   5.616   2.068   4.906
  244SOL    HW1 1631   5.597   1.985   4.852
  244SOL    HW2 1632   5.708   2.062   4.945
  245SOL     OW 1633   5.996   2.806   4.001
  245SOL    HW1 1634   5.937   2.808   3.921
  245SOL    HW2 1635   6.002   2.897   4.042
  246SOL     OW 1636   5.043   3.936   3.120
  246SOL    HW1 1637   5.139   3.936   3.091
  246SOL    HW2 1638   4.989   3.881   3.057
  247SOL     OW 1639   2.002   1.579   3.366
  247SOL    HW1 1640   2.040   1.486   3.362
  247SOL    HW2 1641   2.042   1.629   3.443
  248SOL     OW 1642   6.213   1.687   3.492
  248SOL    HW1 1643   6.176   1.594   3.484
  248SOL    HW2 1644   6.149   1.745   3.542
  249SOL     OW 1645   3.612   6.958   4.260
  249SOL    HW1 1646   3.576   6.918   4.176
  249SOL    HW2 1647   3.634   0.023   4.243
  250SOL     OW 1648   5.266   3.525   6.030
  250SOL    HW1 1649   5.209   3.463   6.085
  250SOL    HW2 1650   5.313   3.590   6.090
  251SOL     OW 1651   4.215   2.576   6.748
  251SOL    HW1 1652   4.273   2.525   6.811
  251SOL    HW2 1653   4.122   2.582   6.785
  252SOL     OW 1654   0.165   0.495   6.042
  252SOL    HW1 1655   0.072   0.528   6.026
  252SOL    HW2 1656   0.166   0.395   6.035
  253SOL     OW 1657   2.966   3.127   0.169
  253SOL    HW1 1658   2.898   3.074   0.118
  253SOL    HW2 1659   3.030   3.064   0.214
  254SOL     OW 1660   5.777   2.563   5.208
  254SOL    HW1 1661   5.779   2.570   5.108
  254SOL    HW2 1662   5.692   2.601   5.243
  255SOL     OW 1663   2.763   1.774   3.037
  255SOL    HW1 1664   2.722   1.865   3.029
  255SOL    HW2 1665   2.713   1.721   3.106
  256SOL     OW 1666   5.262   5.079   0.248
  256SOL    HW1 1667   5.212   5.158   0.283
  256SOL    HW2 1668   5.199   5.018   0.199
  257SOL     OW 1669   3.097   5.714   5.986
  257SOL    HW1 1670   3.105   5.783   5.914
  257SOL    HW2 1671   3.147   5.744   6.067
  258SOL     OW 1672   5.507   4.281   4.397
  258SOL    HW1 1673   5.546   4.192   4.373
  258SOL    HW2 1674   5.416   4.290   4.354
  259SOL     OW 1675   1.462   1.906   2.706
  259SOL    HW1 1676   1.562   1.900   2.712
  259SOL    HW2 1677   1.435   1.908   2.609
  260SOL     OW 1678   5.828   0.479   5.981
  260SOL    HW1 1679   5.926   0.488   5.996
  260SOL    HW2 1680   5.807   0.384   5.955
  261SOL     OW 1681   0.856   4.242   2.475
  261SOL    HW1 1682   0.911   4.273   2.553
  261SOL    HW2 1683   0.829   4.321   2.420
  262SOL     OW 1684   0.936   4.212   2.028
  262SOL    HW1 1685   0.984   4.255   2.104
  262SOL    HW2 1686   0.864   4.153   2.064
  263SOL     OW 1687   0.821   1.933   4.310
  263SOL    HW1 1688   0.748   1.935   4.241
  263SOL    HW2 1689   0.822   1.844   4.354
  264SOL     OW 1690   2.242   4.523   6.493
  264SOL    HW1 1691   2.203   4.528   6.585
  264SOL    HW2 1692   2.330   4.477   6.496
  265SOL     OW 1693   5.305   4.549   4.553
  265SOL    HW1 1694   5.271   4.462   4.518
  265SOL    HW2 1695   5.405   4.546   4.556
  266SOL     OW 1696   3.831   1.901   0.755
  266SOL    HW1 1697   3.920   1.857   0.742
  266SOL    HW2 1698   3.780   1.853   0.826
  267SOL     OW 1699   1.553   1.912   6.173
  267SOL    HW1 1700   1.468   1.958   6.200
  267SOL    HW2 1701   1.631   1.966   6.204
  268SOL     OW 1702   3.963   4.949   4.679
  268SOL    HW1 1703   3.990   4.895   4.599
  268SOL    HW2 1704   3.909   5.027   4.649
  269SOL     OW 1705   0.905   2.227   5.844
  269SOL    HW1 1706   0.811   2.255   5.824
  269SOL    HW2 1707   0.917   2.219   5.943
  270SOL     OW 1708   5.420   1.168   2.883
  270SOL    HW1 1709   5.389   1.153   2.789
  270SOL    HW2 1710   5.429   1.081   2.931
  271SOL     OW 1711   1.355   0.539   6.475
  271SOL    HW1 1712   1.341   0.554   6.573
  271SOL    HW2 1713   1.268   0.548   6.427
  272SOL     OW 1714   3.261   6.133   3.414
  272SOL    HW1 1715   3.328   6.071   3.455
  272SOL    HW2 1716   3.196   6.079   3.359
  273SOL     OW 1717   2.542   6.254   5.100
  273SOL    HW1 1718   2.636   6.256   5.065
  273SOL    HW2 1719   2.541   6.211   5.191
  274SOL     OW 1720   6.332   2.539   2.226
  274SOL    HW1 1721   6.355   2.443   2.242
  274SOL    HW2 1722   6.239   2.545   2.189
  275SOL     OW 1723   6.752   5.874   5.073
  275SOL    HW1 1724   6.816   5.883   4.997
  275SOL    HW2 1725   6.666   5.835   5.041
  276SOL     OW 1726   6.394   6.349   3.543
  276SOL    HW1 1727   6.427   6.296   3.621
  276SOL    HW2 1728   6.296   6.369   3.554
  277SOL     OW 1729   4.097   1.615   5.369
  277SOL    HW1 1730   4.122   1.530   5.415
  277SOL    HW2 1731   4.165   1.685   5.389
  278SOL     OW 1732   5.588   3.620   2.795
  278SOL    HW1 1733   5.603   3.667   2.708
  278SOL    HW2 1734   5.565   3.525   2.778
  279SOL     OW 1735   0.053   2.754   3.718
  279SOL    HW1 1736   0.003   2.716   3.640
  279SOL    HW2 1737   0.090   2.680   3.774
  280SOL     OW 1738   3.534   0.344   4.137
  280SOL    HW1 1739   3.515   0.316   4.232
  280SOL    HW2 1740   3.630   0.369   4.128
  281SOL     OW 1741   4.755   6.206   3.841
  281SOL    HW1 1742   4.717   6.167   3.925
  281SOL    HW2 1743   4.852   6.181   3.834
  282SOL     OW 1744   4.399   1.829   0.163
  282SOL    HW1 1745   4.314   1.878   0.182
  282SOL    HW2 1746   4.428   1.848   0.070
  283SOL     OW 1747   6.372   1.524   5.051
  283SOL    HW1 1748   6.404   1.430   5.041
  283SOL    HW2 1749   6.343   1.558   4.962
  284SOL     OW 1750   5.911   5.386   3.997
  284SOL    HW1 1751   5.854   5.331   4.058
  284SOL    HW2 1752   6.003   5.395   4.036
  285SOL     OW 1753   4.412   0.585   6.634
  285SOL    HW1 1754   4.434   0.544   6.545
  285SOL    HW2 1755   4.481   0.558   6.701
  286SOL     OW 1756   3.487   4.871   5.091
  286SOL    HW1 1757   3.405   4.928   5.083
  286SOL    HW2 1758   3.533   4.891   5.178
  287SOL     OW 1759   2.650   6.431   5.825
  287SOL    HW1 1760   2.588   6.414   5.902
  287SOL    HW2 1761   2.598   6.470   5.749
  288SOL     OW 1762   3.390   0.983   0.519
  288SOL    HW1 1763   3.334   0.921   0.574
  288SOL    HW2 1764   3.364   1.078   0.537
  289SOL     OW 1765   0.281   6.232   4.129
  289SOL    HW1 1766   0.366   6.215   4.178
  289SOL    HW2 1767   0.229   6.304   4.175
  290SOL     OW 1768   3.299   0.950   4.472
  290SOL    HW1 1769   3.341   0.976   4.559
  290SOL    HW2 1770   3.357   0.978   4.396
  291SOL     OW 1771   4.239   0.672   4.927
  291SOL    HW1 1772   4.255   0.640   4.833
  291SOL    HW2 1773   4.285   0.611   4.991
  292SOL     OW 1774   3.848   0.598   3.864
  292SOL    HW1 1775   3.851   0.632   3.770
  292SOL    HW2 1776   3.845   0.498   3.864
  293SOL     OW 1777   5.766   6.973   2.765
  293SOL    HW1 1778   5.695   6.925   2.817
  293SOL    HW2 1779   5.751   0.040   2.771
  294SOL     OW 1780   6.030   0.798   6.061
  294SOL    HW1 1781   6.089   0.872   6.093
  294SOL    HW2 1782   6.070   0.710   6.089
  295SOL     OW 1783   0.884   1.877   5.221
  295SOL    HW1 1784   0.817   1.948   5.198
  295SOL    HW2 1785   0.976   1.912   5.207
  296SOL     OW 1786   0.218   1.788   1.414
  296SOL    HW1 1787   0.258   1.866   1.462
  296SOL    HW2 1788   0.165   1.733   1.480
  297SOL     OW 1789   5.935   4.059   3.594
  297SOL    HW1 1790   5.873   4.039   3.518
  297SOL    HW2 1791   6.023   4.089   3.556
  298SOL     OW 1792   3.613   1.035   6.924
  298SOL    HW1 1793   3.612   1.015   7.021
  298SOL    HW2 1794   3.677   1.111   6.906
  299SOL     OW 1795   2.372   1.685   6.414
  299SOL    HW1 1796   2.303   1.618   6.440
  299SOL    HW2 1797   2.445   1.687   6.482
  300SOL     OW 1798   4.026   0.796   3.041
  300SOL    HW1 1799   4.029   0.848   2.956
  300SOL    HW2 1800   4.074   0.709   3.028
  301SOL     OW 1801   6.338   5.759   1.069
  301SOL    HW1 1802   6.272   5.759   1.144
  301SOL    HW2 1803   6.290   5.745   0.982
  302SOL     OW 1804   5.872   6.105   1.094
  302SOL    HW1 1805   5.853   6.007   1.080
  302SOL    HW2 1806   5.785   6.154   1.101
  303SOL     OW 1807   5.621   5.421   2.337
  303SOL    HW1 1808   5.673   5.476   2.272
  303SOL    HW2 1809   5.579   5.344   2.289
  304SOL     OW 1810   1.278   6.939   5.299
  304SOL    HW1 1811   1.334   6.877   5.354
  304SOL    HW2 1812   1.252   7.018   5.354
  305SOL     OW 1813   1.544   2.573   2.387
  305SOL    HW1 1814   1.612   2.614   2.447
  305SOL    HW2 1815   1.586   2.549   2.300
  306SOL     OW 1816   6.470   0.550   2.671
  306SOL    HW1 1817   6.445   0.453   2.666
  306SOL    HW2 1818   6.568   0.560   2.655
  307SOL     OW 1819   3.523   3.268   2.791
  307SOL    HW1 1820   3.535   3.183   2.841
  307SOL    HW2 1821   3.434   3.268   2.745
  308SOL     OW 1822   5.648   1.300   4.287
  308SOL    HW1 1823   5.587   1.336   4.358
  308SOL    HW2 1824   5.659   1.369   4.215
  309SOL     OW 1825   1.030   6.354   6.411
  309SOL    HW1 1826   1.018   6.450   6.386
  309SOL    HW2 1827   1.067   6.347   6.504
  310SOL     OW 1828   5.602   6.145   5.236
  310SOL    HW1 1829   5.588   6.160   5.138
  310SOL    HW2 1830   5.513   6.137   5.281
  311SOL     OW 1831   1.626   5.519   2.839
  311SOL    HW1 1832   1.710   5.497   2.789
  311SOL    HW2 1833   1.548   5.508   2.779
  312SOL     OW 1834   4.825   2.040   2.876
  312SOL    HW1 1835   4.746   2.069   2.929
  312SOL    HW2 1836   4.819   1.942   2.857
  313SOL     OW 1837   3.727   3.214   3.667
  313SOL    HW1 1838   3.652   3.228   3.602
  313SOL    HW2 1839   3.813   3.246   3.626
  314SOL     OW 1840   2.438   6.637   5.665
  314SOL    HW1 1841   2.487   6.710   5.712
  314SOL    HW2 1842   2.342   6.637   5.692
  315SOL     OW 1843   6.667   1.364   3.622
  315SOL    HW1 1844   6.698   1.341   3.714
  315SOL    HW2 1845   6.586   1.310   3.600
  316SOL     OW 1846   3.682   1.524   4.969
  316SOL    HW1 1847   3.719   1.442   5.014
  316SOL    HW2 1848   3.585   1.532   4.989
  317SOL     OW 1849   1.073   1.068   1.288
  317SOL    HW1 1850   1.100   1.127   1.212
  317SOL    HW2 1851   1.072   1.120   1.373
  318SOL     OW 1852   0.140   0.495   5.346
  318SOL    HW1 1853   0.229   0.520   5.383
  318SOL    HW2 1854   0.087   0.579   5.329
  319SOL     OW 1855   1.544   2.098   2.171
  319SOL    HW1 1856   1.578   2.008   2.198
  319SOL    HW2 1857   1.483   2.133   2.243
  320SOL     OW 1858   6.174   2.808   6.975
  320SOL    HW1 1859   6.138   2.901   6.983
  320SOL    HW2 1860   6.139   2.765   6.892
  321SOL     OW 1861   4.259   3.063   1.162
  321SOL    HW1 1862   4.223   3.045   1.070
  321SOL    HW2 1863   4.327   3.137   1.157
  322SOL     OW 1864   4.172   3.603   6.326
  322SOL    HW1 1865   4.181   3.505   6.342
  322SOL    HW2 1866   4.077   3.630   6.339
  323SOL     OW 1867   0.309   3.334   3.506
  323SOL    HW1 1868   0.332   3.266   3.576
  323SOL    HW2 1869   0.214   3.361   3.516
  324SOL     OW 1870   0.869   6.750   3.340
  324SOL    HW1 1871   0.804   6.823   3.360
  324SOL    HW2 1872   0.914   6.721   3.424
  325SOL     OW 1873   0.607   3.735   2.698
  325SOL    HW1 1874   0.511   3.714   2.719
  325SOL    HW2 1875   0.645   3.792   2.770
  326SOL     OW 1876   1.772   6.406   6.496
  326SOL    HW1 1877   1.772   6.310   6.525
  326SOL    HW2 1878   1.802   6.412   6.401
  327SOL     OW 1879   4.334   5.326   3.781
  327SOL    HW1 1880   4.345   5.393   3.855
  327SOL    HW2 1881   4.331   5.374   3.693
  328SOL     OW 1882   2.459   4.535   2.252
  328SOL    HW1 1883   2.541   4.487   2.282
  328SOL    HW2 1884   2.483   4.610   2.191
  329SOL     OW 1885   3.221   3.951   1.734
  329SOL    HW1 1886   3.281   3.875   1.709
  329SOL    HW2 1887   3.245   3.983   1.826
  330SOL     OW 1888   3.735   5.063   0.443
  330SOL    HW1 1889   3.792   5.134   0.400
  330SOL    HW2 1890   3.755   4.974   0.403
  331SOL     OW 1891   5.064   5.993   6.971
  331SOL    HW1 1892   5.034   6.057   0.010
  331SOL    HW2 1893   4.997   5.919   6.962
  332SOL     OW 1894   5.374   2.103   2.999
  332SOL    HW1 1895   5.322   2.179   2.960
  332SOL    HW2 1896   5.312   2.026   3.016
  333SOL     OW 1897   3.717   0.862   6.021
  333SOL    HW1 1898   3.754   0.949   6.055
  333SOL    HW2 1899   3.639   0.835   6.079
  334SOL     OW 1900   3.628   4.151   4.024
  334SOL    HW1 1901   3.541   4.178   4.066
  334SOL    HW2 1902   3.696   4.134   4.095
  335SOL     OW 1903   3.555   0.244   6.516
  335SOL    HW1 1904   3.639   0.274   6.472
  335SOL    HW2 1905   3.527   0.155   6.478
  336SOL     OW 1906   3.032   1.860   3.167
  336SOL    HW1 1907   2.955   1.815   3.122
  336SOL    HW2 1908   3.035   1.957   3.140
  337SOL     OW 1909   1.994   1.754   6.158
  337SOL    HW1 1910   2.058   1.677   6.150
  337SOL    HW2 1911   1.948   1.768   6.070
  338SOL     OW 1912   4.609   2.223   1.842
  338SOL    HW1 1913   4.591   2.138   1.892
  338SOL    HW2 1914   4.570   2.300   1.891
  339SOL     OW 1915   3.985   4.981   4.948
  339SOL    HW1 1916   3.966   4.952   4.854
  339SOL    HW2 1917   4.074   5.027   4.951
  340SOL     OW 1918   4.657   2.192   4.074
  340SOL    HW1 1919   4.623   2.219   4.164
  340SOL    HW2 1920   4.754   2.217   4.066
  341SOL     OW 1921   5.988   6.462   3.371
  341SOL    HW1 1922   6.005   6.556   3.341
  341SOL    HW2 1923   5.889   6.446   3.376
  342SOL     OW 1924   4.695   2.227   1.560
  342SOL    HW1 1925   4.688   2.230   1.660
  342SOL    HW2 1926   4.721   2.135   1.532
  343SOL     OW 1927   1.011   5.197   3.337
  343SOL    HW1 1928   1.092   5.138   3.341
  343SOL    HW2 1929   0.938   5.149   3.288
  344SOL     OW 1930   1.829   1.094   1.203
  344SOL    HW1 1931   1.765   1.109   1.128
  344SOL    HW2 1932   1.810   1.007   1.247
  345SOL     OW 1933   6.249   2.923   4.337
  345SOL    HW1 1934   6.167   2.943   4.392
  345SOL    HW2 1935   6.251   2.825   4.315
  346SOL     OW 1936   1.476   0.208   2.786
  346SOL    HW1 1937   1.543   0.219   2.713
  346SOL    HW2 1938   1.384   0.225   2.749
  347SOL     OW 1939   2.610   5.263   0.469
  347SOL    HW1 1940   2.651   5.354   0.463
  347SOL    HW2 1941   2.668   5.204   0.525
  348SOL     OW 1942   5.168   5.426   2.092
  348SOL    HW1 1943   5.240   5.474   2.141
  348SOL    HW2 1944   5.184   5.435   1.993
  349SOL     OW 1945   0.257   3.988   1.062
  349SOL    HW1 1946   0.207   3.922   1.006
  349SOL    HW2 1947   0.207   4.004   1.148
  350SOL     OW 1948   3.422   2.843   0.295
  350SOL    HW1 1949   3.349   2.789   0.253
  350SOL    HW2 1950   3.450   2.915   0.232
  351SOL     OW 1951   3.480   4.442   0.845
  351SOL    HW1 1952   3.486   4.540   0.825
  351SOL    HW2 1953   3.436   4.395   0.768
  352SOL     OW 1954   4.168   6.411   3.393
  352SOL    HW1 1955   4.077   6.399   3.352
  352SOL    HW2 1956   4.238   6.395   3.323
  353SOL     OW 1957   2.734   6.789   6.391
  353SOL    HW1 1958   2.684   6.770   6.475
  353SOL    HW2 1959   2.683   6.855   6.336
  354SOL     OW 1960   6.205   2.561   0.677
  354SOL    HW1 1961   6.120   2.535   0.632
  354SOL    HW2 1962   6.193   2.648   0.726
  355SOL     OW 1963   1.944   2.406   2.305
  355SOL    HW1 1964   1.865   2.354   2.271
  355SOL    HW2 1965   1.927   2.504   2.292
  356SOL     OW 1966   1.356   0.303   5.953
  356SOL    HW1 1967   1.446   0.262   5.937
  356SOL    HW2 1968   1.293   0.272   5.882
  357SOL     OW 1969   5.910   0.007   4.991
  357SOL    HW1 1970   5.985   0.073   4.999
  357SOL    HW2 1971   5.835   0.048   4.939
  358SOL     OW 1972   4.958   5.786   0.685
  358SOL    HW1 1973   5.025   5.727   0.731
  358SOL    HW2 1974   4.869   5.775   0.729
  359SOL     OW 1975   3.375   1.974   1.854
  359SOL    HW1 1976   3.474   1.960   1.855
  359SOL    HW2 1977   3.355   2.072   1.856
  360SOL     OW 1978   1.348   5.015   4.075
  360SOL    HW1 1979   1.383   5.043   4.164
  360SOL    HW2 1980   1.423   4.983   4.018
  361SOL     OW 1981   6.558   5.869   3.339
  361SOL    HW1 1982   6.576   5.947   3.399
  361SOL    HW2 1983   6.522   5.793   3.394
  362SOL     OW 1984   3.701   4.354   0.963
  362SOL    HW1 1985   3.775   4.335   0.899
  362SOL    HW2 1986   3.620   4.384   0.912
  363SOL     OW 1987   6.424   5.152   2.362
  363SOL    HW1 1988   6.438   5.202   2.277
  363SOL    HW2 1989   6.331   5.167   2.394
  364SOL     OW 1990   0.722   5.352   6.958
  364SOL    HW1 1991   0.747   5.315   0.016
  364SOL    HW2 1992   0.799   5.341   6.894
  365SOL     OW 1993   3.755   1.420   2.188
  365SOL    HW1 1994   3.691   1.494   2.168
  365SOL    HW2 1995   3.799   1.391   2.104
  366SOL     OW 1996   5.915   2.958   0.353
  366SOL    HW1 1997   5.929   2.965   0.452
  366SOL    HW2 1998   5.975   2.887   0.315
  367SOL     OW 1999   4.258   1.812   5.650
  367SOL    HW1 2000   4.316   1.737   5.617
  367SOL    HW2 2001   4.163   1.780   5.657
  368SOL     OW 2002   6.561   2.078   6.421
  368SOL    HW1 2003   6.593   2.061   6.328
  368SOL    HW2 2004   6.471   2.122   6.417
  369SOL     OW 2005   5.498   3.741   3.033
  369SOL    HW1 2006   5.518   3.730   2.935
  369SOL    HW2 2007   5.451   3.659   3.066
  370SOL     OW 2008   1.978   2.279   4.161
  370SOL    HW1 2009   1.928   2.205   4.116
  370SOL    HW2 2010   2.044   2.240   4.226
  371SOL     OW 2011   2.116   3.990   6.698
  371SOL    HW1 2012   2.028   3.953   6.670
  371SOL    HW2 2013   2.173   3.917   6.737
  372SOL     OW 2014   2.620   6.789   5.795
  372SOL    HW1 2015   2.628   6.888   5.805
  372SOL    HW2 2016   2.707   6.753   5.761
  373SOL     OW 2017   6.069   6.601   4.674
  373SOL    HW1 2018   6.050   6.655   4.592
  373SOL    HW2 2019   6.143   6.537   4.655
  374SOL     OW 2020   2.658   1.582   2.642
  374SOL    HW1 2021   2.736   1.641   2.666
  374SOL    HW2 2022   2.685   1.519   2.569
  375SOL     OW 2023   0.666   4.936   4.964
  375SOL    HW1 2024   0.643   5.016   5.020
  375SOL    HW2 2025   0.754   4.952   4.919
  376SOL     OW 2026   2.852   1.087   4.386
  376SOL    HW1 2027   2.941   1.054   4.354
  376SOL    HW2 2028   2.780   1.051   4.327
  377SOL     OW 2029   1.567   2.131   6.819
  377SOL    HW1 2030   1.518   2.100   6.738
  377SOL    HW2 2031   1.518   2.206   6.862
  378SOL     OW 2032   2.965   1.437   0.734
  378SOL    HW1 2033   3.056   1.478   0.741
  378SOL    HW2 2034   2.903   1.502   0.689
  379SOL     OW 2035   5.802   2.472   6.265
  379SOL    HW1 2036   5.766   2.542   6.326
  379SOL    HW2 2037   5.886   2.505   6.222
  380SOL     OW 2038   3.342   1.564   1.498
  380SOL    HW1 2039   3.272   1.634   1.489
  380SOL    HW2 2040   3.370   1.532   1.408
  381SOL     OW 2041   1.587   4.485   3.483
  381SOL    HW1 2042   1.512   4.525   3.431
  381SOL    HW2 2043   1.661   4.459   3.420
  382SOL     OW 2044   6.230   0.860   0.277
  382SOL    HW1 2045   6.235   0.775   0.330
  382SOL    HW2 2046   6.295   0.926   0.315
  383SOL     OW 2047   3.795   2.976   0.830
  383SOL    HW1 2048   3.803   2.902   0.763
  383SOL    HW2 2049   3.756   2.939   0.915
  384SOL     OW 2050   6.576   3.776   4.442
  384SOL    HW1 2051   6.671   3.755   4.421
  384SOL    HW2 2052   6.547   3.725   4.523
  385SOL     OW 2053   4.318   4.986   6.424
  385SOL    HW1 2054   4.241   4.997   6.361
  385SOL    HW2 2055   4.304   4.905   6.481
  386SOL     OW 2056   4.411   0.231   4.921
  386SOL    HW1 2057   4.489   0.291   4.904
  386SOL    HW2 2058   4.331   0.267   4.873
  387SOL     OW 2059   2.568   5.180   3.304
  387SOL    HW1 2060   2.487   5.128   3.330
  387SOL    HW2 2061   2.627   5.123   3.246
  388SOL     OW 2062   1.914   2.398   6.280
  388SOL    HW1 2063   1.962   2.318   6.246
  388SOL    HW2 2064   1.902   2.464   6.206
  389SOL     OW 2065   3.392   4.026   3.160
  389SOL    HW1 2066   3.320   4.085   3.125
  389SOL    HW2 2067   3.353   3.958   3.222
  390SOL     OW 2068   2.597   1.423   3.895
  390SOL    HW1 2069   2.629   1.370   3.816
  390SOL    HW2 2070   2.670   1.483   3.927
  391SOL     OW 2071   1.504   2.690   0.365
  391SOL    HW1 2072   1.467   2.676   0.456
  391SOL    HW2 2073   1.565   2.613   0.342
  392SOL     OW 2074   2.107   5.016   1.560
  392SOL    HW1 2075   2.087   4.918   1.561
  392SOL    HW2 2076   2.178   5.036   1.626
  393SOL     OW 2077   5.932   4.605   5.414
  393SOL    HW1 2078   5.922   4.566   5.322
  393SOL    HW2 2079   5.891   4.543   5.481
  394SOL     OW 2080   0.184   6.710   6.908
  394SOL    HW1 2081   0.105   6.727   6.851
  394SOL    HW2 2082   0.168   6.630   6.966
  395SOL     OW 2083   4.920   3.411   2.285
  395SOL    HW1 2084   4.908   3.361   2.199
  395SOL    HW2 2085   4.901   3.508   2.269
  396SOL     OW 2086   3.690   3.700   3.148
  396SOL    HW1 2087   3.684   3.798   3.134
  396SOL    HW2 2088   3.746   3.659   3.076
  397SOL     OW 2089   4.562   2.294   5.442
  397SOL    HW1 2090   4.573   2.391   5.464
  397SOL    HW2 2091   4.591   2.238   5.519
  398SOL     OW 2092   0.897   5.922   2.267
  398SOL    HW1 2093   0.811   5.958   2.301
  398SOL    HW2 2094   0.932   5.982   2.195
  399SOL     OW 2095   4.593   5.668   1.674
  399SOL    HW1 2096   4.611   5.729   1.597
  399SOL    HW2 2097   4.679   5.643   1.719
  400SOL     OW 2098   0.115   6.985   5.354
  400SOL    HW1 2099   0.018   7.004   5.333
  400SOL    HW2 2100   0.173   0.014   5.299
  401SOL     OW 2101   4.739   1.214   6.331
  401SOL    HW1 2102   4.690   1.173   6.408
  401SOL    HW2 2103   4.711   1.309   6.320
  402SOL     OW 2104   6.298   6.380   2.443
  402SOL    HW1 2105   6.323   6.299   2.497
  402SOL    HW2 2106   6.229   6.354   2.376
  403SOL     OW 2107   4.676   2.512   5.943
  403SOL    HW1 2108   4.761   2.460   5.931
  403SOL    HW2 2109   4.650   2.511   6.040
  404SOL     OW 2110   1.325   6.661   3.557
  404SOL    HW1 2111   1.385   6.687   3.482
  404SOL    HW2 2112   1.359   6.701   3.642
  405SOL     OW 2113   1.589   2.489   1.107
  405SOL    HW1 2114   1.597   2.458   1.013
  405SOL    HW2 2115   1.493   2.508   1.128
  406SOL     OW 2116   0.934   2.895   4.029
  406SOL    HW1 2117   0.934   2.895   4.129
  406SOL    HW2 2118   0.934   2.801   3.996
  407SOL     OW 2119   2.650   6.894   4.967
  407SOL    HW1 2120   2.653   6.844   5.053
  407SOL    HW2 2121   2.740   6.932   4.947
  408SOL     OW 2122   1.558   0.194   3.303
  408SOL    HW1 2123   1.653   0.224   3.305
  408SOL    HW2 2124   1.524   0.196   3.209
  409SOL     OW 2125   5.943   3.253   2.776
  409SOL    HW1 2126   5.942   3.157   2.804
  409SOL    HW2 2127   6.035   3.290   2.785
  410SOL     OW 2128   2.416   0.334   0.551
  410SOL    HW1 2129   2.414   0.235   0.559
  410SOL    HW2 2130   2.415   0.361   0.455
  411SOL     OW 2131   5.696   5.596   6.839
  411SOL    HW1 2132   5.725   5.692   6.837
  411SOL    HW2 2133   5.756   5.544   6.900
  412SOL     OW 2134   3.793   6.521   3.005
  412SOL    HW1 2135   3.700   6.497   2.978
  412SOL    HW2 2136   3.827   6.594   2.945
  413SOL     OW 2137   3.670   5.331   0.693
  413SOL    HW1 2138   3.603   5.283   0.636
  413SOL    HW2 2139   3.677   5.286   0.782
  414SOL     OW 2140   4.579   5.119   2.245
  414SOL    HW1 2141   4.578   5.218   2.257
  414SOL    HW2 2142   4.512   5.077   2.306
  415SOL     OW 2143   1.170   5.810   0.405
  415SOL    HW1 2144   1.181   5.815   0.306
  415SOL    HW2 2145   1.185   5.901   0.445
  416SOL     OW 2146   4.305   5.629   4.893
  416SOL    HW1 2147   4.320   5.532   4.910
  416SOL    HW2 2148   4.230   5.640   4.828
  417SOL     OW 2149   3.239   6.589   1.433
  417SOL    HW1 2150   3.235   6.633   1.523
  417SOL    HW2 2151   3.146   6.568   1.403
  418SOL     OW 2152   4.796   6.146   0.381
  418SOL    HW1 2153   4.759   6.167   0.472
  418SOL    HW2 2154   4.866   6.075   0.389
  419SOL     OW 2155   0.823   0.648   1.223
  419SOL    HW1 2156   0.732   0.685   1.205
  419SOL    HW2 2157   0.878   0.716   1.270
  420SOL     OW 2158   6.151   3.785   1.348
  420SOL    HW1 2159   6.237   3.739   1.325
  420SOL    HW2 2160   6.141   3.867   1.293
  421SOL     OW 2161   1.200   4.912   6.367
  421SOL    HW1 2162   1.207   4.908   6.467
  421SOL    HW2 2163   1.113   4.953   6.341
  422SOL     OW 2164   5.997   5.075   0.817
  422SOL    HW1 2165   6.059   5.007   0.780
  422SOL    HW2 2166   5.981   5.057   0.914
  423SOL     OW 2167   6.304   3.294   0.552
  423SOL    HW1 2168   6.333   3.293   0.457
  423SOL    HW2 2169   6.282   3.388   0.579
  424SOL     OW 2170   3.237   3.466   0.247
  424SOL    HW1 2171   3.169   3.434   0.181
  424SOL    HW2 2172   3.307   3.396   0.259
  425SOL     OW 2173   5.278   1.538   1.707
  425SOL    HW1 2174   5.369   1.502   1.689
  425SOL    HW2 2175   5.285   1.635   1.731
  426SOL     OW 2176   5.528   2.365   5.237
  426SOL    HW1 2177   5.535   2.311   5.154
  426SOL    HW2 2178   5.461   2.323   5.299
  427SOL     OW 2179   5.220   4.663   2.002
  427SOL    HW1 2180   5.244   4.622   2.090
  427SOL    HW2 2181   5.123   4.686   2.001
  428SOL     OW 2182   4.274   0.123   5.462
  428SOL    HW1 2183   4.260   0.134   5.364
  428SOL    HW2 2184   4.206   0.177   5.512
  429SOL     OW 2185   2.478   5.119   0.864
  429SOL    HW1 2186   2.397   5.140   0.919
  429SOL    HW2 2187   2.559   5.127   0.921
  430SOL     OW 2188   1.843   6.564   4.495
  430SOL    HW1 2189   1.898   6.484   4.522
  430SOL    HW2 2190   1.773   6.534   4.430
  431SOL     OW 2191   3.393   1.271   6.916
  431SOL    HW1 2192   3.335   1.212   6.971
  431SOL    HW2 2193   3.413   1.355   6.966
  432SOL     OW 2194   6.971   2.484   0.431
  432SOL    HW1 2195   6.934   2.406   0.481
  432SOL    HW2 2196   6.962   2.469   0.333
  433SOL     OW 2197   2.453   0.011   4.465
  433SOL    HW1 2198   2.403   7.009   4.546
  433SOL    HW2 2199   2.517   6.972   4.435
  434SOL     OW 2200   5.357   5.089   1.338
  434SOL    HW1 2201   5.320   4.996   1.342
  434SOL    HW2 2202   5.457   5.085   1.333
  435SOL     OW 2203   3.732   2.830   5.402
  435SOL    HW1 2204   3.729   2.890   5.482
  435SOL    HW2 2205   3.806   2.860   5.341
  436SOL     OW 2206   1.832   7.008   0.688
  436SOL    HW1 2207   1.823   6.918   0.730
  436SOL    HW2 2208   1.924   0.013   0.703
  437SOL     OW 2209   0.457   0.363   6.489
  437SOL    HW1 2210   0.475   0.265   6.501
  437SOL    HW2 2211   0.384   0.376   6.423
  438SOL     OW 2212   2.044   2.756   1.910
  438SOL    HW1 2213   2.135   2.724   1.937
  438SOL    HW2 2214   2.016   2.831   1.969
  439SOL     OW 2215   6.138   4.395   3.627
  439SOL    HW1 2216   6.180   4.486   3.625
  439SOL    HW2 2217   6.039   4.405   3.617
  440SOL     OW 2218   1.286   1.975   4.545
  440SOL    HW1 2219   1.247   1.956   4.635
  440SOL    HW2 2220   1.371   2.028   4.556
  441SOL     OW 2221   0.589   1.800   2.939
  441SOL    HW1 2222   0.521   1.767   2.875
  441SOL    HW2 2223   0.641   1.723   2.976
  442SOL     OW 2224   1.368   4.220   0.206
  442SOL    HW1 2225   1.371   4.270   0.293
  442SOL    HW2 2226   1.431   4.262   0.141
  443SOL     OW 2227   1.274   4.413   4.728
  443SOL    HW1 2228   1.283   4.372   4.818
  443SOL    HW2 2229   1.362   4.452   4.700
  444SOL     OW 2230   4.867   2.772   5.837
  444SOL    HW1 2231   4.872   2.869   5.857
  444SOL    HW2 2232   4.777   2.737   5.864
  445SOL     OW 2233   1.668   5.468   3.099
  445SOL    HW1 2234   1.744   5.518   3.140
  445SOL    HW2 2235   1.653   5.500   3.006
  446SOL     OW 2236   4.283   4.985   3.298
  446SOL    HW1 2237   4.324   5.067   3.259
  446SOL    HW2 2238   4.281   4.912   3.229
  447SOL     OW 2239   0.328   4.249   6.777
  447SOL    HW1 2240   0.236   4.221   6.805
  447SOL    HW2 2241   0.340   4.347   6.791
  448SOL     OW 2242   3.485   0.293   5.004
  448SOL    HW1 2243   3.418   0.220   5.018
  448SOL    HW2 2244   3.473   0.332   4.913
  449SOL     OW 2245   4.857   1.036   5.371
  449SOL    HW1 2246   4.794   0.982   5.427
  449SOL    HW2 2247   4.943   1.050   5.422
  450SOL     OW 2248   0.708   5.772   3.135
  450SOL    HW1 2249   0.695   5.830   3.216
  450SOL    HW2 2250   0.747   5.826   3.061
  451SOL     OW 2251   0.918   2.237   2.233
  451SOL    HW1 2252   0.969   2.159   2.196
  451SOL    HW2 2253   0.822   2.212   2.245
  452SOL     OW 2254   6.581   6.057   0.169
  452SOL    HW1 2255   6.560   6.128   0.236
  452SOL    HW2 2256   6.507   5.990   0.169
  453SOL     OW 2257   3.020   0.128   6.236
  453SOL    HW1 2258   3.073   0.090   6.312
  453SOL    HW2 2259   3.071   0.203   6.194
  454SOL     OW 2260   6.904   5.854   5.703
  454SOL    HW1 2261   6.897   5.821   5.609
  454SOL    HW2 2262   6.993   5.899   5.715
  455SOL     OW 2263   6.729   0.418   4.125
  455SOL    HW1 2264   6.792   0.341   4.137
  455SOL    HW2 2265   6.780   0.504   4.134
  456SOL     OW 2266   4.558   5.963   5.020
  456SOL    HW1 2267   4.463   5.933   5.035
  456SOL    HW2 2268   4.612   5.943   5.101
  457SOL     OW 2269   2.039   3.596   3.567
  457SOL    HW1 2270   2.071   3.532   3.497
  457SOL    HW2 2271   2.013   3.682   3.524
  458SOL     OW 2272   5.044   5.529   5.201
  458SOL    HW1 2273   5.087   5.439   5.198
  458SOL    HW2 2274   4.945   5.520   5.192
  459SOL     OW 2275   1.646   0.100   3.901
  459SOL    HW1 2276   1.677   0.024   3.959
  459SOL    HW2 2277   1.725   0.150   3.865
  460SOL     OW 2278   0.399   1.162   2.406
  460SOL    HW1 2279   0.356   1.186   2.493
  460SOL    HW2 2280   0.331   1.121   2.345
  461SOL     OW 2281   5.372   7.011   4.511
  461SOL    HW1 2282   5.422   6.924   4.514
  461SOL    HW2 2283   5.412   0.043   4.577
  462SOL     OW 2284   4.142   2.192   5.749
  462SOL    HW1 2285   4.197   2.274   5.731
  462SOL    HW2 2286   4.109   2.155   5.662
  463SOL     OW 2287   5.897   6.104   2.950
  463SOL    HW1 2288   5.823   6.164   2.922
  463SOL    HW2 2289   5.971   6.108   2.883
  464SOL     OW 2290   3.024   1.966   6.534
  464SOL    HW1 2291   3.000   2.062   6.524
  464SOL    HW2 2292   3.057   1.931   6.447
  465SOL     OW 2293   1.529   1.976   4.323
  465SOL    HW1 2294   1.578   2.045   4.376
  465SOL    HW2 2295   1.595   1.926   4.266
  466SOL     OW 2296   7.023   5.966   3.310
  466SOL    HW1 2297   0.058   5.912   3.258
  466SOL    HW2 2298   6.955   5.905   3.350
  467SOL     OW 2299   0.902   0.488   6.212
  467SOL    HW1 2300   0.812   0.508   6.250
  467SOL    HW2 2301   0.953   0.428   6.275
  468SOL     OW 2302   3.395   5.833   0.553
  468SOL    HW1 2303   3.365   5.920   0.514
  468SOL    HW2 2304   3.389   5.762   0.483
  469SOL     OW 2305   3.013   4.690   0.450
  469SOL    HW1 2306   2.961   4.723   0.371
  469SOL    HW2 2307   3.028   4.767   0.513
  470SOL     OW 2308   3.152   0.881   2.592
  470SOL    HW1 2309   3.205   0.868   2.676
  470SOL    HW2 2310   3.183   0.816   2.522
  471SOL     OW 2311   1.679   2.133   4.480
  471SOL    HW1 2312   1.610   2.147   4.551
  471SOL    HW2 2313   1.707   2.221   4.443
  472SOL     OW 2314   4.737   3.648   6.681
  472SOL    HW1 2315   4.738   3.672   6.778
  472SOL    HW2 2316   4.646   3.664   6.643
  473SOL     OW 2317   0.160   2.611   1.630
  473SOL    HW1 2318   0.158   2.708   1.604
  473SOL    HW2 2319   0.207   2.559   1.559
  474SOL     OW 2320   4.497   5.077   3.825
  474SOL    HW1 2321   4.587   5.119   3.817
  474SOL    HW2 2322   4.433   5.144   3.862
  475SOL     OW 2323   6.181   0.818   0.014
  475SOL    HW1 2324   6.192   0.840   0.111
  475SOL    HW2 2325   6.256   0.760   7.015
  476SOL     OW 2326   0.292   3.743   2.460
  476SOL    HW1 2327   0.385   3.765   2.491
  476SOL    HW2 2328   0.242   3.696   2.533
  477SOL     OW 2329   2.188   4.740   5.166
  477SOL    HW1 2330   2.288   4.740   5.165
  477SOL    HW2 2331   2.155   4.831   5.191
  478SOL     OW 2332   3.142   6.328   2.152
  478SOL    HW1 2333   3.137   6.342   2.251
  478SOL    HW2 2334   3.049   6.324   2.115
  479SOL     OW 2335   4.460   2.481   6.879
  479SOL    HW1 2336   4.462   2.542   6.958
  479SOL    HW2 2337   4.396   2.406   6.897
  480SOL     OW 2338   2.184   0.494   0.012
  480SOL    HW1 2339   2.105   0.505   0.073
  480SOL    HW2 2340   2.156   0.445   6.961
  481SOL     OW 2341   1.724   6.758   0.836
  481SOL    HW1 2342   1.660   6.820   0.882
  481SOL    HW2 2343   1.694   6.664   0.850
  482SOL     OW 2344   4.439   4.552   2.558
  482SOL    HW1 2345   4.411   4.571   2.464
  482SOL    HW2 2346   4.375   4.595   2.622
  483SOL     OW 2347   6.055   2.173   1.203
  483SOL    HW1 2348   6.104   2.258   1.221
  483SOL    HW2 2349   6.030   2.129   1.289
  484SOL     OW 2350   1.085   2.910   4.904
  484SOL    HW1 2351   1.162   2.926   4.966
  484SOL    HW2 2352   1.112   2.933   4.810
  485SOL     OW 2353   4.212   5.774   1.999
  485SOL    HW1 2354   4.277   5.790   2.075
  485SOL    HW2 2355   4.261   5.735   1.921
  486SOL     OW 2356   0.240   2.000   0.961
  486SOL    HW1 2357   0.250   1.923   1.024
  486SOL    HW2 2358   0.239   1.966   0.867
  487SOL     OW 2359   0.703   1.990   6.974
  487SOL    HW1 2360   0.795   1.992   6.936
  487SOL    HW2 2361   0.652   1.913   6.936
  488SOL     OW 2362   0.434   1.215   1.582
  488SOL    HW1 2363   0.336   1.224   1.562
  488SOL    HW2 2364   0.469   1.130   1.542
  489SOL     OW 2365   3.791   6.081   6.810
  489SOL    HW1 2366   3.885   6.109   6.832
  489SOL    HW2 2367   3.790   6.032   6.723
  490SOL     OW 2368   6.480   6.236   3.791
  490SOL    HW1 2369   6.546   6.201   3.725
  490SOL    HW2 2370   6.437   6.160   3.840
  491SOL     OW 2371   0.049   2.615   2.889
  491SOL    HW1 2372   6.996   2.586   2.843
  491SOL    HW2 2373   0.103   2.535   2.914
  492SOL     OW 2374   2.907   0.127   5.165
  492SOL    HW1 2375   2.958   0.045   5.190
  492SOL    HW2 2376   2.900   0.188   5.244
  493SOL     OW 2377   5.604   6.079   6.056
  493SOL    HW1 2378   5.527   6.050   6.114
  493SOL    HW2 2379   5.642   6.164   6.091
  494SOL     OW 2380   0.363   6.943   6.941
  494SOL    HW1 2381   0.313   6.857   6.935
  494SOL    HW2 2382   0.306   7.017   6.906
  495SOL     OW 2383   5.405   5.969   3.229
  495SOL    HW1 2384   5.313   5.943   3.258
  495SOL    HW2 2385   5.458   5.887   3.208
  496SOL     OW 2386   5.179   3.596   2.886
  496SOL    HW1 2387   5.179   3.501   2.856
  496SOL    HW2 2388   5.126   3.651   2.821
  497SOL     OW 2389   3.194   1.588   5.846
  497SOL    HW1 2390   3.264   1.651   5.879
  497SOL    HW2 2391   3.226   1.543   5.763
  498SOL     OW 2392   1.810   4.023   1.800
  498SOL    HW1 2393   1.798   3.926   1.823
  498SOL    HW2 2394   1.855   4.070   1.876
  499SOL     OW 2395   3.073   0.424   4.208
  499SOL    HW1 2396   3.031   0.471   4.287
  499SOL    HW2 2397   3.128   0.490   4.157
  500SOL     OW 2398   1.019   3.966   2.815
  500SOL    HW1 2399   1.027   4.027   2.736
  500SOL    HW2 2400   1.109   3.955   2.859
  501SOL     OW 2401   3.366   0.414   0.430
  501SOL    HW1 2402   3.313   0.496   0.408
  501SOL    HW2 2403   3.393   0.368   0.346
  502SOL     OW 2404   6.342   4.488   6.461
  502SOL    HW1 2405   6.274   4.424   6.496
  502SOL    HW2 2406   6.429   4.441   6.449
  503SOL     OW 2407   5.738   5.637   6.192
  503SOL    HW1 2408   5.784   5.724   6.205
  503SOL    HW2 2409   5.655   5.634   6.248
  504SOL     OW 2410   2.782   6.110   3.354
  504SOL    HW1 2411   2.714   6.134   3.422
  504SOL    HW2 2412   2.822   6.021   3.377
  505SOL     OW 2413   3.838   0.445   5.981
  505SOL    HW1 2414   3.798   0.501   6.054
  505SOL    HW2 2415   3.766   0.416   5.918
  506SOL     OW 2416   1.888   5.394   4.587
  506SOL    HW1 2417   1.928   5.474   4.632
  506SOL    HW2 2418   1.788   5.396   4.598
  507SOL     OW 2419   3.993   0.560   4.249
  507SOL    HW1 2420   4.025   0.497   4.319
  507SOL    HW2 2421   4.072   0.601   4.202
  508SOL     OW 2422   6.642   4.127   3.215
  508SOL    HW1 2423   6.551   4.145   3.252
  508SOL    HW2 2424   6.662   4.195   3.144
  509SOL     OW 2425   3.154   1.283   1.453
  509SOL    HW1 2426   3.153   1.380   1.478
  509SOL    HW2 2427   3.129   1.229   1.533
  510SOL     OW 2428   6.582   5.113   6.029
  510SOL    HW1 2429   6.635   5.113   5.945
  510SOL    HW2 2430   6.527   5.030   6.035
  511SOL     OW 2431   0.414   6.603   6.831
  511SOL    HW1 2432   0.345   6.669   6.858
  511SOL    HW2 2433   0.386   6.512   6.862
  512SOL     OW 2434   6.977   3.383   0.136
  512SOL    HW1 2435   0.040   3.395   0.166
  512SOL    HW2 2436   6.968   3.296   0.087
  513SOL     OW 2437   5.746   6.466   2.932
  513SOL    HW1 2438   5.648   6.461   2.950
  513SOL    HW2 2439   5.762   6.518   2.848
  514SOL     OW 2440   6.689   2.563   3.974
  514SOL    HW1 2441   6.676   2.499   3.898
  514SOL    HW2 2442   6.600   2.586   4.013
  515SOL     OW 2443   2.153   0.257   6.358
  515SOL    HW1 2444   2.168   0.328   6.290
  515SOL    HW2 2445   2.168   0.167   6.317
  516SOL     OW 2446   2.811   4.723   1.658
  516SOL    HW1 2447   2.811   4.660   1.736
  516SOL    HW2 2448   2.865   4.804   1.680
  517SOL     OW 2449   5.039   6.127   2.189
  517SOL    HW1 2450   5.037   6.038   2.235
  517SOL    HW2 2451   4.972   6.188   2.232
  518SOL     OW 2452   3.126   2.128   1.982
  518SOL    HW1 2453   3.066   2.175   2.047
  518SOL    HW2 2454   3.102   2.155   1.889
  519SOL     OW 2455   6.970   0.899   4.509
  519SOL    HW1 2456   6.951   0.962   4.435
  519SOL    HW2 2457   6.910   0.819   4.502
  520SOL     OW 2458   5.938   4.769   6.681
  520SOL    HW1 2459   6.012   4.736   6.623
  520SOL    HW2 2460   5.850   4.751   6.638
  521SOL     OW 2461   6.092   2.687   6.731
  521SOL    HW1 2462   6.076   2.591   6.709
  521SOL    HW2 2463   6.080   2.742   6.648
  522SOL     OW 2464   3.938   2.894   5.238
  522SOL    HW1 2465   3.930   2.795   5.253
  522SOL    HW2 2466   4.004   2.932   5.303
  523SOL     OW 2467   0.353   4.853   3.311
  523SOL    HW1 2468   0.303   4.788   3.253
  523SOL    HW2 2469   0.300   4.873   3.393
  524SOL     OW 2470   2.306   1.102   6.509
  524SOL    HW1 2471   2.242   1.124   6.434
  524SOL    HW2 2472   2.257   1.050   6.579
  525SOL     OW 2473   2.606   3.431   6.331
  525SOL    HW1 2474   2.547   3.497   6.283
  525SOL    HW2 2475   2.640   3.363   6.267
  526SOL     OW 2476   2.518   0.132   5.179
  526SOL    HW1 2477   2.570   0.215   5.199
  526SOL    HW2 2478   2.516   0.118   5.080
  527SOL     OW 2479   5.733   3.045   6.274
  527SOL    HW1 2480   5.746   2.946   6.260
  527SOL    HW2 2481   5.767   3.094   6.193
  528SOL     OW 2482   1.047   1.767   3.945
  528SOL    HW1 2483   0.965   1.760   3.889
  528SOL    HW2 2484   1.127   1.741   3.890
  529SOL     OW 2485   0.519   5.777   4.763
  529SOL    HW1 2486   0.524   5.684   4.726
  529SOL    HW2 2487   0.502   5.773   4.861
  530SOL     OW 2488   2.741   2.927   5.334
  530SOL    HW1 2489   2.692   2.898   5.416
  530SOL    HW2 2490   2.681   2.986   5.279
  531SOL     OW 2491   0.131   0.758   1.360
  531SOL    HW1 2492   0.185   0.803   1.431
  531SOL    HW2 2493   0.156   0.795   1.270
  532SOL     OW 2494   0.430   3.058   6.267
  532SOL    HW1 2495   0.458   2.975   6.314
  532SOL    HW2 2496   0.420   3.040   6.169
  533SOL     OW 2497   4.884   5.630   4.200
  533SOL    HW1 2498   4.847   5.617   4.292
  533SOL    HW2 2499   4.837   5.706   4.156
  534SOL     OW 2500   5.319   5.080   3.672
  534SOL    HW1 2501   5.241   5.020   3.660
  534SOL    HW2 2502   5.296   5.172   3.640
  535SOL     OW 2503   1.143   4.229   4.515
  535SOL    HW1 2504   1.065   4.277   4.476
  535SOL    HW2 2505   1.163   4.265   4.606
  536SOL     OW 2506   6.910   4.860   2.437
  536SOL    HW1 2507   6.889   4.956   2.453
  536SOL    HW2 2508   6.849   4.823   2.366
  537SOL     OW 2509   2.245   6.484   3.779
  537SOL    HW1 2510   2.188   6.527   3.709
  537SOL    HW2 2511   2.191   6.472   3.862
  538SOL     OW 2512   1.960   5.932   3.735
  538SOL    HW1 2513   1.934   5.925   3.831
  538SOL    HW2 2514   1.881   5.963   3.682
  539SOL     OW 2515   0.472   5.985   0.292
  539SOL    HW1 2516   0.538   5.942   0.230
  539SOL    HW2 2517   0.405   6.037   0.238
  540SOL     OW 2518   0.485   1.631   1.622
  540SOL    HW1 2519   0.506   1.573   1.544
  540SOL    HW2 2520   0.388   1.623   1.645
  541SOL     OW 2521   2.685   6.268   4.234
  541SOL    HW1 2522   2.715   6.173   4.230
  541SOL    HW2 2523   2.603   6.279   4.178
  542SOL     OW 2524   6.756   0.053   0.139
  542SOL    HW1 2525   6.838   0.040   0.083
  542SOL    HW2 2526   6.771   0.130   0.202
  543SOL     OW 2527   0.303   4.833   5.403
  543SOL    HW1 2528   0.322   4.871   5.313
  543SOL    HW2 2529   0.225   4.771   5.398
  544SOL     OW 2530   1.885   4.461   1.104
  544SOL    HW1 2531   1.967   4.431   1.055
  544SOL    HW2 2532   1.852   4.387   1.162
  545SOL     OW 2533   3.835   1.657   3.404
  545SOL    HW1 2534   3.839   1.611   3.493
  545SOL    HW2 2535   3.739   1.672   3.379
  546SOL     OW 2536   1.591   3.274   1.526
  546SOL    HW1 2537   1.668   3.257   1.463
  546SOL    HW2 2538   1.612   3.354   1.583
  547SOL     OW 2539   2.389   1.288   6.690
  547SOL    HW1 2540   2.442   1.364   6.653
  547SOL    HW2 2541   2.385   1.214   6.623
  548SOL     OW 2542   3.994   3.236   2.871
  548SOL    HW1 2543   4.068   3.297   2.902
  548SOL    HW2 2544   3.947   3.278   2.794
  549SOL     OW 2545   4.459   3.866   1.613
  549SOL    HW1 2546   4.377   3.866   1.669
  549SOL    HW2 2547   4.434   3.885   1.518
  550SOL     OW 2548   6.887   3.377   3.317
  550SOL    HW1 2549   6.800   3.349   3.358
  550SOL    HW2 2550   6.961   3.359   3.381
  551SOL     OW 2551   0.171   1.510   0.771
  551SOL    HW1 2552   0.190   1.517   0.869
  551SOL    HW2 2553   0.256   1.496   0.722
  552SOL     OW 2554   3.943   5.382   0.833
  552SOL    HW1 2555   4.024   5.406   0.886
  552SOL    HW2 2556   3.888   5.465   0.816
  553SOL     OW 2557   1.675   6.502   2.912
  553SOL    HW1 2558   1.599   6.459   2.961
  553SOL    HW2 2559   1.709   6.439   2.842
  554SOL     OW 2560   5.233   0.350   6.603
  554SOL    HW1 2561   5.149   0.390   6.641
  554SOL    HW2 2562   5.250   0.261   6.646
  555SOL     OW 2563   2.203   5.404   4.116
  555SOL    HW1 2564   2.165   5.337   4.180
  555SOL    HW2 2565   2.179   5.379   4.023
  556SOL     OW 2566   6.220   2.127   4.632
  556SOL    HW1 2567   6.139   2.069   4.637
  556SOL    HW2 2568   6.193   2.223   4.644
  557SOL     OW 2569   0.014   5.707   6.596
  557SOL    HW1 2570   0.027   5.619   6.640
  557SOL    HW2 2571   7.015   5.693   6.502
  558SOL     OW 2572   4.142   3.711   4.954
  558SOL    HW1 2573   4.229   3.682   4.915
  558SOL    HW2 2574   4.072   3.641   4.937
  559SOL     OW 2575   6.268   6.174   6.609
  559SOL    HW1 2576   6.327   6.252   6.629
  559SOL    HW2 2577   6.210   6.155   6.688
  560SOL     OW 2578   4.055   6.333   0.985
  560SOL    HW1 2579   4.132   6.343   1.049
  560SOL    HW2 2580   4.023   6.424   0.957
  561SOL     OW 2581   6.173   0.084   6.379
  561SOL    HW1 2582   6.130   0.072   6.469
  561SOL    HW2 2583   6.112   0.049   6.308
  562SOL     OW 2584   4.546   0.860   6.392
  562SOL    HW1 2585   4.603   0.881   6.472
  562SOL    HW2 2586   4.596   0.883   6.309
  563SOL     OW 2587   2.969   6.960   3.355
  563SOL    HW1 2588   3.068   6.973   3.366
  563SOL    HW2 2589   2.943   6.871   3.392
  564SOL     OW 2590   2.085   2.358   5.955
  564SOL    HW1 2591   2.094   2.375   5.857
  564SOL    HW2 2592   2.105   2.442   6.006
  565SOL     OW 2593   4.532   3.124   5.450
  565SOL    HW1 2594   4.516   3.041   5.397
  565SOL    HW2 2595   4.540   3.102   5.547
  566SOL     OW 2596   4.539   4.597   3.696
  566SOL    HW1 2597   4.495   4.663   3.635
  566SOL    HW2 2598   4.630   4.576   3.662
  567SOL     OW 2599   3.065   3.238   3.850
  567SOL    HW1 2600   3.017   3.254   3.764
  567SOL    HW2 2601   3.163   3.228   3.833
  568SOL     OW 2602   3.453   2.657   1.395
  568SOL    HW1 2603   3.460   2.563   1.428
  568SOL    HW2 2604   3.525   2.674   1.327
  569SOL     OW 2605   1.617   3.159   0.515
  569SOL    HW1 2606   1.579   3.092   0.451
  569SOL    HW2 2607   1.631   3.116   0.604
  570SOL     OW 2608   1.478   6.531   6.897
  570SOL    HW1 2609   1.559   6.537   6.840
  570SOL    HW2 2610   1.453   6.434   6.908
  571SOL     OW 2611   3.055   6.316   2.428
  571SOL    HW1 2612   3.040   6.217   2.417
  571SOL    HW2 2613   3.081   6.335   2.523
  572SOL     OW 2614   2.613   4.501   5.964
  572SOL    HW1 2615   2.595   4.478   5.869
  572SOL    HW2 2616   2.569   4.589   5.986
  573SOL     OW 2617   3.423   1.594   5.035
  573SOL    HW1 2618   3.345   1.553   4.987
  573SOL    HW2 2619   3.406   1.589   5.134
  574SOL     OW 2620   2.087   2.480   4.370
  574SOL    HW1 2621   2.182   2.460   4.346
  574SOL    HW2 2622   2.035   2.499   4.288
  575SOL     OW 2623   6.351   4.136   0.161
  575SOL    HW1 2624   6.381   4.100   0.072
  575SOL    HW2 2625   6.430   4.173   0.210
  576SOL     OW 2626   1.218   1.979   1.877
  576SOL    HW1 2627   1.315   1.960   1.889
  576SOL    HW2 2628   1.178   1.911   1.815
  577SOL     OW 2629   2.504   1.287   3.317
  577SOL    HW1 2630   2.465   1.226   3.386
  577SOL    HW2 2631   2.538   1.233   3.240
  578SOL     OW 2632   6.756   3.426   3.769
  578SOL    HW1 2633   6.678   3.451   3.827
  578SOL    HW2 2634   6.767   3.327   3.769
  579SOL     OW 2635   3.715   2.052   1.321
  579SOL    HW1 2636   3.682   1.994   1.394
  579SOL    HW2 2637   3.671   2.142   1.326
  580SOL     OW 2638   0.884   4.980   6.004
  580SOL    HW1 2639   0.910   4.995   6.099
  580SOL    HW2 2640   0.786   4.957   5.999
  581SOL     OW 2641   4.018   3.182   3.158
  581SOL    HW1 2642   4.102   3.226   3.188
  581SOL    HW2 2643   3.999   3.208   3.063
  582SOL     OW 2644   5.802   4.202   2.455
  582SOL    HW1 2645   5.734   4.268   2.422
  582SOL    HW2 2646   5.779   4.174   2.548
  583SOL     OW 2647   2.639   4.708   0.023
  583SOL    HW1 2648   2.554   4.689   7.005
  583SOL    HW2 2649   2.695   4.772   7.002
  584SOL     OW 2650   7.022   4.829   5.836
  584SOL    HW1 2651   7.014   4.776   5.752
  584SOL    HW2 2652   7.010   4.769   5.915
  585SOL     OW 2653   6.427   2.751   5.872
  585SOL    HW1 2654   6.336   2.789   5.859
  585SOL    HW2 2655   6.492   2.825   5.891
  586SOL     OW 2656   3.133   6.587   0.091
  586SOL    HW1 2657   3.206   6.561   0.154
  586SOL    HW2 2658   3.072   6.652   0.137
  587SOL     OW 2659   2.342   1.934   4.853
  587SOL    HW1 2660   2.256   1.908   4.810
  587SOL    HW2 2661   2.389   1.851   4.885
  588SOL     OW 2662   3.490   6.780   1.103
  588SOL    HW1 2663   3.533   6.844   1.166
  588SOL    HW2 2664   3.401   6.816   1.074
  589SOL     OW 2665   4.017   5.274   1.686
  589SOL    HW1 2666   3.958   5.282   1.605
  589SOL    HW2 2667   4.102   5.324   1.670
  590SOL     OW 2668   0.311   2.485   2.421
  590SOL    HW1 2669   0.379   2.557   2.410
  590SOL    HW2 2670   0.303   2.433   2.336
  591SOL     OW 2671   4.066   0.086   3.697
  591SOL    HW1 2672   4.052   7.031   3.649
  591SOL    HW2 2673   4.119   0.070   3.780
  592SOL     OW 2674   4.906   1.090   0.498
  592SOL    HW1 2675   4.825   1.104   0.556
  592SOL    HW2 2676   4.977   1.155   0.524
  593SOL     OW 2677   4.262   2.296   3.972
  593SOL    HW1 2678   4.193   2.301   3.899
  593SOL    HW2 2679   4.324   2.220   3.953
  594SOL     OW 2680   4.377   2.981   6.466
  594SOL    HW1 2681   4.468   2.942   6.479
  594SOL    HW2 2682   4.330   2.986   6.554
  595SOL     OW 2683   4.301   0.006   4.499
  595SOL    HW1 2684   4.395   7.006   4.494
  595SOL    HW2 2685   4.285   0.052   4.586
  596SOL     OW 2686   1.205   3.709   2.110
  596SOL    HW1 2687   1.183   3.793   2.160
  596SOL    HW2 2688   1.129   3.645   2.118
  597SOL     OW 2689   4.013   6.842   6.879
  597SOL    HW1 2690   4.103   6.826   6.840
  597SOL    HW2 2691   3.943   6.826   6.809
  598SOL     OW 2692   3.869   4.349   0.417
  598SOL    HW1 2693   3.914   4.307   0.339
  598SOL    HW2 2694   3.921   4.429   0.446
  599SOL     OW 2695   0.572   0.373   2.453
  599SOL    HW1 2696   0.516   0.446   2.492
  599SOL    HW2 2697   0.575   0.382   2.354
  600SOL     OW 2698   0.896   6.829   0.941
  600SOL    HW1 2699   0.798   6.822   0.919
  600SOL    HW2 2700   0.919   6.924   0.963
  601SOL     OW 2701   3.149   5.827   3.498
  601SOL    HW1 2702   3.080   5.760   3.522
  601SOL    HW2 2703   3.124   5.871   3.412
  602SOL     OW 2704   1.031   0.543   0.367
  602SOL    HW1 2705   0.984   0.476   0.309
  602SOL    HW2 2706   1.129   0.521   0.371
  603SOL     OW 2707   3.983   1.954   3.539
  603SOL    HW1 2708   4.070   1.966   3.586
  603SOL    HW2 2709   3.909   1.950   3.606
  604SOL     OW 2710   1.162   2.734   0.036
  604SOL    HW1 2711   1.136   2.737   6.971
  604SOL    HW2 2712   1.216   2.652   0.053
  605SOL     OW 2713   0.056   6.201   3.462
  605SOL    HW1 2714   0.045   6.128   3.395
  605SOL    HW2 2715   7.007   6.262   3.459
  606SOL     OW 2716   4.502   1.040   4.936
  606SOL    HW1 2717   4.418   1.091   4.955
  606SOL    HW2 2718   4.555   1.087   4.865
  607SOL     OW 2719   5.581   1.264   3.895
  607SOL    HW1 2720   5.564   1.167   3.914
  607SOL    HW2 2721   5.495   1.309   3.870
  608SOL     OW 2722   3.198   0.248   1.013
  608SOL    HW1 2723   3.276   0.187   1.002
  608SOL    HW2 2724   3.169   0.281   0.923
  609SOL     OW 2725   3.353   3.003   4.717
  609SOL    HW1 2726   3.438   2.951   4.714
  609SOL    HW2 2727   3.317   3.014   4.624
  610SOL     OW 2728   5.400   2.408   3.455
  610SOL    HW1 2729   5.348   2.442   3.377
  610SOL    HW2 2730   5.341   2.349   3.511
  611SOL     OW 2731   0.555   0.609   6.865
  611SOL    HW1 2732   0.615   0.686   6.887
  611SOL    HW2 2733   0.477   0.641   6.812
  612SOL     OW 2734   3.859   5.568   5.975
  612SOL    HW1 2735   3.876   5.665   5.956
  612SOL    HW2 2736   3.945   5.524   6.003
  613SOL     OW 2737   4.174   1.400   5.488
  613SOL    HW1 2738   4.176   1.330   5.417
  613SOL    HW2 2739   4.268   1.429   5.509
  614SOL     OW 2740   5.941   5.277   0.631
  614SOL    HW1 2741   5.973   5.191   0.672
  614SOL    HW2 2742   5.930   5.264   0.533
  615SOL     OW 2743   0.745   0.445   6.652
  615SOL    HW1 2744   0.721   0.360   6.604
  615SOL    HW2 2745   0.663   0.483   6.695
  616SOL     OW 2746   5.774   1.919   4.249
  616SOL    HW1 2747   5.685   1.874   4.245
  616SOL    HW2 2748   5.818   1.914   4.160
  617SOL     OW 2749   0.316   4.606   5.828
  617SOL    HW1 2750   0.307   4.626   5.926
  617SOL    HW2 2751   0.317   4.692   5.777
  618SOL     OW 2752   6.150   3.303   1.664
  618SOL    HW1 2753   6.111   3.330   1.575
  618SOL    HW2 2754   6.115   3.364   1.735
  619SOL     OW 2755   2.968   0.369   6.921
  619SOL    HW1 2756   2.924   0.428   6.989
  619SOL    HW2 2757   3.052   0.332   6.959
  620SOL     OW 2758   5.533   3.748   2.196
  620SOL    HW1 2759   5.524   3.703   2.107
  620SOL    HW2 2760   5.626   3.783   2.207
  621SOL     OW 2761   2.911   6.759   5.886
  621SOL    HW1 2762   2.878   6.755   5.791
  621SOL    HW2 2763   2.888   6.673   5.933
  622SOL     OW 2764   1.220   2.592   5.426
  622SOL    HW1 2765   1.123   2.603   5.447
  622SOL    HW2 2766   1.270   2.571   5.510
  623SOL     OW 2767   6.360   6.528   4.748
  623SOL    HW1 2768   6.420   6.607   4.759
  623SOL    HW2 2769   6.412   6.444   4.762
  624SOL     OW 2770   6.423   1.278   6.382
  624SOL    HW1 2771   6.479   1.322   6.452
  624SOL    HW2 2772   6.340   1.241   6.424
  625SOL     OW 2773   2.332   0.975   0.372
  625SOL    HW1 2774   2.379   0.995   0.286
  625SOL    HW2 2775   2.243   0.935   0.353
  626SOL     OW 2776   1.593   5.701   3.964
  626SOL    HW1 2777   1.660   5.737   3.899
  626SOL    HW2 2778   1.508   5.753   3.956
  627SOL     OW 2779   6.312   6.258   0.225
  627SOL    HW1 2780   6.401   6.276   0.185
  627SOL    HW2 2781   6.319   6.257   0.325
  628SOL     OW 2782   5.436   3.965   5.550
  628SOL    HW1 2783   5.402   3.957   5.643
  628SOL    HW2 2784   5.471   4.058   5.535
  629SOL     OW 2785   0.368   0.826   0.118
  629SOL    HW1 2786   0.425   0.744   0.121
  629SOL    HW2 2787   0.277   0.805   0.156
  630SOL     OW 2788   6.574   0.870   0.989
  630SOL    HW1 2789   6.484   0.839   0.955
  630SOL    HW2 2790   6.582   0.847   1.086
  631SOL     OW 2791   2.484   2.463   4.998
  631SOL    HW1 2792   2.442   2.551   5.019
  631SOL    HW2 2793   2.506   2.415   5.083
  632SOL     OW 2794   4.905   3.174   0.902
  632SOL    HW1 2795   4.849   3.248   0.865
  632SOL    HW2 2796   4.941   3.118   0.827
  633SOL     OW 2797   1.963   5.221   1.134
  633SOL    HW1 2798   1.922   5.134   1.104
  633SOL    HW2 2799   1.967   5.285   1.058
  634SOL     OW 2800   3.267   3.612   3.732
  634SOL    HW1 2801   3.188   3.608   3.670
  634SOL    HW2 2802   3.244   3.667   3.812
  635SOL     OW 2803   4.973   1.058   6.966
  635SOL    HW1 2804   4.959   1.097   0.025
  635SOL    HW2 2805   4.972   0.958   6.972
  636SOL     OW 2806   3.332   0.119   5.916
  636SOL    HW1 2807   3.358   0.143   5.822
  636SOL    HW2 2808   3.304   0.023   5.919
  637SOL     OW 2809   6.478   1.708   2.511
  637SOL    HW1 2810   6.500   1.734   2.605
  637SOL    HW2 2811   6.553   1.655   2.473
  638SOL     OW 2812   6.124   3.636   4.264
  638SOL    HW1 2813   6.182   3.596   4.193
  638SOL    HW2 2814   6.159   3.609   4.354
  639SOL     OW 2815   5.648   5.167   2.953
  639SOL    HW1 2816   5.715   5.181   3.025
  639SOL    HW2 2817   5.562   5.213   2.977
  640SOL     OW 2818   0.024   3.051   2.911
  640SOL    HW1 2819   6.970   3.002   2.893
  640SOL    HW2 2820   0.026   3.136   2.858
  641SOL     OW 2821   1.682   4.699   5.529
  641SOL    HW1 2822   1.649   4.631   5.463
  641SOL    HW2 2823   1.691   4.657   5.619
  642SOL     OW 2824   1.164   3.774   4.416
  642SOL    HW1 2825   1.174   3.866   4.379
  642SOL    HW2 2826   1.109   3.719   4.354
  643SOL     OW 2827   6.212   6.675   6.958
  643SOL    HW1 2828   6.158   6.652   6.877
  643SOL    HW2 2829   6.207   6.773   6.976
  644SOL     OW 2830   0.681   0.535   4.637
  644SOL    HW1 2831   0.699   0.517   4.541
  644SOL    HW2 2832   0.582   0.530   4.654
  645SOL     OW 2833   3.864   4.883   3.119
  645SOL    HW1 2834   3.773   4.866   3.083
  645SOL    HW2 2835   3.864   4.969   3.170
  646SOL     OW 2836   3.717   0.709   5.319
  646SOL    HW1 2837   3.622   0.678   5.314
  646SOL    HW2 2838   3.771   0.663   5.250
  647SOL     OW 2839   5.095   2.056   4.409
  647SOL    HW1 2840   5.192   2.034   4.418
  647SOL    HW2 2841   5.082   2.155   4.422
  648SOL     OW 2842   6.270   1.957   2.910
  648SOL    HW1 2843   6.241   1.879   2.965
  648SOL    HW2 2844   6.205   2.032   2.921
  649SOL     OW 2845   2.536   4.840   0.478
  649SOL    HW1 2846   2.508   4.744   0.488
  649SOL    HW2 2847   2.580   4.853   0.389
  650SOL     OW 2848   6.676   5.773   0.808
  650SOL    HW1 2849   6.609   5.847   0.798
  650SOL    HW2 2850   6.639   5.689   0.768
  651SOL     OW 2851   1.539   0.409   5.677
  651SOL    HW1 2852   1.558   0.503   5.706
  651SOL    HW2 2853   1.610   0.348   5.713
  652SOL     OW 2854   4.118   0.605   2.004
  652SOL    HW1 2855   4.096   0.702   2.002
  652SOL    HW2 2856   4.034   0.552   2.009
  653SOL     OW 2857   6.544   6.480   0.674
  653SOL    HW1 2858   6.531   6.387   0.710
  653SOL    HW2 2859   6.642   6.501   0.673
  654SOL     OW 2860   6.808   6.266   5.410
  654SOL    HW1 2861   6.711   6.285   5.394
  654SOL    HW2 2862   6.829   6.173   5.381
  655SOL     OW 2863   6.958   5.085   1.996
  655SOL    HW1 2864   0.023   5.107   1.983
  655SOL    HW2 2865   6.923   5.138   2.074
  656SOL     OW 2866   3.621   6.180   0.842
  656SOL    HW1 2867   3.578   6.264   0.875
  656SOL    HW2 2868   3.552   6.121   0.801
  657SOL     OW 2869   3.338   3.260   1.951
  657SOL    HW1 2870   3.256   3.299   1.994
  657SOL    HW2 2871   3.393   3.214   2.021
  658SOL     OW 2872   2.236   4.051   4.505
  658SOL    HW1 2873   2.238   3.984   4.580
  658SOL    HW2 2874   2.147   4.097   4.506
  659SOL     OW 2875   3.556   6.417   5.639
  659SOL    HW1 2876   3.595   6.325   5.651
  659SOL    HW2 2877   3.461   6.417   5.669
  660SOL     OW 2878   4.958   4.696   2.699
  660SOL    HW1 2879   5.018   4.641   2.641
  660SOL    HW2 2880   4.863   4.687   2.667
  661SOL     OW 2881   5.103   4.112   4.033
  661SOL    HW1 2882   5.095   4.052   4.112
  661SOL    HW2 2883   5.083   4.206   4.061
  662SOL     OW 2884   4.543   2.270   6.578
  662SOL    HW1 2885   4.603   2.262   6.499
  662SOL    HW2 2886   4.488   2.354   6.570
  663SOL     OW 2887   0.018   4.609   0.107
  663SOL    HW1 2888   0.004   4.552   0.025
  663SOL    HW2 2889   0.018   4.705   0.081
  664SOL     OW 2890   1.720   5.632   6.183
  664SOL    HW1 2891   1.751   5.724   6.157
  664SOL    HW2 2892   1.787   5.564   6.153
  665SOL     OW 2893   3.713   5.450   1.688
  665SOL    HW1 2894   3.735   5.384   1.617
  665SOL    HW2 2895   3.629   5.499   1.663
  666SOL     OW 2896   3.775   2.173   0.365
  666SOL    HW1 2897   3.687   2.124   0.366
  666SOL    HW2 2898   3.815   2.171   0.456
  667SOL     OW 2899   0.318   2.736   3.969
  667SOL    HW1 2900   0.248   2.807   3.956
  667SOL    HW2 2901   0.289   2.675   4.043
  668SOL     OW 2902   4.505   6.491   0.145
  668SOL    HW1 2903   4.426   6.551   0.152
  668SOL    HW2 2904   4.575   6.533   0.086
  669SOL     OW 2905   1.287   6.657   3.195
  669SOL    HW1 2906   1.304   6.615   3.106
  669SOL    HW2 2907   1.203   6.620   3.234
  670SOL     OW 2908   3.306   3.283   2.653
  670SOL    HW1 2909   3.272   3.277   2.559
  670SOL    HW2 2910   3.231   3.306   2.714
  671SOL     OW 2911   1.773   5.899   6.035
  671SOL    HW1 2912   1.737   5.978   6.084
  671SOL    HW2 2913   1.709   5.873   5.962
  672SOL     OW 2914   0.679   2.923   4.256
  672SOL    HW1 2915   0.640   2.871   4.179
  672SOL    HW2 2916   0.606   2.945   4.320
  673SOL     OW 2917   4.523   0.485   0.048
  673SOL    HW1 2918   4.541   0.581   0.026
  673SOL    HW2 2919   4.593   0.452   0.111
  674SOL     OW 2920   0.581   2.788   4.053
  674SOL    HW1 2921   0.623   2.720   3.992
  674SOL    HW2 2922   0.482   2.778   4.052
  675SOL     OW 2923   0.626   2.440   4.649
  675SOL    HW1 2924   0.662   2.361   4.699
  675SOL    HW2 2925   0.640   2.522   4.704
  676SOL     OW 2926   2.993   4.869   4.563
  676SOL    HW1 2927   2.972   4.821   4.478
  676SOL    HW2 2928   2.939   4.830   4.637
  677SOL     OW 2929   6.230   0.217   0.016
  677SOL    HW1 2930   6.206   0.280   6.973
  677SOL    HW2 2931   6.166   0.229   0.091
  678SOL     OW 2932   2.377   1.238   5.610
  678SOL    HW1 2933   2.399   1.235   5.513
  678SOL    HW2 2934   2.461   1.230   5.664
  679SOL     OW 2935   3.693   1.246   3.462
  679SOL    HW1 2936   3.781   1.293   3.474
  679SOL    HW2 2937   3.687   1.171   3.529
  680SOL     OW 2938   6.052   4.180   5.986
  680SOL    HW1 2939   6.145   4.143   5.979
  680SOL    HW2 2940   6.011   4.184   5.896
  681SOL     OW 2941   6.691   6.363   1.003
  681SOL    HW1 2942   6.636   6.305   0.943
  681SOL    HW2 2943   6.788   6.344   0.988
  682SOL     OW 2944   1.986   6.723   0.278
  682SOL    HW1 2945   2.065   6.754   0.224
  682SOL    HW2 2946   2.005   6.738   0.375
  683SOL     OW 2947   3.983   1.289   5.922
  683SOL    HW1 2948   3.961   1.358   5.853
  683SOL    HW2 2949   4.082   1.276   5.926
  684SOL     OW 2950   0.419   0.097   6.472
  684SOL    HW1 2951   0.328   0.136   6.482
  684SOL    HW2 2952   0.434   0.071   6.376
  685SOL     OW 2953   4.982   0.178   6.283
  685SOL    HW1 2954   5.041   0.255   6.257
  685SOL    HW2 2955   4.889   0.212   6.301
  686SOL     OW 2956   5.380   3.121   3.317
  686SOL    HW1 2957   5.387   3.185   3.240
  686SOL    HW2 2958   5.342   3.034   3.283
  687SOL     OW 2959   6.773   3.323   6.585
  687SOL    HW1 2960   6.675   3.311   6.601
  687SOL    HW2 2961   6.787   3.393   6.515
  688SOL     OW 2962   1.893   3.532   7.010
  688SOL    HW1 2963   1.984   3.552   0.014
  688SOL    HW2 2964   1.824   3.562   0.045
  689SOL     OW 2965   0.789   4.260   6.226
  689SOL    HW1 2966   0.764   4.319   6.149
  689SOL    HW2 2967   0.838   4.180   6.192
  690SOL     OW 2968   0.979   2.171   3.724
  690SOL    HW1 2969   0.974   2.223   3.640
  690SOL    HW2 2970   1.073   2.169   3.757
  691SOL     OW 2971   1.516   2.387   6.049
  691SOL    HW1 2972   1.533   2.484   6.067
  691SOL    HW2 2973   1.593   2.349   5.998
  692SOL     OW 2974   2.626   0.023   3.486
  692SOL    HW1 2975   2.613   0.008   3.584
  692SOL    HW2 2976   2.724   0.026   3.464
  693SOL     OW 2977   6.797   1.715   2.480
  693SOL    HW1 2978   6.778   1.647   2.410
  693SOL    HW2 2979   6.727   1.787   2.477
  694SOL     OW 2980   3.526   5.808   1.495
  694SOL    HW1 2981   3.445   5.866   1.483
  694SOL    HW2 2982   3.589   5.822   1.419
  695SOL     OW 2983   5.160   5.423   4.842
  695SOL    HW1 2984   5.128   5.516   4.860
  695SOL    HW2 2985   5.243   5.407   4.894
  696SOL     OW 2986   3.225   5.579   2.514
  696SOL    HW1 2987   3.161   5.509   2.485
  696SOL    HW2 2988   3.226   5.585   2.614
  697SOL     OW 2989   0.880   3.282   5.344
  697SOL    HW1 2990   0.785   3.268   5.370
  697SOL    HW2 2991   0.906   3.377   5.365
  698SOL     OW 2992   4.725   0.238   3.988
  698SOL    HW1 2993   4.720   0.261   3.891
  698SOL    HW2 2994   4.668   0.158   4.007
  699SOL     OW 2995   1.652   4.622   1.087
  699SOL    HW1 2996   1.746   4.602   1.113
  699SOL    HW2 2997   1.613   4.687   1.152
  700SOL     OW 2998   2.772   2.351   3.795
  700SOL    HW1 2999   2.677   2.325   3.778
  700SOL    HW2 3000   2.787   2.446   3.766
  701SOL     OW 3001   1.652   4.521   0.219
  701SOL    HW1 3002   1.744   4.504   0.182
  701SOL    HW2 3003   1.653   4.604   0.274
  702SOL     OW 3004   5.440   6.516   5.039
  702SOL    HW1 3005   5.357   6.464   5.020
  702SOL    HW2 3006   5.448   6.533   5.137
  703SOL     OW 3007   4.404   3.514   6.686
  703SOL    HW1 3008   4.423   3.527   6.784
  703SOL    HW2 3009   4.440   3.592   6.635
  704SOL     OW 3010   0.867   1.117   6.123
  704SOL    HW1 3011   0.933   1.042   6.115
  704SOL    HW2 3012   0.917   1.203   6.141
  705SOL     OW 3013   4.909   0.569   3.761
  705SOL    HW1 3014   4.979   0.499   3.774
  705SOL    HW2 3015   4.852   0.575   3.843
  706SOL     OW 3016   3.637   1.968   4.042
  706SOL    HW1 3017   3.556   1.992   4.096
  706SOL    HW2 3018   3.708   2.036   4.056
  707SOL     OW 3019   4.713   0.349   1.760
  707SOL    HW1 3020   4.685   0.427   1.816
  707SOL    HW2 3021   4.759   0.382   1.678
  708SOL     OW 3022   4.921   0.232   0.918
  708SOL    HW1 3023   4.833   0.274   0.897
  708SOL    HW2 3024   4.939   0.159   0.853
  709SOL     OW 3025   1.484   4.834   1.453
  709SOL    HW1 3026   1.397   4.814   1.407
  709SOL    HW2 3027   1.465   4.864   1.546
  710SOL     OW 3028   3.288   4.124   2.242
  710SOL    HW1 3029   3.234   4.194   2.289
  710SOL    HW2 3030   3.296   4.043   2.301
  711SOL     OW 3031   6.890   2.717   5.092
  711SOL    HW1 3032   6.833   2.665   5.156
  711SOL    HW2 3033   6.946   2.783   5.143
  712SOL     OW 3034   0.942   3.658   1.013
  712SOL    HW1 3035   0.991   3.744   0.999
  712SOL    HW2 3036   0.882   3.667   1.092
  713SOL     OW 3037   3.762   3.677   1.986
  713SOL    HW1 3038   3.788   3.606   2.051
  713SOL    HW2 3039   3.681   3.648   1.936
  714SOL     OW 3040   5.675   4.458   5.331
  714SOL    HW1 3041   5.611   4.390   5.294
  714SOL    HW2 3042   5.714   4.424   5.416
  715SOL     OW 3043   4.443   5.860   6.927
  715SOL    HW1 3044   4.497   5.811   6.860
  715SOL    HW2 3045   4.346   5.858   6.901
  716SOL     OW 3046   0.383   5.220   1.566
  716SOL    HW1 3047   0.426   5.285   1.503
  716SOL    HW2 3048   0.317   5.268   1.623
  717SOL     OW 3049   6.022   4.646   0.111
  717SOL    HW1 3050   5.959   4.718   0.141
  717SOL    HW2 3051   6.041   4.656   0.013
  718SOL     OW 3052   3.980   2.246   6.135
  718SOL    HW1 3053   3.959   2.330   6.085
  718SOL    HW2 3054   4.055   2.198   6.089
  719SOL     OW 3055   6.939   3.003   1.523
  719SOL    HW1 3056   7.011   2.951   1.570
  719SOL    HW2 3057   6.901   3.071   1.585
  720SOL     OW 3058   2.580   1.793   4.979
  720SOL    HW1 3059   2.618   1.705   4.951
  720SOL    HW2 3060   2.616   1.866   4.920
  721SOL     OW 3061   1.312   0.833   5.303
  721SOL    HW1 3062   1.225   0.785   5.296
  721SOL    HW2 3063   1.311   0.914   5.245
  722SOL     OW 3064   4.331   6.609   4.946
  722SOL    HW1 3065   4.412   6.610   5.005
  722SOL    HW2 3066   4.352   6.657   4.861
  723SOL     OW 3067   2.300   2.265   2.311
  723SOL    HW1 3068   2.311   2.333   2.239
  723SOL    HW2 3069   2.356   2.185   2.290
  724SOL     OW 3070   0.731   1.702   5.444
  724SOL    HW1 3071   0.751   1.657   5.357
  724SOL    HW2 3072   0.689   1.791   5.426
  725SOL     OW 3073   2.958   5.170   1.977
  725SOL    HW1 3074   3.055   5.159   1.952
  725SOL    HW2 3075   2.901   5.123   1.910
  726SOL     OW 3076   3.075   4.727   6.407
  726SOL    HW1 3077   3.000   4.777   6.449
  726SOL    HW2 3078   3.101   4.650   6.466
  727SOL     OW 3079   3.757   5.941   4.369
  727SOL    HW1 3080   3.658   5.927   4.370
  727SOL    HW2 3081   3.777   6.039   4.366
  728SOL     OW 3082   0.001   4.002   5.100
  728SOL    HW1 3083   6.975   4.000   5.182
  728SOL    HW2 3084   0.030   3.909   5.078
  729SOL     OW 3085   1.786   0.618   0.457
  729SOL    HW1 3086   1.723   0.572   0.520
  729SOL    HW2 3087   1.736   0.646   0.375
  730SOL     OW 3088   6.144   0.816   3.163
  730SOL    HW1 3089   6.095   0.818   3.076
  730SOL    HW2 3090   6.120   0.733   3.213
  731SOL     OW 3091   5.616   2.888   5.112
  731SOL    HW1 3092   5.601   2.800   5.066
  731SOL    HW2 3093   5.574   2.961   5.058
  732SOL     OW 3094   0.189   2.919   1.624
  732SOL    HW1 3095   0.272   2.955   1.580
  732SOL    HW2 3096   0.185   2.952   1.718
  733SOL     OW 3097   4.910   3.911   3.915
  733SOL    HW1 3098   5.003   3.940   3.937
  733SOL    HW2 3099   4.874   3.967   3.840
  734SOL     OW 3100   0.475   4.729   1.937
  734SOL    HW1 3101   0.486   4.637   1.976
  734SOL    HW2 3102   0.454   4.722   1.840
  735SOL     OW 3103   2.052   3.363   0.728
  735SOL    HW1 3104   2.091   3.301   0.660
  735SOL    HW2 3105   1.974   3.320   0.772
  736SOL     OW 3106   6.083   6.498   2.588
  736SOL    HW1 3107   6.168   6.464   2.546
  736SOL    HW2 3108   6.040   6.564   2.526
  737SOL     OW 3109   4.799   3.596   1.474
  737SOL    HW1 3110   4.832   3.653   1.550
  737SOL    HW2 3111   4.873   3.535   1.444
  738SOL     OW 3112   0.974   4.798   3.916
  738SOL    HW1 3113   0.980   4.798   4.016
  738SOL    HW2 3114   1.065   4.788   3.877
  739SOL     OW 3115   4.570   6.807   6.047
  739SOL    HW1 3116   4.585   6.897   6.089
  739SOL    HW2 3117   4.657   6.771   6.012
  740SOL     OW 3118   5.553   0.188   0.909
  740SOL    HW1 3119   5.613   0.266   0.925
  740SOL    HW2 3120   5.528   0.146   0.996
  741SOL     OW 3121   1.646   6.231   3.211
  741SOL    HW1 3122   1.569   6.263   3.266
  741SOL    HW2 3123   1.723   6.294   3.221
  742SOL     OW 3124   2.240   6.597   3.204
  742SOL    HW1 3125   2.291   6.669   3.158
  742SOL    HW2 3126   2.165   6.638   3.257
  743SOL     OW 3127   1.572   3.931   4.251
  743SOL    HW1 3128   1.557   3.860   4.320
  743SOL    HW2 3129   1.568   3.890   4.160
  744SOL     OW 3130   0.388   6.234   6.669
  744SOL    HW1 3131   0.384   6.269   6.575
  744SOL    HW2 3132   0.435   6.300   6.727
  745SOL     OW 3133   0.904   5.403   4.301
  745SOL    HW1 3134   0.964   5.330   4.266
  745SOL    HW2 3135   0.860   5.371   4.385
  746SOL     OW 3136   0.286   6.473   5.293
  746SOL    HW1 3137   0.345   6.486   5.213
  746SOL    HW2 3138   0.241   6.559   5.315
  747SOL     OW 3139   4.329   4.906   4.124
  747SOL    HW1 3140   4.378   4.842   4.065
  747SOL    HW2 3141   4.355   4.891   4.219
  748SOL     OW 3142   4.508   5.065   1.759
  748SOL    HW1 3143   4.415   5.097   1.780
  748SOL    HW2 3144   4.503   4.989   1.695
  749SOL     OW 3145   0.439   2.835   4.930
  749SOL    HW1 3146   0.344   2.837   4.962
  749SOL    HW2 3147   0.498   2.874   5.001
  750SOL     OW 3148   2.817   3.278   0.389
  750SOL    HW1 3149   2.885   3.273   0.316
  750SOL    HW2 3150   2.864   3.284   0.477
  751SOL     OW 3151   4.314   2.270   6.980
  751SOL    HW1 3152   4.316   2.172   6.962
  751SOL    HW2 3153   4.342   2.288   0.043
  752SOL     OW 3154   4.458   2.646   1.755
  752SOL    HW1 3155   4.539   2.705   1.753
  752SOL    HW2 3156   4.436   2.617   1.661
  753SOL     OW 3157   1.735   3.065   4.876
  753SOL    HW1 3158   1.715   2.987   4.816
  753SOL    HW2 3159   1.654   3.086   4.931
  754SOL     OW 3160   5.571   3.732   6.601
  754SOL    HW1 3161   5.648   3.792   6.624
  754SOL    HW2 3162   5.599   3.637   6.607
  755SOL     OW 3163   1.141   5.298   0.033
  755SOL    HW1 3164   1.083   5.222   0.003
  755SOL    HW2 3165   1.089   5.357   0.095
  756SOL     OW 3166   5.123   0.935   1.903
  756SOL    HW1 3167   5.195   0.866   1.919
  756SOL    HW2 3168   5.075   0.915   1.818
  757SOL     OW 3169   0.795   6.214   3.374
  757SOL    HW1 3170   0.848   6.264   3.444
  757SOL    HW2 3171   0.748   6.279   3.315
  758SOL     OW 3172   3.479   1.716   1.686
  758SOL    HW1 3173   3.434   1.653   1.623
  758SOL    HW2 3174   3.468   1.683   1.780
  759SOL     OW 3175   7.030   0.975   0.018
  759SOL    HW1 3176   6.947   1.023   0.045
  759SOL    HW2 3177   0.001   0.965   6.950
  760SOL     OW 3178   5.096   1.504   6.206
  760SOL    HW1 3179   5.015   1.497   6.147
  760SOL    HW2 3180   5.099   1.425   6.268
  761SOL     OW 3181   6.056   3.755   0.025
  761SOL    HW1 3182   5.968   3.709   0.016
  761SOL    HW2 3183   6.041   3.850   0.052
  762SOL     OW 3184   1.904   5.861   3.389
  762SOL    HW1 3185   1.862   5.933   3.444
  762SOL    HW2 3186   2.004   5.866   3.398
  763SOL     OW 3187   4.039   5.497   6.857
  763SOL    HW1 3188   3.958   5.504   6.799
  763SOL    HW2 3189   4.120   5.486   6.799
  764SOL     OW 3190   3.207   1.007   3.630
  764SOL    HW1 3191   3.238   0.940   3.563
  764SOL    HW2 3192   3.281   1.071   3.650
  765SOL     OW 3193   1.040   6.406   1.309
  765SOL    HW1 3194   1.057   6.314   1.275
  765SOL    HW2 3195   0.981   6.455   1.245
  766SOL     OW 3196   6.845   1.028   6.807
  766SOL    HW1 3197   6.818   1.110   6.756
  766SOL    HW2 3198   6.840   0.948   6.748
  767SOL     OW 3199   1.055   6.627   2.136
  767SOL    HW1 3200   1.153   6.616   2.153
  767SOL    HW2 3201   1.033   6.597   2.044
  768SOL     OW 3202   1.978   0.633   2.681
  768SOL    HW1 3203   1.958   0.537   2.663
  768SOL    HW2 3204   1.978   0.650   2.779
  769SOL     OW 3205   3.025   0.028   4.510
  769SOL    HW1 3206   3.072   0.043   4.597
  769SOL    HW2 3207   3.067   0.084   4.439
  770SOL     OW 3208   2.749   5.389   3.339
  770SOL    HW1 3209   2.683   5.314   3.332
  770SOL    HW2 3210   2.831   5.366   3.286
  771SOL     OW 3211   1.862   5.500   2.686
  771SOL    HW1 3212   1.943   5.556   2.702
  771SOL    HW2 3213   1.843   5.496   2.588
  772SOL     OW 3214   6.781   4.547   0.615
  772SOL    HW1 3215   6.876   4.516   0.621
  772SOL    HW2 3216   6.763   4.612   0.688
  773SOL     OW 3217   0.003   3.183   3.630
  773SOL    HW1 3218   0.067   3.107   3.621
  773SOL    HW2 3219   6.951   3.150   3.675
  774SOL     OW 3220   1.832   1.952   1.727
  774SOL    HW1 3221   1.903   1.896   1.769
  774SOL    HW2 3222   1.769   1.985   1.798
  775SOL     OW 3223   1.262   2.125   3.796
  775SOL    HW1 3224   1.321   2.066   3.851
  775SOL    HW2 3225   1.316   2.170   3.725
  776SOL     OW 3226   0.470   0.035   6.187
  776SOL    HW1 3227   0.467   0.105   6.115
  776SOL    HW2 3228   0.458   6.976   6.145
  777SOL     OW 3229   3.553   0.553   0.918
  777SOL    HW1 3230   3.597   0.638   0.887
  777SOL    HW2 3231   3.456   0.556   0.895
  778SOL     OW 3232   4.097   0.728   3.937
  778SOL    HW1 3233   4.160   0.654   3.960
  778SOL    HW2 3234   4.004   0.692   3.930
  779SOL     OW 3235   0.352   2.035   1.907
  779SOL    HW1 3236   0.279   2.083   1.859
  779SOL    HW2 3237   0.322   2.010   1.998
  780SOL     OW 3238   5.648   2.850   4.502
  780SOL    HW1 3239   5.610   2.766   4.541
  780SOL    HW2 3240   5.658   2.839   4.403
  781SOL     OW 3241   6.036   1.263   6.025
  781SOL    HW1 3242   6.084   1.277   5.938
  781SOL    HW2 3243   5.960   1.199   6.011
  782SOL     OW 3244   1.311   3.574   0.591
  782SOL    HW1 3245   1.330   3.632   0.670
  782SOL    HW2 3246   1.354   3.613   0.509
  783SOL     OW 3247   3.404   4.794   0.446
  783SOL    HW1 3248   3.458   4.812   0.364
  783SOL    HW2 3249   3.328   4.733   0.423
  784SOL     OW 3250   4.473   0.914   5.180
  784SOL    HW1 3251   4.560   0.872   5.206
  784SOL    HW2 3252   4.486   0.970   5.097
  785SOL     OW 3253   6.160   1.800   2.705
  785SOL    HW1 3254   6.199   1.709   2.719
  785SOL    HW2 3255   6.205   1.866   2.765
  786SOL     OW 3256   0.386   0.385   7.013
  786SOL    HW1 3257   0.384   0.392   6.913
  786SOL    HW2 3258   0.479   0.396   0.014
  787SOL     OW 3259   2.822   1.258   6.041
  787SOL    HW1 3260   2.869   1.236   6.127
  787SOL    HW2 3261   2.882   1.312   5.983
  788SOL     OW 3262   1.614   2.859   4.656
  788SOL    HW1 3263   1.542   2.822   4.715
  788SOL    HW2 3264   1.574   2.928   4.595
  789SOL     OW 3265   6.180   4.162   2.232
  789SOL    HW1 3266   6.153   4.081   2.285
  789SOL    HW2 3267   6.254   4.138   2.170
  790SOL     OW 3268   2.360   1.538   3.860
  790SOL    HW1 3269   2.436   1.483   3.897
  790SOL    HW2 3270   2.395   1.606   3.796
  791SOL     OW 3271   4.172   0.110   3.992
  791SOL    HW1 3272   4.248   0.050   3.968
  791SOL    HW2 3273   4.104   0.059   4.045
  792SOL     OW 3274   6.189   0.150   1.394
  792SOL    HW1 3275   6.197   0.104   1.306
  792SOL    HW2 3276   6.128   0.098   1.454
  793SOL     OW 3277   4.431   6.372   1.883
  793SOL    HW1 3278   4.466   6.280   1.901
  793SOL    HW2 3279   4.495   6.440   1.917
  794SOL     OW 3280   2.399   4.970   5.379
  794SOL    HW1 3281   2.455   4.955   5.461
  794SOL    HW2 3282   2.302   4.966   5.404
  795SOL     OW 3283   2.955   5.026   5.655
  795SOL    HW1 3284   2.911   4.945   5.617
  795SOL    HW2 3285   3.050   5.030   5.623
  796SOL     OW 3286   0.199   2.410   6.211
  796SOL    HW1 3287   0.236   2.491   6.257
  796SOL    HW2 3288   0.212   2.330   6.270
  797SOL     OW 3289   5.014   2.445   2.396
  797SOL    HW1 3290   4.970   2.516   2.342
  797SOL    HW2 3291   4.945   2.391   2.444
  798SOL     OW 3292   4.588   0.686   1.329
  798SOL    HW1 3293   4.684   0.688   1.301
  798SOL    HW2 3294   4.538   0.619   1.273
  799SOL     OW 3295   6.811   1.837   3.532
  799SOL    HW1 3296   6.804   1.742   3.501
  799SOL    HW2 3297   6.719   1.876   3.541
  800SOL     OW 3298   5.446   0.658   2.387
  800SOL    HW1 3299   5.523   0.718   2.366
  800SOL    HW2 3300   5.377   0.709   2.438
  801SOL     OW 3301   1.148   2.769   2.918
  801SOL    HW1 3302   1.062   2.820   2.924
  801SOL    HW2 3303   1.214   2.808   2.982
  802SOL     OW 3304   4.996   1.366   0.591
  802SOL    HW1 3305   4.941   1.450   0.581
  802SOL    HW2 3306   5.087   1.381   0.554
  803SOL     OW 3307   5.907   6.072   4.746
  803SOL    HW1 3308   5.914   6.126   4.662
  803SOL    HW2 3309   5.898   5.975   4.723
  804SOL     OW 3310   6.539   6.346   0.097
  804SOL    HW1 3311   6.574   6.400   0.174
  804SOL    HW2 3312   6.545   6.400   0.013
  805SOL     OW 3313   4.550   2.995   5.689
  805SOL    HW1 3314   4.489   2.930   5.645
  805SOL    HW2 3315   4.519   3.010   5.784
  806SOL     OW 3316   3.725   1.759   5.143
  806SOL    HW1 3317   3.819   1.767   5.177
  806SOL    HW2 3318   3.718   1.680   5.082
  807SOL     OW 3319   1.384   0.929   3.599
  807SOL    HW1 3320   1.313   0.888   3.542
  807SOL    HW2 3321   1.460   0.959   3.542
  808SOL     OW 3322   4.932   3.122   6.194
  808SOL    HW1 3323   5.006   3.088   6.252
  808SOL    HW2 3324   4.906   3.214   6.224
  809SOL     OW 3325   1.512   4.824   0.879
  809SOL    HW1 3326   1.566   4.810   0.962
  809SOL    HW2 3327   1.462   4.910   0.886
  810SOL     OW 3328   4.600   3.141   0.720
  810SOL    HW1 3329   4.674   3.129   0.655
  810SOL    HW2 3330   4.571   3.237   0.721
  811SOL     OW 3331   4.415   5.909   3.779
  811SOL    HW1 3332   4.406   5.873   3.686
  811SOL    HW2 3333   4.419   6.009   3.776
  812SOL     OW 3334   6.626   0.838   1.284
  812SOL    HW1 3335   6.529   0.833   1.306
  812SOL    HW2 3336   6.673   0.760   1.325
  813SOL     OW 3337   4.263   6.189   3.184
  813SOL    HW1 3338   4.293   6.251   3.112
  813SOL    HW2 3339   4.164   6.183   3.185
  814SOL     OW 3340   5.209   6.842   2.927
  814SOL    HW1 3341   5.285   6.833   2.990
  814SOL    HW2 3342   5.173   6.935   2.931
  815SOL     OW 3343   6.057   2.605   2.182
  815SOL    HW1 3344   6.104   2.674   2.127
  815SOL    HW2 3345   6.034   2.526   2.125
  816SOL     OW 3346   6.698   6.762   6.963
  816SOL    HW1 3347   6.689   6.732   6.868
  816SOL    HW2 3348   6.781   6.724   7.002
  817SOL     OW 3349   2.130   4.475   2.426
  817SOL    HW1 3350   2.182   4.464   2.341
  817SOL    HW2 3351   2.065   4.550   2.415
  818SOL     OW 3352   6.359   3.236   0.163
  818SOL    HW1 3353   6.270   3.278   0.179
  818SOL    HW2 3354   6.364   3.149   0.211
  819SOL     OW 3355   6.286   2.981   4.746
  819SOL    HW1 3356   6.267   3.073   4.778
  819SOL    HW2 3357   6.274   2.976   4.647
  820SOL     OW 3358   1.348   2.856   5.342
  820SOL    HW1 3359   1.332   2.757   5.346
  820SOL    HW2 3360   1.368   2.891   5.433
  821SOL     OW 3361   2.440   4.840   0.751
  821SOL    HW1 3362   2.481   4.870   0.665
  821SOL    HW2 3363   2.424   4.919   0.810
  822SOL     OW 3364   0.904   4.939   4.837
  822SOL    HW1 3365   0.931   4.851   4.800
  822SOL    HW2 3366   0.952   5.012   4.789
  823SOL     OW 3367   4.858   4.361   6.673
  823SOL    HW1 3368   4.915   4.428   6.721
  823SOL    HW2 3369   4.820   4.296   6.739
  824SOL     OW 3370   4.763   1.216   4.957
  824SOL    HW1 3371   4.742   1.238   5.052
  824SOL    HW2 3372   4.682   1.230   4.900
  825SOL     OW 3373   2.245   2.885   2.155
  825SOL    HW1 3374   2.248   2.967   2.097
  825SOL    HW2 3375   2.247   2.912   2.251
  826SOL     OW 3376   6.070   4.036   0.733
  826SOL    HW1 3377   5.977   4.003   0.747
  826SOL    HW2 3378   6.117   4.042   0.821
  827SOL     OW 3379   3.414   5.555   5.987
  827SOL    HW1 3380   3.417   5.646   5.946
  827SOL    HW2 3381   3.322   5.517   5.976
  828SOL     OW 3382   5.846   0.774   5.071
  828SOL    HW1 3383   5.777   0.713   5.112
  828SOL    HW2 3384   5.834   0.867   5.106
  829SOL     OW 3385   3.028   3.464   3.990
  829SOL    HW1 3386   3.033   3.555   3.948
  829SOL    HW2 3387   3.063   3.396   3.926
  830SOL     OW 3388   5.443   4.648   5.626
  830SOL    HW1 3389   5.394   4.596   5.557
  830SOL    HW2 3390   5.473   4.586   5.699
  831SOL     OW 3391   6.975   6.559   4.397
  831SOL    HW1 3392   6.890   6.611   4.389
  831SOL    HW2 3393   0.019   6.622   4.419
  832SOL     OW 3394   2.200   1.227   0.343
  832SOL    HW1 3395   2.185   1.217   0.244
  832SOL    HW2 3396   2.272   1.164   0.372
  833SOL     OW 3397   6.601   5.958   6.120
  833SOL    HW1 3398   6.580   6.053   6.144
  833SOL    HW2 3399   6.694   5.953   6.084
  834SOL     OW 3400   3.817   3.584   2.939
  834SOL    HW1 3401   3.785   3.592   2.845
  834SOL    HW2 3402   3.914   3.557   2.938
  835SOL     OW 3403   4.004   6.840   3.887
  835SOL    HW1 3404   4.012   6.797   3.797
  835SOL    HW2 3405   3.935   6.792   3.941
  836SOL     OW 3406   3.710   6.569   6.842
  836SOL    HW1 3407   3.667   6.615   6.764
  836SOL    HW2 3408   3.664   6.482   6.859
  837SOL     OW 3409   5.232   0.800   0.147
  837SOL    HW1 3410   5.271   0.887   0.177
  837SOL    HW2 3411   5.305   0.732   0.140
  838SOL     OW 3412   0.612   0.039   5.083
  838SOL    HW1 3413   0.533   7.011   5.094
  838SOL    HW2 3414   0.686   7.020   5.040
  839SOL     OW 3415   2.596   1.714   3.246
  839SOL    HW1 3416   2.626   1.772   3.322
  839SOL    HW2 3417   2.541   1.639   3.283
  840SOL     OW 3418   0.393   1.124   6.188
  840SOL    HW1 3419   0.356   1.165   6.271
  840SOL    HW2 3420   0.374   1.183   6.110
  841SOL     OW 3421   6.096   4.026   0.107
  841SOL    HW1 3422   6.070   4.071   0.022
  841SOL    HW2 3423   6.185   4.061   0.138
  842SOL     OW 3424   4.197   5.543   3.595
  842SOL    HW1 3425   4.099   5.521   3.600
  842SOL    HW2 3426   4.211   5.639   3.617
  843SOL     OW 3427   5.958   2.483   0.265
  843SOL    HW1 3428   5.913   2.440   0.186
  843SOL    HW2 3429   5.943   2.427   0.346
  844SOL     OW 3430   4.816   6.218   0.644
  844SOL    HW1 3431   4.896   6.228   0.703
  844SOL    HW2 3432   4.744   6.171   0.694
  845SOL     OW 3433   6.373   2.839   5.283
  845SOL    HW1 3434   6.395   2.752   5.238
  845SOL    HW2 3435   6.357   2.822   5.381
  846SOL     OW 3436   6.056   1.501   6.858
  846SOL    HW1 3437   5.976   1.442   6.853
  846SOL    HW2 3438   6.034   1.583   6.910
  847SOL     OW 3439   6.138   3.466   1.024
  847SOL    HW1 3440   6.064   3.408   0.991
  847SOL    HW2 3441   6.226   3.432   0.991
  848SOL     OW 3442   6.367   0.734   6.298
  848SOL    HW1 3443   6.271   0.706   6.300
  848SOL    HW2 3444   6.377   0.819   6.350
  849SOL     OW 3445   0.090   5.558   5.006
  849SOL    HW1 3446   0.060   5.650   5.029
  849SOL    HW2 3447   0.188   5.558   4.986
  850SOL     OW 3448   4.442   0.269   3.559
  850SOL    HW1 3449   4.440   0.235   3.465
  850SOL    HW2 3450   4.528   0.318   3.575
  851SOL     OW 3451   0.468   1.511   6.932
  851SOL    HW1 3452   0.453   1.414   6.911
  851SOL    HW2 3453   0.504   1.519   7.025
  852SOL     OW 3454   2.174   2.491   6.684
  852SOL    HW1 3455   2.260   2.470   6.639
  852SOL    HW2 3456   2.100   2.439   6.641
  853SOL     OW 3457   0.739   3.318   2.921
  853SOL    HW1 3458   0.787   3.240   2.882
  853SOL    HW2 3459   0.805   3.379   2.965
  854SOL     OW 3460   5.319   6.808   2.671
  854SOL    HW1 3461   5.243   6.771   2.617
  854SOL    HW2 3462   5.288   6.821   2.766
  855SOL     OW 3463   5.750   0.462   1.754
  855SOL    HW1 3464   5.711   0.426   1.839
  855SOL    HW2 3465   5.845   0.432   1.745
  856SOL     OW 3466   1.649   0.741   5.141
  856SOL    HW1 3467   1.558   0.774   5.166
  856SOL    HW2 3468   1.712   0.757   5.217
  857SOL     OW 3469   5.749   4.540   1.039
  857SOL    HW1 3470   5.790   4.453   1.066
  857SOL    HW2 3471   5.692   4.575   1.113
  858SOL     OW 3472   2.793   4.891   1.901
  858SOL    HW1 3473   2.699   4.900   1.871
  858SOL    HW2 3474   2.807   4.802   1.944
  859SOL     OW 3475   5.484   4.990   6.850
  859SOL    HW1 3476   5.422   5.040   6.911
  859SOL    HW2 3477   5.441   4.981   6.760
  860SOL     OW 3478   3.729   4.066   6.816
  860SOL    HW1 3479   3.730   3.972   6.849
  860SOL    HW2 3480   3.663   4.076   6.742
  861SOL     OW 3481   2.962   6.647   5.157
  861SOL    HW1 3482   2.911   6.604   5.083
  861SOL    HW2 3483   2.996   6.736   5.127
  862SOL     OW 3484   6.081   4.532   5.086
  862SOL    HW1 3485   6.020   4.453   5.079
  862SOL    HW2 3486   6.173   4.500   5.112
  863SOL     OW 3487   0.861   0.531   0.830
  863SOL    HW1 3488   0.840   0.438   0.858
  863SOL    HW2 3489   0.780   0.589   0.840
  864SOL     OW 3490   5.051   4.529   3.257
  864SOL    HW1 3491   4.988   4.458   3.290
  864SOL    HW2 3492   5.120   4.547   3.327
  865SOL     OW 3493   1.201   6.919   4.144
  865SOL    HW1 3494   1.123   6.957   4.193
  865SOL    HW2 3495   1.275   6.987   4.141
  866SOL     OW 3496   2.715   1.409   2.455
  866SOL    HW1 3497   2.659   1.328   2.472
  866SOL    HW2 3498   2.767   1.396   2.370
  867SOL     OW 3499   3.108   2.943   0.355
  867SOL    HW1 3500   3.141   2.885   0.280
  867SOL    HW2 3501   3.037   2.894   0.405
  868SOL     OW 3502   5.915   0.234   2.178
  868SOL    HW1 3503   5.976   0.155   2.187
  868SOL    HW2 3504   5.820   0.202   2.174
  869SOL     OW 3505   6.572   5.722   2.550
  869SOL    HW1 3506   6.569   5.651   2.621
  869SOL    HW2 3507   6.632   5.796   2.580
  870SOL     OW 3508   6.982   3.126   1.959
  870SOL    HW1 3509   6.999   3.171   1.871
  870SOL    HW2 3510   6.922   3.183   2.015
  871SOL     OW 3511   6.842   2.675   2.213
  871SOL    HW1 3512   6.917   2.687   2.278
  871SOL    HW2 3513   6.756   2.667   2.263
  872SOL     OW 3514   6.475   2.554   4.494
  872SOL    HW1 3515   6.377   2.558   4.473
  872SOL    HW2 3516   6.515   2.645   4.483
  873SOL     OW 3517   3.792   0.078   3.127
  873SOL    HW1 3518   3.740   0.139   3.066
  873SOL    HW2 3519   3.771   0.099   3.222
  874SOL     OW 3520   1.837   4.557   5.254
  874SOL    HW1 3521   1.765   4.530   5.190
  874SOL    HW2 3522   1.909   4.487   5.254
  875SOL     OW 3523   5.446   4.566   0.892
  875SOL    HW1 3524   5.492   4.508   0.958
  875SOL    HW2 3525   5.435   4.658   0.930
  876SOL     OW 3526   6.544   3.520   2.636
  876SOL    HW1 3527   6.497   3.435   2.612
  876SOL    HW2 3528   6.493   3.567   2.709
  877SOL     OW 3529   4.882   4.779   0.240
  877SOL    HW1 3530   4.793   4.811   0.208
  877SOL    HW2 3531   4.874   4.746   0.334
  878SOL     OW 3532   3.491   5.035   6.706
  878SOL    HW1 3533   3.502   4.949   6.756
  878SOL    HW2 3534   3.548   5.033   6.624
  879SOL     OW 3535   4.698   1.983   2.549
  879SOL    HW1 3536   4.691   2.049   2.624
  879SOL    HW2 3537   4.606   1.955   2.521
  880SOL     OW 3538   3.798   4.402   0.101
  880SOL    HW1 3539   3.888   4.382   0.140
  880SOL    HW2 3540   3.790   4.360   0.011
  881SOL     OW 3541   4.295   4.745   4.621
  881SOL    HW1 3542   4.306   4.774   4.716
  881SOL    HW2 3543   4.353   4.665   4.604
  882SOL     OW 3544   1.259   0.346   4.419
  882SOL    HW1 3545   1.194   0.348   4.343
  882SOL    HW2 3546   1.262   0.435   4.464
  883SOL     OW 3547   3.740   5.006   5.985
  883SOL    HW1 3548   3.695   5.091   5.957
  883SOL    HW2 3549   3.685   4.961   6.056
  884SOL     OW 3550   6.392   3.633   1.624
  884SOL    HW1 3551   6.334   3.579   1.684
  884SOL    HW2 3552   6.347   3.718   1.600
  885SOL     OW 3553   5.345   6.392   0.298
  885SOL    HW1 3554   5.343   6.469   0.361
  885SOL    HW2 3555   5.275   6.325   0.324
  886SOL     OW 3556   3.926   0.892   6.743
  886SOL    HW1 3557   3.947   0.871   6.838
  886SOL    HW2 3558   3.837   0.854   6.719
  887SOL     OW 3559   4.229   0.203   6.605
  887SOL    HW1 3560   4.215   0.285   6.661
  887SOL    HW2 3561   4.163   0.202   6.530
  888SOL     OW 3562   0.362   6.573   3.695
  888SOL    HW1 3563   0.348   6.656   3.747
  888SOL    HW2 3564   0.306   6.499   3.733
  889SOL     OW 3565   0.084   6.147   5.364
  889SOL    HW1 3566   0.172   6.100   5.362
  889SOL    HW2 3567   0.010   6.080   5.371
  890SOL     OW 3568   2.692   4.689   2.246
  890SOL    HW1 3569   2.685   4.787   2.229
  890SOL    HW2 3570   2.753   4.648   2.179
  891SOL     OW 3571   5.881   3.244   1.272
  891SOL    HW1 3572   5.932   3.158   1.274
  891SOL    HW2 3573   5.784   3.227   1.289
  892SOL     OW 3574   2.754   4.110   0.730
  892SOL    HW1 3575   2.842   4.067   0.709
  892SOL    HW2 3576   2.683   4.039   0.732
  893SOL     OW 3577   1.534   0.559   0.174
  893SOL    HW1 3578   1.558   0.507   0.092
  893SOL    HW2 3579   1.510   0.496   0.247
  894SOL     OW 3580   1.064   5.223   3.953
  894SOL    HW1 3581   1.067   5.197   4.050
  894SOL    HW2 3582   1.122   5.161   3.900
  895SOL     OW 3583   2.019   6.987   4.709
  895SOL    HW1 3584   2.017   6.943   4.799
  895SOL    HW2 3585   2.049   6.922   4.640
  896SOL     OW 3586   6.026   5.963   3.813
  896SOL    HW1 3587   6.038   5.973   3.912
  896SOL    HW2 3588   6.005   6.052   3.773
  897SOL     OW 3589   5.251   2.410   6.933
  897SOL    HW1 3590   5.270   2.332   6.873
  897SOL    HW2 3591   5.332   2.468   6.939
  898SOL     OW 3592   4.700   6.420   3.685
  898SOL    HW1 3593   4.711   6.395   3.589
  898SOL    HW2 3594   4.709   6.338   3.742
  899SOL     OW 3595   0.464   4.862   6.494
  899SOL    HW1 3596   0.427   4.955   6.492
  899SOL    HW2 3597   0.494   4.840   6.587
  900SOL     OW 3598   0.536   5.902   2.969
  900SOL    HW1 3599   0.591   5.870   3.046
  900SOL    HW2 3600   0.449   5.937   3.002
  901SOL     OW 3601   6.736   1.220   4.287
  901SOL    HW1 3602   6.835   1.216   4.294
  901SOL    HW2 3603   6.708   1.312   4.258
  902SOL     OW 3604   6.859   0.359   6.256
  902SOL    HW1 3605   6.799   0.410   6.194
  902SOL    HW2 3606   6.907   0.287   6.204
  903SOL     OW 3607   0.121   4.183   0.844
  903SOL    HW1 3608   0.186   4.117   0.807
  903SOL    HW2 3609   0.154   4.215   0.933
  904SOL     OW 3610   1.552   1.047   3.405
  904SOL    HW1 3611   1.510   1.116   3.347
  904SOL    HW2 3612   1.649   1.068   3.416
  905SOL     OW 3613   5.159   2.347   5.893
  905SOL    HW1 3614   5.202   2.306   5.813
  905SOL    HW2 3615   5.229   2.388   5.951
  906SOL     OW 3616   0.334   4.380   6.258
  906SOL    HW1 3617   0.340   4.470   6.301
  906SOL    HW2 3618   0.238   4.352   6.249
  907SOL     OW 3619   6.155   2.489   2.633
  907SOL    HW1 3620   6.186   2.535   2.716
  907SOL    HW2 3621   6.075   2.433   2.652
  908SOL     OW 3622   1.973   6.921   4.186
  908SOL    HW1 3623   2.062   6.900   4.146
  908SOL    HW2 3624   1.965   6.877   4.275
  909SOL     OW 3625   2.786   0.640   0.797
  909SOL    HW1 3626   2.794   0.600   0.706
  909SOL    HW2 3627   2.821   0.734   0.795
  910SOL     OW 3628   1.625   0.777   6.868
  910SOL    HW1 3629   1.546   0.796   6.926
  910SOL    HW2 3630   1.602   0.799   6.773
  911SOL     OW 3631   0.850   4.645   1.733
  911SOL    HW1 3632   0.866   4.562   1.680
  911SOL    HW2 3633   0.791   4.623   1.811
  912SOL     OW 3634   0.187   1.759   5.665
  912SOL    HW1 3635   0.237   1.839   5.699
  912SOL    HW2 3636   0.252   1.691   5.631
  913SOL     OW 3637   2.523   0.791   3.058
  913SOL    HW1 3638   2.502   0.767   3.153
  913SOL    HW2 3639   2.618   0.823   3.052
  914SOL     OW 3640   2.801   5.964   4.085
  914SOL    HW1 3641   2.768   6.029   4.016
  914SOL    HW2 3642   2.901   5.972   4.092
  915SOL     OW 3643   0.647   3.030   0.161
  915SOL    HW1 3644   0.666   2.939   0.197
  915SOL    HW2 3645   0.711   3.051   0.087
  916SOL     OW 3646   2.394   2.236   2.784
  916SOL    HW1 3647   2.452   2.315   2.765
  916SOL    HW2 3648   2.398   2.172   2.707
  917SOL     OW 3649   3.654   0.950   1.080
  917SOL    HW1 3650   3.681   1.043   1.106
  917SOL    HW2 3651   3.637   0.945   0.982
  918SOL     OW 3652   2.575   5.794   6.010
  918SOL    HW1 3653   2.556   5.710   5.959
  918SOL    HW2 3654   2.618   5.771   6.097
  919SOL     OW 3655   1.691   5.407   1.615
  919SOL    HW1 3656   1.709   5.381   1.710
  919SOL    HW2 3657   1.726   5.500   1.599
  920SOL     OW 3658   2.434   0.623   2.827
  920SOL    HW1 3659   2.464   0.693   2.892
  920SOL    HW2 3660   2.497   0.545   2.830
  921SOL     OW 3661   5.666   4.837   4.654
  921SOL    HW1 3662   5.639   4.917   4.602
  921SOL    HW2 3663   5.642   4.850   4.751
  922SOL     OW 3664   2.702   3.227   6.932
  922SOL    HW1 3665   2.607   3.254   6.944
  922SOL    HW2 3666   2.755   3.253   7.012
  923SOL     OW 3667   3.036   6.173   6.923
  923SOL    HW1 3668   2.993   6.251   6.878
  923SOL    HW2 3669   2.994   6.088   6.889
  924SOL     OW 3670   5.829   3.666   3.124
  924SOL    HW1 3671   5.844   3.572   3.155
  924SOL    HW2 3672   5.806   3.666   3.026
  925SOL     OW 3673   0.195   2.165   5.447
  925SOL    HW1 3674   0.266   2.140   5.514
  925SOL    HW2 3675   0.116   2.201   5.495
  926SOL     OW 3676   5.202   6.428   0.616
  926SOL    HW1 3677   5.150   6.379   0.547
  926SOL    HW2 3678   5.265   6.492   0.571
  927SOL     OW 3679   4.418   4.536   4.488
  927SOL    HW1 3680   4.495   4.525   4.551
  927SOL    HW2 3681   4.448   4.520   4.394
  928SOL     OW 3682   1.711   0.156   0.539
  928SOL    HW1 3683   1.780   0.215   0.499
  928SOL    HW2 3684   1.755   0.076   0.580
  929SOL     OW 3685   0.492   2.726   2.435
  929SOL    HW1 3686   0.588   2.752   2.428
  929SOL    HW2 3687   0.445   2.788   2.497
  930SOL     OW 3688   5.237   5.038   4.569
  930SOL    HW1 3689   5.259   4.949   4.528
  930SOL    HW2 3690   5.212   5.102   4.496
  931SOL     OW 3691   0.801   2.443   3.020
  931SOL    HW1 3692   0.767   2.395   2.939
  931SOL    HW2 3693   0.893   2.411   3.042
  932SOL     OW 3694   4.437   5.860   1.036
  932SOL    HW1 3695   4.354   5.835   1.085
  932SOL    HW2 3696   4.422   5.945   0.985
  933SOL     OW 3697   1.436   5.142   2.563
  933SOL    HW1 3698   1.494   5.196   2.502
  933SOL    HW2 3699   1.352   5.193   2.581
  934SOL     OW 3700   3.429   0.868   5.383
  934SOL    HW1 3701   3.473   0.907   5.464
  934SOL    HW2 3702   3.445   0.928   5.305
  935SOL     OW 3703   4.220   3.293   6.026
  935SOL    HW1 3704   4.302   3.349   6.040
  935SOL    HW2 3705   4.238   3.224   5.956
  936SOL     OW 3706   0.372   0.318   1.137
  936SOL    HW1 3707   0.361   0.416   1.119
  936SOL    HW2 3708   0.302   0.267   1.088
  937SOL     OW 3709   4.486   1.837   4.196
  937SOL    HW1 3710   4.487   1.763   4.264
  937SOL    HW2 3711   4.415   1.904   4.220
  938SOL     OW 3712   6.987   3.119   5.976
  938SOL    HW1 3713   6.953   3.150   5.887
  938SOL    HW2 3714   0.026   3.050   5.963
  939SOL     OW 3715   5.193   1.197   6.128
  939SOL    HW1 3716   5.268   1.212   6.193
  939SOL    HW2 3717   5.110   1.170   6.178
  940SOL     OW 3718   6.819   0.639   3.023
  940SOL    HW1 3719   6.875   0.556   3.030
  940SOL    HW2 3720   6.801   0.674   3.115
  941SOL     OW 3721   5.726   1.362   3.694
  941SOL    HW1 3722   5.670   1.319   3.765
  941SOL    HW2 3723   5.686   1.450   3.668
  942SOL     OW 3724   5.340   6.802   5.461
  942SOL    HW1 3725   5.402   6.777   5.386
  942SOL    HW2 3726   5.257   6.841   5.423
  943SOL     OW 3727   6.186   3.054   2.317
  943SOL    HW1 3728   6.207   2.969   2.365
  943SOL    HW2 3729   6.256   3.072   2.248
  944SOL     OW 3730   5.731   3.261   4.862
  944SOL    HW1 3731   5.651   3.238   4.807
  944SOL    HW2 3732   5.813   3.228   4.817
  945SOL     OW 3733   4.796   4.522   4.338
  945SOL    HW1 3734   4.720   4.499   4.277
  945SOL    HW2 3735   4.870   4.563   4.285
  946SOL     OW 3736   5.742   3.139   6.014
  946SOL    HW1 3737   5.773   3.081   5.938
  946SOL    HW2 3738   5.663   3.193   5.985
  947SOL     OW 3739   3.061   2.595   6.685
  947SOL    HW1 3740   3.155   2.591   6.718
  947SOL    HW2 3741   3.014   2.672   6.727
  948SOL     OW 3742   3.536   1.445   0.863
  948SOL    HW1 3743   3.601   1.466   0.935
  948SOL    HW2 3744   3.492   1.357   0.882
  949SOL     OW 3745   6.156   5.422   6.786
  949SOL    HW1 3746   6.235   5.413   6.847
  949SOL    HW2 3747   6.093   5.346   6.802
  950SOL     OW 3748   4.125   5.083   1.344
  950SOL    HW1 3749   4.141   5.014   1.274
  950SOL    HW2 3750   4.126   5.039   1.434
  951SOL     OW 3751   0.730   0.837   1.497
  951SOL    HW1 3752   0.690   0.832   1.588
  951SOL    HW2 3753   0.810   0.777   1.493
  952SOL     OW 3754   5.179   0.895   2.963
  952SOL    HW1 3755   5.100   0.904   3.024
  952SOL    HW2 3756   5.160   0.943   2.877
  953SOL     OW 3757   4.476   5.885   5.406
  953SOL    HW1 3758   4.546   5.833   5.357
  953SOL    HW2 3759   4.492   5.983   5.393
  954SOL     OW 3760   6.434   6.751   1.242
  954SOL    HW1 3761   6.440   6.800   1.155
  954SOL    HW2 3762   6.447   6.653   1.226
  955SOL     OW 3763   0.204   5.374   3.475
  955SOL    HW1 3764   0.247   5.385   3.565
  955SOL    HW2 3765   0.206   5.278   3.449
  956SOL     OW 3766   1.266   1.255   1.187
  956SOL    HW1 3767   1.344   1.223   1.239
  956SOL    HW2 3768   1.280   1.351   1.160
  957SOL     OW 3769   1.411   4.807   5.571
  957SOL    HW1 3770   1.351   4.744   5.522
  957SOL    HW2 3771   1.505   4.773   5.567
  958SOL     OW 3772   5.487   1.967   1.196
  958SOL    HW1 3773   5.491   2.049   1.138
  958SOL    HW2 3774   5.525   1.889   1.146
  959SOL     OW 3775   3.063   4.833   2.929
  959SOL    HW1 3776   2.977   4.784   2.917
  959SOL    HW2 3777   3.118   4.825   2.846
  960SOL     OW 3778   2.196   6.076   4.862
  960SOL    HW1 3779   2.261   6.044   4.793
  960SOL    HW2 3780   2.107   6.091   4.818
  961SOL     OW 3781   3.956   6.807   2.162
  961SOL    HW1 3782   3.960   6.809   2.062
  961SOL    HW2 3783   3.937   6.899   2.196
  962SOL     OW 3784   1.491   0.720   3.093
  962SOL    HW1 3785   1.554   0.797   3.105
  962SOL    HW2 3786   1.469   0.681   3.183
  963SOL     OW 3787   6.096   0.763   1.487
  963SOL    HW1 3788   6.128   0.690   1.548
  963SOL    HW2 3789   6.098   0.730   1.393
  964SOL     OW 3790   5.622   3.667   1.434
  964SOL    HW1 3791   5.533   3.711   1.440
  964SOL    HW2 3792   5.655   3.672   1.339
  965SOL     OW 3793   7.013   1.785   0.463
  965SOL    HW1 3794   6.927   1.748   0.429
  965SOL    HW2 3795   7.004   1.811   0.559
  966SOL     OW 3796   6.591   1.743   2.777
  966SOL    HW1 3797   6.677   1.693   2.768
  966SOL    HW2 3798   6.608   1.841   2.773
  967SOL     OW 3799   1.385   5.586   0.230
  967SOL    HW1 3800   1.311   5.640   0.270
  967SOL    HW2 3801   1.410   5.624   0.141
  968SOL     OW 3802   4.703   2.679   2.352
  968SOL    HW1 3803   4.711   2.760   2.294
  968SOL    HW2 3804   4.715   2.705   2.447
  969SOL     OW 3805   4.163   6.739   6.271
  969SOL    HW1 3806   4.241   6.683   6.245
  969SOL    HW2 3807   4.082   6.711   6.218
  970SOL     OW 3808   4.644   1.707   5.335
  970SOL    HW1 3809   4.559   1.725   5.285
  970SOL    HW2 3810   4.628   1.631   5.398
  971SOL     OW 3811   6.975   1.485   2.279
  971SOL    HW1 3812   6.969   1.477   2.378
  971SOL    HW2 3813   0.009   1.419   2.244
  972SOL     OW 3814   6.554   5.123   0.725
  972SOL    HW1 3815   6.604   5.122   0.812
  972SOL    HW2 3816   6.492   5.201   0.722
  973SOL     OW 3817   6.837   4.442   6.176
  973SOL    HW1 3818   6.808   4.390   6.096
  973SOL    HW2 3819   6.762   4.449   6.241
  974SOL     OW 3820   3.203   0.395   2.993
  974SOL    HW1 3821   3.208   0.494   2.979
  974SOL    HW2 3822   3.205   0.376   3.091
  975SOL     OW 3823   2.956   6.057   5.645
  975SOL    HW1 3824   3.025   6.005   5.694
  975SOL    HW2 3825   2.942   6.145   5.691
  976SOL     OW 3826   6.839   2.885   2.884
  976SOL    HW1 3827   6.838   2.864   2.786
  976SOL    HW2 3828   6.875   2.806   2.935
  977SOL     OW 3829   1.420   1.270   3.985
  977SOL    HW1 3830   1.428   1.203   4.058
  977SOL    HW2 3831   1.512   1.298   3.955
  978SOL     OW 3832   5.918   4.148   4.615
  978SOL    HW1 3833   5.908   4.066   4.558
  978SOL    HW2 3834   5.911   4.229   4.558
  979SOL     OW 3835   6.123   1.367   2.978
  979SOL    HW1 3836   6.072   1.398   3.059
  979SOL    HW2 3837   6.068   1.382   2.896
  980SOL     OW 3838   5.466   2.386   3.798
  980SOL    HW1 3839   5.437   2.482   3.800
  980SOL    HW2 3840   5.419   2.338   3.724
  981SOL     OW 3841   1.062   1.810   4.567
  981SOL    HW1 3842   1.141   1.868   4.548
  981SOL    HW2 3843   1.087   1.740   4.634
  982SOL     OW 3844   0.843   2.600   1.581
  982SOL    HW1 3845   0.782   2.530   1.618
  982SOL    HW2 3846   0.900   2.559   1.510
  983SOL     OW 3847   6.122   2.037   3.265
  983SOL    HW1 3848   6.210   1.989   3.261
  983SOL    HW2 3849   6.137   2.132   3.291
  984SOL     OW 3850   4.654   0.979   5.542
  984SOL    HW1 3851   4.682   1.056   5.601
  984SOL    HW2 3852   4.566   1.002   5.499
  985SOL     OW 3853   3.809   5.632   0.827
  985SOL    HW1 3854   3.832   5.728   0.810
  985SOL    HW2 3855   3.711   5.619   0.814
  986SOL     OW 3856   5.515   5.384   6.399
  986SOL    HW1 3857   5.582   5.363   6.328
  986SOL    HW2 3858   5.557   5.442   6.469
  987SOL     OW 3859   2.534   6.671   1.502
  987SOL    HW1 3860   2.546   6.675   1.602
  987SOL    HW2 3861   2.502   6.760   1.470
  988SOL     OW 3862   3.853   2.763   0.674
  988SOL    HW1 3863   3.820   2.696   0.608
  988SOL    HW2 3864   3.944   2.736   0.706
  989SOL     OW 3865   0.482   0.259   5.999
  989SOL    HW1 3866   0.537   0.222   5.924
  989SOL    HW2 3867   0.539   0.317   6.057
  990SOL     OW 3868   4.921   0.346   4.148
  990SOL    HW1 3869   4.867   0.295   4.081
  990SOL    HW2 3870   5.013   0.308   4.153
  991SOL     OW 3871   1.482   2.123   4.686
  991SOL    HW1 3872   1.417   2.142   4.759
  991SOL    HW2 3873   1.572   2.105   4.726
  992SOL     OW 3874   0.188   3.067   6.439
  992SOL    HW1 3875   0.111   3.011   6.408
  992SOL    HW2 3876   0.260   3.066   6.369
  993SOL     OW 3877   3.097   5.241   2.757
  993SOL    HW1 3878   3.033   5.305   2.799
  993SOL    HW2 3879   3.047   5.164   2.718
  994SOL     OW 3880   3.645   4.054   2.414
  994SOL    HW1 3881   3.743   4.055   2.434
  994SOL    HW2 3882   3.630   4.080   2.319
  995SOL     OW 3883   2.040   3.050   6.237
  995SOL    HW1 3884   1.983   3.121   6.280
  995SOL    HW2 3885   2.107   3.016   6.303
  996SOL     OW 3886   1.932   3.358   3.462
  996SOL    HW1 3887   1.876   3.355   3.545
  996SOL    HW2 3888   1.900   3.432   3.403
  997SOL     OW 3889   0.456   0.948   1.146
  997SOL    HW1 3890   0.526   1.017   1.126
  997SOL    HW2 3891   0.405   0.928   1.063
  998SOL     OW 3892   3.828   6.617   2.563
  998SOL    HW1 3893   3.748   6.575   2.519
  998SOL    HW2 3894   3.910   6.567   2.537
  999SOL     OW 3895   5.640   5.671   1.166
  999SOL    HW1 3896   5.645   5.627   1.077
  999SOL    HW2 3897   5.588   5.614   1.229
 1000SOL     OW 3898   2.064   1.917   2.862
 1000SOL    HW1 3899   2.049   2.012   2.835
 1000SOL    HW2 3900   2.069   1.859   2.781
 1001SOL     OW 3901   4.697   6.654   0.016
 1001SOL    HW1 3902   4.766   6.615   6.988
 1001SOL    HW2 3903   4.628   6.701   6.993
 1002SOL     OW 3904   5.656   1.609   6.569
 1002SOL    HW1 3905   5.697   1.656   6.647
 1002SOL    HW2 3906   5.614   1.524   6.601
 1003SOL     OW 3907   2.286   6.517   2.803
 1003SOL    HW1 3908   2.285   6.453   2.726
 1003SOL    HW2 3909   2.369   6.502   2.857
 1004SOL     OW 3910   6.937   0.004   6.745
 1004SOL    HW1 3911   6.964   0.042   6.833
 1004SOL    HW2 3912   6.873   0.066   6.700
 1005SOL     OW 3913   0.195   0.315   2.356
 1005SOL    HW1 3914   0.115   0.255   2.352
 1005SOL    HW2 3915   0.278   0.262   2.337
 1006SOL     OW 3916   2.317   5.315   1.667
 1006SOL    HW1 3917   2.353   5.242   1.609
 1006SOL    HW2 3918   2.265   5.274   1.743
 1007SOL     OW 3919   6.590   0.937   3.740
 1007SOL    HW1 3920   6.585   0.909   3.644
 1007SOL    HW2 3921   6.530   1.016   3.754
 1008SOL     OW 3922   0.681   2.614   3.817
 1008SOL    HW1 3923   0.670   2.636   3.721
 1008SOL    HW2 3924   0.776   2.626   3.844
 1009SOL     OW 3925   6.631   5.650   3.801
 1009SOL    HW1 3926   6.555   5.597   3.839
 1009SOL    HW2 3927   6.710   5.590   3.787
 1010SOL     OW 3928   4.055   2.070   0.026
 1010SOL    HW1 3929   3.963   2.040   7.030
 1010SOL    HW2 3930   4.070   2.049   0.122
 1011SOL     OW 3931   3.051   5.739   4.353
 1011SOL    HW1 3932   3.025   5.658   4.404
 1011SOL    HW2 3933   3.045   5.720   4.255
 1012SOL     OW 3934   6.644   5.285   0.954
 1012SOL    HW1 3935   6.615   5.380   0.961
 1012SOL    HW2 3936   6.727   5.279   0.899
 1013SOL     OW 3937   0.631   1.015   6.569
 1013SOL    HW1 3938   0.648   1.040   6.474
 1013SOL    HW2 3939   0.718   1.010   6.618
 1014SOL     OW 3940   4.964   5.488   6.283
 1014SOL    HW1 3941   4.963   5.400   6.235
 1014SOL    HW2 3942   5.044   5.540   6.256
 1015SOL     OW 3943   4.184   6.855   4.888
 1015SOL    HW1 3944   4.239   6.778   4.855
 1015SOL    HW2 3945   4.108   6.870   4.826
 1016SOL     OW 3946   2.859   2.955   1.360
 1016SOL    HW1 3947   2.919   2.879   1.335
 1016SOL    HW2 3948   2.775   2.951   1.305
 1017SOL     OW 3949   5.100   2.460   0.730
 1017SOL    HW1 3950   5.069   2.413   0.813
 1017SOL    HW2 3951   5.154   2.540   0.755
 1018SOL     OW 3952   1.691   3.108   4.190
 1018SOL    HW1 3953   1.769   3.064   4.234
 1018SOL    HW2 3954   1.623   3.038   4.167
 1019SOL     OW 3955   0.450   1.246   6.896
 1019SOL    HW1 3956   0.423   1.254   6.992
 1019SOL    HW2 3957   0.423   1.156   6.861
 1020SOL     OW 3958   1.708   0.248   0.917
 1020SOL    HW1 3959   1.803   0.224   0.934
 1020SOL    HW2 3960   1.679   0.210   0.829
 1021SOL     OW 3961   6.245   1.315   2.205
 1021SOL    HW1 3962   6.166   1.327   2.145
 1021SOL    HW2 3963   6.328   1.344   2.157
 1022SOL     OW 3964   4.289   4.365   6.107
 1022SOL    HW1 3965   4.389   4.362   6.117
 1022SOL    HW2 3966   4.248   4.391   6.194
 1023SOL     OW 3967   5.684   0.105   2.192
 1023SOL    HW1 3968   5.726   0.015   2.182
 1023SOL    HW2 3969   5.599   0.098   2.245
 1024SOL     OW 3970   6.671   2.246   4.124
 1024SOL    HW1 3971   6.636   2.319   4.066
 1024SOL    HW2 3972   6.755   2.277   4.170
 1025SOL     OW 3973   3.633   4.570   0.248
 1025SOL    HW1 3974   3.622   4.529   0.339
 1025SOL    HW2 3975   3.697   4.514   0.195
 1026SOL     OW 3976   1.643   1.437   0.744
 1026SOL    HW1 3977   1.626   1.428   0.842
 1026SOL    HW2 3978   1.699   1.361   0.713
 1027SOL     OW 3979   3.136   5.719   1.378
 1027SOL    HW1 3980   3.143   5.743   1.282
 1027SOL    HW2 3981   3.057   5.767   1.419
 1028SOL     OW 3982   2.381   6.100   0.403
 1028SOL    HW1 3983   2.412   6.041   0.477
 1028SOL    HW2 3984   2.460   6.126   0.347
 1029SOL     OW 3985   1.960   0.437   0.203
 1029SOL    HW1 3986   1.929   0.532   0.209
 1029SOL    HW2 3987   1.895   0.377   0.249
 1030SOL     OW 3988   3.599   2.980   4.445
 1030SOL    HW1 3989   3.650   2.966   4.531
 1030SOL    HW2 3990   3.548   3.066   4.451
 1031SOL     OW 3991   3.435   5.481   1.893
 1031SOL    HW1 3992   3.431   5.502   1.795
 1031SOL    HW2 3993   3.493   5.548   1.939
 1032SOL     OW 3994   2.178   1.439   5.589
 1032SOL    HW1 3995   2.219   1.361   5.638
 1032SOL    HW2 3996   2.250   1.504   5.564
 1033SOL     OW 3997   1.913   5.888   1.548
 1033SOL    HW1 3998   1.933   5.959   1.615
 1033SOL    HW2 3999   1.872   5.929   1.467
 1034SOL     OW 4000   2.049   6.154   4.043
 1034SOL    HW1 4001   2.125   6.113   3.994
 1034SOL    HW2 4002   2.085   6.217   4.113
 1035SOL     OW 4003   2.862   1.860   4.033
 1035SOL    HW1 4004   2.938   1.866   3.968
 1035SOL    HW2 4005   2.811   1.946   4.033
 1036SOL     OW 4006   3.950   1.145   0.818
 1036SOL    HW1 4007   3.952   1.163   0.916
 1036SOL    HW2 4008   4.023   1.081   0.795
 1037SOL     OW 4009   0.900   1.061   0.583
 1037SOL    HW1 4010   0.888   0.986   0.519
 1037SOL    HW2 4011   0.815   1.077   0.633
 1038SOL     OW 4012   0.828   1.420   5.732
 1038SOL    HW1 4013   0.902   1.478   5.767
 1038SOL    HW2 4014   0.866   1.351   5.671
 1039SOL     OW 4015   4.294   1.698   4.696
 1039SOL    HW1 4016   4.203   1.697   4.738
 1039SOL    HW2 4017   4.340   1.612   4.715
 1040SOL     OW 4018   5.673   3.462   3.396
 1040SOL    HW1 4019   5.583   3.493   3.428
 1040SOL    HW2 4020   5.666   3.430   3.302
 1041SOL     OW 4021   6.464   0.386   4.048
 1041SOL    HW1 4022   6.561   0.410   4.049
 1041SOL    HW2 4023   6.432   0.385   3.953
 1042SOL     OW 4024   4.677   4.854   2.064
 1042SOL    HW1 4025   4.706   4.820   2.154
 1042SOL    HW2 4026   4.577   4.860   2.061
 1043SOL     OW 4027   3.826   1.233   6.502
 1043SOL    HW1 4028   3.769   1.260   6.580
 1043SOL    HW2 4029   3.768   1.216   6.423
 1044SOL     OW 4030   3.405   2.287   1.220
 1044SOL    HW1 4031   3.476   2.274   1.290
 1044SOL    HW2 4032   3.318   2.307   1.265
 1045SOL     OW 4033   2.849   0.716   1.805
 1045SOL    HW1 4034   2.838   0.667   1.892
 1045SOL    HW2 4035   2.791   0.797   1.805
 1046SOL     OW 4036   2.526   6.491   7.029
 1046SOL    HW1 4037   2.442   6.444   0.024
 1046SOL    HW2 4038   2.554   6.553   0.071
 1047SOL     OW 4039   1.515   5.212   2.844
 1047SOL    HW1 4040   1.608   5.194   2.877
 1047SOL    HW2 4041   1.514   5.207   2.744
 1048SOL     OW 4042   5.327   5.312   5.348
 1048SOL    HW1 4043   5.250   5.283   5.290
 1048SOL    HW2 4044   5.318   5.270   5.438
 1049SOL     OW 4045   0.317   3.861   5.225
 1049SOL    HW1 4046   0.292   3.768   5.253
 1049SOL    HW2 4047   0.336   3.863   5.127
 1050SOL     OW 4048   3.954   6.725   0.396
 1050SOL    HW1 4049   4.019   6.786   0.350
 1050SOL    HW2 4050   3.861   6.752   0.374
 1051SOL     OW 4051   3.979   4.923   0.000
 1051SOL    HW1 4052   3.960   4.873   6.947
 1051SOL    HW2 4053   3.936   4.875   0.077
 1052SOL     OW 4054   3.945   0.569   4.698
 1052SOL    HW1 4055   3.938   0.608   4.790
 1052SOL    HW2 4056   3.947   0.642   4.631
 1053SOL     OW 4057   5.151   6.010   3.695
 1053SOL    HW1 4058   5.107   5.961   3.770
 1053SOL    HW2 4059   5.222   5.953   3.655
 1054SOL     OW 4060   2.908   4.637   5.684
 1054SOL    HW1 4061   2.874   4.552   5.642
 1054SOL    HW2 4062   3.007   4.643   5.670
 1055SOL     OW 4063   5.445   5.304   4.632
 1055SOL    HW1 4064   5.405   5.346   4.550
 1055SOL    HW2 4065   5.458   5.375   4.701
 1056SOL     OW 4066   1.485   6.533   5.238
 1056SOL    HW1 4067   1.469   6.629   5.260
 1056SOL    HW2 4068   1.485   6.521   5.138
 1057SOL     OW 4069   3.130   3.510   3.108
 1057SOL    HW1 4070   3.135   3.439   3.179
 1057SOL    HW2 4071   3.197   3.489   3.037
 1058SOL     OW 4072   4.263   1.679   2.027
 1058SOL    HW1 4073   4.186   1.648   1.971
 1058SOL    HW2 4074   4.326   1.731   1.970
 1059SOL     OW 4075   3.838   0.602   1.857
 1059SOL    HW1 4076   3.854   0.516   1.907
 1059SOL    HW2 4077   3.783   0.663   1.913
 1060SOL     OW 4078   0.510   3.909   5.695
 1060SOL    HW1 4079   0.420   3.901   5.738
 1060SOL    HW2 4080   0.581   3.901   5.765
 1061SOL     OW 4081   3.278   4.560   1.330
 1061SOL    HW1 4082   3.240   4.510   1.407
 1061SOL    HW2 4083   3.302   4.652   1.358
 1062SOL     OW 4084   6.801   5.647   5.194
 1062SOL    HW1 4085   6.771   5.728   5.142
 1062SOL    HW2 4086   6.901   5.642   5.193
 1063SOL     OW 4087   0.994   3.406   1.379
 1063SOL    HW1 4088   1.001   3.360   1.290
 1063SOL    HW2 4089   0.974   3.503   1.364
 1064SOL     OW 4090   1.797   3.242   2.375
 1064SOL    HW1 4091   1.776   3.336   2.402
 1064SOL    HW2 4092   1.829   3.240   2.281
 1065SOL     OW 4093   5.671   0.100   3.694
 1065SOL    HW1 4094   5.651   0.158   3.773
 1065SOL    HW2 4095   5.727   0.022   3.724
 1066SOL     OW 4096   5.073   0.390   4.504
 1066SOL    HW1 4097   5.060   0.307   4.449
 1066SOL    HW2 4098   4.984   0.423   4.535
 1067SOL     OW 4099   1.477   2.602   1.391
 1067SOL    HW1 4100   1.396   2.656   1.368
 1067SOL    HW2 4101   1.555   2.633   1.336
 1068SOL     OW 4102   0.494   4.060   2.099
 1068SOL    HW1 4103   0.471   4.002   2.021
 1068SOL    HW2 4104   0.418   4.057   2.165
 1069SOL     OW 4105   4.442   4.239   0.738
 1069SOL    HW1 4106   4.478   4.272   0.651
 1069SOL    HW2 4107   4.481   4.293   0.813
 1070SOL     OW 4108   2.092   0.818   0.302
 1070SOL    HW1 4109   2.012   0.844   0.248
 1070SOL    HW2 4110   2.063   0.755   0.375
 1071SOL     OW 4111   4.060   0.130   3.023
 1071SOL    HW1 4112   3.975   0.089   3.054
 1071SOL    HW2 4113   4.045   0.173   2.934
 1072SOL     OW 4114   2.843   6.462   2.339
 1072SOL    HW1 4115   2.918   6.426   2.394
 1072SOL    HW2 4116   2.844   6.420   2.248
 1073SOL     OW 4117   3.356   4.986   2.156
 1073SOL    HW1 4118   3.273   5.030   2.190
 1073SOL    HW2 4119   3.411   4.955   2.234
 1074SOL     OW 4120   1.518   5.517   1.960
 1074SOL    HW1 4121   1.600   5.557   2.002
 1074SOL    HW2 4122   1.536   5.422   1.935
 1075SOL     OW 4123   5.061   5.022   3.328
 1075SOL    HW1 4124   5.009   4.947   3.288
 1075SOL    HW2 4125   5.084   4.999   3.422
 1076SOL     OW 4126   0.996   4.464   4.700
 1076SOL    HW1 4127   1.090   4.452   4.733
 1076SOL    HW2 4128   0.932   4.432   4.771
 1077SOL     OW 4129   5.870   6.906   0.678
 1077SOL    HW1 4130   5.870   6.816   0.635
 1077SOL    HW2 4131   5.802   6.908   0.752
 1078SOL     OW 4132   1.631   1.556   2.244
 1078SOL    HW1 4133   1.549   1.521   2.291
 1078SOL    HW2 4134   1.685   1.479   2.211
 1079SOL     OW 4135   2.664   6.061   3.626
 1079SOL    HW1 4136   2.717   5.982   3.659
 1079SOL    HW2 4137   2.578   6.029   3.588
 1080SOL     OW 4138   2.823   5.877   3.769
 1080SOL    HW1 4139   2.770   5.833   3.841
 1080SOL    HW2 4140   2.920   5.856   3.782
 1081SOL     OW 4141   1.457   1.374   5.815
 1081SOL    HW1 4142   1.493   1.282   5.830
 1081SOL    HW2 4143   1.423   1.382   5.722
 1082SOL     OW 4144   1.480   0.127   5.622
 1082SOL    HW1 4145   1.523   0.216   5.640
 1082SOL    HW2 4146   1.540   0.054   5.656
 1083SOL     OW 4147   3.258   3.515   2.285
 1083SOL    HW1 4148   3.217   3.600   2.251
 1083SOL    HW2 4149   3.322   3.535   2.359
 1084SOL     OW 4150   6.035   5.394   1.072
 1084SOL    HW1 4151   6.030   5.384   1.172
 1084SOL    HW2 4152   6.123   5.358   1.040
 1085SOL     OW 4153   2.331   4.983   4.189
 1085SOL    HW1 4154   2.328   4.886   4.210
 1085SOL    HW2 4155   2.417   5.004   4.141
 1086SOL     OW 4156   5.622   5.654   3.530
 1086SOL    HW1 4157   5.692   5.726   3.533
 1086SOL    HW2 4158   5.663   5.569   3.497
 1087SOL     OW 4159   5.115   2.995   5.200
 1087SOL    HW1 4160   5.186   2.924   5.199
 1087SOL    HW2 4161   5.155   3.081   5.232
 1088SOL     OW 4162   4.702   4.254   3.283
 1088SOL    HW1 4163   4.789   4.204   3.280
 1088SOL    HW2 4164   4.679   4.285   3.191
 1089SOL     OW 4165   0.035   0.648   4.870
 1089SOL    HW1 4166   0.064   0.562   4.911
 1089SOL    HW2 4167   6.981   0.634   4.820
 1090SOL     OW 4168   2.474   1.276   5.341
 1090SOL    HW1 4169   2.406   1.239   5.276
 1090SOL    HW2 4170   2.513   1.360   5.304
 1091SOL     OW 4171   1.683   1.847   4.059
 1091SOL    HW1 4172   1.668   1.858   3.961
 1091SOL    HW2 4173   1.697   1.751   4.081
 1092SOL     OW 4174   2.268   4.114   1.220
 1092SOL    HW1 4175   2.226   4.093   1.308
 1092SOL    HW2 4176   2.321   4.198   1.228
 1093SOL     OW 4177   1.638   2.546   2.101
 1093SOL    HW1 4178   1.618   2.521   2.006
 1093SOL    HW2 4179   1.687   2.633   2.102
 1094SOL     OW 4180   0.413   6.628   1.535
 1094SOL    HW1 4181   0.316   6.643   1.559
 1094SOL    HW2 4182   0.433   6.675   1.449
 1095SOL     OW 4183   5.958   2.890   6.493
 1095SOL    HW1 4184   5.962   2.962   6.562
 1095SOL    HW2 4185   5.862   2.870   6.471
 1096SOL     OW 4186   3.546   5.059   1.164
 1096SOL    HW1 4187   3.544   5.133   1.096
 1096SOL    HW2 4188   3.640   5.027   1.176
 1097SOL     OW 4189   1.768   5.162   5.143
 1097SOL    HW1 4190   1.813   5.233   5.088
 1097SOL    HW2 4191   1.763   5.077   5.091
 1098SOL     OW 4192   5.270   2.227   0.899
 1098SOL    HW1 4193   5.238   2.132   0.902
 1098SOL    HW2 4194   5.306   2.253   0.988
 1099SOL     OW 4195   4.192   2.220   4.409
 1099SOL    HW1 4196   4.228   2.271   4.332
 1099SOL    HW2 4197   4.236   2.251   4.494
 1100SOL     OW 4198   1.030   1.357   6.140
 1100SOL    HW1 4199   0.996   1.450   6.156
 1100SOL    HW2 4200   1.121   1.347   6.182
 1101SOL     OW 4201   5.405   3.144   1.030
 1101SOL    HW1 4202   5.320   3.163   0.982
 1101SOL    HW2 4203   5.476   3.207   0.999
 1102SOL     OW 4204   0.536   4.683   3.741
 1102SOL    HW1 4205   0.570   4.655   3.831
 1102SOL    HW2 4206   0.440   4.655   3.732
 1103SOL     OW 4207   1.664   1.625   1.832
 1103SOL    HW1 4208   1.755   1.644   1.869
 1103SOL    HW2 4209   1.595   1.650   1.899
 1104SOL     OW 4210   2.548   4.645   6.382
 1104SOL    HW1 4211   2.534   4.553   6.418
 1104SOL    HW2 4212   2.480   4.706   6.420
 1105SOL     OW 4213   5.043   4.169   0.048
 1105SOL    HW1 4214   5.011   4.261   0.070
 1105SOL    HW2 4215   5.044   4.114   0.131
 1106SOL     OW 4216   6.637   2.475   6.223
 1106SOL    HW1 4217   6.636   2.432   6.133
 1106SOL    HW2 4218   6.684   2.414   6.288
 1107SOL     OW 4219   0.704   0.152   6.957
 1107SOL    HW1 4220   0.789   0.188   6.918
 1107SOL    HW2 4221   0.711   0.052   6.965
 1108SOL     OW 4222   2.542   1.169   6.099
 1108SOL    HW1 4223   2.493   1.161   6.186
 1108SOL    HW2 4224   2.621   1.229   6.111
 1109SOL     OW 4225   4.060   6.041   4.359
 1109SOL    HW1 4226   4.084   5.944   4.363
 1109SOL    HW2 4227   4.017   6.068   4.445
 1110SOL     OW 4228   2.597   2.752   1.513
 1110SOL    HW1 4229   2.660   2.805   1.570
 1110SOL    HW2 4230   2.522   2.718   1.569
 1111SOL     OW 4231   5.703   0.011   0.080
 1111SOL    HW1 4232   5.793   0.036   0.116
 1111SOL    HW2 4233   5.649   6.997   0.152
 1112SOL     OW 4234   6.553   0.438   2.413
 1112SOL    HW1 4235   6.618   0.419   2.487
 1112SOL    HW2 4236   6.553   0.362   2.348
 1113SOL     OW 4237   6.736   3.362   2.761
 1113SOL    HW1 4238   6.746   3.292   2.691
 1113SOL    HW2 4239   6.666   3.428   2.733
 1114SOL     OW 4240   5.059   0.637   6.320
 1114SOL    HW1 4241   5.065   0.574   6.242
 1114SOL    HW2 4242   4.975   0.619   6.371
 1115SOL     OW 4243   4.005   2.576   0.285
 1115SOL    HW1 4244   3.991   2.540   0.193
 1115SOL    HW2 4245   4.002   2.676   0.283
 1116SOL     OW 4246   5.051   5.781   3.876
 1116SOL    HW1 4247   5.134   5.730   3.898
 1116SOL    HW2 4248   4.975   5.718   3.866
 1117SOL     OW 4249   2.470   2.640   1.735
 1117SOL    HW1 4250   2.456   2.730   1.775
 1117SOL    HW2 4251   2.459   2.570   1.805
 1118SOL     OW 4252   1.887   5.241   2.766
 1118SOL    HW1 4253   1.882   5.340   2.763
 1118SOL    HW2 4254   1.982   5.212   2.776
 1119SOL     OW 4255   4.240   4.129   1.722
 1119SOL    HW1 4256   4.312   4.179   1.771
 1119SOL    HW2 4257   4.240   4.034   1.752
 1120SOL     OW 4258   5.421   0.104   6.613
 1120SOL    HW1 4259   5.439   0.072   6.706
 1120SOL    HW2 4260   5.400   0.026   6.554
 1121SOL     OW 4261   5.134   2.382   1.965
 1121SOL    HW1 4262   5.167   2.454   1.903
 1121SOL    HW2 4263   5.034   2.383   1.967
 1122SOL     OW 4264   5.910   3.033   6.727
 1122SOL    HW1 4265   5.881   2.977   6.805
 1122SOL    HW2 4266   5.834   3.044   6.664
 1123SOL     OW 4267   4.547   1.379   1.930
 1123SOL    HW1 4268   4.492   1.381   2.014
 1123SOL    HW2 4269   4.510   1.311   1.868
 1124SOL     OW 4270   6.755   3.528   5.531
 1124SOL    HW1 4271   6.809   3.510   5.449
 1124SOL    HW2 4272   6.720   3.441   5.568
 1125SOL     OW 4273   2.989   2.798   5.329
 1125SOL    HW1 4274   2.987   2.698   5.321
 1125SOL    HW2 4275   2.897   2.830   5.354
 1126SOL     OW 4276   4.370   0.170   0.306
 1126SOL    HW1 4277   4.355   0.252   0.362
 1126SOL    HW2 4278   4.441   0.114   0.348
 1127SOL     OW 4279   2.896   4.760   0.211
 1127SOL    HW1 4280   2.936   4.719   0.130
 1127SOL    HW2 4281   2.833   4.833   0.185
 1128SOL     OW 4282   4.082   2.201   3.779
 1128SOL    HW1 4283   4.100   2.214   3.681
 1128SOL    HW2 4284   4.115   2.111   3.807
 1129SOL     OW 4285   4.439   0.584   0.442
 1129SOL    HW1 4286   4.375   0.598   0.366
 1129SOL    HW2 4287   4.409   0.639   0.521
 1130SOL     OW 4288   1.796   4.086   0.859
 1130SOL    HW1 4289   1.855   4.127   0.929
 1130SOL    HW2 4290   1.807   3.987   0.859
 1131SOL     OW 4291   0.139   6.264   5.625
 1131SOL    HW1 4292   0.140   6.194   5.553
 1131SOL    HW2 4293   0.204   6.336   5.601
 1132SOL     OW 4294   4.963   6.915   5.929
 1132SOL    HW1 4295   4.917   6.946   6.012
 1132SOL    HW2 4296   4.946   6.980   5.855
 1133SOL     OW 4297   0.605   2.428   1.421
 1133SOL    HW1 4298   0.674   2.362   1.394
 1133SOL    HW2 4299   0.619   2.514   1.372
 1134SOL     OW 4300   5.506   2.574   7.003
 1134SOL    HW1 4301   5.559   2.522   0.037
 1134SOL    HW2 4302   5.467   2.654   0.015
 1135SOL     OW 4303   3.034   2.198   3.302
 1135SOL    HW1 4304   2.945   2.213   3.345
 1135SOL    HW2 4305   3.022   2.187   3.203
 1136SOL     OW 4306   2.638   5.538   3.525
 1136SOL    HW1 4307   2.688   5.487   3.456
 1136SOL    HW2 4308   2.569   5.479   3.567
 1137SOL     OW 4309   1.119   1.895   6.368
 1137SOL    HW1 4310   1.075   1.839   6.298
 1137SOL    HW2 4311   1.160   1.836   6.437
 1138SOL     OW 4312   2.543   3.686   6.135
 1138SOL    HW1 4313   2.622   3.740   6.163
 1138SOL    HW2 4314   2.566   3.632   6.053
 1139SOL     OW 4315   0.973   6.259   2.889
 1139SOL    HW1 4316   0.939   6.321   2.817
 1139SOL    HW2 4317   1.072   6.267   2.895
 1140SOL     OW 4318   3.554   1.703   3.253
 1140SOL    HW1 4319   3.526   1.718   3.348
 1140SOL    HW2 4320   3.478   1.722   3.192
 1141SOL     OW 4321   5.779   5.503   5.795
 1141SOL    HW1 4322   5.837   5.482   5.873
 1141SOL    HW2 4323   5.833   5.552   5.726
 1142SOL     OW 4324   5.267   0.471   4.224
 1142SOL    HW1 4325   5.335   0.453   4.153
 1142SOL    HW2 4326   5.203   0.542   4.192
 1143SOL     OW 4327   4.191   2.300   2.647
 1143SOL    HW1 4328   4.161   2.230   2.581
 1143SOL    HW2 4329   4.175   2.267   2.740
 1144SOL     OW 4330   0.357   4.135   4.011
 1144SOL    HW1 4331   0.342   4.212   3.948
 1144SOL    HW2 4332   0.392   4.170   4.098
 1145SOL     OW 4333   6.644   5.390   4.077
 1145SOL    HW1 4334   6.591   5.334   4.140
 1145SOL    HW2 4335   6.636   5.486   4.103
 1146SOL     OW 4336   6.283   2.230   0.997
 1146SOL    HW1 4337   6.298   2.213   1.095
 1146SOL    HW2 4338   6.186   2.213   0.975
 1147SOL     OW 4339   0.715   3.701   2.215
 1147SOL    HW1 4340   0.675   3.625   2.164
 1147SOL    HW2 4341   0.706   3.684   2.313
 1148SOL     OW 4342   3.576   6.281   6.220
 1148SOL    HW1 4343   3.604   6.377   6.215
 1148SOL    HW2 4344   3.639   6.231   6.278
 1149SOL     OW 4345   6.321   3.559   2.829
 1149SOL    HW1 4346   6.301   3.600   2.918
 1149SOL    HW2 4347   6.291   3.622   2.757
 1150SOL     OW 4348   2.148   4.769   1.182
 1150SOL    HW1 4349   2.194   4.703   1.124
 1150SOL    HW2 4350   2.204   4.788   1.263
 1151SOL     OW 4351   5.689   5.503   6.580
 1151SOL    HW1 4352   5.719   5.577   6.521
 1151SOL    HW2 4353   5.687   5.535   6.675
 1152SOL     OW 4354   0.893   6.959   5.033
 1152SOL    HW1 4355   0.928   6.979   4.942
 1152SOL    HW2 4356   0.930   7.025   5.098
 1153SOL     OW 4357   2.022   6.163   2.759
 1153SOL    HW1 4358   2.109   6.143   2.804
 1153SOL    HW2 4359   1.957   6.089   2.779
 1154SOL     OW 4360   0.751   4.036   2.095
 1154SOL    HW1 4361   0.658   4.072   2.093
 1154SOL    HW2 4362   0.762   3.975   2.174
 1155SOL     OW 4363   3.225   6.195   0.810
 1155SOL    HW1 4364   3.209   6.290   0.784
 1155SOL    HW2 4365   3.320   6.171   0.789
 1156SOL     OW 4366   2.316   0.646   3.812
 1156SOL    HW1 4367   2.397   0.600   3.849
 1156SOL    HW2 4368   2.341   0.736   3.778
 1157SOL     OW 4369   6.967   2.365   4.759
 1157SOL    HW1 4370   6.929   2.350   4.668
 1157SOL    HW2 4371   0.024   2.318   4.765
 1158SOL     OW 4372   5.747   4.639   6.178
 1158SOL    HW1 4373   5.758   4.563   6.114
 1158SOL    HW2 4374   5.696   4.608   6.258
 1159SOL     OW 4375   3.321   6.080   2.659
 1159SOL    HW1 4376   3.244   6.085   2.722
 1159SOL    HW2 4377   3.291   6.039   2.573
 1160SOL     OW 4378   3.871   3.836   2.215
 1160SOL    HW1 4379   3.900   3.756   2.266
 1160SOL    HW2 4380   3.937   3.857   2.143
 1161SOL     OW 4381   5.645   0.325   4.400
 1161SOL    HW1 4382   5.555   0.285   4.419
 1161SOL    HW2 4383   5.680   0.289   4.314
 1162SOL     OW 4384   3.066   3.347   1.638
 1162SOL    HW1 4385   3.014   3.340   1.553
 1162SOL    HW2 4386   3.017   3.300   1.712
 1163SOL     OW 4387   4.783   2.020   1.419
 1163SOL    HW1 4388   4.836   1.978   1.345
 1163SOL    HW2 4389   4.687   1.992   1.412
 1164SOL     OW 4390   5.475   3.377   2.757
 1164SOL    HW1 4391   5.379   3.391   2.735
 1164SOL    HW2 4392   5.492   3.281   2.777
 1165SOL     OW 4393   0.824   3.377   3.508
 1165SOL    HW1 4394   0.832   3.332   3.597
 1165SOL    HW2 4395   0.805   3.309   3.437
 1166SOL     OW 4396   4.284   2.270   6.402
 1166SOL    HW1 4397   4.301   2.175   6.429
 1166SOL    HW2 4398   4.312   2.332   6.475
 1167SOL     OW 4399   3.765   0.965   5.301
 1167SOL    HW1 4400   3.675   1.007   5.291
 1167SOL    HW2 4401   3.755   0.878   5.350
 1168SOL     OW 4402   6.914   6.151   3.106
 1168SOL    HW1 4403   6.967   6.076   3.145
 1168SOL    HW2 4404   6.971   6.202   3.041
 1169SOL     OW 4405   0.405   3.163   1.263
 1169SOL    HW1 4406   0.313   3.144   1.297
 1169SOL    HW2 4407   0.433   3.254   1.292
 1170SOL     OW 4408   3.787   1.283   3.190
 1170SOL    HW1 4409   3.822   1.196   3.225
 1170SOL    HW2 4410   3.717   1.318   3.251
 1171SOL     OW 4411   3.141   6.258   1.205
 1171SOL    HW1 4412   3.174   6.264   1.299
 1171SOL    HW2 4413   3.046   6.289   1.200
 1172SOL     OW 4414   3.966   3.702   4.134
 1172SOL    HW1 4415   3.995   3.613   4.098
 1172SOL    HW2 4416   3.915   3.751   4.064
 1173SOL     OW 4417   3.195   0.526   5.809
 1173SOL    HW1 4418   3.281   0.569   5.780
 1173SOL    HW2 4419   3.118   0.575   5.766
 1174SOL     OW 4420   2.684   5.682   0.793
 1174SOL    HW1 4421   2.729   5.770   0.805
 1174SOL    HW2 4422   2.664   5.668   0.696
 1175SOL     OW 4423   5.610   4.604   6.643
 1175SOL    HW1 4424   5.628   4.702   6.631
 1175SOL    HW2 4425   5.622   4.580   6.740
 1176SOL     OW 4426   5.492   4.804   1.099
 1176SOL    HW1 4427   5.495   4.882   1.036
 1176SOL    HW2 4428   5.403   4.801   1.144
 1177SOL     OW 4429   6.484   3.122   5.524
 1177SOL    HW1 4430   6.480   3.025   5.551
 1177SOL    HW2 4431   6.392   3.162   5.532
 1178SOL     OW 4432   5.487   3.551   2.373
 1178SOL    HW1 4433   5.499   3.625   2.306
 1178SOL    HW2 4434   5.432   3.478   2.333
 1179SOL     OW 4435   1.823   3.609   0.655
 1179SOL    HW1 4436   1.899   3.569   0.706
 1179SOL    HW2 4437   1.766   3.537   0.616
 1180SOL     OW 4438   2.110   1.320   3.315
 1180SOL    HW1 4439   2.132   1.297   3.220
 1180SOL    HW2 4440   2.031   1.265   3.344
 1181SOL     OW 4441   1.567   4.720   4.139
 1181SOL    HW1 4442   1.585   4.764   4.227
 1181SOL    HW2 4443   1.520   4.633   4.154
 1182SOL     OW 4444   2.175   4.144   3.873
 1182SOL    HW1 4445   2.194   4.209   3.799
 1182SOL    HW2 4446   2.185   4.190   3.961
 1183SOL     OW 4447   4.304   5.867   1.400
 1183SOL    HW1 4448   4.373   5.931   1.367
 1183SOL    HW2 4449   4.317   5.778   1.356
 1184SOL     OW 4450   3.260   2.773   5.225
 1184SOL    HW1 4451   3.166   2.769   5.260
 1184SOL    HW2 4452   3.260   2.823   5.138
 1185SOL     OW 4453   2.315   0.075   0.349
 1185SOL    HW1 4454   2.272   0.153   0.302
 1185SOL    HW2 4455   2.413   0.076   0.332
 1186SOL     OW 4456   5.967   0.283   4.832
 1186SOL    HW1 4457   5.943   0.339   4.752
 1186SOL    HW2 4458   5.982   0.189   4.803
 1187SOL     OW 4459   5.845   6.424   4.704
 1187SOL    HW1 4460   5.844   6.362   4.626
 1187SOL    HW2 4461   5.917   6.492   4.692
 1188SOL     OW 4462   2.190   6.578   6.064
 1188SOL    HW1 4463   2.177   6.532   6.152
 1188SOL    HW2 4464   2.282   6.617   6.060
 1189SOL     OW 4465   5.627   1.288   1.387
 1189SOL    HW1 4466   5.662   1.291   1.294
 1189SOL    HW2 4467   5.695   1.326   1.449
 1190SOL     OW 4468   3.933   5.501   3.663
 1190SOL    HW1 4469   3.859   5.568   3.675
 1190SOL    HW2 4470   3.902   5.411   3.694
 1191SOL     OW 4471   2.854   5.409   5.798
 1191SOL    HW1 4472   2.920   5.419   5.723
 1191SOL    HW2 4473   2.870   5.321   5.844
 1192SOL     OW 4474   5.925   4.912   2.994
 1192SOL    HW1 4475   5.951   4.968   3.072
 1192SOL    HW2 4476   5.993   4.840   2.979
 1193SOL     OW 4477   4.966   0.117   4.418
 1193SOL    HW1 4478   4.924   0.075   4.338
 1193SOL    HW2 4479   5.053   0.072   4.438
 1194SOL     OW 4480   6.133   0.172   0.848
 1194SOL    HW1 4481   6.080   0.254   0.871
 1194SOL    HW2 4482   6.191   0.191   0.770
 1195SOL     OW 4483   6.193   0.998   6.192
 1195SOL    HW1 4484   6.250   1.005   6.110
 1195SOL    HW2 4485   6.131   1.076   6.197
 1196SOL     OW 4486   0.418   4.875   2.838
 1196SOL    HW1 4487   0.473   4.881   2.921
 1196SOL    HW2 4488   0.390   4.780   2.823
 1197SOL     OW 4489   4.118   6.464   5.640
 1197SOL    HW1 4490   4.069   6.410   5.708
 1197SOL    HW2 4491   4.217   6.458   5.658
 1198SOL     OW 4492   3.356   2.006   3.003
 1198SOL    HW1 4493   3.357   2.044   3.095
 1198SOL    HW2 4494   3.301   2.064   2.943
 1199SOL     OW 4495   2.890   3.544   2.182
 1199SOL    HW1 4496   2.869   3.535   2.085
 1199SOL    HW2 4497   2.916   3.639   2.202
 1200SOL     OW 4498   4.544   4.130   5.696
 1200SOL    HW1 4499   4.548   4.210   5.756
 1200SOL    HW2 4500   4.462   4.135   5.639
 1201SOL     OW 4501   1.600   1.411   4.766
 1201SOL    HW1 4502   1.617   1.314   4.750
 1201SOL    HW2 4503   1.524   1.442   4.709
 1202SOL     OW 4504   5.470   0.083   5.453
 1202SOL    HW1 4505   5.542   0.147   5.481
 1202SOL    HW2 4506   5.462   0.009   5.520
 1203SOL     OW 4507   5.649   0.784   1.171
 1203SOL    HW1 4508   5.603   0.843   1.238
 1203SOL    HW2 4509   5.745   0.773   1.196
 1204SOL     OW 4510   3.601   1.446   0.469
 1204SOL    HW1 4511   3.632   1.357   0.505
 1204SOL    HW2 4512   3.517   1.472   0.517
 1205SOL     OW 4513   5.936   2.545   5.925
 1205SOL    HW1 4514   6.009   2.496   5.877
 1205SOL    HW2 4515   5.852   2.491   5.919
 1206SOL     OW 4516   1.821   1.286   4.411
 1206SOL    HW1 4517   1.763   1.219   4.458
 1206SOL    HW2 4518   1.810   1.375   4.454
 1207SOL     OW 4519   6.136   6.878   0.553
 1207SOL    HW1 4520   6.148   6.923   0.464
 1207SOL    HW2 4521   6.045   6.899   0.589
 1208SOL     OW 4522   3.305   3.458   2.898
 1208SOL    HW1 4523   3.221   3.454   2.843
 1208SOL    HW2 4524   3.381   3.420   2.845
 1209SOL     OW 4525   6.128   6.172   5.328
 1209SOL    HW1 4526   6.051   6.136   5.277
 1209SOL    HW2 4527   6.210   6.170   5.271
 1210SOL     OW 4528   3.685   0.274   2.959
 1210SOL    HW1 4529   3.754   0.264   2.887
 1210SOL    HW2 4530   3.594   0.272   2.917
 1211SOL     OW 4531   1.589   3.544   4.237
 1211SOL    HW1 4532   1.598   3.609   4.162
 1211SOL    HW2 4533   1.679   3.504   4.258
 1212SOL     OW 4534   1.450   3.894   5.091
 1212SOL    HW1 4535   1.549   3.894   5.108
 1212SOL    HW2 4536   1.411   3.982   5.116
 1213SOL     OW 4537   0.171   2.818   5.046
 1213SOL    HW1 4538   0.131   2.881   5.113
 1213SOL    HW2 4539   0.110   2.809   4.967
 1214SOL     OW 4540   1.817   3.456   4.640
 1214SOL    HW1 4541   1.892   3.521   4.632
 1214SOL    HW2 4542   1.849   3.372   4.683
 1215SOL     OW 4543   2.685   4.697   3.049
 1215SOL    HW1 4544   2.748   4.695   2.971
 1215SOL    HW2 4545   2.607   4.639   3.029
 1216SOL     OW 4546   1.392   6.690   1.507
 1216SOL    HW1 4547   1.454   6.740   1.447
 1216SOL    HW2 4548   1.367   6.747   1.585
 1217SOL     OW 4549   1.226   6.540   0.236
 1217SOL    HW1 4550   1.223   6.509   0.331
 1217SOL    HW2 4551   1.311   6.591   0.221
 1218SOL     OW 4552   0.614   3.599   4.804
 1218SOL    HW1 4553   0.581   3.631   4.892
 1218SOL    HW2 4554   0.598   3.500   4.796
 1219SOL     OW 4555   4.176   5.322   0.654
 1219SOL    HW1 4556   4.094   5.277   0.619
 1219SOL    HW2 4557   4.154   5.367   0.741
 1220SOL     OW 4558   5.592   2.803   2.418
 1220SOL    HW1 4559   5.684   2.835   2.395
 1220SOL    HW2 4560   5.564   2.732   2.352
 1221SOL     OW 4561   5.687   3.779   0.513
 1221SOL    HW1 4562   5.753   3.706   0.532
 1221SOL    HW2 4563   5.663   3.779   0.416
 1222SOL     OW 4564   6.658   6.396   0.327
 1222SOL    HW1 4565   6.716   6.477   0.324
 1222SOL    HW2 4566   6.710   6.318   0.360
 1223SOL     OW 4567   6.062   6.772   6.644
 1223SOL    HW1 4568   6.074   6.844   6.712
 1223SOL    HW2 4569   6.006   6.806   6.568
 1224SOL     OW 4570   4.128   5.969   0.526
 1224SOL    HW1 4571   4.045   5.920   0.552
 1224SOL    HW2 4572   4.113   6.015   0.438
 1225SOL     OW 4573   4.220   2.022   0.567
 1225SOL    HW1 4574   4.183   1.935   0.600
 1225SOL    HW2 4575   4.292   2.053   0.629
 1226SOL     OW 4576   6.173   6.596   1.139
 1226SOL    HW1 4577   6.210   6.504   1.125
 1226SOL    HW2 4578   6.166   6.615   1.237
 1227SOL     OW 4579   5.698   4.343   5.813
 1227SOL    HW1 4580   5.682   4.245   5.801
 1227SOL    HW2 4581   5.610   4.389   5.825
 1228SOL     OW 4582   3.883   3.055   2.100
 1228SOL    HW1 4583   3.977   3.089   2.091
 1228SOL    HW2 4584   3.857   3.007   2.017
 1229SOL     OW 4585   1.922   6.189   2.331
 1229SOL    HW1 4586   1.831   6.213   2.363
 1229SOL    HW2 4587   1.916   6.131   2.250
 1230SOL     OW 4588   5.135   5.060   2.334
 1230SOL    HW1 4589   5.101   5.056   2.427
 1230SOL    HW2 4590   5.189   5.144   2.322
 1231SOL     OW 4591   1.312   2.257   6.190
 1231SOL    HW1 4592   1.371   2.309   6.127
 1231SOL    HW2 4593   1.218   2.291   6.183
 1232SOL     OW 4594   3.325   0.577   5.105
 1232SOL    HW1 4595   3.328   0.677   5.098
 1232SOL    HW2 4596   3.344   0.537   5.016
 1233SOL     OW 4597   0.863   4.575   3.454
 1233SOL    HW1 4598   0.798   4.503   3.480
 1233SOL    HW2 4599   0.880   4.635   3.532
 1234SOL     OW 4600   6.920   3.348   6.797
 1234SOL    HW1 4601   6.871   3.334   6.711
 1234SOL    HW2 4602   6.862   3.324   6.874
 1235SOL     OW 4603   5.779   4.622   0.469
 1235SOL    HW1 4604   5.775   4.581   0.560
 1235SOL    HW2 4605   5.863   4.674   0.459
 1236SOL     OW 4606   2.790   0.841   0.260
 1236SOL    HW1 4607   2.785   0.870   0.356
 1236SOL    HW2 4608   2.708   0.786   0.239
 1237SOL     OW 4609   1.476   0.287   4.629
 1237SOL    HW1 4610   1.412   0.356   4.595
 1237SOL    HW2 4611   1.546   0.269   4.560
 1238SOL     OW 4612   0.479   0.342   3.475
 1238SOL    HW1 4613   0.523   0.348   3.385
 1238SOL    HW2 4614   0.505   0.257   3.519
 1239SOL     OW 4615   6.226   5.440   4.349
 1239SOL    HW1 4616   6.225   5.384   4.267
 1239SOL    HW2 4617   6.158   5.405   4.414
 1240SOL     OW 4618   5.922   5.422   2.902
 1240SOL    HW1 4619   5.832   5.440   2.863
 1240SOL    HW2 4620   5.911   5.376   2.990
 1241SOL     OW 4621   5.949   5.353   4.443
 1241SOL    HW1 4622   5.873   5.346   4.378
 1241SOL    HW2 4623   5.931   5.296   4.523
 1242SOL     OW 4624   1.722   3.203   0.096
 1242SOL    HW1 4625   1.774   3.118   0.105
 1242SOL    HW2 4626   1.624   3.184   0.102
 1243SOL     OW 4627   1.235   3.952   5.411
 1243SOL    HW1 4628   1.316   3.936   5.468
 1243SOL    HW2 4629   1.197   3.865   5.381
 1244SOL     OW 4630   5.967   6.826   5.186
 1244SOL    HW1 4631   5.903   6.751   5.201
 1244SOL    HW2 4632   5.951   6.867   5.096
 1245SOL     OW 4633   5.031   6.163   0.885
 1245SOL    HW1 4634   5.074   6.090   0.939
 1245SOL    HW2 4635   4.952   6.199   0.935
 1246SOL     OW 4636   4.642   1.439   0.901
 1246SOL    HW1 4637   4.583   1.439   0.820
 1246SOL    HW2 4638   4.660   1.345   0.929
 1247SOL     OW 4639   0.086   6.719   3.730
 1247SOL    HW1 4640   0.171   6.747   3.774
 1247SOL    HW2 4641   0.082   6.755   3.637
 1248SOL     OW 4642   0.064   0.230   4.822
 1248SOL    HW1 4643   0.143   0.289   4.840
 1248SOL    HW2 4644   0.072   0.147   4.877
 1249SOL     OW 4645   0.485   4.626   1.440
 1249SOL    HW1 4646   0.577   4.655   1.416
 1249SOL    HW2 4647   0.429   4.623   1.357
 1250SOL     OW 4648   5.763   3.528   5.318
 1250SOL    HW1 4649   5.690   3.492   5.261
 1250SOL    HW2 4650   5.733   3.532   5.414
 1251SOL     OW 4651   2.813   0.382   2.447
 1251SOL    HW1 4652   2.718   0.352   2.454
 1251SOL    HW2 4653   2.850   0.355   2.358
 1252SOL     OW 4654   2.580   5.691   6.687
 1252SOL    HW1 4655   2.563   5.743   6.770
 1252SOL    HW2 4656   2.621   5.751   6.618
 1253SOL     OW 4657   3.218   0.552   0.801
 1253SOL    HW1 4658   3.209   0.500   0.716
 1253SOL    HW2 4659   3.152   0.518   0.869
 1254SOL     OW 4660   6.419   1.597   2.194
 1254SOL    HW1 4661   6.361   1.647   2.258
 1254SOL    HW2 4662   6.512   1.590   2.232
 1255SOL     OW 4663   5.351   1.771   4.796
 1255SOL    HW1 4664   5.302   1.853   4.767
 1255SOL    HW2 4665   5.448   1.782   4.774
 1256SOL     OW 4666   0.175   6.060   3.961
 1256SOL    HW1 4667   0.183   6.078   3.863
 1256SOL    HW2 4668   0.218   6.134   4.013
 1257SOL     OW 4669   0.004   4.554   3.502
 1257SOL    HW1 4670   0.024   4.501   3.585
 1257SOL    HW2 4671   0.060   4.520   3.427
 1258SOL     OW 4672   3.011   6.435   4.599
 1258SOL    HW1 4673   2.971   6.446   4.508
 1258SOL    HW2 4674   3.034   6.339   4.613
 1259SOL     OW 4675   4.361   0.459   5.120
 1259SOL    HW1 4676   4.326   0.522   5.189
 1259SOL    HW2 4677   4.396   0.377   5.163
 1260SOL     OW 4678   2.170   0.428   2.452
 1260SOL    HW1 4679   2.125   0.478   2.378
 1260SOL    HW2 4680   2.162   0.330   2.436
 1261SOL     OW 4681   0.334   4.073   6.554
 1261SOL    HW1 4682   0.238   4.045   6.551
 1261SOL    HW2 4683   0.355   4.108   6.645
 1262SOL     OW 4684   4.682   4.933   0.935
 1262SOL    HW1 4685   4.752   4.900   0.998
 1262SOL    HW2 4686   4.610   4.980   0.986
 1263SOL     OW 4687   6.859   2.087   0.737
 1263SOL    HW1 4688   6.951   2.053   0.720
 1263SOL    HW2 4689   6.852   2.182   0.705
 1264SOL     OW 4690   0.810   3.627   3.084
 1264SOL    HW1 4691   0.710   3.624   3.095
 1264SOL    HW2 4692   0.851   3.668   3.165
 1265SOL     OW 4693   0.296   3.641   4.627
 1265SOL    HW1 4694   0.334   3.560   4.582
 1265SOL    HW2 4695   0.222   3.613   4.689
 1266SOL     OW 4696   3.150   1.664   5.456
 1266SOL    HW1 4697   3.193   1.652   5.366
 1266SOL    HW2 4698   3.179   1.589   5.516
 1267SOL     OW 4699   0.022   5.512   3.180
 1267SOL    HW1 4700   6.960   5.545   3.193
 1267SOL    HW2 4701   0.025   5.413   3.195
 1268SOL     OW 4702   5.624   2.497   6.549
 1268SOL    HW1 4703   5.631   2.534   6.642
 1268SOL    HW2 4704   5.528   2.484   6.526
 1269SOL     OW 4705   6.775   6.327   4.433
 1269SOL    HW1 4706   6.810   6.414   4.399
 1269SOL    HW2 4707   6.690   6.304   4.386
 1270SOL     OW 4708   2.190   3.871   4.725
 1270SOL    HW1 4709   2.092   3.866   4.745
 1270SOL    HW2 4710   2.242   3.849   4.807
 1271SOL     OW 4711   3.327   1.707   3.098
 1271SOL    HW1 4712   3.267   1.675   3.171
 1271SOL    HW2 4713   3.301   1.800   3.071
 1272SOL     OW 4714   6.992   5.733   0.695
 1272SOL    HW1 4715   6.933   5.810   0.721
 1272SOL    HW2 4716   0.046   5.769   0.658
 1273SOL     OW 4717   3.020   4.589   0.019
 1273SOL    HW1 4718   3.025   4.590   6.951
 1273SOL    HW2 4719   2.946   4.528   0.048
 1274SOL     OW 4720   7.018   2.548   2.044
 1274SOL    HW1 4721   6.930   2.593   2.062
 1274SOL    HW2 4722   7.001   2.456   2.008
 1275SOL     OW 4723   4.322   0.940   4.224
 1275SOL    HW1 4724   4.309   0.845   4.251
 1275SOL    HW2 4725   4.410   0.972   4.259
 1276SOL     OW 4726   6.795   0.768   2.297
 1276SOL    HW1 4727   6.706   0.803   2.326
 1276SOL    HW2 4728   6.804   0.672   2.325
 1277SOL     OW 4729   0.335   1.101   4.626
 1277SOL    HW1 4730   0.293   1.179   4.671
 1277SOL    HW2 4731   0.355   1.124   4.531
 1278SOL     OW 4732   1.721   2.059   5.270
 1278SOL    HW1 4733   1.684   2.132   5.328
 1278SOL    HW2 4734   1.711   1.971   5.317
 1279SOL     OW 4735   3.067   6.615   0.999
 1279SOL    HW1 4736   2.992   6.642   1.059
 1279SOL    HW2 4737   3.153   6.616   1.050
 1280SOL     OW 4738   1.925   0.257   2.780
 1280SOL    HW1 4739   1.897   0.232   2.872
 1280SOL    HW2 4740   1.944   0.175   2.726
 1281SOL     OW 4741   1.277   5.818   3.337
 1281SOL    HW1 4742   1.294   5.764   3.254
 1281SOL    HW2 4743   1.354   5.880   3.353
 1282SOL     OW 4744   0.487   1.206   0.854
 1282SOL    HW1 4745   0.423   1.136   0.822
 1282SOL    HW2 4746   0.452   1.247   0.937
 1283SOL     OW 4747   5.587   4.053   6.136
 1283SOL    HW1 4748   5.562   3.981   6.201
 1283SOL    HW2 4749   5.684   4.075   6.145
 1284SOL     OW 4750   2.694   2.320   1.832
 1284SOL    HW1 4751   2.726   2.347   1.741
 1284SOL    HW2 4752   2.754   2.359   1.902
 1285SOL     OW 4753   5.265   2.818   6.390
 1285SOL    HW1 4754   5.353   2.859   6.415
 1285SOL    HW2 4755   5.193   2.888   6.395
 1286SOL     OW 4756   5.083   4.260   2.238
 1286SOL    HW1 4757   5.148   4.285   2.165
 1286SOL    HW2 4758   5.058   4.342   2.290
 1287SOL     OW 4759   6.039   5.085   6.526
 1287SOL    HW1 4760   5.980   5.158   6.492
 1287SOL    HW2 4761   6.014   4.999   6.481
 1288SOL     OW 4762   0.732   2.800   0.282
 1288SOL    HW1 4763   0.697   2.712   0.252
 1288SOL    HW2 4764   0.819   2.819   0.237
 1289SOL     OW 4765   0.094   6.385   2.358
 1289SOL    HW1 4766   0.178   6.405   2.409
 1289SOL    HW2 4767   0.074   6.287   2.365
 1290SOL     OW 4768   0.508   6.924   6.700
 1290SOL    HW1 4769   0.443   6.980   6.648
 1290SOL    HW2 4770   0.467   6.897   6.787
 1291SOL     OW 4771   2.095   5.134   6.184
 1291SOL    HW1 4772   2.157   5.082   6.244
 1291SOL    HW2 4773   2.014   5.079   6.166
 1292SOL     OW 4774   0.061   4.440   1.504
 1292SOL    HW1 4775   6.999   4.459   1.474
 1292SOL    HW2 4776   0.084   4.498   1.582
 1293SOL     OW 4777   2.378   1.360   6.323
 1293SOL    HW1 4778   2.322   1.380   6.404
 1293SOL    HW2 4779   2.344   1.277   6.279
 1294SOL     OW 4780   0.172   3.410   2.061
 1294SOL    HW1 4781   0.194   3.316   2.084
 1294SOL    HW2 4782   0.173   3.467   2.143
 1295SOL     OW 4783   5.834   3.450   2.598
 1295SOL    HW1 4784   5.872   3.363   2.627
 1295SOL    HW2 4785   5.755   3.435   2.538
 1296SOL     OW 4786   3.276   2.272   6.484
 1296SOL    HW1 4787   3.277   2.276   6.384
 1296SOL    HW2 4788   3.287   2.178   6.513
 1297SOL     OW 4789   6.015   1.802   5.672
 1297SOL    HW1 4790   6.068   1.833   5.751
 1297SOL    HW2 4791   5.954   1.728   5.699
 1298SOL     OW 4792   5.781   3.133   3.689
 1298SOL    HW1 4793   5.695   3.146   3.640
 1298SOL    HW2 4794   5.853   3.187   3.645
 1299SOL     OW 4795   2.074   4.400   3.369
 1299SOL    HW1 4796   2.144   4.382   3.301
 1299SOL    HW2 4797   2.015   4.320   3.378
 1300SOL     OW 4798   3.114   3.420   2.034
 1300SOL    HW1 4799   3.110   3.440   2.132
 1300SOL    HW2 4800   3.090   3.501   1.982
 1301SOL     OW 4801   1.066   6.726   3.536
 1301SOL    HW1 4802   1.041   6.759   3.627
 1301SOL    HW2 4803   1.162   6.699   3.535
 1302SOL     OW 4804   2.229   6.726   5.059
 1302SOL    HW1 4805   2.279   6.803   5.099
 1302SOL    HW2 4806   2.277   6.641   5.079
 1303SOL     OW 4807   3.711   1.443   1.093
 1303SOL    HW1 4808   3.678   1.506   1.163
 1303SOL    HW2 4809   3.806   1.464   1.071
 1304SOL     OW 4810   1.484   0.531   6.008
 1304SOL    HW1 4811   1.578   0.504   5.986
 1304SOL    HW2 4812   1.420   0.463   5.972
 1305SOL     OW 4813   5.391   6.148   4.885
 1305SOL    HW1 4814   5.358   6.075   4.945
 1305SOL    HW2 4815   5.318   6.214   4.870
 1306SOL     OW 4816   1.125   3.611   4.886
 1306SOL    HW1 4817   1.100   3.567   4.973
 1306SOL    HW2 4818   1.056   3.590   4.817
 1307SOL     OW 4819   1.492   3.118   4.973
 1307SOL    HW1 4820   1.462   3.126   4.878
 1307SOL    HW2 4821   1.437   3.048   5.019
 1308SOL     OW 4822   4.469   5.859   4.186
 1308SOL    HW1 4823   4.563   5.835   4.161
 1308SOL    HW2 4824   4.461   5.862   4.285
 1309SOL     OW 4825   5.749   2.877   5.353
 1309SOL    HW1 4826   5.676   2.852   5.417
 1309SOL    HW2 4827   5.716   2.869   5.259
 1310SOL     OW 4828   5.765   3.781   4.790
 1310SOL    HW1 4829   5.696   3.717   4.825
 1310SOL    HW2 4830   5.852   3.732   4.779
 1311SOL     OW 4831   5.888   0.010   4.024
 1311SOL    HW1 4832   5.820   6.973   3.998
 1311SOL    HW2 4833   5.936   0.042   3.943
 1312SOL     OW 4834   0.292   1.236   6.463
 1312SOL    HW1 4835   0.221   1.200   6.524
 1312SOL    HW2 4836   0.360   1.285   6.517
 1313SOL     OW 4837   3.491   5.725   5.055
 1313SOL    HW1 4838   3.441   5.749   4.972
 1313SOL    HW2 4839   3.511   5.627   5.054
 1314SOL     OW 4840   1.690   1.556   5.487
 1314SOL    HW1 4841   1.671   1.477   5.428
 1314SOL    HW2 4842   1.780   1.545   5.529
 1315SOL     OW 4843   1.421   1.254   0.672
 1315SOL    HW1 4844   1.405   1.155   0.667
 1315SOL    HW2 4845   1.516   1.273   0.651
 1316SOL     OW 4846   1.775   7.010   3.584
 1316SOL    HW1 4847   1.731   6.940   3.639
 1316SOL    HW2 4848   1.744   0.069   3.614
 1317SOL     OW 4849   0.942   4.559   4.171
 1317SOL    HW1 4850   0.919   4.468   4.205
 1317SOL    HW2 4851   1.040   4.565   4.156
 1318SOL     OW 4852   0.094   0.801   0.211
 1318SOL    HW1 4853   0.030   0.769   0.280
 1318SOL    HW2 4854   0.057   0.883   0.167
 1319SOL     OW 4855   6.551   0.912   0.673
 1319SOL    HW1 4856   6.470   0.863   0.707
 1319SOL    HW2 4857   6.525   0.967   0.594
 1320SOL     OW 4858   5.719   4.453   7.009
 1320SOL    HW1 4859   5.738   4.482   0.072
 1320SOL    HW2 4860   5.624   4.423   7.002
 1321SOL     OW 4861   4.620   3.173   6.979
 1321SOL    HW1 4862   4.523   3.198   6.980
 1321SOL    HW2 4863   4.629   3.074   6.963
 1322SOL     OW 4864   6.569   0.922   3.097
 1322SOL    HW1 4865   6.516   0.852   3.144
 1322SOL    HW2 4866   6.664   0.919   3.130
 1323SOL     OW 4867   5.510   1.603   5.571
 1323SOL    HW1 4868   5.604   1.602   5.536
 1323SOL    HW2 4869   5.482   1.696   5.591
 1324SOL     OW 4870   1.549   2.060   1.319
 1324SOL    HW1 4871   1.468   2.014   1.284
 1324SOL    HW2 4872   1.573   2.137   1.259
 1325SOL     OW 4873   1.729   6.614   3.503
 1325SOL    HW1 4874   1.665   6.640   3.430
 1325SOL    HW2 4875   1.704   6.661   3.588
 1326SOL     OW 4876   4.965   2.298   4.378
 1326SOL    HW1 4877   4.983   2.362   4.303
 1326SOL    HW2 4878   4.925   2.347   4.455
 1327SOL     OW 4879   2.488   5.175   2.732
 1327SOL    HW1 4880   2.578   5.215   2.748
 1327SOL    HW2 4881   2.420   5.225   2.785
 1328SOL     OW 4882   1.363   2.514   6.537
 1328SOL    HW1 4883   1.433   2.443   6.534
 1328SOL    HW2 4884   1.367   2.561   6.625
 1329SOL     OW 4885   0.150   1.451   0.451
 1329SOL    HW1 4886   0.213   1.526   0.432
 1329SOL    HW2 4887   0.158   1.422   0.547
 1330SOL     OW 4888   6.335   0.486   0.920
 1330SOL    HW1 4889   6.362   0.467   1.014
 1330SOL    HW2 4890   6.250   0.438   0.899
 1331SOL     OW 4891   5.735   1.249   2.802
 1331SOL    HW1 4892   5.752   1.166   2.749
 1331SOL    HW2 4893   5.637   1.259   2.818
 1332SOL     OW 4894   3.997   1.470   1.106
 1332SOL    HW1 4895   4.006   1.377   1.141
 1332SOL    HW2 4896   4.088   1.511   1.098
 1333SOL     OW 4897   3.656   4.227   5.259
 1333SOL    HW1 4898   3.743   4.182   5.283
 1333SOL    HW2 4899   3.637   4.210   5.162
 1334SOL     OW 4900   1.602   3.364   5.025
 1334SOL    HW1 4901   1.603   3.396   5.120
 1334SOL    HW2 4902   1.538   3.288   5.016
 1335SOL     OW 4903   2.432   6.730   2.613
 1335SOL    HW1 4904   2.510   6.680   2.575
 1335SOL    HW2 4905   2.371   6.667   2.660
 1336SOL     OW 4906   1.330   1.465   6.641
 1336SOL    HW1 4907   1.366   1.556   6.622
 1336SOL    HW2 4908   1.233   1.463   6.617
 1337SOL     OW 4909   2.121   2.628   6.365
 1337SOL    HW1 4910   2.202   2.570   6.367
 1337SOL    HW2 4911   2.144   2.720   6.396
 1338SOL     OW 4912   4.522   4.266   6.494
 1338SOL    HW1 4913   4.491   4.267   6.589
 1338SOL    HW2 4914   4.444   4.283   6.433
 1339SOL     OW 4915   0.084   4.907   6.586
 1339SOL    HW1 4916   0.076   4.815   6.549
 1339SOL    HW2 4917   0.075   4.974   6.512
 1340SOL     OW 4918   1.055   1.887   0.660
 1340SOL    HW1 4919   1.069   1.861   0.755
 1340SOL    HW2 4920   1.130   1.851   0.604
 1341SOL     OW 4921   3.842   0.888   4.777
 1341SOL    HW1 4922   3.856   0.859   4.683
 1341SOL    HW2 4923   3.884   0.822   4.840
 1342SOL     OW 4924   1.218   6.245   5.958
 1342SOL    HW1 4925   1.262   6.317   6.012
 1342SOL    HW2 4926   1.203   6.278   5.865
 1343SOL     OW 4927   3.486   6.724   2.576
 1343SOL    HW1 4928   3.543   6.793   2.621
 1343SOL    HW2 4929   3.544   6.659   2.528
 1344SOL     OW 4930   6.145   1.720   3.022
 1344SOL    HW1 4931   6.195   1.662   2.957
 1344SOL    HW2 4932   6.050   1.690   3.027
 1345SOL     OW 4933   0.568   1.037   3.101
 1345SOL    HW1 4934   0.515   0.988   3.170
 1345SOL    HW2 4935   0.569   1.135   3.122
 1346SOL     OW 4936   1.143   6.380   3.571
 1346SOL    HW1 4937   1.094   6.362   3.656
 1346SOL    HW2 4938   1.140   6.478   3.551
 1347SOL     OW 4939   6.470   6.778   3.301
 1347SOL    HW1 4940   6.501   6.697   3.351
 1347SOL    HW2 4941   6.402   6.826   3.356
 1348SOL     OW 4942   5.484   4.706   4.162
 1348SOL    HW1 4943   5.549   4.645   4.116
 1348SOL    HW2 4944   5.533   4.782   4.204
 1349SOL     OW 4945   4.415   2.679   0.029
 1349SOL    HW1 4946   4.491   2.734   0.064
 1349SOL    HW2 4947   4.329   2.725   0.048
 1350SOL     OW 4948   3.433   4.552   6.580
 1350SOL    HW1 4949   3.353   4.498   6.605
 1350SOL    HW2 4950   3.446   4.549   6.481
 1351SOL     OW 4951   0.626   0.160   2.952
 1351SOL    HW1 4952   0.596   0.253   2.971
 1351SOL    HW2 4953   0.672   0.157   2.863
 1352SOL     OW 4954   6.402   0.381   3.769
 1352SOL    HW1 4955   6.347   0.332   3.701
 1352SOL    HW2 4956   6.496   0.392   3.734
 1353SOL     OW 4957   6.860   4.153   4.954
 1353SOL    HW1 4958   6.851   4.242   4.999
 1353SOL    HW2 4959   6.919   4.093   5.008
 1354SOL     OW 4960   0.131   0.721   0.959
 1354SOL    HW1 4961   0.120   0.820   0.961
 1354SOL    HW2 4962   0.142   0.691   0.864
 1355SOL     OW 4963   5.247   4.253   0.555
 1355SOL    HW1 4964   5.155   4.265   0.520
 1355SOL    HW2 4965   5.261   4.315   0.633
 1356SOL     OW 4966   3.201   4.094   2.658
 1356SOL    HW1 4967   3.293   4.112   2.692
 1356SOL    HW2 4968   3.135   4.151   2.707
 1357SOL     OW 4969   2.818   3.259   6.191
 1357SOL    HW1 4970   2.777   3.212   6.113
 1357SOL    HW2 4971   2.817   3.199   6.270
 1358SOL     OW 4972   2.327   2.725   6.541
 1358SOL    HW1 4973   2.277   2.660   6.598
 1358SOL    HW2 4974   2.389   2.676   6.480
 1359SOL     OW 4975   6.134   3.886   1.606
 1359SOL    HW1 4976   6.035   3.898   1.602
 1359SOL    HW2 4977   6.165   3.845   1.520
 1360SOL     OW 4978   4.112   3.732   2.920
 1360SOL    HW1 4979   4.186   3.785   2.881
 1360SOL    HW2 4980   4.041   3.794   2.955
 1361SOL     OW 4981   0.912   0.033   6.156
 1361SOL    HW1 4982   0.841   0.037   6.086
 1361SOL    HW2 4983   0.900   6.981   6.210
 1362SOL     OW 4984   2.956   3.366   5.898
 1362SOL    HW1 4985   3.039   3.383   5.844
 1362SOL    HW2 4986   2.976   3.380   5.995
 1363SOL     OW 4987   6.647   6.140   3.146
 1363SOL    HW1 4988   6.611   6.047   3.153
 1363SOL    HW2 4989   6.746   6.138   3.154
 1364SOL     OW 4990   0.016   3.605   0.449
 1364SOL    HW1 4991   0.115   3.605   0.434
 1364SOL    HW2 4992   7.004   3.539   0.388
 1365SOL     OW 4993   1.423   3.370   5.408
 1365SOL    HW1 4994   1.358   3.297   5.387
 1365SOL    HW2 4995   1.372   3.455   5.423
 1366SOL     OW 4996   6.964   2.869   1.018
 1366SOL    HW1 4997   6.945   2.965   1.000
 1366SOL    HW2 4998   6.963   2.853   1.117
 1367SOL     OW 4999   1.249   4.427   3.700
 1367SOL    HW1 5000   1.334   4.397   3.742
 1367SOL    HW2 5001   1.239   4.385   3.610
 1368SOL     OW 5002   6.426   6.643   4.335
 1368SOL    HW1 5003   6.421   6.618   4.238
 1368SOL    HW2 5004   6.349   6.702   4.359
 1369SOL     OW 5005   1.896   6.003   2.160
 1369SOL    HW1 5006   1.829   5.942   2.202
 1369SOL    HW2 5007   1.850   6.058   2.090
 1370SOL     OW 5008   0.002   2.361   3.632
 1370SOL    HW1 5009   0.002   2.291   3.561
 1370SOL    HW2 5010   0.063   2.332   3.706
 1371SOL     OW 5011   6.160   1.028   4.611
 1371SOL    HW1 5012   6.166   0.949   4.550
 1371SOL    HW2 5013   6.236   1.090   4.593
 1372SOL     OW 5014   6.581   2.894   0.600
 1372SOL    HW1 5015   6.559   2.886   0.698
 1372SOL    HW2 5016   6.498   2.917   0.549
 1373SOL     OW 5017   4.453   2.309   1.431
 1373SOL    HW1 5018   4.538   2.262   1.452
 1373SOL    HW2 5019   4.452   2.398   1.478
 1374SOL     OW 5020   5.204   3.700   0.892
 1374SOL    HW1 5021   5.130   3.768   0.899
 1374SOL    HW2 5022   5.201   3.657   0.801
 1375SOL     OW 5023   6.650   5.454   5.891
 1375SOL    HW1 5024   6.653   5.546   5.853
 1375SOL    HW2 5025   6.576   5.402   5.847
 1376SOL     OW 5026   3.019   4.906   6.836
 1376SOL    HW1 5027   3.081   4.958   6.777
 1376SOL    HW2 5028   3.014   4.811   6.805
 1377SOL     OW 5029   0.926   2.657   3.541
 1377SOL    HW1 5030   0.918   2.730   3.473
 1377SOL    HW2 5031   0.999   2.679   3.605
 1378SOL     OW 5032   4.181   2.213   4.778
 1378SOL    HW1 5033   4.232   2.245   4.698
 1378SOL    HW2 5034   4.183   2.284   4.848
 1379SOL     OW 5035   4.921   5.480   2.158
 1379SOL    HW1 5036   4.875   5.406   2.207
 1379SOL    HW2 5037   5.017   5.456   2.144
 1380SOL     OW 5038   6.221   6.280   2.001
 1380SOL    HW1 5039   6.307   6.247   2.041
 1380SOL    HW2 5040   6.198   6.225   1.922
 1381SOL     OW 5041   5.648   2.246   6.262
 1381SOL    HW1 5042   5.677   2.341   6.271
 1381SOL    HW2 5043   5.718   2.186   6.299
 1382SOL     OW 5044   4.573   2.887   1.457
 1382SOL    HW1 5045   4.633   2.964   1.437
 1382SOL    HW2 5046   4.484   2.903   1.415
 1383SOL     OW 5047   1.819   6.445   1.639
 1383SOL    HW1 5048   1.814   6.525   1.698
 1383SOL    HW2 5049   1.749   6.379   1.667
 1384SOL     OW 5050   4.369   0.714   0.666
 1384SOL    HW1 5051   4.287   0.767   0.644
 1384SOL    HW2 5052   4.367   0.687   0.762
 1385SOL     OW 5053   2.024   4.886   3.700
 1385SOL    HW1 5054   1.928   4.887   3.673
 1385SOL    HW2 5055   2.033   4.843   3.789
 1386SOL     OW 5056   3.305   6.470   4.103
 1386SOL    HW1 5057   3.213   6.449   4.070
 1386SOL    HW2 5058   3.369   6.473   4.027
 1387SOL     OW 5059   3.715   5.908   1.680
 1387SOL    HW1 5060   3.641   5.872   1.622
 1387SOL    HW2 5061   3.740   6.000   1.648
 1388SOL     OW 5062   6.158   6.690   1.384
 1388SOL    HW1 5063   6.091   6.655   1.449
 1388SOL    HW2 5064   6.241   6.718   1.434
 1389SOL     OW 5065   5.704   1.129   3.063
 1389SOL    HW1 5066   5.689   1.212   3.118
 1389SOL    HW2 5067   5.693   1.151   2.966
 1390SOL     OW 5068   0.608   3.321   6.786
 1390SOL    HW1 5069   0.511   3.298   6.793
 1390SOL    HW2 5070   0.657   3.249   6.737
 1391SOL     OW 5071   6.565   0.722   3.893
 1391SOL    HW1 5072   6.531   0.755   3.982
 1391SOL    HW2 5073   6.566   0.797   3.828
 1392SOL     OW 5074   5.366   5.750   5.985
 1392SOL    HW1 5075   5.464   5.754   5.968
 1392SOL    HW2 5076   5.342   5.818   6.055
 1393SOL     OW 5077   6.341   5.460   5.255
 1393SOL    HW1 5078   6.428   5.415   5.275
 1393SOL    HW2 5079   6.275   5.440   5.328
 1394SOL     OW 5080   3.028   5.792   5.185
 1394SOL    HW1 5081   3.084   5.873   5.202
 1394SOL    HW2 5082   2.932   5.820   5.180
 1395SOL     OW 5083   2.467   4.373   6.166
 1395SOL    HW1 5084   2.398   4.329   6.108
 1395SOL    HW2 5085   2.523   4.434   6.110
 1396SOL     OW 5086   2.092   0.557   3.880
 1396SOL    HW1 5087   2.072   0.593   3.971
 1396SOL    HW2 5088   2.186   0.581   3.855
 1397SOL     OW 5089   0.470   0.667   4.049
 1397SOL    HW1 5090   0.465   0.765   4.069
 1397SOL    HW2 5091   0.401   0.619   4.103
 1398SOL     OW 5092   1.804   1.248   5.628
 1398SOL    HW1 5093   1.761   1.248   5.718
 1398SOL    HW2 5094   1.737   1.223   5.559
 1399SOL     OW 5095   4.335   6.578   1.150
 1399SOL    HW1 5096   4.286   6.664   1.136
 1399SOL    HW2 5097   4.387   6.557   1.067
 1400SOL     OW 5098   0.084   2.086   2.506
 1400SOL    HW1 5099   0.056   2.109   2.413
 1400SOL    HW2 5100   0.158   2.147   2.535
 1401SOL     OW 5101   7.029   1.979   5.078
 1401SOL    HW1 5102   0.038   1.942   4.995
 1401SOL    HW2 5103   0.066   1.983   5.150
 1402SOL     OW 5104   0.986   4.460   0.298
 1402SOL    HW1 5105   1.040   4.402   0.359
 1402SOL    HW2 5106   0.899   4.482   0.342
 1403SOL     OW 5107   2.862   1.516   1.706
 1403SOL    HW1 5108   2.939   1.465   1.745
 1403SOL    HW2 5109   2.885   1.543   1.613
 1404SOL     OW 5110   5.273   0.315   0.416
 1404SOL    HW1 5111   5.189   0.367   0.434
 1404SOL    HW2 5112   5.281   0.298   0.318
 1405SOL     OW 5113   2.173   3.862   1.081
 1405SOL    HW1 5114   2.175   3.802   1.161
 1405SOL    HW2 5115   2.227   3.945   1.101
 1406SOL     OW 5116   1.407   4.922   1.692
 1406SOL    HW1 5117   1.483   4.945   1.752
 1406SOL    HW2 5118   1.324   4.966   1.725
 1407SOL     OW 5119   0.639   2.111   1.635
 1407SOL    HW1 5120   0.721   2.119   1.691
 1407SOL    HW2 5121   0.626   2.015   1.610
 1408SOL     OW 5122   5.514   0.940   5.989
 1408SOL    HW1 5123   5.526   0.883   6.070
 1408SOL    HW2 5124   5.543   1.034   6.009
 1409SOL     OW 5125   0.629   0.245   5.298
 1409SOL    HW1 5126   0.632   0.166   5.238
 1409SOL    HW2 5127   0.534   0.273   5.311
 1410SOL     OW 5128   2.203   3.663   6.513
 1410SOL    HW1 5129   2.240   3.696   6.600
 1410SOL    HW2 5130   2.246   3.713   6.437
 1411SOL     OW 5131   3.099   6.400   2.737
 1411SOL    HW1 5132   3.101   6.357   2.828
 1411SOL    HW2 5133   3.179   6.458   2.725
 1412SOL     OW 5134   0.638   2.535   0.375
 1412SOL    HW1 5135   0.582   2.552   0.456
 1412SOL    HW2 5136   0.579   2.517   0.296
 1413SOL     OW 5137   2.063   1.324   4.526
 1413SOL    HW1 5138   2.150   1.280   4.502
 1413SOL    HW2 5139   1.993   1.295   4.461
 1414SOL     OW 5140   2.272   0.928   1.441
 1414SOL    HW1 5141   2.315   1.005   1.487
 1414SOL    HW2 5142   2.173   0.931   1.454
 1415SOL     OW 5143   2.436   0.384   4.789
 1415SOL    HW1 5144   2.368   0.452   4.817
 1415SOL    HW2 5145   2.428   0.370   4.690
 1416SOL     OW 5146   4.482   4.572   4.209
 1416SOL    HW1 5147   4.556   4.638   4.204
 1416SOL    HW2 5148   4.519   4.480   4.195
 1417SOL     OW 5149   2.388   1.793   0.303
 1417SOL    HW1 5150   2.295   1.828   0.288
 1417SOL    HW2 5151   2.384   1.716   0.367
 1418SOL     OW 5152   2.931   3.339   3.623
 1418SOL    HW1 5153   2.962   3.309   3.533
 1418SOL    HW2 5154   2.908   3.436   3.619
 1419SOL     OW 5155   3.151   6.658   4.655
 1419SOL    HW1 5156   3.201   6.693   4.576
 1419SOL    HW2 5157   3.116   6.566   4.634
 1420SOL     OW 5158   1.929   6.225   1.505
 1420SOL    HW1 5159   1.883   6.308   1.536
 1420SOL    HW2 5160   1.868   6.175   1.443
 1421SOL     OW 5161   2.078   3.258   3.220
 1421SOL    HW1 5162   2.026   3.254   3.305
 1421SOL    HW2 5163   2.060   3.177   3.165
 1422SOL     OW 5164   2.458   4.495   1.431
 1422SOL    HW1 5165   2.391   4.439   1.480
 1422SOL    HW2 5166   2.480   4.452   1.344
 1423SOL     OW 5167   4.797   6.602   2.613
 1423SOL    HW1 5168   4.787   6.511   2.574
 1423SOL    HW2 5169   4.720   6.623   2.673
 1424SOL     OW 5170   6.439   4.108   4.929
 1424SOL    HW1 5171   6.467   4.203   4.911
 1424SOL    HW2 5172   6.342   4.097   4.905
 1425SOL     OW 5173   1.362   6.050   4.415
 1425SOL    HW1 5174   1.281   5.999   4.385
 1425SOL    HW2 5175   1.425   5.987   4.462
 1426SOL     OW 5176   1.388   2.204   5.747
 1426SOL    HW1 5177   1.334   2.159   5.817
 1426SOL    HW2 5178   1.353   2.296   5.732
 1427SOL     OW 5179   0.191   7.015   2.963
 1427SOL    HW1 5180   0.281   6.999   3.002
 1427SOL    HW2 5181   0.201   0.024   2.872
 1428SOL     OW 5182   6.137   2.771   0.834
 1428SOL    HW1 5183   6.199   2.746   0.908
 1428SOL    HW2 5184   6.126   2.871   0.832
 1429SOL     OW 5185   5.855   1.975   0.043
 1429SOL    HW1 5186   5.923   2.046   0.024
 1429SOL    HW2 5187   5.781   2.013   0.099
 1430SOL     OW 5188   1.909   4.799   4.292
 1430SOL    HW1 5189   1.908   4.803   4.192
 1430SOL    HW2 5190   1.974   4.729   4.322
 1431SOL     OW 5191   1.883   1.584   0.814
 1431SOL    HW1 5192   1.938   1.516   0.864
 1431SOL    HW2 5193   1.795   1.544   0.790
 1432SOL     OW 5194   3.009   1.488   2.975
 1432SOL    HW1 5195   3.093   1.498   3.028
 1432SOL    HW2 5196   2.936   1.455   3.034
 1433SOL     OW 5197   4.638   1.467   3.917
 1433SOL    HW1 5198   4.543   1.434   3.920
 1433SOL    HW2 5199   4.676   1.453   3.826
 1434SOL     OW 5200   6.823   0.895   5.917
 1434SOL    HW1 5201   6.808   0.993   5.905
 1434SOL    HW2 5202   6.737   0.852   5.946
 1435SOL     OW 5203   5.593   1.084   2.409
 1435SOL    HW1 5204   5.600   1.167   2.355
 1435SOL    HW2 5205   5.663   1.085   2.481
 1436SOL     OW 5206   5.419   3.869   0.608
 1436SOL    HW1 5207   5.468   3.945   0.651
 1436SOL    HW2 5208   5.485   3.801   0.577
 1437SOL     OW 5209   2.439   2.525   3.457
 1437SOL    HW1 5210   2.440   2.609   3.511
 1437SOL    HW2 5211   2.456   2.546   3.361
 1438SOL     OW 5212   3.357   6.576   1.174
 1438SOL    HW1 5213   3.343   6.549   1.269
 1438SOL    HW2 5214   3.423   6.652   1.171
 1439SOL     OW 5215   7.012   5.550   1.301
 1439SOL    HW1 5216   0.049   5.528   1.232
 1439SOL    HW2 5217   7.022   5.646   1.329
 1440SOL     OW 5218   3.054   3.932   0.998
 1440SOL    HW1 5219   3.154   3.937   1.002
 1440SOL    HW2 5220   3.026   3.861   0.934
 1441SOL     OW 5221   5.758   0.443   2.269
 1441SOL    HW1 5222   5.786   0.524   2.321
 1441SOL    HW2 5223   5.838   0.389   2.246
 1442SOL     OW 5224   6.376   5.482   0.416
 1442SOL    HW1 5225   6.318   5.562   0.400
 1442SOL    HW2 5226   6.466   5.497   0.376
 1443SOL     OW 5227   0.767   2.253   2.533
 1443SOL    HW1 5228   0.718   2.265   2.447
 1443SOL    HW2 5229   0.865   2.267   2.518
 1444SOL     OW 5230   5.193   0.523   0.700
 1444SOL    HW1 5231   5.269   0.558   0.646
 1444SOL    HW2 5232   5.227   0.456   0.767
 1445SOL     OW 5233   1.192   3.223   2.520
 1445SOL    HW1 5234   1.116   3.161   2.507
 1445SOL    HW2 5235   1.163   3.301   2.576
 1446SOL     OW 5236   6.564   0.797   6.976
 1446SOL    HW1 5237   6.611   0.878   7.013
 1446SOL    HW2 5238   6.625   0.749   6.913
 1447SOL     OW 5239   6.254   5.270   4.150
 1447SOL    HW1 5240   6.180   5.207   4.172
 1447SOL    HW2 5241   6.253   5.290   4.052
 1448SOL     OW 5242   6.466   2.879   4.925
 1448SOL    HW1 5243   6.426   2.895   4.835
 1448SOL    HW2 5244   6.548   2.935   4.936
 1449SOL     OW 5245   1.374   4.140   5.238
 1449SOL    HW1 5246   1.354   4.049   5.272
 1449SOL    HW2 5247   1.419   4.194   5.309
 1450SOL     OW 5248   0.879   2.339   6.601
 1450SOL    HW1 5249   0.972   2.310   6.623
 1450SOL    HW2 5250   0.828   2.263   6.562
 1451SOL     OW 5251   1.378   6.102   2.722
 1451SOL    HW1 5252   1.343   6.157   2.646
 1451SOL    HW2 5253   1.390   6.160   2.803
 1452SOL     OW 5254   4.332   2.620   5.343
 1452SOL    HW1 5255   4.299   2.545   5.286
 1452SOL    HW2 5256   4.279   2.624   5.427
 1453SOL     OW 5257   0.496   4.401   5.886
 1453SOL    HW1 5258   0.432   4.474   5.864
 1453SOL    HW2 5259   0.567   4.436   5.947
 1454SOL     OW 5260   1.906   1.976   2.540
 1454SOL    HW1 5261   1.963   2.049   2.501
 1454SOL    HW2 5262   1.883   1.910   2.468
 1455SOL     OW 5263   1.790   6.684   2.502
 1455SOL    HW1 5264   1.696   6.651   2.493
 1455SOL    HW2 5265   1.843   6.618   2.556
 1456SOL     OW 5266   6.592   6.583   5.852
 1456SOL    HW1 5267   6.554   6.668   5.817
 1456SOL    HW2 5268   6.626   6.528   5.776
 1457SOL     OW 5269   1.662   4.681   6.984
 1457SOL    HW1 5270   1.610   4.757   7.023
 1457SOL    HW2 5271   1.605   4.599   6.983
 1458SOL     OW 5272   5.413   4.955   5.439
 1458SOL    HW1 5273   5.432   5.022   5.511
 1458SOL    HW2 5274   5.478   4.879   5.446
 1459SOL     OW 5275   4.316   6.974   6.337
 1459SOL    HW1 5276   4.318   6.934   6.429
 1459SOL    HW2 5277   4.254   6.921   6.279
 1460SOL     OW 5278   1.572   6.795   5.010
 1460SOL    HW1 5279   1.626   6.713   4.991
 1460SOL    HW2 5280   1.624   6.855   5.071
 1461SOL     OW 5281   0.235   4.081   2.991
 1461SOL    HW1 5282   0.178   4.052   2.914
 1461SOL    HW2 5283   0.297   4.007   3.017
 1462SOL     OW 5284   1.011   0.567   6.698
 1462SOL    HW1 5285   1.010   0.658   6.741
 1462SOL    HW2 5286   0.917   0.537   6.682
 1463SOL     OW 5287   0.895   4.648   5.572
 1463SOL    HW1 5288   0.900   4.721   5.504
 1463SOL    HW2 5289   0.807   4.601   5.565
 1464SOL     OW 5290   6.811   4.858   2.871
 1464SOL    HW1 5291   6.733   4.852   2.810
 1464SOL    HW2 5292   6.888   4.901   2.823
 1465SOL     OW 5293   2.332   1.881   3.772
 1465SOL    HW1 5294   2.353   1.823   3.693
 1465SOL    HW2 5295   2.238   1.914   3.764
 1466SOL     OW 5296   4.070   1.865   2.075
 1466SOL    HW1 5297   4.110   1.937   2.132
 1466SOL    HW2 5298   4.133   1.787   2.070
 1467SOL     OW 5299   2.145   1.361   4.033
 1467SOL    HW1 5300   2.214   1.358   4.105
 1467SOL    HW2 5301   2.159   1.442   3.976
 1468SOL     OW 5302   2.020   5.554   2.014
 1468SOL    HW1 5303   2.036   5.510   2.103
 1468SOL    HW2 5304   2.099   5.611   1.991
 1469SOL     OW 5305   6.506   6.149   2.723
 1469SOL    HW1 5306   6.599   6.156   2.761
 1469SOL    HW2 5307   6.443   6.120   2.795
 1470SOL     OW 5308   0.078   2.107   1.878
 1470SOL    HW1 5309   0.063   2.175   1.949
 1470SOL    HW2 5310   0.046   2.018   1.910
 1471SOL     OW 5311   1.141   0.272   7.030
 1471SOL    HW1 5312   1.153   0.202   0.069
 1471SOL    HW2 5313   1.091   0.232   6.952
 1472SOL     OW 5314   3.072   5.732   0.324
 1472SOL    HW1 5315   3.034   5.820   0.352
 1472SOL    HW2 5316   3.171   5.733   0.334
 1473SOL     OW 5317   2.779   5.895   5.139
 1473SOL    HW1 5318   2.810   5.935   5.226
 1473SOL    HW2 5319   2.684   5.918   5.123
 1474SOL     OW 5320   4.259   4.402   1.238
 1474SOL    HW1 5321   4.245   4.351   1.153
 1474SOL    HW2 5322   4.254   4.340   1.316
 1475SOL     OW 5323   5.188   1.334   6.941
 1475SOL    HW1 5324   5.099   1.379   6.941
 1475SOL    HW2 5325   5.207   1.295   7.031
 1476SOL     OW 5326   2.324   1.161   1.570
 1476SOL    HW1 5327   2.267   1.243   1.578
 1476SOL    HW2 5328   2.353   1.131   1.661
 1477SOL     OW 5329   3.455   6.765   0.263
 1477SOL    HW1 5330   3.434   6.670   0.286
 1477SOL    HW2 5331   3.508   6.768   0.178
 1478SOL     OW 5332   5.799   6.255   5.423
 1478SOL    HW1 5333   5.850   6.181   5.465
 1478SOL    HW2 5334   5.731   6.218   5.359
 1479SOL     OW 5335   3.297   3.175   1.705
 1479SOL    HW1 5336   3.246   3.242   1.651
 1479SOL    HW2 5337   3.318   3.215   1.795
 1480SOL     OW 5338   2.473   0.330   6.205
 1480SOL    HW1 5339   2.564   0.321   6.164
 1480SOL    HW2 5340   2.476   0.296   6.299
 1481SOL     OW 5341   5.790   3.399   5.775
 1481SOL    HW1 5342   5.746   3.480   5.815
 1481SOL    HW2 5343   5.731   3.319   5.789
 1482SOL     OW 5344   4.380   0.725   0.963
 1482SOL    HW1 5345   4.353   0.683   1.049
 1482SOL    HW2 5346   4.479   0.734   0.959
 1483SOL     OW 5347   5.684   2.533   5.595
 1483SOL    HW1 5348   5.762   2.474   5.615
 1483SOL    HW2 5349   5.657   2.522   5.499
 1484SOL     OW 5350   4.732   5.237   3.808
 1484SOL    HW1 5351   4.674   5.298   3.753
 1484SOL    HW2 5352   4.752   5.281   3.896
 1485SOL     OW 5353   5.116   0.722   4.057
 1485SOL    HW1 5354   5.177   0.793   4.093
 1485SOL    HW2 5355   5.155   0.684   3.973
 1486SOL     OW 5356   4.928   6.848   3.303
 1486SOL    HW1 5357   4.848   6.796   3.275
 1486SOL    HW2 5358   5.010   6.791   3.295
 1487SOL     OW 5359   0.231   1.665   6.838
 1487SOL    HW1 5360   0.212   1.658   6.936
 1487SOL    HW2 5361   0.315   1.616   6.816
 1488SOL     OW 5362   5.181   0.652   3.339
 1488SOL    HW1 5363   5.252   0.702   3.288
 1488SOL    HW2 5364   5.131   0.593   3.276
 1489SOL     OW 5365   4.260   4.316   5.832
 1489SOL    HW1 5366   4.268   4.373   5.914
 1489SOL    HW2 5367   4.168   4.326   5.793
 1490SOL     OW 5368   0.404   3.368   0.641
 1490SOL    HW1 5369   0.437   3.346   0.733
 1490SOL    HW2 5370   0.444   3.304   0.575
 1491SOL     OW 5371   6.586   4.038   2.607
 1491SOL    HW1 5372   6.604   4.089   2.523
 1491SOL    HW2 5373   6.509   3.975   2.592
 1492SOL     OW 5374   6.558   0.209   2.204
 1492SOL    HW1 5375   6.459   0.194   2.199
 1492SOL    HW2 5376   6.606   0.124   2.182
 1493SOL     OW 5377   3.664   0.816   6.597
 1493SOL    HW1 5378   3.614   0.753   6.657
 1493SOL    HW2 5379   3.604   0.891   6.570
 1494SOL     OW 5380   5.473   2.973   6.949
 1494SOL    HW1 5381   5.528   2.955   6.868
 1494SOL    HW2 5382   5.523   2.945   7.031
 1495SOL     OW 5383   6.869   4.189   4.674
 1495SOL    HW1 5384   6.956   4.151   4.645
 1495SOL    HW2 5385   6.851   4.163   4.769
 1496SOL     OW 5386   0.484   0.306   0.310
 1496SOL    HW1 5387   0.491   0.222   0.257
 1496SOL    HW2 5388   0.530   0.294   0.398
 1497SOL     OW 5389   5.237   3.033   2.205
 1497SOL    HW1 5390   5.260   3.055   2.300
 1497SOL    HW2 5391   5.138   3.028   2.196
 1498SOL     OW 5392   2.980   4.056   1.210
 1498SOL    HW1 5393   3.015   4.014   1.126
 1498SOL    HW2 5394   3.046   4.043   1.284
 1499SOL     OW 5395   0.428   3.814   6.405
 1499SOL    HW1 5396   0.527   3.823   6.404
 1499SOL    HW2 5397   0.389   3.883   6.466
 1500SOL     OW 5398   1.173   6.143   6.282
 1500SOL    HW1 5399   1.176   6.127   6.184
 1500SOL    HW2 5400   1.143   6.237   6.299
 1501SOL     OW 5401   5.911   1.992   6.642
 1501SOL    HW1 5402   6.004   1.961   6.657
 1501SOL    HW2 5403   5.903   2.088   6.669
 1502SOL     OW 5404   5.136   1.495   6.619
 1502SOL    HW1 5405   5.081   1.413   6.607
 1502SOL    HW2 5406   5.232   1.474   6.597
 1503SOL     OW 5407   0.547   3.065   2.798
 1503SOL    HW1 5408   0.618   3.120   2.841
 1503SOL    HW2 5409   0.510   3.000   2.864
 1504SOL     OW 5410   0.889   0.350   3.279
 1504SOL    HW1 5411   0.953   0.355   3.355
 1504SOL    HW2 5412   0.935   0.310   3.200
 1505SOL     OW 5413   5.126   0.138   5.609
 1505SOL    HW1 5414   5.194   0.126   5.681
 1505SOL    HW2 5415   5.144   0.223   5.560
 1506SOL     OW 5416   1.352   0.443   6.976
 1506SOL    HW1 5417   1.415   0.502   7.027
 1506SOL    HW2 5418   1.285   0.403   0.007
 1507SOL     OW 5419   6.891   2.026   4.763
 1507SOL    HW1 5420   6.827   2.077   4.820
 1507SOL    HW2 5421   6.983   2.065   4.774
 1508SOL     OW 5422   0.237   1.782   1.134
 1508SOL    HW1 5423   0.187   1.701   1.102
 1508SOL    HW2 5424   0.214   1.801   1.229
 1509SOL     OW 5425   4.746   2.075   4.583
 1509SOL    HW1 5426   4.783   2.047   4.494
 1509SOL    HW2 5427   4.810   2.137   4.627
 1510SOL     OW 5428   5.129   6.891   4.527
 1510SOL    HW1 5429   5.102   6.877   4.622
 1510SOL    HW2 5430   5.225   6.920   4.524
 1511SOL     OW 5431   3.503   3.615   4.011
 1511SOL    HW1 5432   3.475   3.520   4.024
 1511SOL    HW2 5433   3.476   3.669   4.091
 1512SOL     OW 5434   6.263   5.267   1.809
 1512SOL    HW1 5435   6.352   5.223   1.810
 1512SOL    HW2 5436   6.240   5.297   1.901
 1513SOL     OW 5437   3.196   0.095   4.727
 1513SOL    HW1 5438   3.199   0.004   4.769
 1513SOL    HW2 5439   3.171   0.163   4.796
 1514SOL     OW 5440   3.511   2.330   5.731
 1514SOL    HW1 5441   3.491   2.387   5.652
 1514SOL    HW2 5442   3.576   2.259   5.706
 1515SOL     OW 5443   6.600   1.304   2.335
 1515SOL    HW1 5444   6.566   1.236   2.270
 1515SOL    HW2 5445   6.542   1.303   2.417
 1516SOL     OW 5446   5.677   5.611   5.379
 1516SOL    HW1 5447   5.578   5.614   5.368
 1516SOL    HW2 5448   5.702   5.527   5.427
 1517SOL     OW 5449   4.287   6.720   3.169
 1517SOL    HW1 5450   4.198   6.743   3.131
 1517SOL    HW2 5451   4.296   6.620   3.175
 1518SOL     OW 5452   6.065   3.699   0.453
 1518SOL    HW1 5453   6.076   3.796   0.479
 1518SOL    HW2 5454   5.981   3.663   0.492
 1519SOL     OW 5455   6.835   4.382   1.269
 1519SOL    HW1 5456   6.908   4.315   1.282
 1519SOL    HW2 5457   6.789   4.366   1.181
 1520SOL     OW 5458   0.858   4.405   1.585
 1520SOL    HW1 5459   0.772   4.366   1.619
 1520SOL    HW2 5460   0.931   4.337   1.592
 1521SOL     OW 5461   1.934   4.872   0.027
 1521SOL    HW1 5462   1.986   4.928   0.091
 1521SOL    HW2 5463   1.842   4.910   0.017
 1522SOL     OW 5464   5.838   5.609   4.535
 1522SOL    HW1 5465   5.881   5.525   4.501
 1522SOL    HW2 5466   5.753   5.626   4.484
 1523SOL     OW 5467   3.833   6.822   6.622
 1523SOL    HW1 5468   3.763   6.752   6.606
 1523SOL    HW2 5469   3.794   6.912   6.602
 1524SOL     OW 5470   2.850   1.960   2.701
 1524SOL    HW1 5471   2.904   1.885   2.737
 1524SOL    HW2 5472   2.820   1.938   2.608
 1525SOL     OW 5473   5.618   3.073   1.168
 1525SOL    HW1 5474   5.629   3.131   1.248
 1525SOL    HW2 5475   5.532   3.096   1.122
 1526SOL     OW 5476   6.986   0.604   6.530
 1526SOL    HW1 5477   0.042   0.652   6.522
 1526SOL    HW2 5478   6.914   0.658   6.486
 1527SOL     OW 5479   3.575   0.762   4.845
 1527SOL    HW1 5480   3.594   0.775   4.748
 1527SOL    HW2 5481   3.624   0.831   4.898
 1528SOL     OW 5482   4.233   5.143   1.811
 1528SOL    HW1 5483   4.200   5.195   1.732
 1528SOL    HW2 5484   4.195   5.181   1.895
 1529SOL     OW 5485   4.906   1.192   6.735
 1529SOL    HW1 5486   4.820   1.241   6.750
 1529SOL    HW2 5487   4.927   1.135   6.815
 1530SOL     OW 5488   3.065   1.179   1.219
 1530SOL    HW1 5489   2.968   1.201   1.223
 1530SOL    HW2 5490   3.111   1.216   1.299
 1531SOL     OW 5491   4.591   0.776   4.872
 1531SOL    HW1 5492   4.566   0.707   4.941
 1531SOL    HW2 5493   4.564   0.867   4.905
 1532SOL     OW 5494   3.740   4.395   5.602
 1532SOL    HW1 5495   3.769   4.491   5.597
 1532SOL    HW2 5496   3.640   4.392   5.613
 1533SOL     OW 5497   5.251   5.576   0.598
 1533SOL    HW1 5498   5.232   5.601   0.693
 1533SOL    HW2 5499   5.216   5.484   0.581
 1534SOL     OW 5500   3.298   5.248   6.335
 1534SOL    HW1 5501   3.336   5.163   6.372
 1534SOL    HW2 5502   3.199   5.237   6.321
 1535SOL     OW 5503   5.526   5.956   4.712
 1535SOL    HW1 5504   5.457   5.886   4.731
 1535SOL    HW2 5505   5.512   6.034   4.772
 1536SOL     OW 5506   3.887   5.067   6.396
 1536SOL    HW1 5507   3.816   5.104   6.336
 1536SOL    HW2 5508   3.847   5.049   6.486
 1537SOL     OW 5509   4.275   5.933   3.340
 1537SOL    HW1 5510   4.182   5.917   3.373
 1537SOL    HW2 5511   4.277   6.018   3.288
 1538SOL     OW 5512   3.157   0.229   6.637
 1538SOL    HW1 5513   3.116   0.154   6.688
 1538SOL    HW2 5514   3.158   0.312   6.693
 1539SOL     OW 5515   4.966   3.005   2.207
 1539SOL    HW1 5516   4.902   3.022   2.132
 1539SOL    HW2 5517   4.953   3.074   2.278
 1540SOL     OW 5518   0.221   6.728   5.365
 1540SOL    HW1 5519   0.207   6.744   5.463
 1540SOL    HW2 5520   0.238   6.814   5.319
 1541SOL     OW 5521   3.128   4.044   3.932
 1541SOL    HW1 5522   3.218   4.010   3.957
 1541SOL    HW2 5523   3.128   4.144   3.933
 1542SOL     OW 5524   6.662   0.027   1.854
 1542SOL    HW1 5525   6.689   6.966   1.883
 1542SOL    HW2 5526   6.564   0.038   1.866
 1543SOL     OW 5527   3.543   5.707   5.534
 1543SOL    HW1 5528   3.520   5.646   5.610
 1543SOL    HW2 5529   3.492   5.679   5.452
 1544SOL     OW 5530   3.005   3.835   3.436
 1544SOL    HW1 5531   3.037   3.901   3.368
 1544SOL    HW2 5532   3.036   3.864   3.527
 1545SOL     OW 5533   4.716   0.972   2.741
 1545SOL    HW1 5534   4.772   0.956   2.822
 1545SOL    HW2 5535   4.651   0.897   2.729
 1546SOL     OW 5536   5.408   6.389   6.154
 1546SOL    HW1 5537   5.363   6.353   6.073
 1546SOL    HW2 5538   5.355   6.362   6.235
 1547SOL     OW 5539   1.354   3.659   1.475
 1547SOL    HW1 5540   1.361   3.562   1.451
 1547SOL    HW2 5541   1.439   3.706   1.452
 1548SOL     OW 5542   4.878   3.789   0.319
 1548SOL    HW1 5543   4.936   3.711   0.293
 1548SOL    HW2 5544   4.782   3.763   0.313
 1549SOL     OW 5545   4.250   1.355   2.677
 1549SOL    HW1 5546   4.170   1.376   2.732
 1549SOL    HW2 5547   4.298   1.276   2.715
 1550SOL     OW 5548   3.904   3.408   1.544
 1550SOL    HW1 5549   3.907   3.332   1.480
 1550SOL    HW2 5550   3.809   3.429   1.567
 1551SOL     OW 5551   1.703   4.922   6.830
 1551SOL    HW1 5552   1.702   4.827   6.860
 1551SOL    HW2 5553   1.668   4.928   6.736
 1552SOL     OW 5554   1.477   5.522   0.536
 1552SOL    HW1 5555   1.519   5.571   0.460
 1552SOL    HW2 5556   1.534   5.444   0.561
 1553SOL     OW 5557   6.794   1.738   6.480
 1553SOL    HW1 5558   6.698   1.763   6.467
 1553SOL    HW2 5559   6.847   1.770   6.401
 1554SOL     OW 5560   3.128   2.066   3.531
 1554SOL    HW1 5561   3.117   1.969   3.508
 1554SOL    HW2 5562   3.118   2.121   3.448
 1555SOL     OW 5563   5.824   3.290   6.777
 1555SOL    HW1 5564   5.750   3.273   6.841
 1555SOL    HW2 5565   5.862   3.204   6.745
 1556SOL     OW 5566   1.628   1.653   6.088
 1556SOL    HW1 5567   1.579   1.734   6.121
 1556SOL    HW2 5568   1.645   1.662   5.990
 1557SOL     OW 5569   2.026   4.027   5.994
 1557SOL    HW1 5570   2.019   3.945   5.937
 1557SOL    HW2 5571   1.952   4.090   5.971
 1558SOL     OW 5572   6.139   0.814   4.453
 1558SOL    HW1 5573   6.127   0.762   4.368
 1558SOL    HW2 5574   6.147   0.751   4.530
 1559SOL     OW 5575   1.853   3.263   6.291
 1559SOL    HW1 5576   1.773   3.302   6.336
 1559SOL    HW2 5577   1.838   3.262   6.192
 1560SOL     OW 5578   6.922   0.124   5.847
 1560SOL    HW1 5579   6.889   0.135   5.940
 1560SOL    HW2 5580   6.986   0.197   5.825
 1561SOL     OW 5581   5.081   6.456   3.744
 1561SOL    HW1 5582   5.001   6.432   3.800
 1561SOL    HW2 5583   5.071   6.550   3.711
 1562SOL     OW 5584   4.983   6.362   2.532
 1562SOL    HW1 5585   5.066   6.390   2.580
 1562SOL    HW2 5586   4.935   6.293   2.585
 1563SOL     OW 5587   2.986   0.714   5.680
 1563SOL    HW1 5588   2.966   0.721   5.778
 1563SOL    HW2 5589   3.023   0.801   5.648
 1564SOL     OW 5590   1.168   0.547   3.153
 1564SOL    HW1 5591   1.237   0.481   3.124
 1564SOL    HW2 5592   1.077   0.513   3.127
 1565SOL     OW 5593   4.677   4.360   3.044
 1565SOL    HW1 5594   4.687   4.452   3.007
 1565SOL    HW2 5595   4.656   4.296   2.969
 1566SOL     OW 5596   5.691   4.049   3.429
 1566SOL    HW1 5597   5.630   4.078   3.503
 1566SOL    HW2 5598   5.665   3.958   3.399
 1567SOL     OW 5599   6.096   6.085   0.547
 1567SOL    HW1 5600   6.073   6.175   0.510
 1567SOL    HW2 5601   6.030   6.061   0.619
 1568SOL     OW 5602   1.164   0.082   0.206
 1568SOL    HW1 5603   1.222   0.130   0.271
 1568SOL    HW2 5604   1.081   0.051   0.252
 1569SOL     OW 5605   4.317   6.428   3.095
 1569SOL    HW1 5606   4.313   6.477   3.008
 1569SOL    HW2 5607   4.411   6.431   3.131
 1570SOL     OW 5608   2.153   0.285   0.889
 1570SOL    HW1 5609   2.202   0.332   0.963
 1570SOL    HW2 5610   2.083   0.225   0.929
 1571SOL     OW 5611   5.847   3.286   0.920
 1571SOL    HW1 5612   5.851   3.190   0.946
 1571SOL    HW2 5613   5.815   3.341   0.997
 1572SOL     OW 5614   0.690   0.238   2.017
 1572SOL    HW1 5615   0.685   0.156   1.961
 1572SOL    HW2 5616   0.779   0.282   2.003
 1573SOL     OW 5617   4.712   1.328   1.671
 1573SOL    HW1 5618   4.631   1.300   1.721
 1573SOL    HW2 5619   4.794   1.308   1.725
 1574SOL     OW 5620   6.889   1.779   1.708
 1574SOL    HW1 5621   6.846   1.843   1.644
 1574SOL    HW2 5622   6.894   1.822   1.798
 1575SOL     OW 5623   2.384   1.278   0.609
 1575SOL    HW1 5624   2.428   1.292   0.698
 1575SOL    HW2 5625   2.321   1.353   0.591
 1576SOL     OW 5626   6.273   6.356   4.161
 1576SOL    HW1 5627   6.326   6.437   4.136
 1576SOL    HW2 5628   6.176   6.372   4.142
 1577SOL     OW 5629   2.834   1.444   4.565
 1577SOL    HW1 5630   2.785   1.530   4.550
 1577SOL    HW2 5631   2.851   1.399   4.477
 1578SOL     OW 5632   6.237   3.325   5.632
 1578SOL    HW1 5633   6.243   3.270   5.715
 1578SOL    HW2 5634   6.193   3.271   5.560
 1579SOL     OW 5635   0.245   1.526   3.415
 1579SOL    HW1 5636   0.163   1.581   3.403
 1579SOL    HW2 5637   0.240   1.478   3.503
 1580SOL     OW 5638   2.896   4.004   5.240
 1580SOL    HW1 5639   2.949   4.080   5.204
 1580SOL    HW2 5640   2.820   4.039   5.295
 1581SOL     OW 5641   0.367   4.630   4.419
 1581SOL    HW1 5642   0.385   4.652   4.323
 1581SOL    HW2 5643   0.440   4.571   4.453
 1582SOL     OW 5644   1.454   6.188   4.696
 1582SOL    HW1 5645   1.372   6.137   4.670
 1582SOL    HW2 5646   1.452   6.279   4.655
 1583SOL     OW 5647   1.621   2.229   4.168
 1583SOL    HW1 5648   1.669   2.265   4.248
 1583SOL    HW2 5649   1.523   2.247   4.176
 1584SOL     OW 5650   2.007   6.885   4.948
 1584SOL    HW1 5651   1.919   6.837   4.945
 1584SOL    HW2 5652   2.079   6.821   4.977
 1585SOL     OW 5653   5.553   1.692   3.397
 1585SOL    HW1 5654   5.491   1.769   3.390
 1585SOL    HW2 5655   5.638   1.712   3.347
 1586SOL     OW 5656   3.856   4.013   1.940
 1586SOL    HW1 5657   3.941   3.970   1.910
 1586SOL    HW2 5658   3.839   4.095   1.885
 1587SOL     OW 5659   3.003   5.175   6.315
 1587SOL    HW1 5660   3.049   5.103   6.262
 1587SOL    HW2 5661   3.004   5.260   6.263
 1588SOL     OW 5662   4.917   1.688   3.468
 1588SOL    HW1 5663   4.946   1.782   3.445
 1588SOL    HW2 5664   4.992   1.625   3.450
 1589SOL     OW 5665   5.454   4.201   3.735
 1589SOL    HW1 5666   5.415   4.271   3.794
 1589SOL    HW2 5667   5.552   4.193   3.753
 1590SOL     OW 5668   1.972   6.814   6.856
 1590SOL    HW1 5669   2.072   6.823   6.857
 1590SOL    HW2 5670   1.942   6.770   6.940
 1591SOL     OW 5671   1.228   5.043   3.311
 1591SOL    HW1 5672   1.327   5.031   3.304
 1591SOL    HW2 5673   1.184   5.006   3.229
 1592SOL     OW 5674   2.563   3.963   1.490
 1592SOL    HW1 5675   2.470   3.996   1.507
 1592SOL    HW2 5676   2.618   4.037   1.451
 1593SOL     OW 5677   1.065   6.538   4.385
 1593SOL    HW1 5678   0.993   6.470   4.372
 1593SOL    HW2 5679   1.061   6.572   4.479
 1594SOL     OW 5680   0.379   5.058   3.522
 1594SOL    HW1 5681   0.411   5.140   3.569
 1594SOL    HW2 5682   0.364   5.079   3.425
 1595SOL     OW 5683   0.336   4.626   6.393
 1595SOL    HW1 5684   0.309   4.585   6.480
 1595SOL    HW2 5685   0.381   4.714   6.411
 1596SOL     OW 5686   1.329   3.615   5.506
 1596SOL    HW1 5687   1.391   3.682   5.547
 1596SOL    HW2 5688   1.236   3.650   5.508
 1597SOL     OW 5689   2.826   5.437   0.811
 1597SOL    HW1 5690   2.877   5.454   0.727
 1597SOL    HW2 5691   2.784   5.523   0.842
 1598SOL     OW 5692   0.611   3.992   0.235
 1598SOL    HW1 5693   0.678   3.937   0.185
 1598SOL    HW2 5694   0.629   4.089   0.218
 1599SOL     OW 5695   4.684   3.481   5.575
 1599SOL    HW1 5696   4.754   3.530   5.627
 1599SOL    HW2 5697   4.635   3.418   5.636
 1600SOL     OW 5698   5.023   1.766   4.379
 1600SOL    HW1 5699   5.007   1.864   4.366
 1600SOL    HW2 5700   5.110   1.752   4.426
 1601SOL     OW 5701   1.241   4.742   4.894
 1601SOL    HW1 5702   1.341   4.737   4.889
 1601SOL    HW2 5703   1.215   4.825   4.944
 1602SOL     OW 5704   1.630   5.620   4.230
 1602SOL    HW1 5705   1.724   5.590   4.246
 1602SOL    HW2 5706   1.618   5.642   4.133
 1603SOL     OW 5707   1.602   6.259   1.708
 1603SOL    HW1 5708   1.583   6.244   1.805
 1603SOL    HW2 5709   1.521   6.298   1.664
 1604SOL     OW 5710   5.767   5.092   7.016
 1604SOL    HW1 5711   5.699   5.148   6.969
 1604SOL    HW2 5712   5.775   5.004   6.969
 1605SOL     OW 5713   6.387   0.084   1.883
 1605SOL    HW1 5714   6.353   7.024   1.861
 1605SOL    HW2 5715   6.310   0.147   1.893
 1606SOL     OW 5716   4.390   1.023   5.425
 1606SOL    HW1 5717   4.418   1.018   5.330
 1606SOL    HW2 5718   4.304   0.974   5.437
 1607SOL     OW 5719   5.480   2.642   1.030
 1607SOL    HW1 5720   5.404   2.590   0.991
 1607SOL    HW2 5721   5.474   2.639   1.130
 1608SOL     OW 5722   1.426   0.943   5.925
 1608SOL    HW1 5723   1.359   1.015   5.944
 1608SOL    HW2 5724   1.389   0.881   5.856
 1609SOL     OW 5725   5.572   1.846   6.502
 1609SOL    HW1 5726   5.602   1.755   6.530
 1609SOL    HW2 5727   5.472   1.846   6.490
 1610SOL     OW 5728   6.044   4.274   5.425
 1610SOL    HW1 5729   6.116   4.278   5.356
 1610SOL    HW2 5730   5.963   4.229   5.385
 1611SOL     OW 5731   3.969   3.318   2.042
 1611SOL    HW1 5732   4.056   3.353   2.078
 1611SOL    HW2 5733   3.987   3.246   1.976
 1612SOL     OW 5734   2.873   1.095   5.702
 1612SOL    HW1 5735   2.854   1.190   5.677
 1612SOL    HW2 5736   2.805   1.035   5.659
 1613SOL     OW 5737   2.340   5.504   1.052
 1613SOL    HW1 5738   2.331   5.404   1.045
 1613SOL    HW2 5739   2.423   5.525   1.104
 1614SOL     OW 5740   6.791   3.837   0.342
 1614SOL    HW1 5741   6.882   3.860   0.376
 1614SOL    HW2 5742   6.780   3.873   0.249
 1615SOL     OW 5743   6.874   4.864   1.273
 1615SOL    HW1 5744   6.931   4.804   1.329
 1615SOL    HW2 5745   6.782   4.870   1.313
 1616SOL     OW 5746   3.806   1.751   6.042
 1616SOL    HW1 5747   3.762   1.838   6.018
 1616SOL    HW2 5748   3.847   1.758   6.133
 1617SOL     OW 5749   5.662   0.287   1.976
 1617SOL    HW1 5750   5.614   0.372   1.998
 1617SOL    HW2 5751   5.648   0.222   2.050
 1618SOL     OW 5752   0.519   4.155   1.254
 1618SOL    HW1 5753   0.435   4.119   1.212
 1618SOL    HW2 5754   0.563   4.218   1.191
 1619SOL     OW 5755   1.494   2.965   4.043
 1619SOL    HW1 5756   1.524   2.890   3.983
 1619SOL    HW2 5757   1.436   3.027   3.991
 1620SOL     OW 5758   2.116   5.722   0.679
 1620SOL    HW1 5759   2.141   5.672   0.596
 1620SOL    HW2 5760   2.199   5.746   0.729
 1621SOL     OW 5761   0.030   0.731   6.769
 1621SOL    HW1 5762   0.109   0.792   6.767
 1621SOL    HW2 5763   7.019   0.728   6.679
 1622SOL     OW 5764   1.711   2.069   4.866
 1622SOL    HW1 5765   1.742   1.988   4.917
 1622SOL    HW2 5766   1.766   2.148   4.892
 1623SOL     OW 5767   2.623   2.681   6.238
 1623SOL    HW1 5768   2.564   2.738   6.179
 1623SOL    HW2 5769   2.622   2.587   6.204
 1624SOL     OW 5770   2.504   0.904   6.362
 1624SOL    HW1 5771   2.464   0.990   6.392
 1624SOL    HW2 5772   2.602   0.905   6.378
 1625SOL     OW 5773   1.214   5.351   2.569
 1625SOL    HW1 5774   1.185   5.341   2.473
 1625SOL    HW2 5775   1.133   5.354   2.627
 1626SOL     OW 5776   2.145   1.920   6.580
 1626SOL    HW1 5777   2.232   1.949   6.620
 1626SOL    HW2 5778   2.076   1.915   6.653
 1627SOL     OW 5779   6.506   1.797   4.709
 1627SOL    HW1 5780   6.499   1.878   4.652
 1627SOL    HW2 5781   6.589   1.801   4.764
 1628SOL     OW 5782   3.776   5.325   0.275
 1628SOL    HW1 5783   3.806   5.366   0.361
 1628SOL    HW2 5784   3.835   5.356   0.200
 1629SOL     OW 5785   2.624   2.373   4.344
 1629SOL    HW1 5786   2.559   2.407   4.412
 1629SOL    HW2 5787   2.705   2.337   4.391
 1630SOL     OW 5788   0.538   5.849   5.586
 1630SOL    HW1 5789   0.507   5.869   5.493
 1630SOL    HW2 5790   0.466   5.801   5.635
 1631SOL     OW 5791   0.022   0.789   5.821
 1631SOL    HW1 5792   0.083   0.821   5.893
 1631SOL    HW2 5793   6.962   0.828   5.835
 1632SOL     OW 5794   0.033   1.523   6.728
 1632SOL    HW1 5795   6.975   1.562   6.750
 1632SOL    HW2 5796   0.104   1.580   6.768
 1633SOL     OW 5797   5.917   2.986   2.695
 1633SOL    HW1 5798   5.886   2.895   2.669
 1633SOL    HW2 5799   5.919   3.044   2.613
 1634SOL     OW 5800   4.180   6.180   5.862
 1634SOL    HW1 5801   4.092   6.206   5.825
 1634SOL    HW2 5802   4.240   6.150   5.788
 1635SOL     OW 5803   6.383   5.748   4.623
 1635SOL    HW1 5804   6.478   5.750   4.592
 1635SOL    HW2 5805   6.367   5.823   4.687
 1636SOL     OW 5806   2.678   4.650   1.434
 1636SOL    HW1 5807   2.715   4.676   1.524
 1636SOL    HW2 5808   2.583   4.620   1.445
 1637SOL     OW 5809   6.699   1.991   2.784
 1637SOL    HW1 5810   6.782   1.961   2.831
 1637SOL    HW2 5811   6.675   2.084   2.813
 1638SOL     OW 5812   0.436   3.910   3.909
 1638SOL    HW1 5813   0.535   3.906   3.913
 1638SOL    HW2 5814   0.404   3.994   3.954
 1639SOL     OW 5815   5.221   6.066   2.826
 1639SOL    HW1 5816   5.228   5.976   2.868
 1639SOL    HW2 5817   5.148   6.118   2.871
 1640SOL     OW 5818   5.965   2.175   0.352
 1640SOL    HW1 5819   5.957   2.127   0.264
 1640SOL    HW2 5820   6.054   2.221   0.356
 1641SOL     OW 5821   5.678   3.184   3.959
 1641SOL    HW1 5822   5.693   3.174   3.860
 1641SOL    HW2 5823   5.592   3.140   3.984
 1642SOL     OW 5824   6.710   3.398   6.999
 1642SOL    HW1 5825   6.716   3.492   7.031
 1642SOL    HW2 5826   6.682   3.339   0.043
 1643SOL     OW 5827   3.479   6.442   4.938
 1643SOL    HW1 5828   3.553   6.455   4.872
 1643SOL    HW2 5829   3.398   6.407   4.891
 1644SOL     OW 5830   2.607   3.053   1.222
 1644SOL    HW1 5831   2.658   3.139   1.231
 1644SOL    HW2 5832   2.587   3.037   1.125
 1645SOL     OW 5833   3.310   6.296   5.580
 1645SOL    HW1 5834   3.217   6.269   5.556
 1645SOL    HW2 5835   3.366   6.303   5.498
 1646SOL     OW 5836   3.009   4.691   1.453
 1646SOL    HW1 5837   2.957   4.672   1.537
 1646SOL    HW2 5838   2.963   4.649   1.375
 1647SOL     OW 5839   6.108   2.539   3.400
 1647SOL    HW1 5840   6.105   2.483   3.483
 1647SOL    HW2 5841   6.190   2.597   3.403
 1648SOL     OW 5842   5.372   6.586   1.785
 1648SOL    HW1 5843   5.285   6.625   1.753
 1648SOL    HW2 5844   5.443   6.603   1.717
 1649SOL     OW 5845   3.468   0.219   3.221
 1649SOL    HW1 5846   3.526   0.281   3.169
 1649SOL    HW2 5847   3.404   0.273   3.277
 1650SOL     OW 5848   2.860   6.756   4.621
 1650SOL    HW1 5849   2.859   6.828   4.552
 1650SOL    HW2 5850   2.933   6.690   4.600
 1651SOL     OW 5851   0.457   0.193   0.719
 1651SOL    HW1 5852   0.548   0.211   0.681
 1651SOL    HW2 5853   0.389   0.244   0.666
 1652SOL     OW 5854   2.037   1.722   0.658
 1652SOL    HW1 5855   1.958   1.685   0.706
 1652SOL    HW2 5856   2.016   1.812   0.621
 1653SOL     OW 5857   0.359   4.810   1.625
 1653SOL    HW1 5858   0.288   4.865   1.581
 1653SOL    HW2 5859   0.408   4.756   1.556
 1654SOL     OW 5860   0.033   2.633   2.349
 1654SOL    HW1 5861   0.105   2.587   2.400
 1654SOL    HW2 5862   0.046   2.732   2.355
 1655SOL     OW 5863   5.532   3.880   6.333
 1655SOL    HW1 5864   5.498   3.848   6.421
 1655SOL    HW2 5865   5.617   3.832   6.311
 1656SOL     OW 5866   1.504   4.054   3.509
 1656SOL    HW1 5867   1.451   4.100   3.438
 1656SOL    HW2 5868   1.589   4.019   3.470
 1657SOL     OW 5869   0.584   1.186   5.224
 1657SOL    HW1 5870   0.591   1.104   5.167
 1657SOL    HW2 5871   0.500   1.235   5.201
 1658SOL     OW 5872   6.576   6.862   2.602
 1658SOL    HW1 5873   6.522   6.939   2.570
 1658SOL    HW2 5874   6.543   6.833   2.692
 1659SOL     OW 5875   3.258   2.340   6.219
 1659SOL    HW1 5876   3.302   2.323   6.131
 1659SOL    HW2 5877   3.279   2.433   6.250
 1660SOL     OW 5878   1.275   5.457   3.970
 1660SOL    HW1 5879   1.176   5.463   3.959
 1660SOL    HW2 5880   1.297   5.399   4.048
 1661SOL     OW 5881   3.390   2.050   2.344
 1661SOL    HW1 5882   3.396   2.035   2.443
 1661SOL    HW2 5883   3.479   2.078   2.309
 1662SOL     OW 5884   6.461   1.191   3.485
 1662SOL    HW1 5885   6.522   1.171   3.409
 1662SOL    HW2 5886   6.430   1.287   3.479
 1663SOL     OW 5887   2.631   0.275   3.104
 1663SOL    HW1 5888   2.578   0.270   3.189
 1663SOL    HW2 5889   2.710   0.214   3.109
 1664SOL     OW 5890   1.961   0.261   4.264
 1664SOL    HW1 5891   2.013   0.187   4.307
 1664SOL    HW2 5892   1.951   0.243   4.166
 1665SOL     OW 5893   0.108   1.200   3.017
 1665SOL    HW1 5894   0.088   1.279   2.959
 1665SOL    HW2 5895   0.199   1.209   3.056
 1666SOL     OW 5896   6.275   2.989   0.300
 1666SOL    HW1 5897   6.280   2.945   0.390
 1666SOL    HW2 5898   6.275   2.919   0.228
 1667SOL     OW 5899   5.402   0.577   0.260
 1667SOL    HW1 5900   5.341   0.504   0.289
 1667SOL    HW2 5901   5.497   0.550   0.275
 1668SOL     OW 5902   5.129   6.779   4.778
 1668SOL    HW1 5903   5.203   6.775   4.845
 1668SOL    HW2 5904   5.044   6.747   4.821
 1669SOL     OW 5905   5.871   6.651   0.523
 1669SOL    HW1 5906   5.879   6.568   0.579
 1669SOL    HW2 5907   5.895   6.629   0.429
 1670SOL     OW 5908   6.449   5.682   5.627
 1670SOL    HW1 5909   6.375   5.617   5.612
 1670SOL    HW2 5910   6.533   5.647   5.584
 1671SOL     OW 5911   4.428   2.859   0.989
 1671SOL    HW1 5912   4.522   2.846   0.958
 1671SOL    HW2 5913   4.419   2.828   1.084
 1672SOL     OW 5914   2.118   4.155   2.627
 1672SOL    HW1 5915   2.196   4.218   2.619
 1672SOL    HW2 5916   2.141   4.068   2.584
 1673SOL     OW 5917   0.159   2.905   4.539
 1673SOL    HW1 5918   0.149   2.806   4.550
 1673SOL    HW2 5919   0.116   2.933   4.453
 1674SOL     OW 5920   1.749   4.029   1.285
 1674SOL    HW1 5921   1.733   4.118   1.241
 1674SOL    HW2 5922   1.775   4.043   1.381
 1675SOL     OW 5923   4.802   0.581   6.460
 1675SOL    HW1 5924   4.758   0.644   6.524
 1675SOL    HW2 5925   4.779   0.487   6.484
 1676SOL     OW 5926   2.915   1.377   2.732
 1676SOL    HW1 5927   2.944   1.418   2.818
 1676SOL    HW2 5928   2.828   1.416   2.704
 1677SOL     OW 5929   5.152   1.809   5.209
 1677SOL    HW1 5930   5.119   1.852   5.125
 1677SOL    HW2 5931   5.090   1.832   5.285
 1678SOL     OW 5932   5.272   4.739   3.986
 1678SOL    HW1 5933   5.196   4.773   4.042
 1678SOL    HW2 5934   5.350   4.718   4.045
 1679SOL     OW 5935   1.472   3.940   5.517
 1679SOL    HW1 5936   1.564   3.914   5.490
 1679SOL    HW2 5937   1.474   3.978   5.609
 1680SOL     OW 5938   1.028   1.280   4.006
 1680SOL    HW1 5939   1.022   1.266   3.907
 1680SOL    HW2 5940   1.099   1.347   4.025
 1681SOL     OW 5941   6.633   5.420   1.357
 1681SOL    HW1 5942   6.538   5.402   1.331
 1681SOL    HW2 5943   6.651   5.518   1.353
 1682SOL     OW 5944   0.283   3.123   4.665
 1682SOL    HW1 5945   0.231   3.050   4.620
 1682SOL    HW2 5946   0.353   3.157   4.603
 1683SOL     OW 5947   3.732   5.029   0.710
 1683SOL    HW1 5948   3.739   5.040   0.611
 1683SOL    HW2 5949   3.636   5.027   0.737
 1684SOL     OW 5950   0.886   6.506   4.096
 1684SOL    HW1 5951   0.984   6.502   4.114
 1684SOL    HW2 5952   0.852   6.597   4.121
 1685SOL     OW 5953   1.586   1.061   6.264
 1685SOL    HW1 5954   1.613   0.980   6.212
 1685SOL    HW2 5955   1.665   1.096   6.315
 1686SOL     OW 5956   1.592   5.852   5.833
 1686SOL    HW1 5957   1.602   5.931   5.773
 1686SOL    HW2 5958   1.497   5.844   5.863
 1687SOL     OW 5959   1.939   3.055   1.603
 1687SOL    HW1 5960   1.938   3.106   1.516
 1687SOL    HW2 5961   2.007   3.096   1.664
 1688SOL     OW 5962   1.613   1.414   3.086
 1688SOL    HW1 5963   1.528   1.461   3.113
 1688SOL    HW2 5964   1.691   1.470   3.111
 1689SOL     OW 5965   3.552   1.644   2.196
 1689SOL    HW1 5966   3.546   1.615   2.292
 1689SOL    HW2 5967   3.540   1.743   2.190
 1690SOL     OW 5968   1.265   2.483   3.051
 1690SOL    HW1 5969   1.357   2.458   3.022
 1690SOL    HW2 5970   1.227   2.551   2.989
 1691SOL     OW 5971   5.169   4.363   3.022
 1691SOL    HW1 5972   5.248   4.319   3.064
 1691SOL    HW2 5973   5.104   4.391   3.093
 1692SOL     OW 5974   6.725   6.978   1.263
 1692SOL    HW1 5975   6.674   7.011   1.343
 1692SOL    HW2 5976   6.699   0.000   1.183
 1693SOL     OW 5977   1.531   2.397   2.982
 1693SOL    HW1 5978   1.593   2.334   2.936
 1693SOL    HW2 5979   1.575   2.434   3.064
 1694SOL     OW 5980   4.433   6.261   4.488
 1694SOL    HW1 5981   4.346   6.300   4.516
 1694SOL    HW2 5982   4.455   6.292   4.395
 1695SOL     OW 5983   2.789   1.878   4.599
 1695SOL    HW1 5984   2.801   1.961   4.543
 1695SOL    HW2 5985   2.766   1.801   4.539
 1696SOL     OW 5986   4.694   5.425   0.594
 1696SOL    HW1 5987   4.752   5.497   0.631
 1696SOL    HW2 5988   4.750   5.354   0.552
 1697SOL     OW 5989   0.755   6.992   1.310
 1697SOL    HW1 5990   0.757   6.903   1.355
 1697SOL    HW2 5991   0.798   0.029   1.369
 1698SOL     OW 5992   4.501   1.932   1.434
 1698SOL    HW1 5993   4.460   1.962   1.520
 1698SOL    HW2 5994   4.436   1.947   1.360
 1699SOL     OW 5995   2.496   2.186   1.202
 1699SOL    HW1 5996   2.471   2.206   1.107
 1699SOL    HW2 5997   2.456   2.098   1.229
 1700SOL     OW 5998   6.526   2.570   3.461
 1700SOL    HW1 5999   6.527   2.499   3.532
 1700SOL    HW2 6000   6.536   2.660   3.504
 1701SOL     OW 6001   5.843   2.553   4.928
 1701SOL    HW1 6002   5.942   2.547   4.916
 1701SOL    HW2 6003   5.802   2.465   4.905
 1702SOL     OW 6004   6.250   4.048   0.962
 1702SOL    HW1 6005   6.277   3.963   1.008
 1702SOL    HW2 6006   6.314   4.121   0.987
 1703SOL     OW 6007   3.010   3.936   1.983
 1703SOL    HW1 6008   3.106   3.962   1.986
 1703SOL    HW2 6009   2.966   3.981   1.906
 1704SOL     OW 6010   0.195   1.060   0.325
 1704SOL    HW1 6011   0.181   0.968   0.363
 1704SOL    HW2 6012   0.116   1.118   0.347
 1705SOL     OW 6013   3.190   2.446   1.320
 1705SOL    HW1 6014   3.237   2.455   1.408
 1705SOL    HW2 6015   3.227   2.513   1.256
 1706SOL     OW 6016   4.307   0.393   1.507
 1706SOL    HW1 6017   4.212   0.403   1.477
 1706SOL    HW2 6018   4.343   0.483   1.531
 1707SOL     OW 6019   3.854   1.518   1.729
 1707SOL    HW1 6020   3.778   1.565   1.773
 1707SOL    HW2 6021   3.935   1.522   1.789
 1708SOL     OW 6022   6.372   5.885   2.801
 1708SOL    HW1 6023   6.418   5.910   2.716
 1708SOL    HW2 6024   6.340   5.968   2.848
 1709SOL     OW 6025   2.589   6.653   2.023
 1709SOL    HW1 6026   2.518   6.703   2.072
 1709SOL    HW2 6027   2.592   6.559   2.056
 1710SOL     OW 6028   0.069   3.787   3.843
 1710SOL    HW1 6029   0.140   3.772   3.775
 1710SOL    HW2 6030   0.056   3.886   3.857
 1711SOL     OW 6031   1.337   4.285   5.013
 1711SOL    HW1 6032   1.330   4.240   5.102
 1711SOL    HW2 6033   1.424   4.333   5.006
 1712SOL     OW 6034   0.664   3.949   6.340
 1712SOL    HW1 6035   0.597   4.022   6.328
 1712SOL    HW2 6036   0.732   3.953   6.267
 1713SOL     OW 6037   2.030   2.013   1.292
 1713SOL    HW1 6038   1.998   2.103   1.262
 1713SOL    HW2 6039   1.952   1.950   1.293
 1714SOL     OW 6040   4.004   1.715   6.528
 1714SOL    HW1 6041   3.938   1.649   6.494
 1714SOL    HW2 6042   3.958   1.801   6.550
 1715SOL     OW 6043   0.062   3.029   3.212
 1715SOL    HW1 6044   0.066   3.088   3.131
 1715SOL    HW2 6045   7.001   3.031   3.250
 1716SOL     OW 6046   5.738   6.778   1.146
 1716SOL    HW1 6047   5.768   6.807   1.237
 1716SOL    HW2 6048   5.814   6.787   1.082
 1717SOL     OW 6049   2.544   6.202   6.682
 1717SOL    HW1 6050   2.555   6.240   6.773
 1717SOL    HW2 6051   2.505   6.271   6.621
 1718SOL     OW 6052   2.227   2.412   0.226
 1718SOL    HW1 6053   2.228   2.509   0.253
 1718SOL    HW2 6054   2.137   2.389   0.187
 1719SOL     OW 6055   2.256   3.694   1.276
 1719SOL    HW1 6056   2.335   3.755   1.282
 1719SOL    HW2 6057   2.272   3.614   1.333
 1720SOL     OW 6058   6.753   2.220   0.977
 1720SOL    HW1 6059   6.667   2.266   0.955
 1720SOL    HW2 6060   6.788   2.173   0.896
 1721SOL     OW 6061   1.319   6.486   2.131
 1721SOL    HW1 6062   1.410   6.444   2.135
 1721SOL    HW2 6063   1.291   6.493   2.035
 1722SOL     OW 6064   5.209   0.663   2.778
 1722SOL    HW1 6065   5.222   0.739   2.842
 1722SOL    HW2 6066   5.186   0.580   2.829
 1723SOL     OW 6067   6.533   1.846   3.486
 1723SOL    HW1 6068   6.440   1.882   3.483
 1723SOL    HW2 6069   6.539   1.777   3.558
 1724SOL     OW 6070   5.894   1.023   0.764
 1724SOL    HW1 6071   5.833   0.975   0.827
 1724SOL    HW2 6072   5.914   1.114   0.800
 1725SOL     OW 6073   3.496   4.328   6.871
 1725SOL    HW1 6074   3.574   4.356   6.815
 1725SOL    HW2 6075   3.475   4.399   6.938
 1726SOL     OW 6076   6.685   4.421   4.351
 1726SOL    HW1 6077   6.747   4.354   4.312
 1726SOL    HW2 6078   6.621   4.453   4.281
 1727SOL     OW 6079   3.706   3.501   4.568
 1727SOL    HW1 6080   3.770   3.474   4.496
 1727SOL    HW2 6081   3.687   3.599   4.560
 1728SOL     OW 6082   4.811   4.755   4.470
 1728SOL    HW1 6083   4.790   4.671   4.421
 1728SOL    HW2 6084   4.777   4.833   4.418
 1729SOL     OW 6085   1.917   4.165   3.448
 1729SOL    HW1 6086   1.996   4.125   3.495
 1729SOL    HW2 6087   1.833   4.128   3.488
 1730SOL     OW 6088   6.688   0.647   5.418
 1730SOL    HW1 6089   6.708   0.739   5.450
 1730SOL    HW2 6090   6.701   0.642   5.319
 1731SOL     OW 6091   1.717   4.592   2.166
 1731SOL    HW1 6092   1.785   4.665   2.156
 1731SOL    HW2 6093   1.658   4.590   2.086
 1732SOL     OW 6094   2.334   4.129   6.486
 1732SOL    HW1 6095   2.368   4.221   6.467
 1732SOL    HW2 6096   2.387   4.089   6.561
 1733SOL     OW 6097   2.142   3.304   2.385
 1733SOL    HW1 6098   2.083   3.370   2.340
 1733SOL    HW2 6099   2.228   3.295   2.334
 1734SOL     OW 6100   4.387   3.168   1.735
 1734SOL    HW1 6101   4.433   3.099   1.791
 1734SOL    HW2 6102   4.420   3.162   1.641
 1735SOL     OW 6103   6.055   5.738   1.686
 1735SOL    HW1 6104   5.977   5.781   1.732
 1735SOL    HW2 6105   6.032   5.720   1.590
 1736SOL     OW 6106   5.130   2.475   0.118
 1736SOL    HW1 6107   5.036   2.503   0.099
 1736SOL    HW2 6108   5.174   2.448   0.033
 1737SOL     OW 6109   2.534   0.490   3.876
 1737SOL    HW1 6110   2.634   0.488   3.867
 1737SOL    HW2 6111   2.505   0.421   3.942
 1738SOL     OW 6112   1.985   2.805   3.798
 1738SOL    HW1 6113   1.948   2.712   3.801
 1738SOL    HW2 6114   2.027   2.827   3.886
 1739SOL     OW 6115   4.945   2.382   4.708
 1739SOL    HW1 6116   4.917   2.426   4.794
 1739SOL    HW2 6117   4.912   2.437   4.631
 1740SOL     OW 6118   6.826   1.281   6.668
 1740SOL    HW1 6119   6.805   1.338   6.588
 1740SOL    HW2 6120   6.896   1.327   6.723
 1741SOL     OW 6121   2.031   1.003   2.488
 1741SOL    HW1 6122   1.968   0.956   2.551
 1741SOL    HW2 6123   1.986   1.014   2.399
 1742SOL     OW 6124   4.174   6.132   6.149
 1742SOL    HW1 6125   4.158   6.120   6.051
 1742SOL    HW2 6126   4.217   6.221   6.165
 1743SOL     OW 6127   1.847   0.960   1.977
 1743SOL    HW1 6128   1.895   1.026   2.036
 1743SOL    HW2 6129   1.749   0.974   1.985
 1744SOL     OW 6130   1.726   0.296   1.826
 1744SOL    HW1 6131   1.724   0.329   1.731
 1744SOL    HW2 6132   1.665   0.351   1.882
 1745SOL     OW 6133   6.376   1.403   4.459
 1745SOL    HW1 6134   6.285   1.363   4.452
 1745SOL    HW2 6135   6.432   1.350   4.523
 1746SOL     OW 6136   2.529   5.790   5.702
 1746SOL    HW1 6137   2.553   5.887   5.704
 1746SOL    HW2 6138   2.612   5.735   5.704
 1747SOL     OW 6139   5.015   6.971   1.977
 1747SOL    HW1 6140   4.933   6.915   1.969
 1747SOL    HW2 6141   5.030   7.020   1.891
 1748SOL     OW 6142   6.275   1.409   3.788
 1748SOL    HW1 6143   6.230   1.321   3.775
 1748SOL    HW2 6144   6.296   1.422   3.884
 1749SOL     OW 6145   3.959   6.681   5.659
 1749SOL    HW1 6146   3.999   6.599   5.618
 1749SOL    HW2 6147   3.871   6.658   5.700
 1750SOL     OW 6148   4.873   0.932   3.015
 1750SOL    HW1 6149   4.883   1.030   3.026
 1750SOL    HW2 6150   4.805   0.897   3.080
 1751SOL     OW 6151   3.083   4.982   5.042
 1751SOL    HW1 6152   3.035   4.915   4.985
 1751SOL    HW2 6153   3.025   5.063   5.054
 1752SOL     OW 6154   6.443   2.872   1.525
 1752SOL    HW1 6155   6.478   2.782   1.499
 1752SOL    HW2 6156   6.510   2.917   1.584
 1753SOL     OW 6157   0.653   1.085   0.690
 1753SOL    HW1 6158   0.594   1.130   0.757
 1753SOL    HW2 6159   0.600   1.062   0.609
 1754SOL     OW 6160   3.946   3.443   0.682
 1754SOL    HW1 6161   3.980   3.452   0.776
 1754SOL    HW2 6162   4.023   3.420   0.621
 1755SOL     OW 6163   5.621   5.055   1.445
 1755SOL    HW1 6164   5.671   5.075   1.361
 1755SOL    HW2 6165   5.665   5.102   1.522
 1756SOL     OW 6166   5.735   4.932   5.108
 1756SOL    HW1 6167   5.687   4.970   5.187
 1756SOL    HW2 6168   5.805   4.868   5.140
 1757SOL     OW 6169   2.205   6.722   4.604
 1757SOL    HW1 6170   2.275   6.673   4.553
 1757SOL    HW2 6171   2.168   6.663   4.676
 1758SOL     OW 6172   2.412   0.899   3.760
 1758SOL    HW1 6173   2.492   0.914   3.702
 1758SOL    HW2 6174   2.422   0.949   3.846
 1759SOL     OW 6175   0.176   5.244   6.119
 1759SOL    HW1 6176   0.115   5.308   6.166
 1759SOL    HW2 6177   0.146   5.150   6.137
 1760SOL     OW 6178   6.334   1.748   1.196
 1760SOL    HW1 6179   6.394   1.791   1.128
 1760SOL    HW2 6180   6.297   1.818   1.257
 1761SOL     OW 6181   6.581   6.866   0.165
 1761SOL    HW1 6182   6.596   6.821   0.077
 1761SOL    HW2 6183   6.640   6.945   0.173
 1762SOL     OW 6184   6.254   2.155   5.706
 1762SOL    HW1 6185   6.298   2.222   5.646
 1762SOL    HW2 6186   6.233   2.072   5.654
 1763SOL     OW 6187   1.488   3.885   3.955
 1763SOL    HW1 6188   1.482   3.968   3.899
 1763SOL    HW2 6189   1.407   3.828   3.940
 1764SOL     OW 6190   2.180   3.906   2.467
 1764SOL    HW1 6191   2.149   3.907   2.372
 1764SOL    HW2 6192   2.250   3.836   2.478
 1765SOL     OW 6193   3.323   1.793   6.841
 1765SOL    HW1 6194   3.381   1.716   6.868
 1765SOL    HW2 6195   3.277   1.771   6.755
 1766SOL     OW 6196   5.192   2.802   3.882
 1766SOL    HW1 6197   5.139   2.753   3.952
 1766SOL    HW2 6198   5.155   2.894   3.871
 1767SOL     OW 6199   5.265   4.030   2.806
 1767SOL    HW1 6200   5.286   4.127   2.816
 1767SOL    HW2 6201   5.196   4.018   2.735
 1768SOL     OW 6202   4.187   0.862   5.132
 1768SOL    HW1 6203   4.203   0.786   5.068
 1768SOL    HW2 6204   4.275   0.892   5.170
 1769SOL     OW 6205   4.317   2.362   4.220
 1769SOL    HW1 6206   4.408   2.325   4.240
 1769SOL    HW2 6207   4.291   2.339   4.127
 1770SOL     OW 6208   2.071   5.703   5.306
 1770SOL    HW1 6209   2.011   5.738   5.378
 1770SOL    HW2 6210   2.035   5.616   5.273
 1771SOL     OW 6211   2.750   5.841   6.370
 1771SOL    HW1 6212   2.763   5.889   6.457
 1771SOL    HW2 6213   2.829   5.859   6.311
 1772SOL     OW 6214   2.889   6.866   4.362
 1772SOL    HW1 6215   2.960   6.818   4.309
 1772SOL    HW2 6216   2.931   6.938   4.416
 1773SOL     OW 6217   2.783   4.825   5.533
 1773SOL    HW1 6218   2.683   4.833   5.541
 1773SOL    HW2 6219   2.816   4.760   5.601
 1774SOL     OW 6220   4.078   5.794   1.633
 1774SOL    HW1 6221   4.066   5.714   1.691
 1774SOL    HW2 6222   4.168   5.789   1.587
 1775SOL     OW 6223   1.485   4.101   3.776
 1775SOL    HW1 6224   1.483   4.198   3.801
 1775SOL    HW2 6225   1.491   4.092   3.677
 1776SOL     OW 6226   3.311   6.802   3.957
 1776SOL    HW1 6227   3.272   6.870   3.895
 1776SOL    HW2 6228   3.244   6.729   3.974
 1777SOL     OW 6229   3.706   5.216   6.270
 1777SOL    HW1 6230   3.648   5.139   6.293
 1777SOL    HW2 6231   3.662   5.271   6.199
 1778SOL     OW 6232   4.323   3.507   5.646
 1778SOL    HW1 6233   4.225   3.526   5.631
 1778SOL    HW2 6234   4.377   3.581   5.608
 1779SOL     OW 6235   4.773   0.796   4.669
 1779SOL    HW1 6236   4.784   0.892   4.642
 1779SOL    HW2 6237   4.706   0.791   4.743
 1780SOL     OW 6238   3.576   2.809   6.559
 1780SOL    HW1 6239   3.577   2.846   6.466
 1780SOL    HW2 6240   3.530   2.720   6.559
 1781SOL     OW 6241   4.084   5.746   3.190
 1781SOL    HW1 6242   4.091   5.758   3.091
 1781SOL    HW2 6243   4.163   5.788   3.235
 1782SOL     OW 6244   2.986   1.753   2.517
 1782SOL    HW1 6245   2.900   1.789   2.483
 1782SOL    HW2 6246   3.053   1.750   2.442
 1783SOL     OW 6247   1.951   5.603   5.993
 1783SOL    HW1 6248   1.998   5.680   6.036
 1783SOL    HW2 6249   1.996   5.518   6.019
 1784SOL     OW 6250   4.333   1.522   6.183
 1784SOL    HW1 6251   4.290   1.606   6.216
 1784SOL    HW2 6252   4.265   1.449   6.181
 1785SOL     OW 6253   6.121   4.205   3.423
 1785SOL    HW1 6254   6.124   4.297   3.461
 1785SOL    HW2 6255   6.035   4.192   3.374
 1786SOL     OW 6256   2.275   2.253   6.953
 1786SOL    HW1 6257   2.285   2.297   6.863
 1786SOL    HW2 6258   2.323   2.307   7.022
 1787SOL     OW 6259   3.093   1.000   5.456
 1787SOL    HW1 6260   3.105   0.938   5.378
 1787SOL    HW2 6261   3.060   1.089   5.423
 1788SOL     OW 6262   2.783   2.967   0.060
 1788SOL    HW1 6263   2.742   2.876   0.048
 1788SOL    HW2 6264   2.748   3.028   7.021
 1789SOL     OW 6265   5.885   1.910   3.191
 1789SOL    HW1 6266   5.853   1.925   3.097
 1789SOL    HW2 6267   5.952   1.980   3.215
 1790SOL     OW 6268   4.147   6.213   3.806
 1790SOL    HW1 6269   4.123   6.307   3.828
 1790SOL    HW2 6270   4.244   6.197   3.828
 1791SOL     OW 6271   5.853   0.634   2.914
 1791SOL    HW1 6272   5.816   0.681   2.994
 1791SOL    HW2 6273   5.906   0.555   2.944
 1792SOL     OW 6274   6.565   3.358   5.113
 1792SOL    HW1 6275   6.602   3.436   5.062
 1792SOL    HW2 6276   6.486   3.387   5.166
 1793SOL     OW 6277   6.173   6.880   3.091
 1793SOL    HW1 6278   6.245   6.898   3.157
 1793SOL    HW2 6279   6.173   6.952   3.021
 1794SOL     OW 6280   5.578   6.161   5.725
 1794SOL    HW1 6281   5.664   6.125   5.763
 1794SOL    HW2 6282   5.566   6.256   5.753
 1795SOL     OW 6283   1.263   1.846   0.470
 1795SOL    HW1 6284   1.267   1.865   0.372
 1795SOL    HW2 6285   1.284   1.750   0.487
 1796SOL     OW 6286   2.582   0.872   4.557
 1796SOL    HW1 6287   2.541   0.937   4.621
 1796SOL    HW2 6288   2.619   0.794   4.608
 1797SOL     OW 6289   1.673   6.667   0.540
 1797SOL    HW1 6290   1.641   6.577   0.571
 1797SOL    HW2 6291   1.733   6.706   0.610
 1798SOL     OW 6292   4.736   2.591   3.529
 1798SOL    HW1 6293   4.832   2.567   3.543
 1798SOL    HW2 6294   4.685   2.578   3.614
 1799SOL     OW 6295   6.932   2.626   5.521
 1799SOL    HW1 6296   7.027   2.595   5.534
 1799SOL    HW2 6297   6.886   2.628   5.610
 1800SOL     OW 6298   3.900   4.907   1.910
 1800SOL    HW1 6299   3.872   4.884   1.817
 1800SOL    HW2 6300   3.830   4.875   1.975
 1801SOL     OW 6301   6.905   0.243   1.458
 1801SOL    HW1 6302   6.975   0.284   1.400
 1801SOL    HW2 6303   6.912   0.143   1.453
 1802SOL     OW 6304   5.166   5.397   3.768
 1802SOL    HW1 6305   5.228   5.354   3.833
 1802SOL    HW2 6306   5.134   5.485   3.804
 1803SOL     OW 6307   0.642   5.865   6.835
 1803SOL    HW1 6308   0.640   5.766   6.851
 1803SOL    HW2 6309   0.568   5.890   6.772
 1804SOL     OW 6310   2.495   3.883   5.378
 1804SOL    HW1 6311   2.502   3.784   5.394
 1804SOL    HW2 6312   2.456   3.899   5.287
 1805SOL     OW 6313   5.867   4.116   6.180
 1805SOL    HW1 6314   5.936   4.123   6.108
 1805SOL    HW2 6315   5.890   4.177   6.255
 1806SOL     OW 6316   0.481   0.092   0.108
 1806SOL    HW1 6317   0.433   0.047   0.033
 1806SOL    HW2 6318   0.559   0.143   0.073
 1807SOL     OW 6319   5.347   2.503   4.863
 1807SOL    HW1 6320   5.437   2.547   4.873
 1807SOL    HW2 6321   5.311   2.481   4.953
 1808SOL     OW 6322   0.119   4.381   5.727
 1808SOL    HW1 6323   0.132   4.283   5.736
 1808SOL    HW2 6324   0.156   4.428   5.807
 1809SOL     OW 6325   1.806   2.624   4.997
 1809SOL    HW1 6326   1.874   2.697   4.995
 1809SOL    HW2 6327   1.852   2.537   5.013
 1810SOL     OW 6328   2.610   6.948   3.802
 1810SOL    HW1 6329   2.542   6.885   3.839
 1810SOL    HW2 6330   2.567   0.006   3.787
 1811SOL     OW 6331   6.174   5.347   3.862
 1811SOL    HW1 6332   6.114   5.409   3.811
 1811SOL    HW2 6333   6.244   5.310   3.801
 1812SOL     OW 6334   4.246   6.286   4.884
 1812SOL    HW1 6335   4.191   6.203   4.891
 1812SOL    HW2 6336   4.343   6.263   4.892
 1813SOL     OW 6337   6.274   4.546   0.996
 1813SOL    HW1 6338   6.292   4.499   0.910
 1813SOL    HW2 6339   6.323   4.633   0.998
 1814SOL     OW 6340   5.578   0.284   1.666
 1814SOL    HW1 6341   5.510   0.265   1.736
 1814SOL    HW2 6342   5.632   0.364   1.692
 1815SOL     OW 6343   0.544   1.690   2.428
 1815SOL    HW1 6344   0.579   1.709   2.336
 1815SOL    HW2 6345   0.563   1.768   2.488
 1816SOL     OW 6346   2.942   3.510   0.990
 1816SOL    HW1 6347   2.997   3.435   1.028
 1816SOL    HW2 6348   2.883   3.473   0.918
 1817SOL     OW 6349   2.624   0.082   2.570
 1817SOL    HW1 6350   2.704   0.052   2.517
 1817SOL    HW2 6351   2.654   0.113   2.660
 1818SOL     OW 6352   1.310   6.561   2.620
 1818SOL    HW1 6353   1.301   6.463   2.602
 1818SOL    HW2 6354   1.220   6.599   2.642
 1819SOL     OW 6355   1.540   4.111   1.812
 1819SOL    HW1 6356   1.519   4.056   1.731
 1819SOL    HW2 6357   1.638   4.131   1.815
 1820SOL     OW 6358   4.059   1.152   2.949
 1820SOL    HW1 6359   4.115   1.152   3.032
 1820SOL    HW2 6360   4.060   1.244   2.908
 1821SOL     OW 6361   0.776   1.119   1.466
 1821SOL    HW1 6362   0.744   1.024   1.462
 1821SOL    HW2 6363   0.768   1.161   1.376
 1822SOL     OW 6364   2.756   2.892   1.013
 1822SOL    HW1 6365   2.678   2.950   0.991
 1822SOL    HW2 6366   2.731   2.828   1.086
 1823SOL     OW 6367   3.187   5.628   3.046
 1823SOL    HW1 6368   3.206   5.629   3.144
 1823SOL    HW2 6369   3.194   5.722   3.010
 1824SOL     OW 6370   3.532   2.009   0.943
 1824SOL    HW1 6371   3.468   2.013   1.019
 1824SOL    HW2 6372   3.602   1.940   0.962
 1825SOL     OW 6373   1.384   0.836   1.961
 1825SOL    HW1 6374   1.329   0.889   1.897
 1825SOL    HW2 6375   1.329   0.813   2.041
 1826SOL     OW 6376   3.267   0.665   1.589
 1826SOL    HW1 6377   3.191   0.711   1.634
 1826SOL    HW2 6378   3.231   0.599   1.523
 1827SOL     OW 6379   0.063   5.340   2.352
 1827SOL    HW1 6380   0.029   5.291   2.432
 1827SOL    HW2 6381   0.160   5.321   2.339
 1828SOL     OW 6382   0.271   2.526   0.157
 1828SOL    HW1 6383   0.264   2.589   0.234
 1828SOL    HW2 6384   0.321   2.570   0.082
 1829SOL     OW 6385   4.293   7.004   2.920
 1829SOL    HW1 6386   4.213   0.012   2.966
 1829SOL    HW2 6387   4.303   0.013   2.829
 1830SOL     OW 6388   5.588   5.595   4.381
 1830SOL    HW1 6389   5.512   5.659   4.370
 1830SOL    HW2 6390   5.567   5.509   4.335
 1831SOL     OW 6391   5.825   0.237   3.198
 1831SOL    HW1 6392   5.832   0.140   3.176
 1831SOL    HW2 6393   5.843   0.251   3.295
 1832SOL     OW 6394   5.861   1.992   0.872
 1832SOL    HW1 6395   5.878   2.000   0.774
 1832SOL    HW2 6396   5.933   1.937   0.915
 1833SOL     OW 6397   5.604   0.676   5.326
 1833SOL    HW1 6398   5.612   0.756   5.385
 1833SOL    HW2 6399   5.679   0.612   5.347
 1834SOL     OW 6400   3.402   3.932   0.039
 1834SOL    HW1 6401   3.342   3.877   0.097
 1834SOL    HW2 6402   3.416   4.022   0.080
 1835SOL     OW 6403   1.757   4.332   1.932
 1835SOL    HW1 6404   1.717   4.396   1.998
 1835SOL    HW2 6405   1.696   4.322   1.854
 1836SOL     OW 6406   6.590   1.622   0.806
 1836SOL    HW1 6407   6.554   1.561   0.876
 1836SOL    HW2 6408   6.599   1.573   0.720
 1837SOL     OW 6409   0.559   2.384   3.893
 1837SOL    HW1 6410   0.598   2.473   3.869
 1837SOL    HW2 6411   0.630   2.314   3.892
 1838SOL     OW 6412   0.171   2.044   3.794
 1838SOL    HW1 6413   0.081   2.062   3.755
 1838SOL    HW2 6414   0.241   2.049   3.722
 1839SOL     OW 6415   4.572   2.412   4.780
 1839SOL    HW1 6416   4.608   2.321   4.799
 1839SOL    HW2 6417   4.569   2.465   4.866
 1840SOL     OW 6418   3.539   6.178   1.703
 1840SOL    HW1 6419   3.459   6.232   1.676
 1840SOL    HW2 6420   3.596   6.161   1.623
 1841SOL     OW 6421   2.155   3.057   4.600
 1841SOL    HW1 6422   2.156   3.153   4.572
 1841SOL    HW2 6423   2.174   3.051   4.698
 1842SOL     OW 6424   0.876   5.704   0.397
 1842SOL    HW1 6425   0.888   5.798   0.431
 1842SOL    HW2 6426   0.909   5.640   0.467
 1843SOL     OW 6427   1.354   2.334   4.197
 1843SOL    HW1 6428   1.351   2.394   4.277
 1843SOL    HW2 6429   1.260   2.311   4.169
 1844SOL     OW 6430   3.915   0.688   6.128
 1844SOL    HW1 6431   3.875   0.639   6.206
 1844SOL    HW2 6432   3.844   0.739   6.080
 1845SOL     OW 6433   2.632   0.390   5.854
 1845SOL    HW1 6434   2.561   0.341   5.803
 1845SOL    HW2 6435   2.661   0.335   5.932
 1846SOL     OW 6436   3.569   2.149   6.974
 1846SOL    HW1 6437   3.619   2.174   6.891
 1846SOL    HW2 6438   3.632   2.107   0.008
 1847SOL     OW 6439   1.583   0.868   6.588
 1847SOL    HW1 6440   1.488   0.857   6.560
 1847SOL    HW2 6441   1.606   0.965   6.592
 1848SOL     OW 6442   1.782   6.283   2.790
 1848SOL    HW1 6443   1.880   6.265   2.797
 1848SOL    HW2 6444   1.735   6.198   2.765
 1849SOL     OW 6445   4.047   1.701   0.373
 1849SOL    HW1 6446   3.951   1.674   0.384
 1849SOL    HW2 6447   4.102   1.660   0.446
 1850SOL     OW 6448   6.429   2.212   2.833
 1850SOL    HW1 6449   6.418   2.246   2.927
 1850SOL    HW2 6450   6.392   2.120   2.827
 1851SOL     OW 6451   0.431   1.451   0.641
 1851SOL    HW1 6452   0.393   1.383   0.579
 1851SOL    HW2 6453   0.506   1.411   0.693
 1852SOL     OW 6454   5.117   4.254   1.296
 1852SOL    HW1 6455   5.099   4.258   1.394
 1852SOL    HW2 6456   5.051   4.192   1.253
 1853SOL     OW 6457   0.961   3.102   2.507
 1853SOL    HW1 6458   0.929   3.168   2.439
 1853SOL    HW2 6459   0.896   3.027   2.515
 1854SOL     OW 6460   2.706   6.158   3.903
 1854SOL    HW1 6461   2.679   6.089   3.837
 1854SOL    HW2 6462   2.793   6.199   3.874
 1855SOL     OW 6463   4.336   4.353   6.739
 1855SOL    HW1 6464   4.246   4.335   6.698
 1855SOL    HW2 6465   4.330   4.433   6.798
 1856SOL     OW 6466   6.141   3.135   5.441
 1856SOL    HW1 6467   6.057   3.129   5.495
 1856SOL    HW2 6468   6.125   3.098   5.350
 1857SOL     OW 6469   3.606   1.028   5.613
 1857SOL    HW1 6470   3.629   0.937   5.649
 1857SOL    HW2 6471   3.689   1.073   5.581
 1858SOL     OW 6472   5.851   2.827   3.767
 1858SOL    HW1 6473   5.775   2.879   3.728
 1858SOL    HW2 6474   5.914   2.799   3.694
 1859SOL     OW 6475   4.345   1.296   3.749
 1859SOL    HW1 6476   4.367   1.391   3.727
 1859SOL    HW2 6477   4.393   1.235   3.686
 1860SOL     OW 6478   6.455   0.332   3.431
 1860SOL    HW1 6479   6.358   0.331   3.453
 1860SOL    HW2 6480   6.479   0.248   3.384
 1861SOL     OW 6481   4.878   6.349   2.253
 1861SOL    HW1 6482   4.933   6.371   2.333
 1861SOL    HW2 6483   4.782   6.346   2.278
 1862SOL     OW 6484   2.406   0.074   6.748
 1862SOL    HW1 6485   2.333   0.138   6.774
 1862SOL    HW2 6486   2.366   7.028   6.699
 1863SOL     OW 6487   2.233   2.331   0.757
 1863SOL    HW1 6488   2.329   2.359   0.750
 1863SOL    HW2 6489   2.225   2.254   0.821
 1864SOL     OW 6490   1.219   0.110   5.498
 1864SOL    HW1 6491   1.279   0.112   5.578
 1864SOL    HW2 6492   1.124   0.101   5.529
 1865SOL     OW 6493   3.472   0.428   5.643
 1865SOL    HW1 6494   3.535   0.429   5.566
 1865SOL    HW2 6495   3.469   0.519   5.685
 1866SOL     OW 6496   4.262   4.689   2.694
 1866SOL    HW1 6497   4.207   4.708   2.612
 1866SOL    HW2 6498   4.204   4.692   2.775
 1867SOL     OW 6499   1.040   4.507   0.840
 1867SOL    HW1 6500   1.052   4.415   0.803
 1867SOL    HW2 6501   1.129   4.550   0.851
 1868SOL     OW 6502   4.493   4.584   0.584
 1868SOL    HW1 6503   4.557   4.614   0.655
 1868SOL    HW2 6504   4.523   4.620   0.496
 1869SOL     OW 6505   6.644   2.154   4.804
 1869SOL    HW1 6506   6.592   2.227   4.848
 1869SOL    HW2 6507   6.589   2.111   4.733
 1870SOL     OW 6508   1.994   3.858   5.793
 1870SOL    HW1 6509   2.016   3.762   5.776
 1870SOL    HW2 6510   2.011   3.911   5.709
 1871SOL     OW 6511   1.485   6.874   6.544
 1871SOL    HW1 6512   1.550   6.927   6.597
 1871SOL    HW2 6513   1.400   6.863   6.595
 1872SOL     OW 6514   3.748   3.532   6.681
 1872SOL    HW1 6515   3.703   3.462   6.625
 1872SOL    HW2 6516   3.781   3.606   6.622
 1873SOL     OW 6517   4.400   1.376   5.272
 1873SOL    HW1 6518   4.303   1.356   5.262
 1873SOL    HW2 6519   4.446   1.298   5.313
 1874SOL     OW 6520   2.570   0.982   0.814
 1874SOL    HW1 6521   2.486   0.966   0.761
 1874SOL    HW2 6522   2.602   1.075   0.797
 1875SOL     OW 6523   0.803   1.363   6.678
 1875SOL    HW1 6524   0.728   1.299   6.690
 1875SOL    HW2 6525   0.835   1.360   6.584
 1876SOL     OW 6526   3.508   0.407   6.136
 1876SOL    HW1 6527   3.543   0.361   6.054
 1876SOL    HW2 6528   3.418   0.370   6.159
 1877SOL     OW 6529   0.848   0.072   3.133
 1877SOL    HW1 6530   0.776   0.105   3.072
 1877SOL    HW2 6531   0.932   0.123   3.116
 1878SOL     OW 6532   6.786   1.678   4.013
 1878SOL    HW1 6533   6.748   1.673   3.921
 1878SOL    HW2 6534   6.712   1.695   4.079
 1879SOL     OW 6535   1.104   4.004   3.918
 1879SOL    HW1 6536   1.047   3.966   3.991
 1879SOL    HW2 6537   1.167   3.934   3.885
 1880SOL     OW 6538   6.727   1.813   4.854
 1880SOL    HW1 6539   6.753   1.891   4.798
 1880SOL    HW2 6540   6.739   1.836   4.951
 1881SOL     OW 6541   5.551   2.509   2.737
 1881SOL    HW1 6542   5.500   2.588   2.702
 1881SOL    HW2 6543   5.570   2.446   2.662
 1882SOL     OW 6544   1.096   4.279   6.908
 1882SOL    HW1 6545   1.130   4.328   6.989
 1882SOL    HW2 6546   1.005   4.242   6.928
 1883SOL     OW 6547   5.962   2.275   2.696
 1883SOL    HW1 6548   5.960   2.236   2.604
 1883SOL    HW2 6549   6.006   2.211   2.758
 1884SOL     OW 6550   0.390   2.175   0.565
 1884SOL    HW1 6551   0.460   2.139   0.503
 1884SOL    HW2 6552   0.323   2.104   0.585
 1885SOL     OW 6553   1.921   1.833   6.428
 1885SOL    HW1 6554   1.955   1.837   6.334
 1885SOL    HW2 6555   1.993   1.862   6.491
 1886SOL     OW 6556   1.222   0.085   2.134
 1886SOL    HW1 6557   1.228   0.044   2.224
 1886SOL    HW2 6558   1.288   0.042   2.073
 1887SOL     OW 6559   0.591   5.390   5.785
 1887SOL    HW1 6560   0.581   5.367   5.688
 1887SOL    HW2 6561   0.500   5.407   5.824
 1888SOL     OW 6562   3.161   2.291   6.948
 1888SOL    HW1 6563   3.226   2.219   6.923
 1888SOL    HW2 6564   3.074   2.277   6.899
 1889SOL     OW 6565   0.641   4.159   5.009
 1889SOL    HW1 6566   0.686   4.093   4.949
 1889SOL    HW2 6567   0.705   4.233   5.031
 1890SOL     OW 6568   1.469   5.428   3.794
 1890SOL    HW1 6569   1.390   5.441   3.854
 1890SOL    HW2 6570   1.532   5.505   3.804
 1891SOL     OW 6571   4.910   2.714   1.587
 1891SOL    HW1 6572   4.827   2.730   1.640
 1891SOL    HW2 6573   4.912   2.776   1.509
 1892SOL     OW 6574   0.277   6.862   1.932
 1892SOL    HW1 6575   0.240   6.948   1.897
 1892SOL    HW2 6576   0.267   6.860   2.032
 1893SOL     OW 6577   3.539   2.769   1.907
 1893SOL    HW1 6578   3.478   2.800   1.980
 1893SOL    HW2 6579   3.487   2.760   1.822
 1894SOL     OW 6580   3.695   3.281   4.215
 1894SOL    HW1 6581   3.722   3.280   4.119
 1894SOL    HW2 6582   3.768   3.322   4.270
 1895SOL     OW 6583   4.099   0.431   0.619
 1895SOL    HW1 6584   4.170   0.403   0.554
 1895SOL    HW2 6585   4.112   0.383   0.706
 1896SOL     OW 6586   6.129   1.569   1.135
 1896SOL    HW1 6587   6.167   1.477   1.146
 1896SOL    HW2 6588   6.192   1.635   1.177
 1897SOL     OW 6589   2.244   5.205   2.092
 1897SOL    HW1 6590   2.341   5.203   2.066
 1897SOL    HW2 6591   2.193   5.139   2.037
 1898SOL     OW 6592   1.815   4.457   3.312
 1898SOL    HW1 6593   1.914   4.443   3.323
 1898SOL    HW2 6594   1.782   4.403   3.234
 1899SOL     OW 6595   0.332   1.922   0.186
 1899SOL    HW1 6596   0.274   1.942   0.107
 1899SOL    HW2 6597   0.415   1.978   0.182
 1900SOL     OW 6598   2.278   0.741   0.107
 1900SOL    HW1 6599   2.222   0.747   0.189
 1900SOL    HW2 6600   2.261   0.654   0.061
 1901SOL     OW 6601   2.152   1.919   0.851
 1901SOL    HW1 6602   2.172   1.850   0.780
 1901SOL    HW2 6603   2.054   1.936   0.854
 1902SOL     OW 6604   2.664   0.893   4.298
 1902SOL    HW1 6605   2.636   0.892   4.393
 1902SOL    HW2 6606   2.596   0.845   4.242
 1903SOL     OW 6607   0.885   3.392   2.478
 1903SOL    HW1 6608   0.906   3.389   2.576
 1903SOL    HW2 6609   0.805   3.450   2.463
 1904SOL     OW 6610   5.561   5.267   3.315
 1904SOL    HW1 6611   5.540   5.192   3.377
 1904SOL    HW2 6612   5.476   5.308   3.282
 1905SOL     OW 6613   0.330   0.546   3.589
 1905SOL    HW1 6614   0.386   0.476   3.545
 1905SOL    HW2 6615   0.333   0.532   3.688
 1906SOL     OW 6616   3.274   0.919   6.060
 1906SOL    HW1 6617   3.249   0.823   6.045
 1906SOL    HW2 6618   3.270   0.938   6.158
 1907SOL     OW 6619   4.599   2.667   1.305
 1907SOL    HW1 6620   4.666   2.603   1.343
 1907SOL    HW2 6621   4.600   2.752   1.357
 1908SOL     OW 6622   4.078   6.366   6.369
 1908SOL    HW1 6623   4.126   6.334   6.450
 1908SOL    HW2 6624   4.141   6.371   6.292
 1909SOL     OW 6625   0.897   2.913   3.392
 1909SOL    HW1 6626   0.979   2.931   3.338
 1909SOL    HW2 6627   0.838   2.995   3.392
 1910SOL     OW 6628   0.060   6.376   5.223
 1910SOL    HW1 6629   0.058   6.284   5.262
 1910SOL    HW2 6630   0.152   6.414   5.231
 1911SOL     OW 6631   6.877   3.364   4.793
 1911SOL    HW1 6632   6.845   3.451   4.757
 1911SOL    HW2 6633   6.971   3.348   4.762
 1912SOL     OW 6634   2.832   6.014   2.169
 1912SOL    HW1 6635   2.739   5.988   2.196
 1912SOL    HW2 6636   2.860   5.962   2.089
 1913SOL     OW 6637   2.628   0.545   4.943
 1913SOL    HW1 6638   2.565   0.622   4.945
 1913SOL    HW2 6639   2.594   0.476   4.879
 1914SOL     OW 6640   3.875   3.463   0.067
 1914SOL    HW1 6641   3.854   3.434   0.161
 1914SOL    HW2 6642   3.920   3.552   0.069
 1915SOL     OW 6643   5.117   2.985   5.688
 1915SOL    HW1 6644   5.042   3.001   5.752
 1915SOL    HW2 6645   5.172   2.908   5.720
 1916SOL     OW 6646   4.599   6.306   1.147
 1916SOL    HW1 6647   4.608   6.367   1.226
 1916SOL    HW2 6648   4.502   6.294   1.125
 1917SOL     OW 6649   2.644   3.340   0.181
 1917SOL    HW1 6650   2.695   3.320   0.265
 1917SOL    HW2 6651   2.549   3.361   0.204
 1918SOL     OW 6652   0.579   0.837   4.854
 1918SOL    HW1 6653   0.641   0.880   4.788
 1918SOL    HW2 6654   0.631   0.779   4.916
 1919SOL     OW 6655   1.799   1.394   1.236
 1919SOL    HW1 6656   1.826   1.300   1.256
 1919SOL    HW2 6657   1.826   1.453   1.312
 1920SOL     OW 6658   6.190   3.304   2.845
 1920SOL    HW1 6659   6.249   3.229   2.816
 1920SOL    HW2 6660   6.244   3.388   2.854
 1921SOL     OW 6661   1.520   3.104   6.838
 1921SOL    HW1 6662   1.458   3.076   6.766
 1921SOL    HW2 6663   1.554   3.023   6.886
 1922SOL     OW 6664   2.778   3.413   1.871
 1922SOL    HW1 6665   2.825   3.500   1.888
 1922SOL    HW2 6666   2.824   3.341   1.923
 1923SOL     OW 6667   4.430   1.397   6.872
 1923SOL    HW1 6668   4.373   1.315   6.880
 1923SOL    HW2 6669   4.407   1.460   6.947
 1924SOL     OW 6670   4.640   0.267   0.807
 1924SOL    HW1 6671   4.555   0.274   0.859
 1924SOL    HW2 6672   4.658   0.171   0.785
 1925SOL     OW 6673   1.379   4.668   1.795
 1925SOL    HW1 6674   1.359   4.754   1.749
 1925SOL    HW2 6675   1.295   4.615   1.805
 1926SOL     OW 6676   3.072   0.324   1.814
 1926SOL    HW1 6677   3.014   0.397   1.776
 1926SOL    HW2 6678   3.026   0.283   1.893
 1927SOL     OW 6679   2.545   3.932   0.685
 1927SOL    HW1 6680   2.530   3.836   0.709
 1927SOL    HW2 6681   2.460   3.970   0.649
 1928SOL     OW 6682   5.294   5.242   4.308
 1928SOL    HW1 6683   5.211   5.186   4.312
 1928SOL    HW2 6684   5.272   5.335   4.336
 1929SOL     OW 6685   2.585   0.302   1.883
 1929SOL    HW1 6686   2.510   0.238   1.866
 1929SOL    HW2 6687   2.608   0.301   1.980
 1930SOL     OW 6688   5.331   3.310   6.775
 1930SOL    HW1 6689   5.278   3.252   6.713
 1930SOL    HW2 6690   5.405   3.256   6.816
 1931SOL     OW 6691   1.019   2.166   6.304
 1931SOL    HW1 6692   0.946   2.166   6.235
 1931SOL    HW2 6693   1.004   2.091   6.368
 1932SOL     OW 6694   4.694   2.691   3.266
 1932SOL    HW1 6695   4.730   2.778   3.234
 1932SOL    HW2 6696   4.722   2.676   3.361
 1933SOL     OW 6697   0.645   2.103   0.453
 1933SOL    HW1 6698   0.713   2.029   0.452
 1933SOL    HW2 6699   0.689   2.189   0.427
 1934SOL     OW 6700   0.383   0.947   5.620
 1934SOL    HW1 6701   0.404   0.945   5.522
 1934SOL    HW2 6702   0.405   0.858   5.660
 1935SOL     OW 6703   4.635   4.892   3.485
 1935SOL    HW1 6704   4.594   4.982   3.497
 1935SOL    HW2 6705   4.563   4.825   3.467
 1936SOL     OW 6706   4.912   3.665   4.066
 1936SOL    HW1 6707   4.899   3.758   4.031
 1936SOL    HW2 6708   4.887   3.599   3.995
 1937SOL     OW 6709   4.755   6.043   6.925
 1937SOL    HW1 6710   4.833   6.103   6.941
 1937SOL    HW2 6711   4.752   6.018   6.828
 1938SOL     OW 6712   1.166   2.723   0.324
 1938SOL    HW1 6713   1.192   2.786   0.398
 1938SOL    HW2 6714   1.212   2.751   0.240
 1939SOL     OW 6715   0.381   5.784   4.376
 1939SOL    HW1 6716   0.479   5.767   4.387
 1939SOL    HW2 6717   0.360   5.795   4.279
 1940SOL     OW 6718   5.987   4.515   1.914
 1940SOL    HW1 6719   5.943   4.565   1.839
 1940SOL    HW2 6720   5.938   4.532   1.999
 1941SOL     OW 6721   0.446   2.772   3.502
 1941SOL    HW1 6722   0.371   2.715   3.469
 1941SOL    HW2 6723   0.518   2.713   3.541
 1942SOL     OW 6724   5.551   4.138   2.915
 1942SOL    HW1 6725   5.634   4.089   2.939
 1942SOL    HW2 6726   5.474   4.102   2.967
 1943SOL     OW 6727   1.368   1.585   2.420
 1943SOL    HW1 6728   1.349   1.505   2.478
 1943SOL    HW2 6729   1.457   1.623   2.445
 1944SOL     OW 6730   6.263   4.382   0.086
 1944SOL    HW1 6731   6.170   4.379   0.047
 1944SOL    HW2 6732   6.285   4.292   0.124
 1945SOL     OW 6733   3.929   6.577   0.996
 1945SOL    HW1 6734   4.004   6.643   1.004
 1945SOL    HW2 6735   3.875   6.577   1.080
 1946SOL     OW 6736   5.494   6.558   2.035
 1946SOL    HW1 6737   5.437   6.574   1.955
 1946SOL    HW2 6738   5.591   6.564   2.010
 1947SOL     OW 6739   6.410   5.802   4.146
 1947SOL    HW1 6740   6.351   5.872   4.108
 1947SOL    HW2 6741   6.373   5.772   4.234
 1948SOL     OW 6742   5.676   4.240   2.716
 1948SOL    HW1 6743   5.617   4.202   2.788
 1948SOL    HW2 6744   5.626   4.309   2.664
 1949SOL     OW 6745   3.991   4.103   0.520
 1949SOL    HW1 6746   3.961   4.080   0.427
 1949SOL    HW2 6747   4.061   4.175   0.516
 1950SOL     OW 6748   3.748   3.271   3.964
 1950SOL    HW1 6749   3.838   3.228   3.961
 1950SOL    HW2 6750   3.726   3.307   3.873
 1951SOL     OW 6751   6.567   4.311   5.562
 1951SOL    HW1 6752   6.614   4.226   5.536
 1951SOL    HW2 6753   6.631   4.372   5.608
 1952SOL     OW 6754   4.979   4.582   1.465
 1952SOL    HW1 6755   4.964   4.600   1.562
 1952SOL    HW2 6756   5.070   4.542   1.452
 1953SOL     OW 6757   6.913   1.551   6.224
 1953SOL    HW1 6758   6.955   1.497   6.298
 1953SOL    HW2 6759   6.814   1.544   6.231
 1954SOL     OW 6760   5.482   0.924   1.726
 1954SOL    HW1 6761   5.496   1.015   1.764
 1954SOL    HW2 6762   5.560   0.865   1.750
 1955SOL     OW 6763   0.481   1.500   1.214
 1955SOL    HW1 6764   0.517   1.466   1.301
 1955SOL    HW2 6765   0.475   1.599   1.217
 1956SOL     OW 6766   4.746   6.949   2.659
 1956SOL    HW1 6767   4.797   6.998   2.588
 1956SOL    HW2 6768   4.649   6.950   2.636
 1957SOL     OW 6769   5.241   3.434   4.294
 1957SOL    HW1 6770   5.315   3.373   4.263
 1957SOL    HW2 6771   5.228   3.508   4.228
 1958SOL     OW 6772   4.522   1.678   1.324
 1958SOL    HW1 6773   4.559   1.752   1.380
 1958SOL    HW2 6774   4.426   1.663   1.347
 1959SOL     OW 6775   6.359   6.814   3.959
 1959SOL    HW1 6776   6.357   6.910   3.988
 1959SOL    HW2 6777   6.442   6.797   3.906
 1960SOL     OW 6778   6.946   2.794   3.181
 1960SOL    HW1 6779   7.020   2.861   3.185
 1960SOL    HW2 6780   6.978   2.707   3.217
 1961SOL     OW 6781   6.524   4.371   4.876
 1961SOL    HW1 6782   6.530   4.400   4.781
 1961SOL    HW2 6783   6.542   4.449   4.936
 1962SOL     OW 6784   1.087   5.701   2.705
 1962SOL    HW1 6785   1.059   5.690   2.801
 1962SOL    HW2 6786   1.006   5.695   2.646
 1963SOL     OW 6787   1.005   1.590   0.978
 1963SOL    HW1 6788   0.972   1.657   1.045
 1963SOL    HW2 6789   0.953   1.600   0.893
 1964SOL     OW 6790   5.351   4.553   1.604
 1964SOL    HW1 6791   5.374   4.650   1.605
 1964SOL    HW2 6792   5.303   4.531   1.519
 1965SOL     OW 6793   0.963   3.734   3.888
 1965SOL    HW1 6794   1.012   3.728   3.801
 1965SOL    HW2 6795   0.978   3.650   3.940
 1966SOL     OW 6796   1.513   4.666   0.656
 1966SOL    HW1 6797   1.495   4.573   0.688
 1966SOL    HW2 6798   1.525   4.727   0.735
 1967SOL     OW 6799   6.774   2.043   3.957
 1967SOL    HW1 6800   6.833   1.973   3.999
 1967SOL    HW2 6801   6.744   2.108   4.027
 1968SOL     OW 6802   2.611   1.102   5.508
 1968SOL    HW1 6803   2.691   1.063   5.462
 1968SOL    HW2 6804   2.551   1.143   5.439
 1969SOL     OW 6805   3.383   0.930   1.962
 1969SOL    HW1 6806   3.416   0.900   2.051
 1969SOL    HW2 6807   3.289   0.899   1.948
 1970SOL     OW 6808   6.546   6.733   4.804
 1970SOL    HW1 6809   6.601   6.658   4.769
 1970SOL    HW2 6810   6.604   6.814   4.814
 1971SOL     OW 6811   0.650   7.023   5.368
 1971SOL    HW1 6812   0.552   7.023   5.391
 1971SOL    HW2 6813   0.692   0.074   5.406
 1972SOL     OW 6814   5.330   2.347   1.184
 1972SOL    HW1 6815   5.260   2.290   1.226
 1972SOL    HW2 6816   5.363   2.414   1.251
 1973SOL     OW 6817   2.524   3.696   1.563
 1973SOL    HW1 6818   2.609   3.674   1.612
 1973SOL    HW2 6819   2.542   3.770   1.498
 1974SOL     OW 6820   4.353   6.724   4.707
 1974SOL    HW1 6821   4.294   6.686   4.636
 1974SOL    HW2 6822   4.389   6.812   4.677
 1975SOL     OW 6823   2.206   3.038   3.919
 1975SOL    HW1 6824   2.199   3.065   4.015
 1975SOL    HW2 6825   2.297   2.999   3.902
 1976SOL     OW 6826   6.021   6.977   6.852
 1976SOL    HW1 6827   5.975   0.033   6.865
 1976SOL    HW2 6828   6.120   6.988   6.864
 1977SOL     OW 6829   2.830   3.122   6.457
 1977SOL    HW1 6830   2.744   3.128   6.507
 1977SOL    HW2 6831   2.880   3.040   6.487
 1978SOL     OW 6832   2.172   6.140   3.339
 1978SOL    HW1 6833   2.135   6.198   3.412
 1978SOL    HW2 6834   2.179   6.046   3.371
 1979SOL     OW 6835   6.051   4.910   7.022
 1979SOL    HW1 6836   6.109   4.839   6.982
 1979SOL    HW2 6837   5.965   4.915   6.971
 1980SOL     OW 6838   3.234   0.663   2.360
 1980SOL    HW1 6839   3.254   0.583   2.417
 1980SOL    HW2 6840   3.290   0.659   2.277
 1981SOL     OW 6841   5.147   2.857   2.661
 1981SOL    HW1 6842   5.243   2.829   2.661
 1981SOL    HW2 6843   5.091   2.785   2.621
 1982SOL     OW 6844   6.923   4.252   4.056
 1982SOL    HW1 6845   6.906   4.351   4.053
 1982SOL    HW2 6846   6.941   4.219   3.963
 1983SOL     OW 6847   0.620   0.228   1.060
 1983SOL    HW1 6848   0.542   0.284   1.088
 1983SOL    HW2 6849   0.604   0.133   1.085
 1984SOL     OW 6850   5.229   2.391   4.636
 1984SOL    HW1 6851   5.135   2.385   4.669
 1984SOL    HW2 6852   5.290   2.409   4.712
 1985SOL     OW 6853   6.498   5.137   1.833
 1985SOL    HW1 6854   6.577   5.193   1.859
 1985SOL    HW2 6855   6.507   5.046   1.873
 1986SOL     OW 6856   2.696   1.294   6.625
 1986SOL    HW1 6857   2.768   1.310   6.558
 1986SOL    HW2 6858   2.708   1.204   6.667
 1987SOL     OW 6859   2.151   1.111   3.968
 1987SOL    HW1 6860   2.129   1.203   4.001
 1987SOL    HW2 6861   2.189   1.117   3.876
 1988SOL     OW 6862   0.161   1.520   1.048
 1988SOL    HW1 6863   0.076   1.467   1.051
 1988SOL    HW2 6864   0.232   1.473   1.100
 1989SOL     OW 6865   2.827   6.060   4.610
 1989SOL    HW1 6866   2.778   6.143   4.586
 1989SOL    HW2 6867   2.843   6.058   4.709
 1990SOL     OW 6868   3.938   0.309   0.139
 1990SOL    HW1 6869   3.931   0.381   0.208
 1990SOL    HW2 6870   4.000   0.237   0.172
 1991SOL     OW 6871   2.857   5.387   0.119
 1991SOL    HW1 6872   2.894   5.424   0.035
 1991SOL    HW2 6873   2.796   5.310   0.098
 1992SOL     OW 6874   6.936   6.722   0.125
 1992SOL    HW1 6875   6.889   6.718   0.214
 1992SOL    HW2 6876   6.988   6.637   0.112
 1993SOL     OW 6877   2.435   2.433   4.551
 1993SOL    HW1 6878   2.352   2.378   4.563
 1993SOL    HW2 6879   2.410   2.530   4.551
 1994SOL     OW 6880   4.583   2.304   0.797
 1994SOL    HW1 6881   4.622   2.394   0.819
 1994SOL    HW2 6882   4.583   2.291   0.698
 1995SOL     OW 6883   5.525   2.480   4.246
 1995SOL    HW1 6884   5.477   2.529   4.174
 1995SOL    HW2 6885   5.621   2.469   4.220
 1996SOL     OW 6886   2.712   2.027   1.293
 1996SOL    HW1 6887   2.647   2.100   1.273
 1996SOL    HW2 6888   2.797   2.067   1.329
 1997SOL     OW 6889   3.530   1.438   4.185
 1997SOL    HW1 6890   3.484   1.491   4.114
 1997SOL    HW2 6891   3.603   1.493   4.226
 1998SOL     OW 6892   1.357   3.086   1.211
 1998SOL    HW1 6893   1.410   3.083   1.126
 1998SOL    HW2 6894   1.261   3.070   1.191
 1999SOL     OW 6895   0.160   0.847   4.990
 1999SOL    HW1 6896   0.105   0.765   4.979
 1999SOL    HW2 6897   0.167   0.896   4.903
 2000SOL     OW 6898   4.229   3.752   6.005
 2000SOL    HW1 6899   4.285   3.827   5.969
 2000SOL    HW2 6900   4.274   3.665   5.986
 2001SOL     OW 6901   1.500   1.783   6.877
 2001SOL    HW1 6902   1.555   1.702   6.897
 2001SOL    HW2 6903   1.495   1.841   6.958
 2002SOL     OW 6904   0.813   5.659   0.976
 2002SOL    HW1 6905   0.756   5.617   1.047
 2002SOL    HW2 6906   0.775   5.748   0.951
 2003SOL     OW 6907   6.232   5.038   2.046
 2003SOL    HW1 6908   6.240   4.997   1.955
 2003SOL    HW2 6909   6.283   4.983   2.112
 2004SOL     OW 6910   4.179   0.835   3.696
 2004SOL    HW1 6911   4.154   0.929   3.717
 2004SOL    HW2 6912   4.171   0.779   3.779
 2005SOL     OW 6913   6.818   5.917   0.108
 2005SOL    HW1 6914   6.741   5.980   0.118
 2005SOL    HW2 6915   6.830   5.895   0.011
 2006SOL     OW 6916   5.102   0.089   4.029
 2006SOL    HW1 6917   5.177   0.118   4.089
 2006SOL    HW2 6918   5.052   0.014   4.073
 2007SOL     OW 6919   4.997   4.260   1.555
 2007SOL    HW1 6920   4.913   4.206   1.559
 2007SOL    HW2 6921   5.028   4.282   1.647
 2008SOL     OW 6922   2.036   3.616   4.074
 2008SOL    HW1 6923   2.060   3.566   3.991
 2008SOL    HW2 6924   2.085   3.703   4.075
 2009SOL     OW 6925   5.685   6.207   1.858
 2009SOL    HW1 6926   5.749   6.240   1.927
 2009SOL    HW2 6927   5.706   6.249   1.769
 2010SOL     OW 6928   1.284   2.226   1.175
 2010SOL    HW1 6929   1.348   2.195   1.105
 2010SOL    HW2 6930   1.284   2.326   1.179
 2011SOL     OW 6931   0.184   0.038   5.594
 2011SOL    HW1 6932   0.179   0.048   5.494
 2011SOL    HW2 6933   0.107   7.014   5.626
 2012SOL     OW 6934   1.713   3.803   2.129
 2012SOL    HW1 6935   1.712   3.703   2.137
 2012SOL    HW2 6936   1.632   3.841   2.173
 2013SOL     OW 6937   0.200   2.648   3.134
 2013SOL    HW1 6938   0.184   2.567   3.077
 2013SOL    HW2 6939   0.126   2.713   3.122
 2014SOL     OW 6940   3.295   0.292   3.546
 2014SOL    HW1 6941   3.307   0.380   3.592
 2014SOL    HW2 6942   3.273   0.222   3.614
 2015SOL     OW 6943   3.793   0.391   1.351
 2015SOL    HW1 6944   3.888   0.421   1.356
 2015SOL    HW2 6945   3.737   0.448   1.412
 2016SOL     OW 6946   1.373   6.412   5.478
 2016SOL    HW1 6947   1.369   6.326   5.427
 2016SOL    HW2 6948   1.389   6.488   5.415
 2017SOL     OW 6949   4.182   0.363   3.582
 2017SOL    HW1 6950   4.129   0.311   3.650
 2017SOL    HW2 6951   4.274   0.325   3.577
 2018SOL     OW 6952   0.020   2.162   3.455
 2018SOL    HW1 6953   7.030   2.107   3.374
 2018SOL    HW2 6954   7.017   2.117   3.537
 2019SOL     OW 6955   6.166   4.695   6.863
 2019SOL    HW1 6956   6.252   4.646   6.847
 2019SOL    HW2 6957   6.117   4.706   6.777
 2020SOL     OW 6958   1.070   5.870   6.129
 2020SOL    HW1 6959   1.163   5.873   6.168
 2020SOL    HW2 6960   1.048   5.777   6.101
 2021SOL     OW 6961   6.537   6.542   3.387
 2021SOL    HW1 6962   6.540   6.494   3.300
 2021SOL    HW2 6963   6.468   6.500   3.446
 2022SOL     OW 6964   2.069   4.364   4.981
 2022SOL    HW1 6965   2.151   4.327   4.938
 2022SOL    HW2 6966   2.095   4.424   5.056
 2023SOL     OW 6967   6.992   6.762   6.779
 2023SOL    HW1 6968   6.986   6.862   6.773
 2023SOL    HW2 6969   6.912   6.721   6.735
 2024SOL     OW 6970   0.217   5.599   4.189
 2024SOL    HW1 6971   0.256   5.688   4.164
 2024SOL    HW2 6972   0.216   5.590   4.289
 2025SOL     OW 6973   3.028   0.858   3.798
 2025SOL    HW1 6974   3.002   0.906   3.882
 2025SOL    HW2 6975   3.095   0.913   3.748
 2026SOL     OW 6976   5.857   1.068   6.669
 2026SOL    HW1 6977   5.862   1.168   6.667
 2026SOL    HW2 6978   5.849   1.038   6.764
 2027SOL     OW 6979   0.732   5.935   1.757
 2027SOL    HW1 6980   0.760   5.875   1.682
 2027SOL    HW2 6981   0.781   5.909   1.840
 2028SOL     OW 6982   3.826   5.998   2.995
 2028SOL    HW1 6983   3.826   5.903   3.029
 2028SOL    HW2 6984   3.841   5.997   2.896
 2029SOL     OW 6985   0.176   2.030   7.018
 2029SOL    HW1 6986   0.090   2.015   6.969
 2029SOL    HW2 6987   0.171   2.115   0.038
 2030SOL     OW 6988   2.782   6.161   2.594
 2030SOL    HW1 6989   2.853   6.144   2.526
 2030SOL    HW2 6990   2.824   6.174   2.684
 2031SOL     OW 6991   0.048   5.589   2.521
 2031SOL    HW1 6992   0.098   5.612   2.605
 2031SOL    HW2 6993   6.997   5.538   2.544
 2032SOL     OW 6994   3.662   1.388   0.214
 2032SOL    HW1 6995   3.609   1.462   0.174
 2032SOL    HW2 6996   3.658   1.393   0.314
 2033SOL     OW 6997   1.391   0.912   0.222
 2033SOL    HW1 6998   1.346   0.930   0.310
 2033SOL    HW2 6999   1.326   0.868   0.160
 2034SOL     OW 7000   1.503   5.272   5.621
 2034SOL    HW1 7001   1.404   5.288   5.623
 2034SOL    HW2 7002   1.527   5.204   5.690
 2035SOL     OW 7003   6.801   6.860   1.585
 2035SOL    HW1 7004   6.855   6.804   1.649
 2035SOL    HW2 7005   6.711   6.877   1.624
 2036SOL     OW 7006   1.003   3.439   3.063
 2036SOL    HW1 7007   0.928   3.505   3.071
 2036SOL    HW2 7008   1.088   3.488   3.043
 2037SOL     OW 7009   6.987   2.935   6.192
 2037SOL    HW1 7010   6.916   2.956   6.260
 2037SOL    HW2 7011   6.988   3.007   6.122
 2038SOL     OW 7012   2.853   1.255   0.139
 2038SOL    HW1 7013   2.872   1.244   0.237
 2038SOL    HW2 7014   2.923   1.314   0.098
 2039SOL     OW 7015   0.022   5.843   2.367
 2039SOL    HW1 7016   0.007   5.760   2.421
 2039SOL    HW2 7017   0.119   5.851   2.344
 2040SOL     OW 7018   2.018   2.581   6.923
 2040SOL    HW1 7019   2.075   2.536   6.854
 2040SOL    HW2 7020   2.056   2.671   6.945
 2041SOL     OW 7021   1.993   6.788   5.586
 2041SOL    HW1 7022   2.089   6.806   5.569
 2041SOL    HW2 7023   1.956   6.857   5.648
 2042SOL     OW 7024   5.140   0.374   6.166
 2042SOL    HW1 7025   5.088   0.414   6.091
 2042SOL    HW2 7026   5.228   0.421   6.175
 2043SOL     OW 7027   6.861   2.616   1.373
 2043SOL    HW1 7028   6.905   2.566   1.298
 2043SOL    HW2 7029   6.897   2.583   1.460
 2044SOL     OW 7030   5.986   1.150   1.293
 2044SOL    HW1 7031   5.921   1.205   1.241
 2044SOL    HW2 7032   5.982   1.174   1.390
 2045SOL     OW 7033   1.755   5.247   5.805
 2045SOL    HW1 7034   1.783   5.168   5.860
 2045SOL    HW2 7035   1.674   5.289   5.847
 2046SOL     OW 7036   0.253   1.670   5.328
 2046SOL    HW1 7037   0.323   1.618   5.377
 2046SOL    HW2 7038   0.276   1.673   5.231
 2047SOL     OW 7039   6.695   2.613   0.552
 2047SOL    HW1 7040   6.632   2.603   0.629
 2047SOL    HW2 7041   6.775   2.664   0.582
 2048SOL     OW 7042   0.868   1.512   4.119
 2048SOL    HW1 7043   0.913   1.432   4.080
 2048SOL    HW2 7044   0.937   1.576   4.152
 2049SOL     OW 7045   4.354   1.163   4.579
 2049SOL    HW1 7046   4.297   1.104   4.635
 2049SOL    HW2 7047   4.313   1.174   4.488
 2050SOL     OW 7048   0.209   2.106   4.104
 2050SOL    HW1 7049   0.198   2.068   4.012
 2050SOL    HW2 7050   0.162   2.194   4.109
 2051SOL     OW 7051   2.977   6.709   0.289
 2051SOL    HW1 7052   2.908   6.730   0.220
 2051SOL    HW2 7053   3.006   6.794   0.334
 2052SOL     OW 7054   2.193   3.736   0.617
 2052SOL    HW1 7055   2.211   3.682   0.699
 2052SOL    HW2 7056   2.103   3.779   0.624
 2053SOL     OW 7057   1.037   5.108   4.615
 2053SOL    HW1 7058   1.115   5.051   4.639
 2053SOL    HW2 7059   1.067   5.188   4.563
 2054SOL     OW 7060   3.700   2.907   2.500
 2054SOL    HW1 7061   3.685   2.869   2.408
 2054SOL    HW2 7062   3.632   2.977   2.519
 2055SOL     OW 7063   0.686   2.640   4.862
 2055SOL    HW1 7064   0.747   2.718   4.847
 2055SOL    HW2 7065   0.724   2.582   4.934
 2056SOL     OW 7066   3.794   5.175   0.951
 2056SOL    HW1 7067   3.856   5.242   0.911
 2056SOL    HW2 7068   3.762   5.112   0.880
 2057SOL     OW 7069   5.711   2.477   4.555
 2057SOL    HW1 7070   5.738   2.483   4.651
 2057SOL    HW2 7071   5.629   2.532   4.541
 2058SOL     OW 7072   0.713   5.940   3.336
 2058SOL    HW1 7073   0.760   6.028   3.337
 2058SOL    HW2 7074   0.671   5.923   3.425
 2059SOL     OW 7075   2.776   0.485   5.595
 2059SOL    HW1 7076   2.696   0.436   5.561
 2059SOL    HW2 7077   2.758   0.520   5.687
 2060SOL     OW 7078   1.434   3.264   0.330
 2060SOL    HW1 7079   1.447   3.224   0.239
 2060SOL    HW2 7080   1.522   3.293   0.366
 2061SOL     OW 7081   2.118   2.734   2.422
 2061SOL    HW1 7082   2.029   2.713   2.462
 2061SOL    HW2 7083   2.143   2.828   2.445
 2062SOL     OW 7084   6.786   5.037   5.077
 2062SOL    HW1 7085   6.782   5.049   4.978
 2062SOL    HW2 7086   6.854   4.967   5.099
 2063SOL     OW 7087   1.458   6.761   5.395
 2063SOL    HW1 7088   1.508   6.710   5.465
 2063SOL    HW2 7089   1.509   6.845   5.373
 2064SOL     OW 7090   0.774   3.758   4.308
 2064SOL    HW1 7091   0.807   3.716   4.392
 2064SOL    HW2 7092   0.843   3.821   4.272
 2065SOL     OW 7093   5.259   2.774   5.209
 2065SOL    HW1 7094   5.225   2.685   5.241
 2065SOL    HW2 7095   5.285   2.767   5.113
 2066SOL     OW 7096   5.929   3.405   5.541
 2066SOL    HW1 7097   5.870   3.364   5.470
 2066SOL    HW2 7098   5.877   3.413   5.626
 2067SOL     OW 7099   6.575   4.571   1.238
 2067SOL    HW1 7100   6.511   4.535   1.306
 2067SOL    HW2 7101   6.577   4.670   1.244
 2068SOL     OW 7102   3.742   1.198   4.138
 2068SOL    HW1 7103   3.750   1.297   4.135
 2068SOL    HW2 7104   3.751   1.161   4.046
 2069SOL     OW 7105   6.975   1.653   4.296
 2069SOL    HW1 7106   0.010   1.728   4.295
 2069SOL    HW2 7107   7.013   1.574   4.249
 2070SOL     OW 7108   1.292   3.042   1.853
 2070SOL    HW1 7109   1.293   3.048   1.952
 2070SOL    HW2 7110   1.331   3.126   1.814
 2071SOL     OW 7111   6.240   1.299   5.824
 2071SOL    HW1 7112   6.338   1.289   5.836
 2071SOL    HW2 7113   6.220   1.384   5.775
 2072SOL     OW 7114   3.929   4.782   5.191
 2072SOL    HW1 7115   3.905   4.819   5.102
 2072SOL    HW2 7116   3.887   4.691   5.201
 2073SOL     OW 7117   4.010   6.507   6.808
 2073SOL    HW1 7118   3.923   6.543   6.843
 2073SOL    HW2 7119   4.040   6.562   6.731
 2074SOL     OW 7120   1.883   3.715   5.523
 2074SOL    HW1 7121   1.834   3.696   5.608
 2074SOL    HW2 7122   1.891   3.632   5.469
 2075SOL     OW 7123   6.726   2.292   2.218
 2075SOL    HW1 7124   6.677   2.210   2.246
 2075SOL    HW2 7125   6.800   2.311   2.282
 2076SOL     OW 7126   5.513   0.289   4.998
 2076SOL    HW1 7127   5.563   0.210   5.033
 2076SOL    HW2 7128   5.579   0.358   4.966
 2077SOL     OW 7129   0.693   3.279   1.636
 2077SOL    HW1 7130   0.788   3.288   1.667
 2077SOL    HW2 7131   0.635   3.256   1.714
 2078SOL     OW 7132   2.183   4.934   5.773
 2078SOL    HW1 7133   2.123   4.957   5.850
 2078SOL    HW2 7134   2.202   4.836   5.773
 2079SOL     OW 7135   5.148   1.395   1.916
 2079SOL    HW1 7136   5.176   1.457   1.844
 2079SOL    HW2 7137   5.086   1.442   1.979
 2080SOL     OW 7138   2.623   2.341   4.805
 2080SOL    HW1 7139   2.582   2.365   4.717
 2080SOL    HW2 7140   2.575   2.387   4.879
 2081SOL     OW 7141   0.255   6.726   3.061
 2081SOL    HW1 7142   0.277   6.810   3.111
 2081SOL    HW2 7143   0.332   6.662   3.069
 2082SOL     OW 7144   0.526   6.171   2.513
 2082SOL    HW1 7145   0.595   6.194   2.444
 2082SOL    HW2 7146   0.534   6.075   2.538
 2083SOL     OW 7147   0.407   6.130   3.644
 2083SOL    HW1 7148   0.316   6.140   3.685
 2083SOL    HW2 7149   0.463   6.209   3.668
 2084SOL     OW 7150   1.149   1.574   1.444
 2084SOL    HW1 7151   1.237   1.602   1.482
 2084SOL    HW2 7152   1.078   1.583   1.514
 2085SOL     OW 7153   4.938   6.196   0.064
 2085SOL    HW1 7154   4.854   6.248   0.084
 2085SOL    HW2 7155   5.017   6.257   0.069
 2086SOL     OW 7156   3.986   0.008   0.264
 2086SOL    HW1 7157   3.907   0.022   0.324
 2086SOL    HW2 7158   3.954   7.017   0.172
 2087SOL     OW 7159   4.269   2.008   6.922
 2087SOL    HW1 7160   4.186   2.047   6.963
 2087SOL    HW2 7161   4.245   1.933   6.861
 2088SOL     OW 7162   0.148   5.555   5.554
 2088SOL    HW1 7163   0.079   5.523   5.620
 2088SOL    HW2 7164   0.201   5.477   5.521
 2089SOL     OW 7165   3.741   2.983   5.628
 2089SOL    HW1 7166   3.647   2.975   5.662
 2089SOL    HW2 7167   3.760   3.078   5.605
 2090SOL     OW 7168   4.800   3.404   5.316
 2090SOL    HW1 7169   4.779   3.478   5.252
 2090SOL    HW2 7170   4.756   3.422   5.404
 2091SOL     OW 7171   6.274   5.907   1.720
 2091SOL    HW1 7172   6.216   5.833   1.686
 2091SOL    HW2 7173   6.339   5.933   1.648
 2092SOL     OW 7174   4.621   3.807   1.161
 2092SOL    HW1 7175   4.654   3.777   1.250
 2092SOL    HW2 7176   4.642   3.904   1.148
 2093SOL     OW 7177   4.099   2.075   2.256
 2093SOL    HW1 7178   4.077   2.028   2.341
 2093SOL    HW2 7179   4.151   2.158   2.277
 2094SOL     OW 7180   5.834   3.111   0.117
 2094SOL    HW1 7181   5.867   3.074   0.204
 2094SOL    HW2 7182   5.778   3.042   0.071
 2095SOL     OW 7183   6.008   6.374   4.118
 2095SOL    HW1 7184   5.964   6.437   4.054
 2095SOL    HW2 7185   5.938   6.330   4.175
 2096SOL     OW 7186   4.639   6.492   2.014
 2096SOL    HW1 7187   4.591   6.580   2.016
 2096SOL    HW2 7188   4.711   6.491   2.083
 2097SOL     OW 7189   2.065   4.559   6.698
 2097SOL    HW1 7190   2.008   4.484   6.731
 2097SOL    HW2 7191   2.066   4.632   6.766
 2098SOL     OW 7192   3.982   6.117   3.170
 2098SOL    HW1 7193   3.921   6.069   3.107
 2098SOL    HW2 7194   3.987   6.068   3.257
 2099SOL     OW 7195   4.736   1.643   6.812
 2099SOL    HW1 7196   4.720   1.587   6.731
 2099SOL    HW2 7197   4.833   1.644   6.833
 2100SOL     OW 7198   5.605   0.870   0.570
 2100SOL    HW1 7199   5.701   0.886   0.548
 2100SOL    HW2 7200   5.577   0.934   0.642
 2101SOL     OW 7201   0.059   6.373   1.130
 2101SOL    HW1 7202   0.082   6.455   1.182
 2101SOL    HW2 7203   0.108   6.295   1.168
 2102SOL     OW 7204   3.737   3.165   1.275
 2102SOL    HW1 7205   3.687   3.127   1.353
 2102SOL    HW2 7206   3.835   3.162   1.293
 2103SOL     OW 7207   3.201   5.454   0.147
 2103SOL    HW1 7208   3.146   5.456   0.231
 2103SOL    HW2 7209   3.195   5.362   0.106
 2104SOL     OW 7210   1.510   4.875   3.123
 2104SOL    HW1 7211   1.497   4.850   3.219
 2104SOL    HW2 7212   1.521   4.974   3.116
 2105SOL     OW 7213   5.315   4.522   0.159
 2105SOL    HW1 7214   5.232   4.508   0.105
 2105SOL    HW2 7215   5.290   4.553   0.250
 2106SOL     OW 7216   5.098   3.512   1.816
 2106SOL    HW1 7217   5.113   3.600   1.861
 2106SOL    HW2 7218   5.149   3.440   1.863
 2107SOL     OW 7219   5.018   3.847   5.881
 2107SOL    HW1 7220   4.918   3.856   5.885
 2107SOL    HW2 7221   5.052   3.893   5.799
 2108SOL     OW 7222   5.667   7.026   6.224
 2108SOL    HW1 7223   5.620   6.938   6.217
 2108SOL    HW2 7224   5.611   0.066   6.180
 2109SOL     OW 7225   2.950   5.788   2.739
 2109SOL    HW1 7226   2.882   5.760   2.671
 2109SOL    HW2 7227   3.021   5.718   2.745
 2110SOL     OW 7228   3.637   0.547   6.762
 2110SOL    HW1 7229   3.726   0.515   6.728
 2110SOL    HW2 7230   3.578   0.468   6.778
 2111SOL     OW 7231   1.050   2.917   5.794
 2111SOL    HW1 7232   1.062   2.975   5.875
 2111SOL    HW2 7233   1.096   2.959   5.716
 2112SOL     OW 7234   6.718   1.079   0.415
 2112SOL    HW1 7235   6.798   1.134   0.437
 2112SOL    HW2 7236   6.739   1.016   0.340
 2113SOL     OW 7237   1.727   6.974   4.518
 2113SOL    HW1 7238   1.823   6.947   4.506
 2113SOL    HW2 7239   1.668   6.911   4.467
 2114SOL     OW 7240   1.794   2.542   6.751
 2114SOL    HW1 7241   1.877   2.552   6.807
 2114SOL    HW2 7242   1.817   2.560   6.655
 2115SOL     OW 7243   0.349   5.112   3.250
 2115SOL    HW1 7244   0.426   5.175   3.262
 2115SOL    HW2 7245   0.383   5.019   3.238
 2116SOL     OW 7246   1.305   1.991   6.886
 2116SOL    HW1 7247   1.322   1.894   6.864
 2116SOL    HW2 7248   1.393   2.038   6.894
 2117SOL     OW 7249   5.586   2.342   2.546
 2117SOL    HW1 7250   5.498   2.316   2.508
 2117SOL    HW2 7251   5.649   2.364   2.471
 2118SOL     OW 7252   6.722   3.598   2.472
 2118SOL    HW1 7253   6.804   3.541   2.469
 2118SOL    HW2 7254   6.661   3.564   2.544
 2119SOL     OW 7255   2.358   0.697   6.472
 2119SOL    HW1 7256   2.399   0.773   6.422
 2119SOL    HW2 7257   2.427   0.626   6.487
 2120SOL     OW 7258   6.111   2.076   1.657
 2120SOL    HW1 7259   6.046   2.138   1.613
 2120SOL    HW2 7260   6.203   2.114   1.653
 2121SOL     OW 7261   1.882   1.638   5.882
 2121SOL    HW1 7262   1.936   1.632   5.798
 2121SOL    HW2 7263   1.835   1.551   5.898
 2122SOL     OW 7264   6.085   0.401   5.334
 2122SOL    HW1 7265   6.017   0.332   5.360
 2122SOL    HW2 7266   6.160   0.400   5.400
 2123SOL     OW 7267   0.427   5.650   3.075
 2123SOL    HW1 7268   0.485   5.572   3.100
 2123SOL    HW2 7269   0.472   5.702   3.003
 2124SOL     OW 7270   3.370   2.863   5.481
 2124SOL    HW1 7271   3.331   2.812   5.558
 2124SOL    HW2 7272   3.342   2.822   5.395
 2125SOL     OW 7273   1.681   5.636   3.694
 2125SOL    HW1 7274   1.613   5.581   3.646
 2125SOL    HW2 7275   1.763   5.644   3.637
 2126SOL     OW 7276   3.605   3.609   0.033
 2126SOL    HW1 7277   3.517   3.588   7.023
 2126SOL    HW2 7278   3.605   3.581   0.129
 2127SOL     OW 7279   0.198   2.960   5.949
 2127SOL    HW1 7280   0.237   2.874   5.982
 2127SOL    HW2 7281   0.272   3.017   5.912
 2128SOL     OW 7282   5.264   3.674   1.308
 2128SOL    HW1 7283   5.188   3.691   1.370
 2128SOL    HW2 7284   5.238   3.604   1.241
 2129SOL     OW 7285   5.084   3.879   3.595
 2129SOL    HW1 7286   5.075   3.809   3.666
 2129SOL    HW2 7287   5.173   3.925   3.606
 2130SOL     OW 7288   2.036   1.188   1.973
 2130SOL    HW1 7289   2.035   1.284   1.945
 2130SOL    HW2 7290   2.072   1.132   1.898
 2131SOL     OW 7291   5.495   1.744   6.018
 2131SOL    HW1 7292   5.461   1.665   6.070
 2131SOL    HW2 7293   5.540   1.808   6.080
 2132SOL     OW 7294   2.362   1.629   7.005
 2132SOL    HW1 7295   2.448   1.659   0.015
 2132SOL    HW2 7296   2.355   1.529   7.013
 2133SOL     OW 7297   2.176   1.613   1.532
 2133SOL    HW1 7298   2.171   1.684   1.462
 2133SOL    HW2 7299   2.186   1.655   1.622
 2134SOL     OW 7300   0.381   6.475   4.513
 2134SOL    HW1 7301   0.346   6.382   4.524
 2134SOL    HW2 7302   0.480   6.474   4.524
 2135SOL     OW 7303   0.837   0.921   3.308
 2135SOL    HW1 7304   0.915   0.883   3.258
 2135SOL    HW2 7305   0.752   0.899   3.259
 2136SOL     OW 7306   0.755   3.602   4.568
 2136SOL    HW1 7307   0.849   3.578   4.593
 2136SOL    HW2 7308   0.705   3.631   4.650
 2137SOL     OW 7309   1.107   6.533   5.393
 2137SOL    HW1 7310   1.161   6.586   5.458
 2137SOL    HW2 7311   1.078   6.447   5.435
 2138SOL     OW 7312   6.905   2.787   0.663
 2138SOL    HW1 7313   6.834   2.813   0.730
 2138SOL    HW2 7314   6.994   2.818   0.696
 2139SOL     OW 7315   2.947   0.582   4.442
 2139SOL    HW1 7316   2.986   0.671   4.465
 2139SOL    HW2 7317   2.950   0.523   4.522
 2140SOL     OW 7318   2.575   6.389   3.475
 2140SOL    HW1 7319   2.535   6.379   3.566
 2140SOL    HW2 7320   2.528   6.328   3.411
 2141SOL     OW 7321   6.293   2.752   1.086
 2141SOL    HW1 7322   6.377   2.787   1.127
 2141SOL    HW2 7323   6.311   2.662   1.046
 2142SOL     OW 7324   1.329   1.798   3.542
 2142SOL    HW1 7325   1.285   1.786   3.631
 2142SOL    HW2 7326   1.275   1.751   3.472
 2143SOL     OW 7327   3.403   6.802   1.593
 2143SOL    HW1 7328   3.410   6.846   1.503
 2143SOL    HW2 7329   3.454   6.716   1.591
 2144SOL     OW 7330   1.405   0.307   3.508
 2144SOL    HW1 7331   1.360   0.226   3.548
 2144SOL    HW2 7332   1.456   0.279   3.427
 2145SOL     OW 7333   3.373   5.620   3.753
 2145SOL    HW1 7334   3.386   5.590   3.847
 2145SOL    HW2 7335   3.392   5.544   3.691
 2146SOL     OW 7336   3.194   3.042   2.251
 2146SOL    HW1 7337   3.145   3.013   2.169
 2146SOL    HW2 7338   3.160   3.132   2.280
 2147SOL     OW 7339   0.713   1.958   6.289
 2147SOL    HW1 7340   0.690   1.965   6.192
 2147SOL    HW2 7341   0.679   1.871   6.325
 2148SOL     OW 7342   5.132   3.680   3.780
 2148SOL    HW1 7343   5.061   3.645   3.841
 2148SOL    HW2 7344   5.219   3.686   3.829
 2149SOL     OW 7345   3.927   0.965   2.541
 2149SOL    HW1 7346   3.889   0.890   2.487
 2149SOL    HW2 7347   4.005   1.004   2.493
 2150SOL     OW 7348   3.698   2.043   3.354
 2150SOL    HW1 7349   3.698   1.947   3.381
 2150SOL    HW2 7350   3.751   2.056   3.271
 2151SOL     OW 7351   3.898   2.432   5.939
 2151SOL    HW1 7352   3.953   2.515   5.945
 2151SOL    HW2 7353   3.803   2.456   5.915
 2152SOL     OW 7354   5.947   6.625   2.075
 2152SOL    HW1 7355   5.886   6.602   2.000
 2152SOL    HW2 7356   6.039   6.589   2.056
 2153SOL     OW 7357   4.709   1.744   3.981
 2153SOL    HW1 7358   4.661   1.657   3.973
 2153SOL    HW2 7359   4.782   1.749   3.913
 2154SOL     OW 7360   3.439   5.547   4.758
 2154SOL    HW1 7361   3.343   5.537   4.785
 2154SOL    HW2 7362   3.472   5.460   4.720
 2155SOL     OW 7363   1.922   4.581   0.116
 2155SOL    HW1 7364   1.942   4.556   0.211
 2155SOL    HW2 7365   1.858   4.658   0.115
 2156SOL     OW 7366   1.584   0.295   2.264
 2156SOL    HW1 7367   1.491   0.309   2.231
 2156SOL    HW2 7368   1.641   0.372   2.237
 2157SOL     OW 7369   6.979   1.493   5.024
 2157SOL    HW1 7370   6.957   1.584   5.059
 2157SOL    HW2 7371   6.895   1.446   4.999
 2158SOL     OW 7372   3.906   6.854   1.141
 2158SOL    HW1 7373   3.857   6.782   1.190
 2158SOL    HW2 7374   3.883   6.943   1.180
 2159SOL     OW 7375   1.678   6.999   4.826
 2159SOL    HW1 7376   1.658   6.918   4.880
 2159SOL    HW2 7377   1.685   6.974   4.729
 2160SOL     OW 7378   3.603   4.185   1.225
 2160SOL    HW1 7379   3.682   4.195   1.165
 2160SOL    HW2 7380   3.519   4.194   1.171
 2161SOL     OW 7381   5.167   3.608   3.505
 2161SOL    HW1 7382   5.137   3.632   3.597
 2161SOL    HW2 7383   5.088   3.601   3.445
 2162SOL     OW 7384   2.205   0.731   6.724
 2162SOL    HW1 7385   2.192   0.830   6.719
 2162SOL    HW2 7386   2.262   0.701   6.648
 2163SOL     OW 7387   1.677   0.123   6.971
 2163SOL    HW1 7388   1.647   0.183   6.897
 2163SOL    HW2 7389   1.608   0.053   6.986
 2164SOL     OW 7390   1.974   0.503   6.093
 2164SOL    HW1 7391   1.920   0.540   6.168
 2164SOL    HW2 7392   1.996   0.407   6.113
 2165SOL     OW 7393   1.222   0.427   2.433
 2165SOL    HW1 7394   1.129   0.395   2.412
 2165SOL    HW2 7395   1.288   0.370   2.383
 2166SOL     OW 7396   1.500   2.327   5.081
 2166SOL    HW1 7397   1.537   2.367   4.996
 2166SOL    HW2 7398   1.490   2.229   5.070
 2167SOL     OW 7399   3.052   0.811   2.187
 2167SOL    HW1 7400   2.981   0.869   2.227
 2167SOL    HW2 7401   3.139   0.826   2.235
 2168SOL     OW 7402   5.941   3.209   4.544
 2168SOL    HW1 7403   5.935   3.300   4.585
 2168SOL    HW2 7404   6.000   3.212   4.464
 2169SOL     OW 7405   5.515   2.870   5.973
 2169SOL    HW1 7406   5.590   2.912   6.026
 2169SOL    HW2 7407   5.525   2.771   5.974
 2170SOL     OW 7408   4.617   5.019   5.068
 2170SOL    HW1 7409   4.611   4.947   5.138
 2170SOL    HW2 7410   4.666   4.984   4.988
 2171SOL     OW 7411   6.651   3.629   0.093
 2171SOL    HW1 7412   6.702   3.662   0.173
 2171SOL    HW2 7413   6.576   3.570   0.123
 2172SOL     OW 7414   3.296   1.222   0.554
 2172SOL    HW1 7415   3.337   1.302   0.598
 2172SOL    HW2 7416   3.210   1.199   0.600
 2173SOL     OW 7417   4.164   0.879   5.829
 2173SOL    HW1 7418   4.199   0.968   5.858
 2173SOL    HW2 7419   4.174   0.812   5.903
 2174SOL     OW 7420   6.549   4.443   4.609
 2174SOL    HW1 7421   6.601   4.438   4.524
 2174SOL    HW2 7422   6.451   4.439   4.588
 2175SOL     OW 7423   2.750   0.360   3.633
 2175SOL    HW1 7424   2.788   0.297   3.566
 2175SOL    HW2 7425   2.701   0.434   3.586
 2176SOL     OW 7426   1.970   2.188   3.057
 2176SOL    HW1 7427   2.047   2.206   2.996
 2176SOL    HW2 7428   1.964   2.090   3.075
 2177SOL     OW 7429   0.099   2.212   1.070
 2177SOL    HW1 7430   0.055   2.259   0.993
 2177SOL    HW2 7431   0.165   2.146   1.035
 2178SOL     OW 7432   0.787   4.668   0.402
 2178SOL    HW1 7433   0.829   4.601   0.463
 2178SOL    HW2 7434   0.718   4.720   0.451
 2179SOL     OW 7435   1.579   5.167   4.550
 2179SOL    HW1 7436   1.580   5.259   4.587
 2179SOL    HW2 7437   1.584   5.171   4.450
 2180SOL     OW 7438   2.994   3.860   2.572
 2180SOL    HW1 7439   3.076   3.909   2.599
 2180SOL    HW2 7440   2.973   3.790   2.640
 2181SOL     OW 7441   4.939   5.804   5.648
 2181SOL    HW1 7442   4.939   5.728   5.583
 2181SOL    HW2 7443   5.022   5.801   5.703
 2182SOL     OW 7444   6.790   4.093   6.256
 2182SOL    HW1 7445   6.861   4.100   6.326
 2182SOL    HW2 7446   6.830   4.062   6.170
 2183SOL     OW 7447   3.298   3.098   0.490
 2183SOL    HW1 7448   3.240   3.112   0.571
 2183SOL    HW2 7449   3.246   3.047   0.421
 2184SOL     OW 7450   3.541   1.721   6.253
 2184SOL    HW1 7451   3.595   1.638   6.271
 2184SOL    HW2 7452   3.501   1.715   6.162
 2185SOL     OW 7453   1.291   0.727   0.565
 2185SOL    HW1 7454   1.286   0.641   0.515
 2185SOL    HW2 7455   1.256   0.801   0.508
 2186SOL     OW 7456   6.913   5.069   3.034
 2186SOL    HW1 7457   7.011   5.062   3.016
 2186SOL    HW2 7458   6.872   4.978   3.028
 2187SOL     OW 7459   6.249   1.788   0.325
 2187SOL    HW1 7460   6.182   1.759   0.394
 2187SOL    HW2 7461   6.249   1.888   0.318
 2188SOL     OW 7462   5.550   6.596   3.544
 2188SOL    HW1 7463   5.598   6.527   3.489
 2188SOL    HW2 7464   5.452   6.592   3.525
 2189SOL     OW 7465   2.058   0.215   6.032
 2189SOL    HW1 7466   2.004   0.204   5.949
 2189SOL    HW2 7467   2.152   0.186   6.015
 2190SOL     OW 7468   6.353   2.229   1.264
 2190SOL    HW1 7469   6.451   2.229   1.286
 2190SOL    HW2 7470   6.307   2.301   1.316
 2191SOL     OW 7471   3.464   3.131   6.478
 2191SOL    HW1 7472   3.506   3.044   6.450
 2191SOL    HW2 7473   3.372   3.114   6.514
 2192SOL     OW 7474   4.140   6.047   5.097
 2192SOL    HW1 7475   4.215   5.982   5.087
 2192SOL    HW2 7476   4.053   6.000   5.077
 2193SOL     OW 7477   0.820   5.224   5.868
 2193SOL    HW1 7478   0.780   5.315   5.882
 2193SOL    HW2 7479   0.890   5.208   5.937
 2194SOL     OW 7480   2.419   6.290   0.947
 2194SOL    HW1 7481   2.418   6.304   1.046
 2194SOL    HW2 7482   2.502   6.240   0.922
 2195SOL     OW 7483   1.329   5.430   2.933
 2195SOL    HW1 7484   1.421   5.401   2.910
 2195SOL    HW2 7485   1.273   5.436   2.850
 2196SOL     OW 7486   3.425   1.702   5.986
 2196SOL    HW1 7487   3.516   1.663   5.976
 2196SOL    HW2 7488   3.430   1.801   5.974
 2197SOL     OW 7489   5.049   4.868   1.667
 2197SOL    HW1 7490   5.057   4.906   1.759
 2197SOL    HW2 7491   4.963   4.900   1.625
 2198SOL     OW 7492   6.597   4.434   0.252
 2198SOL    HW1 7493   6.697   4.440   0.248
 2198SOL    HW2 7494   6.560   4.427   0.160
 2199SOL     OW 7495   4.752   7.030   0.909
 2199SOL    HW1 7496   4.762   6.973   0.828
 2199SOL    HW2 7497   4.786   6.981   0.989
 2200SOL     OW 7498   3.932   0.838   4.534
 2200SOL    HW1 7499   3.913   0.934   4.512
 2200SOL    HW2 7500   4.031   0.825   4.543
 2201SOL     OW 7501   6.391   3.305   2.539
 2201SOL    HW1 7502   6.348   3.252   2.613
 2201SOL    HW2 7503   6.353   3.277   2.451
 2202SOL     OW 7504   4.111   5.644   4.148
 2202SOL    HW1 7505   4.025   5.681   4.183
 2202SOL    HW2 7506   4.135   5.562   4.200
 2203SOL     OW 7507   3.624   1.963   2.963
 2203SOL    HW1 7508   3.530   1.972   2.996
 2203SOL    HW2 7509   3.637   1.872   2.923
 2204SOL     OW 7510   3.001   2.519   0.800
 2204SOL    HW1 7511   3.060   2.597   0.779
 2204SOL    HW2 7512   2.921   2.550   0.852
 2205SOL     OW 7513   2.511   6.589   0.539
 2205SOL    HW1 7514   2.609   6.584   0.560
 2205SOL    HW2 7515   2.461   6.532   0.604
 2206SOL     OW 7516   2.962   3.091   6.816
 2206SOL    HW1 7517   2.866   3.110   6.792
 2206SOL    HW2 7518   3.013   3.176   6.819
 2207SOL     OW 7519   1.598   4.792   6.597
 2207SOL    HW1 7520   1.610   4.712   6.656
 2207SOL    HW2 7521   1.591   4.763   6.502
 2208SOL     OW 7522   0.365   3.896   1.902
 2208SOL    HW1 7523   0.326   3.834   1.970
 2208SOL    HW2 7524   0.351   3.858   1.811
 2209SOL     OW 7525   0.950   5.589   6.151
 2209SOL    HW1 7526   0.918   5.649   6.223
 2209SOL    HW2 7527   0.964   5.497   6.188
 2210SOL     OW 7528   1.246   5.389   3.505
 2210SOL    HW1 7529   1.226   5.475   3.552
 2210SOL    HW2 7530   1.205   5.390   3.414
 2211SOL     OW 7531   5.995   1.366   5.533
 2211SOL    HW1 7532   5.955   1.281   5.569
 2211SOL    HW2 7533   6.019   1.426   5.609
 2212SOL     OW 7534   1.116   0.218   6.184
 2212SOL    HW1 7535   1.146   0.250   6.094
 2212SOL    HW2 7536   1.028   0.171   6.175
 2213SOL     OW 7537   4.186   2.239   3.525
 2213SOL    HW1 7538   4.118   2.237   3.452
 2213SOL    HW2 7539   4.246   2.318   3.512
 2214SOL     OW 7540   5.429   0.154   4.739
 2214SOL    HW1 7541   5.436   0.181   4.835
 2214SOL    HW2 7542   5.401   0.233   4.684
 2215SOL     OW 7543   6.628   2.365   5.474
 2215SOL    HW1 7544   6.673   2.298   5.415
 2215SOL    HW2 7545   6.669   2.455   5.460
 2216SOL     OW 7546   1.078   6.739   1.148
 2216SOL    HW1 7547   1.036   6.663   1.198
 2216SOL    HW2 7548   1.023   6.761   1.068
 2217SOL     OW 7549   4.363   0.101   1.513
 2217SOL    HW1 7550   4.329   0.194   1.519
 2217SOL    HW2 7551   4.463   0.101   1.518
 2218SOL     OW 7552   0.971   5.736   6.590
 2218SOL    HW1 7553   0.875   5.755   6.572
 2218SOL    HW2 7554   1.028   5.807   6.548
 2219SOL     OW 7555   2.283   4.120   3.196
 2219SOL    HW1 7556   2.323   4.210   3.217
 2219SOL    HW2 7557   2.310   4.093   3.103
 2220SOL     OW 7558   0.308   1.533   5.597
 2220SOL    HW1 7559   0.264   1.446   5.577
 2220SOL    HW2 7560   0.407   1.524   5.587
 2221SOL     OW 7561   6.365   2.172   1.668
 2221SOL    HW1 7562   6.437   2.190   1.736
 2221SOL    HW2 7563   6.344   2.257   1.619
 2222SOL     OW 7564   4.788   6.796   1.965
 2222SOL    HW1 7565   4.796   6.729   2.039
 2222SOL    HW2 7566   4.749   6.752   1.884
 2223SOL     OW 7567   5.809   5.034   3.704
 2223SOL    HW1 7568   5.774   4.960   3.762
 2223SOL    HW2 7569   5.738   5.103   3.691
 2224SOL     OW 7570   2.183   4.813   1.844
 2224SOL    HW1 7571   2.094   4.824   1.888
 2224SOL    HW2 7572   2.170   4.795   1.746
 2225SOL     OW 7573   6.269   4.728   2.009
 2225SOL    HW1 7574   6.250   4.715   2.107
 2225SOL    HW2 7575   6.311   4.646   1.972
 2226SOL     OW 7576   3.857   3.406   1.097
 2226SOL    HW1 7577   3.820   3.326   1.145
 2226SOL    HW2 7578   3.956   3.407   1.105
 2227SOL     OW 7579   6.761   3.786   5.477
 2227SOL    HW1 7580   6.820   3.852   5.524
 2227SOL    HW2 7581   6.784   3.693   5.509
 2228SOL     OW 7582   3.112   4.962   6.172
 2228SOL    HW1 7583   3.134   4.977   6.075
 2228SOL    HW2 7584   3.037   4.897   6.180
 2229SOL     OW 7585   4.275   1.142   3.116
 2229SOL    HW1 7586   4.299   1.160   3.212
 2229SOL    HW2 7587   4.271   1.044   3.100
 2230SOL     OW 7588   0.789   6.263   5.542
 2230SOL    HW1 7589   0.803   6.166   5.561
 2230SOL    HW2 7590   0.875   6.312   5.552
 2231SOL     OW 7591   2.228   6.778   2.076
 2231SOL    HW1 7592   2.247   6.840   2.151
 2231SOL    HW2 7593   2.168   6.704   2.107
 2232SOL     OW 7594   6.599   2.787   2.485
 2232SOL    HW1 7595   6.517   2.843   2.497
 2232SOL    HW2 7596   6.576   2.706   2.430
 2233SOL     OW 7597   3.402   6.530   0.375
 2233SOL    HW1 7598   3.434   6.461   0.441
 2233SOL    HW2 7599   3.302   6.533   0.376
 2234SOL     OW 7600   3.733   1.625   0.738
 2234SOL    HW1 7601   3.661   1.561   0.763
 2234SOL    HW2 7602   3.822   1.583   0.757
 2235SOL     OW 7603   0.745   6.657   0.651
 2235SOL    HW1 7604   0.697   6.657   0.563
 2235SOL    HW2 7605   0.703   6.724   0.712
 2236SOL     OW 7606   1.016   4.443   1.318
 2236SOL    HW1 7607   0.945   4.418   1.384
 2236SOL    HW2 7608   0.975   4.450   1.227
 2237SOL     OW 7609   6.052   2.838   4.793
 2237SOL    HW1 7610   6.141   2.884   4.800
 2237SOL    HW2 7611   5.984   2.890   4.846
 2238SOL     OW 7612   0.578   5.989   2.227
 2238SOL    HW1 7613   0.578   5.901   2.275
 2238SOL    HW2 7614   0.570   5.973   2.129
 2239SOL     OW 7615   4.433   5.243   3.219
 2239SOL    HW1 7616   4.418   5.341   3.206
 2239SOL    HW2 7617   4.414   5.195   3.133
 2240SOL     OW 7618   6.122   4.875   2.714
 2240SOL    HW1 7619   6.097   4.971   2.700
 2240SOL    HW2 7620   6.142   4.833   2.625
 2241SOL     OW 7621   0.123   6.656   1.575
 2241SOL    HW1 7622   0.093   6.691   1.663
 2241SOL    HW2 7623   0.045   6.651   1.512
 2242SOL     OW 7624   4.750   1.824   3.168
 2242SOL    HW1 7625   4.797   1.890   3.226
 2242SOL    HW2 7626   4.659   1.806   3.205
 2243SOL     OW 7627   2.586   5.662   5.276
 2243SOL    HW1 7628   2.574   5.762   5.278
 2243SOL    HW2 7629   2.526   5.621   5.344
 2244SOL     OW 7630   2.460   0.287   4.545
 2244SOL    HW1 7631   2.449   0.341   4.461
 2244SOL    HW2 7632   2.465   0.190   4.521
 2245SOL     OW 7633   0.868   0.982   2.283
 2245SOL    HW1 7634   0.780   0.972   2.331
 2245SOL    HW2 7635   0.908   0.892   2.268
 2246SOL     OW 7636   0.875   3.998   6.150
 2246SOL    HW1 7637   0.930   4.018   6.232
 2246SOL    HW2 7638   0.932   4.011   6.068
 2247SOL     OW 7639   2.340   3.018   6.352
 2247SOL    HW1 7640   2.341   3.111   6.315
 2247SOL    HW2 7641   2.360   3.021   6.450
 2248SOL     OW 7642   4.637   3.711   5.871
 2248SOL    HW1 7643   4.679   3.719   5.961
 2248SOL    HW2 7644   4.706   3.680   5.805
 2249SOL     OW 7645   5.444   5.829   3.577
 2249SOL    HW1 7646   5.350   5.814   3.546
 2249SOL    HW2 7647   5.504   5.761   3.537
 2250SOL     OW 7648   6.723   4.180   1.075
 2250SOL    HW1 7649   6.698   4.269   1.038
 2250SOL    HW2 7650   6.690   4.108   1.015
 2251SOL     OW 7651   5.637   0.815   0.309
 2251SOL    HW1 7652   5.670   0.721   0.320
 2251SOL    HW2 7653   5.596   0.846   0.394
 2252SOL     OW 7654   5.193   2.559   5.403
 2252SOL    HW1 7655   5.259   2.561   5.479
 2252SOL    HW2 7656   5.100   2.557   5.440
 2253SOL     OW 7657   2.428   2.865   0.153
 2253SOL    HW1 7658   2.451   2.924   0.230
 2253SOL    HW2 7659   2.507   2.808   0.130
 2254SOL     OW 7660   2.468   4.025   6.212
 2254SOL    HW1 7661   2.393   4.043   6.276
 2254SOL    HW2 7662   2.478   3.927   6.200
 2255SOL     OW 7663   5.601   2.575   1.458
 2255SOL    HW1 7664   5.655   2.590   1.375
 2255SOL    HW2 7665   5.622   2.485   1.496
 2256SOL     OW 7666   4.126   4.723   2.150
 2256SOL    HW1 7667   4.059   4.711   2.077
 2256SOL    HW2 7668   4.203   4.777   2.115
 2257SOL     OW 7669   1.988   4.455   3.721
 2257SOL    HW1 7670   1.978   4.549   3.690
 2257SOL    HW2 7671   2.075   4.418   3.690
 2258SOL     OW 7672   1.817   5.600   4.934
 2258SOL    HW1 7673   1.725   5.566   4.914
 2258SOL    HW2 7674   1.860   5.541   5.003
 2259SOL     OW 7675   5.000   3.849   7.016
 2259SOL    HW1 7676   5.036   3.926   0.036
 2259SOL    HW2 7677   5.014   3.865   6.918
 2260SOL     OW 7678   5.564   4.800   1.479
 2260SOL    HW1 7679   5.601   4.893   1.472
 2260SOL    HW2 7680   5.475   4.802   1.525
 2261SOL     OW 7681   5.343   0.245   0.148
 2261SOL    HW1 7682   5.396   0.286   0.073
 2261SOL    HW2 7683   5.370   0.150   0.161
 2262SOL     OW 7684   4.775   2.010   3.765
 2262SOL    HW1 7685   4.788   1.916   3.733
 2262SOL    HW2 7686   4.783   2.013   3.865
 2263SOL     OW 7687   1.038   5.493   5.773
 2263SOL    HW1 7688   1.032   5.415   5.711
 2263SOL    HW2 7689   1.013   5.576   5.724
 2264SOL     OW 7690   3.341   2.959   4.247
 2264SOL    HW1 7691   3.395   3.038   4.275
 2264SOL    HW2 7692   3.285   2.984   4.167
 2265SOL     OW 7693   0.167   0.068   1.827
 2265SOL    HW1 7694   0.129   0.122   1.902
 2265SOL    HW2 7695   0.094   0.041   1.765
 2266SOL     OW 7696   5.681   0.438   0.645
 2266SOL    HW1 7697   5.775   0.438   0.677
 2266SOL    HW2 7698   5.649   0.344   0.634
 2267SOL     OW 7699   6.559   2.735   5.500
 2267SOL    HW1 7700   6.477   2.766   5.548
 2267SOL    HW2 7701   6.533   2.673   5.425
 2268SOL     OW 7702   6.959   5.968   6.667
 2268SOL    HW1 7703   6.999   5.879   6.644
 2268SOL    HW2 7704   7.014   6.041   6.625
 2269SOL     OW 7705   6.465   5.413   6.221
 2269SOL    HW1 7706   6.494   5.509   6.211
 2269SOL    HW2 7707   6.465   5.369   6.132
 2270SOL     OW 7708   3.585   3.319   1.860
 2270SOL    HW1 7709   3.505   3.281   1.908
 2270SOL    HW2 7710   3.636   3.244   1.817
 2271SOL     OW 7711   6.415   4.497   2.252
 2271SOL    HW1 7712   6.395   4.554   2.331
 2271SOL    HW2 7713   6.445   4.407   2.282
 2272SOL     OW 7714   5.848   2.056   5.791
 2272SOL    HW1 7715   5.906   2.066   5.711
 2272SOL    HW2 7716   5.760   2.019   5.764
 2273SOL     OW 7717   0.693   1.346   3.448
 2273SOL    HW1 7718   0.662   1.439   3.470
 2273SOL    HW2 7719   0.791   1.338   3.467
 2274SOL     OW 7720   1.287   3.458   4.621
 2274SOL    HW1 7721   1.324   3.450   4.529
 2274SOL    HW2 7722   1.362   3.453   4.687
 2275SOL     OW 7723   5.197   6.543   4.127
 2275SOL    HW1 7724   5.254   6.509   4.052
 2275SOL    HW2 7725   5.122   6.479   4.143
 2276SOL     OW 7726   4.048   4.398   1.667
 2276SOL    HW1 7727   3.985   4.474   1.684
 2276SOL    HW2 7728   4.001   4.311   1.679
 2277SOL     OW 7729   3.461   3.041   0.102
 2277SOL    HW1 7730   3.532   3.083   0.047
 2277SOL    HW2 7731   3.385   3.013   0.043
 2278SOL     OW 7732   5.182   5.995   1.318
 2278SOL    HW1 7733   5.268   5.955   1.287
 2278SOL    HW2 7734   5.199   6.087   1.354
 2279SOL     OW 7735   5.753   3.186   5.157
 2279SOL    HW1 7736   5.727   3.226   5.069
 2279SOL    HW2 7737   5.853   3.183   5.163
 2280SOL     OW 7738   5.959   6.146   6.135
 2280SOL    HW1 7739   5.959   6.151   6.035
 2280SOL    HW2 7740   6.006   6.063   6.165
 2281SOL     OW 7741   3.614   2.288   1.408
 2281SOL    HW1 7742   3.678   2.364   1.423
 2281SOL    HW2 7743   3.610   2.232   1.491
 2282SOL     OW 7744   4.397   5.843   2.900
 2282SOL    HW1 7745   4.486   5.807   2.928
 2282SOL    HW2 7746   4.401   5.873   2.805
 2283SOL     OW 7747   0.057   3.424   3.530
 2283SOL    HW1 7748   0.016   3.504   3.574
 2283SOL    HW2 7749   0.026   3.341   3.577
 2284SOL     OW 7750   2.142   2.120   1.544
 2284SOL    HW1 7751   2.110   2.215   1.542
 2284SOL    HW2 7752   2.087   2.065   1.481
 2285SOL     OW 7753   1.812   3.782   1.192
 2285SOL    HW1 7754   1.818   3.882   1.187
 2285SOL    HW2 7755   1.725   3.752   1.152
 2286SOL     OW 7756   6.703   6.499   4.718
 2286SOL    HW1 7757   6.705   6.460   4.626
 2286SOL    HW2 7758   6.677   6.427   4.783
 2287SOL     OW 7759   2.342   2.443   2.113
 2287SOL    HW1 7760   2.351   2.431   2.015
 2287SOL    HW2 7761   2.344   2.541   2.135
 2288SOL     OW 7762   0.310   6.330   2.935
 2288SOL    HW1 7763   0.353   6.241   2.921
 2288SOL    HW2 7764   0.239   6.321   3.006
 2289SOL     OW 7765   5.405   2.255   2.354
 2289SOL    HW1 7766   5.414   2.165   2.312
 2289SOL    HW2 7767   5.363   2.318   2.289
 2290SOL     OW 7768   3.070   3.374   2.780
 2290SOL    HW1 7769   3.084   3.277   2.760
 2290SOL    HW2 7770   3.001   3.411   2.718
 2291SOL     OW 7771   2.006   2.785   0.982
 2291SOL    HW1 7772   1.916   2.796   1.024
 2291SOL    HW2 7773   2.017   2.690   0.953
 2292SOL     OW 7774   4.265   2.070   3.250
 2292SOL    HW1 7775   4.232   2.015   3.174
 2292SOL    HW2 7776   4.244   2.167   3.233
 2293SOL     OW 7777   6.026   1.351   0.175
 2293SOL    HW1 7778   6.012   1.419   0.247
 2293SOL    HW2 7779   6.014   1.259   0.213
 2294SOL     OW 7780   0.725   2.578   6.013
 2294SOL    HW1 7781   0.753   2.542   6.103
 2294SOL    HW2 7782   0.806   2.604   5.961
 2295SOL     OW 7783   6.302   6.595   1.675
 2295SOL    HW1 7784   6.357   6.646   1.608
 2295SOL    HW2 7785   6.363   6.545   1.737
 2296SOL     OW 7786   2.835   5.495   3.716
 2296SOL    HW1 7787   2.828   5.396   3.712
 2296SOL    HW2 7788   2.758   5.536   3.667
 2297SOL     OW 7789   4.520   4.465   5.556
 2297SOL    HW1 7790   4.438   4.472   5.500
 2297SOL    HW2 7791   4.500   4.409   5.636
 2298SOL     OW 7792   3.582   3.301   4.997
 2298SOL    HW1 7793   3.535   3.263   5.076
 2298SOL    HW2 7794   3.646   3.234   4.960
 2299SOL     OW 7795   5.442   3.007   4.906
 2299SOL    HW1 7796   5.371   2.938   4.922
 2299SOL    HW2 7797   5.512   2.970   4.845
 2300SOL     OW 7798   4.287   6.561   2.853
 2300SOL    HW1 7799   4.232   6.638   2.820
 2300SOL    HW2 7800   4.381   6.572   2.820
 2301SOL     OW 7801   3.716   3.783   4.968
 2301SOL    HW1 7802   3.792   3.829   4.921
 2301SOL    HW2 7803   3.700   3.694   4.926
 2302SOL     OW 7804   4.846   2.163   0.160
 2302SOL    HW1 7805   4.770   2.201   0.107
 2302SOL    HW2 7806   4.842   2.063   0.158
 2303SOL     OW 7807   2.708   1.910   1.051
 2303SOL    HW1 7808   2.709   1.957   1.139
 2303SOL    HW2 7809   2.801   1.903   1.015
 2304SOL     OW 7810   5.739   5.798   2.010
 2304SOL    HW1 7811   5.821   5.849   1.986
 2304SOL    HW2 7812   5.660   5.860   2.010
 2305SOL     OW 7813   1.722   1.256   5.021
 2305SOL    HW1 7814   1.683   1.323   5.084
 2305SOL    HW2 7815   1.701   1.164   5.053
 2306SOL     OW 7816   2.422   4.928   3.817
 2306SOL    HW1 7817   2.489   4.910   3.889
 2306SOL    HW2 7818   2.452   5.007   3.763
 2307SOL     OW 7819   0.893   2.446   5.303
 2307SOL    HW1 7820   0.908   2.534   5.347
 2307SOL    HW2 7821   0.907   2.372   5.369
 2308SOL     OW 7822   2.744   4.295   1.713
 2308SOL    HW1 7823   2.648   4.304   1.737
 2308SOL    HW2 7824   2.798   4.358   1.769
 2309SOL     OW 7825   1.574   6.799   4.373
 2309SOL    HW1 7826   1.629   6.724   4.335
 2309SOL    HW2 7827   1.477   6.774   4.371
 2310SOL     OW 7828   4.410   6.672   1.438
 2310SOL    HW1 7829   4.456   6.761   1.426
 2310SOL    HW2 7830   4.352   6.654   1.359
 2311SOL     OW 7831   2.632   6.031   1.237
 2311SOL    HW1 7832   2.602   5.953   1.184
 2311SOL    HW2 7833   2.562   6.103   1.234
 2312SOL     OW 7834   3.557   5.168   2.923
 2312SOL    HW1 7835   3.579   5.168   3.021
 2312SOL    HW2 7836   3.458   5.173   2.911
 2313SOL     OW 7837   5.583   4.872   2.300
 2313SOL    HW1 7838   5.492   4.855   2.263
 2313SOL    HW2 7839   5.616   4.789   2.346
 2314SOL     OW 7840   3.130   6.115   3.722
 2314SOL    HW1 7841   3.212   6.156   3.682
 2314SOL    HW2 7842   3.114   6.025   3.681
 2315SOL     OW 7843   4.205   3.342   6.432
 2315SOL    HW1 7844   4.147   3.297   6.364
 2315SOL    HW2 7845   4.297   3.303   6.428
 2316SOL     OW 7846   5.236   2.964   2.932
 2316SOL    HW1 7847   5.198   2.885   2.884
 2316SOL    HW2 7848   5.271   2.935   3.021
 2317SOL     OW 7849   1.460   4.251   3.274
 2317SOL    HW1 7850   1.379   4.257   3.216
 2317SOL    HW2 7851   1.542   4.268   3.219
 2318SOL     OW 7852   6.893   0.527   3.416
 2318SOL    HW1 7853   6.978   0.572   3.445
 2318SOL    HW2 7854   6.912   0.430   3.397
 2319SOL     OW 7855   1.626   4.672   4.574
 2319SOL    HW1 7856   1.584   4.610   4.640
 2319SOL    HW2 7857   1.647   4.621   4.490
 2320SOL     OW 7858   6.750   2.971   4.125
 2320SOL    HW1 7859   6.738   2.945   4.029
 2320SOL    HW2 7860   6.725   2.894   4.184
 2321SOL     OW 7861   2.681   6.915   5.448
 2321SOL    HW1 7862   2.762   6.972   5.454
 2321SOL    HW2 7863   2.684   6.862   5.363
 2322SOL     OW 7864   1.672   0.518   4.891
 2322SOL    HW1 7865   1.647   0.422   4.880
 2322SOL    HW2 7866   1.645   0.549   4.982
 2323SOL     OW 7867   4.395   5.851   2.183
 2323SOL    HW1 7868   4.394   5.951   2.191
 2323SOL    HW2 7869   4.488   5.820   2.166
 2324SOL     OW 7870   7.002   5.253   3.231
 2324SOL    HW1 7871   0.030   5.213   3.301
 2324SOL    HW2 7872   6.998   5.192   3.152
 2325SOL     OW 7873   0.721   3.265   1.109
 2325SOL    HW1 7874   0.809   3.235   1.072
 2325SOL    HW2 7875   0.648   3.234   1.048
 2326SOL     OW 7876   1.199   5.318   6.738
 2326SOL    HW1 7877   1.193   5.243   6.803
 2326SOL    HW2 7878   1.261   5.293   6.664
 2327SOL     OW 7879   5.041   2.706   4.090
 2327SOL    HW1 7880   5.125   2.735   4.136
 2327SOL    HW2 7881   4.963   2.757   4.127
 2328SOL     OW 7882   4.353   0.875   3.162
 2328SOL    HW1 7883   4.324   0.840   3.251
 2328SOL    HW2 7884   4.317   0.817   3.089
 2329SOL     OW 7885   1.362   5.817   3.918
 2329SOL    HW1 7886   1.330   5.724   3.937
 2329SOL    HW2 7887   1.289   5.882   3.942
 2330SOL     OW 7888   0.624   4.267   2.637
 2330SOL    HW1 7889   0.564   4.188   2.629
 2330SOL    HW2 7890   0.709   4.250   2.586
 2331SOL     OW 7891   0.567   4.933   5.416
 2331SOL    HW1 7892   0.599   4.877   5.340
 2331SOL    HW2 7893   0.470   4.916   5.431
 2332SOL     OW 7894   5.594   2.600   6.023
 2332SOL    HW1 7895   5.656   2.675   6.046
 2332SOL    HW2 7896   5.647   2.517   6.006
 2333SOL     OW 7897   1.197   5.664   3.553
 2333SOL    HW1 7898   1.127   5.714   3.603
 2333SOL    HW2 7899   1.209   5.703   3.462
 2334SOL     OW 7900   3.286   6.922   0.074
 2334SOL    HW1 7901   3.316   6.855   0.142
 2334SOL    HW2 7902   3.326   7.011   0.094
 2335SOL     OW 7903   5.172   6.918   3.522
 2335SOL    HW1 7904   5.086   6.968   3.526
 2335SOL    HW2 7905   5.245   6.974   3.562
 2336SOL     OW 7906   4.880   1.432   5.858
 2336SOL    HW1 7907   4.873   1.340   5.898
 2336SOL    HW2 7908   4.876   1.500   5.931
 2337SOL     OW 7909   5.147   0.078   2.936
 2337SOL    HW1 7910   5.124   0.137   3.013
 2337SOL    HW2 7911   5.216   0.122   2.879
 2338SOL     OW 7912   0.863   6.596   6.619
 2338SOL    HW1 7913   0.879   6.614   6.521
 2338SOL    HW2 7914   0.850   6.682   6.667
 2339SOL     OW 7915   3.716   4.618   6.923
 2339SOL    HW1 7916   3.749   4.573   7.006
 2339SOL    HW2 7917   3.715   4.552   6.848
 2340SOL     OW 7918   3.948   5.619   4.913
 2340SOL    HW1 7919   4.011   5.623   4.835
 2340SOL    HW2 7920   3.995   5.581   4.992
 2341SOL     OW 7921   5.436   5.394   0.930
 2341SOL    HW1 7922   5.374   5.359   1.001
 2341SOL    HW2 7923   5.516   5.335   0.925
 2342SOL     OW 7924   6.150   0.472   4.956
 2342SOL    HW1 7925   6.237   0.423   4.954
 2342SOL    HW2 7926   6.082   0.420   4.905
 2343SOL     OW 7927   1.371   5.993   0.855
 2343SOL    HW1 7928   1.402   6.033   0.769
 2343SOL    HW2 7929   1.297   6.049   0.894
 2344SOL     OW 7930   1.211   2.198   2.315
 2344SOL    HW1 7931   1.291   2.245   2.351
 2344SOL    HW2 7932   1.190   2.235   2.224
 2345SOL     OW 7933   2.227   0.935   4.332
 2345SOL    HW1 7934   2.175   0.893   4.406
 2345SOL    HW2 7935   2.177   0.926   4.247
 2346SOL     OW 7936   5.147   4.043   6.029
 2346SOL    HW1 7937   5.107   3.961   5.989
 2346SOL    HW2 7938   5.121   4.049   6.126
 2347SOL     OW 7939   1.339   2.691   1.894
 2347SOL    HW1 7940   1.419   2.651   1.850
 2347SOL    HW2 7941   1.333   2.658   1.989
 2348SOL     OW 7942   2.630   6.828   2.354
 2348SOL    HW1 7943   2.550   6.772   2.331
 2348SOL    HW2 7944   2.639   6.833   2.453
 2349SOL     OW 7945   5.995   6.585   5.715
 2349SOL    HW1 7946   6.052   6.660   5.683
 2349SOL    HW2 7947   6.002   6.508   5.651
 2350SOL     OW 7948   2.673   0.030   5.805
 2350SOL    HW1 7949   2.595   0.091   5.797
 2350SOL    HW2 7950   2.748   0.076   5.853
 2351SOL     OW 7951   2.436   5.582   4.094
 2351SOL    HW1 7952   2.366   5.513   4.076
 2351SOL    HW2 7953   2.513   5.569   4.031
 2352SOL     OW 7954   0.783   3.830   2.888
 2352SOL    HW1 7955   0.869   3.867   2.855
 2352SOL    HW2 7956   0.802   3.752   2.949
 2353SOL     OW 7957   3.232   4.666   5.671
 2353SOL    HW1 7958   3.220   4.568   5.652
 2353SOL    HW2 7959   3.326   4.682   5.704
 2354SOL     OW 7960   3.607   2.174   0.709
 2354SOL    HW1 7961   3.576   2.120   0.788
 2354SOL    HW2 7962   3.676   2.122   0.659
 2355SOL     OW 7963   0.281   6.385   0.856
 2355SOL    HW1 7964   0.323   6.294   0.849
 2355SOL    HW2 7965   0.297   6.422   0.948
 2356SOL     OW 7966   2.754   4.999   3.668
 2356SOL    HW1 7967   2.805   5.082   3.642
 2356SOL    HW2 7968   2.796   4.919   3.625
 2357SOL     OW 7969   6.354   3.962   2.084
 2357SOL    HW1 7970   6.333   3.962   1.986
 2357SOL    HW2 7971   6.439   3.913   2.099
 2358SOL     OW 7972   3.693   1.318   5.352
 2358SOL    HW1 7973   3.734   1.272   5.431
 2358SOL    HW2 7974   3.622   1.381   5.384
 2359SOL     OW 7975   1.307   1.581   5.173
 2359SOL    HW1 7976   1.246   1.536   5.238
 2359SOL    HW2 7977   1.325   1.519   5.097
 2360SOL     OW 7978   3.911   4.741   1.013
 2360SOL    HW1 7979   3.982   4.719   0.947
 2360SOL    HW2 7980   3.829   4.773   0.965
 2361SOL     OW 7981   3.284   6.772   1.957
 2361SOL    HW1 7982   3.208   6.824   1.997
 2361SOL    HW2 7983   3.251   6.722   1.877
 2362SOL     OW 7984   4.081   5.861   4.607
 2362SOL    HW1 7985   4.125   5.789   4.553
 2362SOL    HW2 7986   3.988   5.832   4.632
 2363SOL     OW 7987   3.633   3.567   0.681
 2363SOL    HW1 7988   3.697   3.503   0.721
 2363SOL    HW2 7989   3.543   3.556   0.723
 2364SOL     OW 7990   4.295   2.055   1.986
 2364SOL    HW1 7991   4.274   2.149   2.012
 2364SOL    HW2 7992   4.245   2.030   1.904
 2365SOL     OW 7993   5.855   3.632   4.174
 2365SOL    HW1 7994   5.825   3.547   4.218
 2365SOL    HW2 7995   5.953   3.626   4.154
 2366SOL     OW 7996   2.362   4.373   5.472
 2366SOL    HW1 7997   2.390   4.367   5.376
 2366SOL    HW2 7998   2.321   4.286   5.500
 2367SOL     OW 7999   0.770   4.413   6.030
 2367SOL    HW1 8000   0.787   4.510   6.050
 2367SOL    HW2 8001   0.829   4.384   5.955
 2368SOL     OW 8002   5.734   6.917   4.554
 2368SOL    HW1 8003   5.655   6.868   4.591
 2368SOL    HW2 8004   5.774   6.863   4.479
 2369SOL     OW 8005   2.791   1.294   3.331
 2369SOL    HW1 8006   2.807   1.231   3.406
 2369SOL    HW2 8007   2.693   1.311   3.322
 2370SOL     OW 8008   5.748   2.565   1.219
 2370SOL    HW1 8009   5.815   2.532   1.153
 2370SOL    HW2 8010   5.744   2.665   1.216
 2371SOL     OW 8011   0.828   6.766   2.735
 2371SOL    HW1 8012   0.776   6.825   2.673
 2371SOL    HW2 8013   0.880   6.823   2.799
 2372SOL     OW 8014   6.674   1.524   5.793
 2372SOL    HW1 8015   6.723   1.517   5.706
 2372SOL    HW2 8016   6.696   1.611   5.837
 2373SOL     OW 8017   6.066   6.805   6.241
 2373SOL    HW1 8018   6.020   6.717   6.247
 2373SOL    HW2 8019   6.134   6.813   6.314
 2374SOL     OW 8020   6.039   6.027   2.300
 2374SOL    HW1 8021   6.100   5.956   2.265
 2374SOL    HW2 8022   6.013   6.005   2.395
 2375SOL     OW 8023   1.468   0.705   4.065
 2375SOL    HW1 8024   1.515   0.662   3.988
 2375SOL    HW2 8025   1.524   0.779   4.102
 2376SOL     OW 8026   5.922   1.656   2.828
 2376SOL    HW1 8027   6.001   1.709   2.795
 2376SOL    HW2 8028   5.943   1.559   2.821
 2377SOL     OW 8029   4.450   4.915   5.871
 2377SOL    HW1 8030   4.425   4.936   5.966
 2377SOL    HW2 8031   4.395   4.970   5.809
 2378SOL     OW 8032   0.205   1.410   0.193
 2378SOL    HW1 8033   0.179   1.399   0.289
 2378SOL    HW2 8034   0.162   1.492   0.156
 2379SOL     OW 8035   6.772   5.633   1.060
 2379SOL    HW1 8036   6.755   5.696   0.984
 2379SOL    HW2 8037   6.858   5.584   1.044
 2380SOL     OW 8038   5.043   4.525   4.884
 2380SOL    HW1 8039   5.045   4.602   4.820
 2380SOL    HW2 8040   5.063   4.557   4.976
 2381SOL     OW 8041   2.991   5.274   5.328
 2381SOL    HW1 8042   3.011   5.177   5.338
 2381SOL    HW2 8043   2.912   5.286   5.269
 2382SOL     OW 8044   1.139   6.185   1.648
 2382SOL    HW1 8045   1.225   6.188   1.699
 2382SOL    HW2 8046   1.112   6.278   1.624
 2383SOL     OW 8047   4.994   5.770   4.698
 2383SOL    HW1 8048   4.914   5.823   4.669
 2383SOL    HW2 8049   5.011   5.787   4.795
 2384SOL     OW 8050   0.920   1.553   1.592
 2384SOL    HW1 8051   0.900   1.460   1.621
 2384SOL    HW2 8052   0.899   1.616   1.666
 2385SOL     OW 8053   0.631   1.904   0.661
 2385SOL    HW1 8054   0.603   1.984   0.608
 2385SOL    HW2 8055   0.565   1.830   0.646
 2386SOL     OW 8056   4.412   6.168   3.843
 2386SOL    HW1 8057   4.479   6.123   3.902
 2386SOL    HW2 8058   4.439   6.263   3.829
 2387SOL     OW 8059   1.362   1.623   3.167
 2387SOL    HW1 8060   1.425   1.692   3.129
 2387SOL    HW2 8061   1.268   1.648   3.145
 2388SOL     OW 8062   6.602   2.062   5.929
 2388SOL    HW1 8063   6.617   2.151   5.972
 2388SOL    HW2 8064   6.587   2.074   5.831
 2389SOL     OW 8065   5.334   4.432   3.849
 2389SOL    HW1 8066   5.311   4.498   3.777
 2389SOL    HW2 8067   5.290   4.459   3.934
 2390SOL     OW 8068   5.011   4.309   5.909
 2390SOL    HW1 8069   4.915   4.287   5.925
 2390SOL    HW2 8070   5.068   4.233   5.940
 2391SOL     OW 8071   3.431   3.515   6.578
 2391SOL    HW1 8072   3.508   3.497   6.518
 2391SOL    HW2 8073   3.405   3.431   6.626
 2392SOL     OW 8074   3.402   6.008   4.938
 2392SOL    HW1 8075   3.433   6.025   4.844
 2392SOL    HW2 8076   3.311   5.967   4.937
 2393SOL     OW 8077   3.248   5.187   1.161
 2393SOL    HW1 8078   3.245   5.135   1.076
 2393SOL    HW2 8079   3.244   5.124   1.239
 2394SOL     OW 8080   0.806   3.187   3.298
 2394SOL    HW1 8081   0.876   3.188   3.227
 2394SOL    HW2 8082   0.715   3.194   3.256
 2395SOL     OW 8083   0.444   2.847   5.706
 2395SOL    HW1 8084   0.454   2.941   5.736
 2395SOL    HW2 8085   0.355   2.834   5.663
 2396SOL     OW 8086   6.186   1.081   5.652
 2396SOL    HW1 8087   6.089   1.102   5.638
 2396SOL    HW2 8088   6.226   1.146   5.715
 2397SOL     OW 8089   0.660   4.722   5.184
 2397SOL    HW1 8090   0.689   4.777   5.106
 2397SOL    HW2 8091   0.735   4.660   5.210
 2398SOL     OW 8092   2.945   5.621   4.140
 2398SOL    HW1 8093   3.019   5.580   4.087
 2398SOL    HW2 8094   2.881   5.550   4.169
 2399SOL     OW 8095   2.810   2.185   3.458
 2399SOL    HW1 8096   2.751   2.262   3.483
 2399SOL    HW2 8097   2.840   2.138   3.541
 2400SOL     OW 8098   1.238   3.746   0.122
 2400SOL    HW1 8099   1.271   3.682   0.053
 2400SOL    HW2 8100   1.238   3.839   0.085
 2401SOL     OW 8101   3.731   0.051   5.910
 2401SOL    HW1 8102   3.795   0.042   5.987
 2401SOL    HW2 8103   3.781   0.040   5.824
 2402SOL     OW 8104   1.042   2.034   2.117
 2402SOL    HW1 8105   0.979   1.970   2.073
 2402SOL    HW2 8106   1.124   2.043   2.060
 2403SOL     OW 8107   3.566   3.809   2.557
 2403SOL    HW1 8108   3.600   3.896   2.521
 2403SOL    HW2 8109   3.518   3.825   2.643
 2404SOL     OW 8110   6.981   1.311   0.688
 2404SOL    HW1 8111   0.023   1.357   0.737
 2404SOL    HW2 8112   6.893   1.341   0.723
 2405SOL     OW 8113   2.971   4.029   0.557
 2405SOL    HW1 8114   3.010   4.103   0.502
 2405SOL    HW2 8115   2.895   3.988   0.507
 2406SOL     OW 8116   2.181   0.188   5.139
 2406SOL    HW1 8117   2.214   0.156   5.050
 2406SOL    HW2 8118   2.085   0.163   5.149
 2407SOL     OW 8119   3.944   1.379   3.781
 2407SOL    HW1 8120   3.985   1.290   3.799
 2407SOL    HW2 8121   3.889   1.407   3.860
 2408SOL     OW 8122   2.345   6.422   4.240
 2408SOL    HW1 8123   2.398   6.379   4.166
 2408SOL    HW2 8124   2.375   6.385   4.328
 2409SOL     OW 8125   2.704   2.810   0.734
 2409SOL    HW1 8126   2.745   2.881   0.679
 2409SOL    HW2 8127   2.626   2.847   0.784
 2410SOL     OW 8128   6.473   3.501   5.696
 2410SOL    HW1 8129   6.471   3.583   5.640
 2410SOL    HW2 8130   6.384   3.456   5.694
 2411SOL     OW 8131   2.362   3.306   0.179
 2411SOL    HW1 8132   2.334   3.252   0.259
 2411SOL    HW2 8133   2.345   3.253   0.096
 2412SOL     OW 8134   2.567   2.210   6.620
 2412SOL    HW1 8135   2.488   2.178   6.568
 2412SOL    HW2 8136   2.595   2.139   6.684
 2413SOL     OW 8137   7.029   2.614   6.431
 2413SOL    HW1 8138   0.035   2.680   6.497
 2413SOL    HW2 8139   0.056   2.611   6.350
 2414SOL     OW 8140   6.103   2.371   4.688
 2414SOL    HW1 8141   6.050   2.361   4.604
 2414SOL    HW2 8142   6.160   2.453   4.682
 2415SOL     OW 8143   2.908   6.072   1.276
 2415SOL    HW1 8144   2.897   6.147   1.340
 2415SOL    HW2 8145   2.826   6.064   1.219
 2416SOL     OW 8146   6.801   3.094   3.137
 2416SOL    HW1 8147   6.824   2.998   3.122
 2416SOL    HW2 8148   6.735   3.124   3.068
 2417SOL     OW 8149   3.827   2.908   0.438
 2417SOL    HW1 8150   3.742   2.958   0.456
 2417SOL    HW2 8151   3.860   2.868   0.524
 2418SOL     OW 8152   4.987   4.063   5.685
 2418SOL    HW1 8153   4.907   4.004   5.697
 2418SOL    HW2 8154   4.957   4.157   5.670
 2419SOL     OW 8155   1.962   6.289   4.522
 2419SOL    HW1 8156   1.877   6.236   4.534
 2419SOL    HW2 8157   2.039   6.226   4.518
 2420SOL     OW 8158   2.858   5.066   2.644
 2420SOL    HW1 8159   2.917   4.985   2.653
 2420SOL    HW2 8160   2.781   5.045   2.584
 2421SOL     OW 8161   3.208   6.871   4.842
 2421SOL    HW1 8162   3.276   6.840   4.908
 2421SOL    HW2 8163   3.192   6.799   4.774
 2422SOL     OW 8164   3.925   6.533   2.109
 2422SOL    HW1 8165   3.962   6.622   2.136
 2422SOL    HW2 8166   3.951   6.514   2.014
 2423SOL     OW 8167   1.722   5.079   2.262
 2423SOL    HW1 8168   1.801   5.100   2.203
 2423SOL    HW2 8169   1.747   5.095   2.357
 2424SOL     OW 8170   5.123   0.891   6.353
 2424SOL    HW1 8171   5.218   0.920   6.365
 2424SOL    HW2 8172   5.120   0.792   6.337
 2425SOL     OW 8173   4.323   5.408   5.705
 2425SOL    HW1 8174   4.238   5.433   5.660
 2425SOL    HW2 8175   4.397   5.467   5.673
 2426SOL     OW 8176   0.944   5.255   5.632
 2426SOL    HW1 8177   0.903   5.249   5.723
 2426SOL    HW2 8178   0.894   5.195   5.569
 2427SOL     OW 8179   5.391   0.511   6.439
 2427SOL    HW1 8180   5.348   0.566   6.367
 2427SOL    HW2 8181   5.328   0.439   6.468
 2428SOL     OW 8182   0.114   0.668   3.468
 2428SOL    HW1 8183   0.181   0.616   3.521
 2428SOL    HW2 8184   0.119   0.640   3.372
 2429SOL     OW 8185   5.553   6.018   1.987
 2429SOL    HW1 8186   5.609   6.090   1.946
 2429SOL    HW2 8187   5.467   6.056   2.020
 2430SOL     OW 8188   6.260   2.879   0.560
 2430SOL    HW1 8189   6.201   2.799   0.545
 2430SOL    HW2 8190   6.204   2.957   0.586
 2431SOL     OW 8191   6.505   1.855   1.001
 2431SOL    HW1 8192   6.566   1.796   0.947
 2431SOL    HW2 8193   6.439   1.898   0.940
 2432SOL     OW 8194   3.858   5.411   2.295
 2432SOL    HW1 8195   3.814   5.441   2.379
 2432SOL    HW2 8196   3.925   5.480   2.266
 2433SOL     OW 8197   6.906   5.150   0.042
 2433SOL    HW1 8198   6.877   5.234   0.088
 2433SOL    HW2 8199   6.846   5.133   6.995
 2434SOL     OW 8200   4.106   1.962   2.954
 2434SOL    HW1 8201   4.195   1.935   2.915
 2434SOL    HW2 8202   4.043   1.885   2.948
 2435SOL     OW 8203   5.874   0.179   6.787
 2435SOL    HW1 8204   5.776   0.166   6.802
 2435SOL    HW2 8205   5.891   0.274   6.761
 2436SOL     OW 8206   1.207   1.164   0.921
 2436SOL    HW1 8207   1.230   1.200   1.011
 2436SOL    HW2 8208   1.116   1.197   0.894
 2437SOL     OW 8209   6.537   6.019   2.277
 2437SOL    HW1 8210   6.586   5.947   2.229
 2437SOL    HW2 8211   6.580   6.036   2.366
 2438SOL     OW 8212   3.277   1.851   4.413
 2438SOL    HW1 8213   3.244   1.926   4.355
 2438SOL    HW2 8214   3.208   1.779   4.418
 2439SOL     OW 8215   0.432   5.316   6.932
 2439SOL    HW1 8216   0.403   5.221   6.943
 2439SOL    HW2 8217   0.531   5.321   6.938
 2440SOL     OW 8218   4.209   1.177   4.347
 2440SOL    HW1 8219   4.116   1.167   4.313
 2440SOL    HW2 8220   4.270   1.117   4.295
 2441SOL     OW 8221   6.342   7.002   6.652
 2441SOL    HW1 8222   6.421   7.014   6.711
 2441SOL    HW2 8223   6.281   0.049   6.661
 2442SOL     OW 8224   5.251   3.292   1.929
 2442SOL    HW1 8225   5.339   3.273   1.972
 2442SOL    HW2 8226   5.198   3.207   1.924
 2443SOL     OW 8227   2.157   1.299   6.832
 2443SOL    HW1 8228   2.247   1.281   6.793
 2443SOL    HW2 8229   2.150   1.253   6.921
 2444SOL     OW 8230   3.447   5.767   0.911
 2444SOL    HW1 8231   3.489   5.691   0.861
 2444SOL    HW2 8232   3.379   5.731   0.975
 2445SOL     OW 8233   0.388   2.162   1.176
 2445SOL    HW1 8234   0.335   2.101   1.118
 2445SOL    HW2 8235   0.372   2.257   1.149
 2446SOL     OW 8236   1.484   3.866   2.247
 2446SOL    HW1 8237   1.419   3.861   2.323
 2446SOL    HW2 8238   1.442   3.915   2.170
 2447SOL     OW 8239   2.171   0.701   0.873
 2447SOL    HW1 8240   2.265   0.683   0.903
 2447SOL    HW2 8241   2.172   0.731   0.778
 2448SOL     OW 8242   6.264   2.056   4.329
 2448SOL    HW1 8243   6.239   2.103   4.414
 2448SOL    HW2 8244   6.364   2.053   4.322
 2449SOL     OW 8245   1.909   4.130   2.030
 2449SOL    HW1 8246   1.864   4.208   1.988
 2449SOL    HW2 8247   1.902   4.137   2.130
 2450SOL     OW 8248   2.162   5.307   6.492
 2450SOL    HW1 8249   2.114   5.394   6.496
 2450SOL    HW2 8250   2.222   5.305   6.412
 2451SOL     OW 8251   0.732   0.554   4.139
 2451SOL    HW1 8252   0.793   0.509   4.074
 2451SOL    HW2 8253   0.650   0.586   4.092
 2452SOL     OW 8254   2.680   2.442   3.177
 2452SOL    HW1 8255   2.730   2.521   3.214
 2452SOL    HW2 8256   2.586   2.469   3.158
 2453SOL     OW 8257   0.099   2.142   0.421
 2453SOL    HW1 8258   0.151   2.210   0.370
 2453SOL    HW2 8259   0.055   2.079   0.357
 2454SOL     OW 8260   3.501   5.254   0.984
 2454SOL    HW1 8261   3.423   5.264   0.922
 2454SOL    HW2 8262   3.516   5.340   1.033
 2455SOL     OW 8263   3.227   1.093   0.037
 2455SOL    HW1 8264   3.218   1.152   0.118
 2455SOL    HW2 8265   3.172   1.011   0.050
 2456SOL     OW 8266   1.296   3.993   6.699
 2456SOL    HW1 8267   1.293   4.023   6.794
 2456SOL    HW2 8268   1.379   4.028   6.655
 2457SOL     OW 8269   5.404   1.171   5.615
 2457SOL    HW1 8270   5.407   1.193   5.712
 2457SOL    HW2 8271   5.354   1.242   5.566
 2458SOL     OW 8272   0.975   0.474   2.953
 2458SOL    HW1 8273   0.885   0.516   2.965
 2458SOL    HW2 8274   1.041   0.544   2.926
 2459SOL     OW 8275   2.765   5.664   7.010
 2459SOL    HW1 8276   2.770   5.740   0.043
 2459SOL    HW2 8277   2.837   5.598   7.031
 2460SOL     OW 8278   0.992   1.142   6.832
 2460SOL    HW1 8279   0.937   1.225   6.824
 2460SOL    HW2 8280   1.088   1.166   6.844
 2461SOL     OW 8281   4.188   0.374   4.819
 2461SOL    HW1 8282   4.117   0.339   4.757
 2461SOL    HW2 8283   4.231   0.454   4.776
 2462SOL     OW 8284   0.630   4.924   0.646
 2462SOL    HW1 8285   0.717   4.972   0.651
 2462SOL    HW2 8286   0.616   4.870   0.729
 2463SOL     OW 8287   6.523   1.194   0.056
 2463SOL    HW1 8288   6.425   1.209   0.069
 2463SOL    HW2 8289   6.545   1.204   6.990
 2464SOL     OW 8290   0.339   2.870   2.612
 2464SOL    HW1 8291   0.305   2.854   2.705
 2464SOL    HW2 8292   0.300   2.954   2.576
 2465SOL     OW 8293   6.815   5.351   6.145
 2465SOL    HW1 8294   6.756   5.328   6.068
 2465SOL    HW2 8295   6.821   5.274   6.207
 2466SOL     OW 8296   1.463   1.881   1.805
 2466SOL    HW1 8297   1.465   1.881   1.705
 2466SOL    HW2 8298   1.536   1.941   1.839
 2467SOL     OW 8299   4.394   1.899   6.102
 2467SOL    HW1 8300   4.423   1.856   6.017
 2467SOL    HW2 8301   4.303   1.938   6.090
 2468SOL     OW 8302   3.538   0.286   6.786
 2468SOL    HW1 8303   3.607   0.214   6.796
 2468SOL    HW2 8304   3.515   0.296   6.689
 2469SOL     OW 8305   4.415   2.782   5.616
 2469SOL    HW1 8306   4.456   2.731   5.692
 2469SOL    HW2 8307   4.324   2.746   5.597
 2470SOL     OW 8308   4.100   4.624   6.145
 2470SOL    HW1 8309   4.081   4.718   6.174
 2470SOL    HW2 8310   4.089   4.563   6.223
 2471SOL     OW 8311   3.841   6.888   0.842
 2471SOL    HW1 8312   3.825   6.827   0.919
 2471SOL    HW2 8313   3.885   6.838   0.768
 2472SOL     OW 8314   4.645   2.667   3.894
 2472SOL    HW1 8315   4.565   2.669   3.833
 2472SOL    HW2 8316   4.630   2.600   3.967
 2473SOL     OW 8317   1.631   4.275   4.871
 2473SOL    HW1 8318   1.726   4.275   4.903
 2473SOL    HW2 8319   1.625   4.228   4.783
 2474SOL     OW 8320   1.043   5.458   0.265
 2474SOL    HW1 8321   0.975   5.523   0.300
 2474SOL    HW2 8322   1.116   5.509   0.220
 2475SOL     OW 8323   4.606   0.907   0.747
 2475SOL    HW1 8324   4.688   0.930   0.800
 2475SOL    HW2 8325   4.570   0.819   0.777
 2476SOL     OW 8326   5.235   0.771   2.528
 2476SOL    HW1 8327   5.215   0.720   2.612
 2476SOL    HW2 8328   5.170   0.847   2.519
 2477SOL     OW 8329   4.052   0.508   3.412
 2477SOL    HW1 8330   4.118   0.568   3.368
 2477SOL    HW2 8331   4.100   0.446   3.475
 2478SOL     OW 8332   4.537   1.277   2.442
 2478SOL    HW1 8333   4.498   1.189   2.415
 2478SOL    HW2 8334   4.472   1.350   2.420
 2479SOL     OW 8335   1.094   2.961   1.185
 2479SOL    HW1 8336   1.055   2.876   1.149
 2479SOL    HW2 8337   1.071   2.969   1.282
 2480SOL     OW 8338   4.164   2.706   1.330
 2480SOL    HW1 8339   4.072   2.671   1.349
 2480SOL    HW2 8340   4.186   2.691   1.233
 2481SOL     OW 8341   2.595   0.385   1.396
 2481SOL    HW1 8342   2.653   0.348   1.323
 2481SOL    HW2 8343   2.553   0.471   1.365
 2482SOL     OW 8344   5.335   3.403   0.154
 2482SOL    HW1 8345   5.265   3.464   0.115
 2482SOL    HW2 8346   5.425   3.445   0.144
 2483SOL     OW 8347   1.546   1.856   0.114
 2483SOL    HW1 8348   1.595   1.786   0.061
 2483SOL    HW2 8349   1.574   1.851   0.210
 2484SOL     OW 8350   3.397   0.898   1.167
 2484SOL    HW1 8351   3.490   0.929   1.147
 2484SOL    HW2 8352   3.399   0.802   1.194
 2485SOL     OW 8353   5.252   2.964   0.310
 2485SOL    HW1 8354   5.175   2.906   0.286
 2485SOL    HW2 8355   5.319   2.911   0.363
 2486SOL     OW 8356   0.115   5.233   5.512
 2486SOL    HW1 8357   0.027   5.197   5.482
 2486SOL    HW2 8358   0.143   5.187   5.597
 2487SOL     OW 8359   3.896   6.239   0.559
 2487SOL    HW1 8360   3.809   6.256   0.513
 2487SOL    HW2 8361   3.920   6.142   0.550
 2488SOL     OW 8362   0.485   3.439   1.532
 2488SOL    HW1 8363   0.562   3.375   1.527
 2488SOL    HW2 8364   0.460   3.452   1.628
 2489SOL     OW 8365   1.207   6.079   3.992
 2489SOL    HW1 8366   1.279   6.149   3.998
 2489SOL    HW2 8367   1.141   6.093   4.066
 2490SOL     OW 8368   0.673   5.970   0.996
 2490SOL    HW1 8369   0.730   6.052   0.988
 2490SOL    HW2 8370   0.637   5.946   0.905
 2491SOL     OW 8371   3.885   4.405   1.165
 2491SOL    HW1 8372   3.864   4.471   1.236
 2491SOL    HW2 8373   3.810   4.401   1.099
 2492SOL     OW 8374   4.587   3.515   1.045
 2492SOL    HW1 8375   4.580   3.608   1.081
 2492SOL    HW2 8376   4.522   3.503   0.970
 2493SOL     OW 8377   6.614   0.081   0.988
 2493SOL    HW1 8378   6.706   0.118   0.976
 2493SOL    HW2 8379   6.551   0.155   1.010
 2494SOL     OW 8380   6.194   3.688   2.265
 2494SOL    HW1 8381   6.170   3.598   2.300
 2494SOL    HW2 8382   6.291   3.706   2.282
 2495SOL     OW 8383   5.473   5.588   3.804
 2495SOL    HW1 8384   5.497   5.663   3.741
 2495SOL    HW2 8385   5.551   5.527   3.814
 2496SOL     OW 8386   0.499   3.816   6.882
 2496SOL    HW1 8387   0.410   3.829   6.926
 2496SOL    HW2 8388   0.488   3.756   6.803
 2497SOL     OW 8389   0.291   0.182   0.928
 2497SOL    HW1 8390   0.264   0.093   0.964
 2497SOL    HW2 8391   0.363   0.171   0.860
 2498SOL     OW 8392   3.193   2.115   5.765
 2498SOL    HW1 8393   3.268   2.148   5.707
 2498SOL    HW2 8394   3.179   2.017   5.750
 2499SOL     OW 8395   5.764   3.006   2.051
 2499SOL    HW1 8396   5.730   3.080   2.110
 2499SOL    HW2 8397   5.812   3.045   1.973
 2500SOL     OW 8398   4.135   3.669   6.622
 2500SOL    HW1 8399   4.178   3.743   6.569
 2500SOL    HW2 8400   4.185   3.584   6.607
 2501SOL     OW 8401   5.131   5.755   0.138
 2501SOL    HW1 8402   5.184   5.696   0.077
 2501SOL    HW2 8403   5.187   5.834   0.165
 2502SOL     OW 8404   2.138   0.575   5.158
 2502SOL    HW1 8405   2.188   0.506   5.211
 2502SOL    HW2 8406   2.065   0.530   5.106
 2503SOL     OW 8407   3.230   6.630   4.945
 2503SOL    HW1 8408   3.188   6.597   4.861
 2503SOL    HW2 8409   3.294   6.561   4.980
 2504SOL     OW 8410   3.750   5.478   3.006
 2504SOL    HW1 8411   3.846   5.484   3.034
 2504SOL    HW2 8412   3.746   5.460   2.908
 2505SOL     OW 8413   0.196   5.634   2.751
 2505SOL    HW1 8414   0.182   5.594   2.841
 2505SOL    HW2 8415   0.217   5.731   2.761
 2506SOL     OW 8416   6.132   3.135   6.256
 2506SOL    HW1 8417   6.210   3.097   6.208
 2506SOL    HW2 8418   6.157   3.152   6.352
 2507SOL     OW 8419   0.193   3.371   0.210
 2507SOL    HW1 8420   0.263   3.301   0.223
 2507SOL    HW2 8421   0.208   3.446   0.275
 2508SOL     OW 8422   2.508   1.862   3.989
 2508SOL    HW1 8423   2.604   1.873   3.961
 2508SOL    HW2 8424   2.449   1.867   3.909
 2509SOL     OW 8425   0.087   4.529   0.993
 2509SOL    HW1 8426   0.062   4.568   1.081
 2509SOL    HW2 8427   0.034   4.445   0.977
 2510SOL     OW 8428   3.370   4.706   0.838
 2510SOL    HW1 8429   3.282   4.748   0.815
 2510SOL    HW2 8430   3.444   4.758   0.796
 2511SOL     OW 8431   2.431   1.544   4.628
 2511SOL    HW1 8432   2.382   1.597   4.696
 2511SOL    HW2 8433   2.386   1.455   4.616
 2512SOL     OW 8434   4.193   4.058   5.354
 2512SOL    HW1 8435   4.145   4.144   5.337
 2512SOL    HW2 8436   4.230   4.059   5.447
 2513SOL     OW 8437   1.998   5.668   4.741
 2513SOL    HW1 8438   2.066   5.596   4.759
 2513SOL    HW2 8439   1.919   5.655   4.801
 2514SOL     OW 8440   0.423   4.197   4.276
 2514SOL    HW1 8441   0.427   4.101   4.303
 2514SOL    HW2 8442   0.478   4.252   4.338
 2515SOL     OW 8443   1.681   6.438   0.743
 2515SOL    HW1 8444   1.649   6.397   0.829
 2515SOL    HW2 8445   1.735   6.371   0.693
 2516SOL     OW 8446   5.261   1.395   2.272
 2516SOL    HW1 8447   5.188   1.454   2.236
 2516SOL    HW2 8448   5.268   1.407   2.371
 2517SOL     OW 8449   1.519   0.647   6.259
 2517SOL    HW1 8450   1.460   0.623   6.336
 2517SOL    HW2 8451   1.486   0.602   6.177
 2518SOL     OW 8452   1.022   5.479   0.952
 2518SOL    HW1 8453   1.068   5.457   1.038
 2518SOL    HW2 8454   0.944   5.539   0.970
 2519SOL     OW 8455   3.328   0.344   1.722
 2519SOL    HW1 8456   3.236   0.332   1.758
 2519SOL    HW2 8457   3.391   0.360   1.798
 2520SOL     OW 8458   3.324   2.091   0.691
 2520SOL    HW1 8459   3.410   2.134   0.664
 2520SOL    HW2 8460   3.301   2.018   0.626
 2521SOL     OW 8461   3.347   1.169   5.432
 2521SOL    HW1 8462   3.390   1.166   5.342
 2521SOL    HW2 8463   3.382   1.094   5.488
 2522SOL     OW 8464   1.419   1.233   5.215
 2522SOL    HW1 8465   1.406   1.301   5.143
 2522SOL    HW2 8466   1.330   1.195   5.241
 2523SOL     OW 8467   0.988   3.115   0.986
 2523SOL    HW1 8468   1.046   3.062   1.048
 2523SOL    HW2 8469   0.933   3.052   0.930
 2524SOL     OW 8470   6.711   6.673   4.340
 2524SOL    HW1 8471   6.678   6.757   4.384
 2524SOL    HW2 8472   6.632   6.616   4.315
 2525SOL     OW 8473   0.833   2.872   4.790
 2525SOL    HW1 8474   0.891   2.905   4.864
 2525SOL    HW2 8475   0.756   2.935   4.778
 2526SOL     OW 8476   1.847   4.402   6.871
 2526SOL    HW1 8477   1.933   4.413   6.921
 2526SOL    HW2 8478   1.771   4.433   6.929
 2527SOL     OW 8479   5.671   6.665   5.702
 2527SOL    HW1 8480   5.705   6.709   5.618
 2527SOL    HW2 8481   5.706   6.716   5.781
 2528SOL     OW 8482   5.621   4.946   6.393
 2528SOL    HW1 8483   5.570   4.860   6.405
 2528SOL    HW2 8484   5.561   5.013   6.348
 2529SOL     OW 8485   6.751   6.664   6.701
 2529SOL    HW1 8486   6.717   6.710   6.619
 2529SOL    HW2 8487   6.807   6.585   6.675
 2530SOL     OW 8488   2.529   5.935   5.280
 2530SOL    HW1 8489   2.495   5.958   5.189
 2530SOL    HW2 8490   2.556   6.019   5.328
 2531SOL     OW 8491   6.249   6.450   5.027
 2531SOL    HW1 8492   6.250   6.471   4.929
 2531SOL    HW2 8493   6.154   6.440   5.058
 2532SOL     OW 8494   6.897   6.326   0.665
 2532SOL    HW1 8495   6.861   6.410   0.704
 2532SOL    HW2 8496   6.822   6.263   0.644
 2533SOL     OW 8497   4.691   6.935   3.671
 2533SOL    HW1 8498   4.662   6.839   3.673
 2533SOL    HW2 8499   4.611   6.994   3.682
 2534SOL     OW 8500   3.427   1.567   1.942
 2534SOL    HW1 8501   3.416   1.468   1.948
 2534SOL    HW2 8502   3.441   1.605   2.033
 2535SOL     OW 8503   3.535   3.340   6.246
 2535SOL    HW1 8504   3.490   3.267   6.194
 2535SOL    HW2 8505   3.553   3.309   6.339
 2536SOL     OW 8506   1.283   1.059   6.263
 2536SOL    HW1 8507   1.238   1.148   6.254
 2536SOL    HW2 8508   1.380   1.068   6.243
 2537SOL     OW 8509   2.944   6.942   6.500
 2537SOL    HW1 8510   2.861   6.902   6.461
 2537SOL    HW2 8511   2.984   6.877   6.565
 2538SOL     OW 8512   0.366   4.296   3.494
 2538SOL    HW1 8513   0.300   4.329   3.427
 2538SOL    HW2 8514   0.399   4.206   3.465
 2539SOL     OW 8515   5.317   0.875   4.066
 2539SOL    HW1 8516   5.381   0.857   4.140
 2539SOL    HW2 8517   5.296   0.972   4.062
 2540SOL     OW 8518   4.339   1.883   2.663
 2540SOL    HW1 8519   4.327   1.784   2.653
 2540SOL    HW2 8520   4.362   1.923   2.574
 2541SOL     OW 8521   3.152   0.399   5.227
 2541SOL    HW1 8522   3.206   0.467   5.176
 2541SOL    HW2 8523   3.081   0.445   5.279
 2542SOL     OW 8524   3.893   3.526   6.347
 2542SOL    HW1 8525   3.897   3.427   6.341
 2542SOL    HW2 8526   3.815   3.560   6.295
 2543SOL     OW 8527   0.455   0.812   3.797
 2543SOL    HW1 8528   0.503   0.743   3.851
 2543SOL    HW2 8529   0.425   0.886   3.857
 2544SOL     OW 8530   0.301   5.825   0.086
 2544SOL    HW1 8531   0.262   5.815   7.026
 2544SOL    HW2 8532   0.231   5.800   0.154
 2545SOL     OW 8533   1.987   6.911   1.958
 2545SOL    HW1 8534   1.928   6.880   1.882
 2545SOL    HW2 8535   2.078   6.873   1.946
 2546SOL     OW 8536   0.052   1.637   1.586
 2546SOL    HW1 8537   0.023   1.546   1.555
 2546SOL    HW2 8538   7.003   1.690   1.613
 2547SOL     OW 8539   0.602   4.213   6.686
 2547SOL    HW1 8540   0.513   4.215   6.733
 2547SOL    HW2 8541   0.595   4.262   6.600
 2548SOL     OW 8542   1.024   6.679   4.614
 2548SOL    HW1 8543   1.072   6.658   4.699
 2548SOL    HW2 8544   1.056   6.766   4.578
 2549SOL     OW 8545   0.867   0.202   1.398
 2549SOL    HW1 8546   0.850   0.232   1.492
 2549SOL    HW2 8547   0.839   0.274   1.335
 2550SOL     OW 8548   6.325   6.827   0.175
 2550SOL    HW1 8549   6.313   6.728   0.169
 2550SOL    HW2 8550   6.423   6.848   0.177
 2551SOL     OW 8551   3.440   4.488   0.083
 2551SOL    HW1 8552   3.520   4.497   0.142
 2551SOL    HW2 8553   3.387   4.572   0.085
 2552SOL     OW 8554   1.772   6.135   4.276
 2552SOL    HW1 8555   1.712   6.177   4.208
 2552SOL    HW2 8556   1.860   6.114   4.235
 2553SOL     OW 8557   3.956   3.694   5.751
 2553SOL    HW1 8558   3.978   3.658   5.660
 2553SOL    HW2 8559   4.041   3.717   5.799
 2554SOL     OW 8560   2.920   0.555   0.565
 2554SOL    HW1 8561   2.940   0.621   0.494
 2554SOL    HW2 8562   2.835   0.506   0.543
 2555SOL     OW 8563   6.410   1.290   4.830
 2555SOL    HW1 8564   6.471   1.279   4.751
 2555SOL    HW2 8565   6.458   1.262   4.913
 2556SOL     OW 8566   4.692   6.816   0.461
 2556SOL    HW1 8567   4.755   6.852   0.392
 2556SOL    HW2 8568   4.655   6.728   0.430
 2557SOL     OW 8569   1.713   3.775   0.869
 2557SOL    HW1 8570   1.738   3.712   0.795
 2557SOL    HW2 8571   1.631   3.742   0.915
 2558SOL     OW 8572   4.776   1.049   4.636
 2558SOL    HW1 8573   4.768   1.081   4.541
 2558SOL    HW2 8574   4.802   1.125   4.695
 2559SOL     OW 8575   1.109   4.430   5.169
 2559SOL    HW1 8576   1.151   4.343   5.145
 2559SOL    HW2 8577   1.180   4.497   5.192
 2560SOL     OW 8578   5.743   2.358   5.878
 2560SOL    HW1 8579   5.695   2.277   5.912
 2560SOL    HW2 8580   5.790   2.336   5.793
 2561SOL     OW 8581   2.469   4.836   5.165
 2561SOL    HW1 8582   2.447   4.889   5.247
 2561SOL    HW2 8583   2.499   4.745   5.191
 2562SOL     OW 8584   2.660   5.027   1.585
 2562SOL    HW1 8585   2.709   4.940   1.575
 2562SOL    HW2 8586   2.726   5.100   1.606
 2563SOL     OW 8587   3.384   1.461   0.630
 2563SOL    HW1 8588   3.333   1.546   0.615
 2563SOL    HW2 8589   3.437   1.469   0.715
 2564SOL     OW 8590   1.917   5.967   6.834
 2564SOL    HW1 8591   1.978   5.925   6.900
 2564SOL    HW2 8592   1.970   5.996   6.754
 2565SOL     OW 8593   1.610   0.037   6.660
 2565SOL    HW1 8594   1.679   0.087   6.608
 2565SOL    HW2 8595   1.556   0.101   6.714
 2566SOL     OW 8596   2.147   0.040   1.185
 2566SOL    HW1 8597   2.125   6.980   1.220
 2566SOL    HW2 8598   2.090   0.108   1.231
 2567SOL     OW 8599   0.796   0.537   0.557
 2567SOL    HW1 8600   0.883   0.557   0.510
 2567SOL    HW2 8601   0.812   0.536   0.656
 2568SOL     OW 8602   4.563   1.847   6.311
 2568SOL    HW1 8603   4.500   1.843   6.388
 2568SOL    HW2 8604   4.519   1.891   6.233
 2569SOL     OW 8605   2.613   0.420   2.881
 2569SOL    HW1 8606   2.655   0.360   2.813
 2569SOL    HW2 8607   2.578   0.365   2.957
 2570SOL     OW 8608   5.576   0.445   5.686
 2570SOL    HW1 8609   5.516   0.444   5.607
 2570SOL    HW2 8610   5.659   0.497   5.665
 2571SOL     OW 8611   2.297   5.229   4.786
 2571SOL    HW1 8612   2.257   5.145   4.824
 2571SOL    HW2 8613   2.372   5.259   4.845
 2572SOL     OW 8614   2.955   5.683   1.685
 2572SOL    HW1 8615   3.036   5.710   1.737
 2572SOL    HW2 8616   2.952   5.736   1.600
 2573SOL     OW 8617   0.702   1.804   0.987
 2573SOL    HW1 8618   0.640   1.820   1.063
 2573SOL    HW2 8619   0.718   1.891   0.939
 2574SOL     OW 8620   5.547   4.088   0.721
 2574SOL    HW1 8621   5.471   4.139   0.763
 2574SOL    HW2 8622   5.619   4.152   0.694
 2575SOL     OW 8623   5.382   6.110   0.084
 2575SOL    HW1 8624   5.307   6.173   0.067
 2575SOL    HW2 8625   5.469   6.158   0.079
 2576SOL     OW 8626   4.632   6.419   4.192
 2576SOL    HW1 8627   4.654   6.349   4.260
 2576SOL    HW2 8628   4.701   6.492   4.196
 2577SOL     OW 8629   3.324   6.016   2.370
 2577SOL    HW1 8630   3.282   6.066   2.294
 2577SOL    HW2 8631   3.419   6.045   2.381
 2578SOL     OW 8632   4.128   1.584   3.726
 2578SOL    HW1 8633   4.122   1.603   3.628
 2578SOL    HW2 8634   4.053   1.524   3.753
 2579SOL     OW 8635   0.997   6.340   3.801
 2579SOL    HW1 8636   0.971   6.248   3.772
 2579SOL    HW2 8637   0.918   6.400   3.794
 2580SOL     OW 8638   2.412   4.669   6.927
 2580SOL    HW1 8639   2.348   4.721   6.870
 2580SOL    HW2 8640   2.373   4.579   6.947
 2581SOL     OW 8641   2.566   5.443   1.704
 2581SOL    HW1 8642   2.542   5.537   1.728
 2581SOL    HW2 8643   2.491   5.401   1.653
 2582SOL     OW 8644   0.281   4.408   1.731
 2582SOL    HW1 8645   0.191   4.444   1.707
 2582SOL    HW2 8646   0.275   4.309   1.744
 2583SOL     OW 8647   0.830   1.359   6.382
 2583SOL    HW1 8648   0.743   1.317   6.408
 2583SOL    HW2 8649   0.817   1.410   6.296
 2584SOL     OW 8650   4.148   5.429   6.047
 2584SOL    HW1 8651   4.217   5.478   5.994
 2584SOL    HW2 8652   4.110   5.355   5.992
 2585SOL     OW 8653   3.164   3.615   0.494
 2585SOL    HW1 8654   3.251   3.649   0.529
 2585SOL    HW2 8655   3.180   3.554   0.416
 2586SOL     OW 8656   3.230   0.885   5.644
 2586SOL    HW1 8657   3.210   0.952   5.716
 2586SOL    HW2 8658   3.197   0.919   5.556
 2587SOL     OW 8659   6.220   1.082   3.500
 2587SOL    HW1 8660   6.313   1.117   3.507
 2587SOL    HW2 8661   6.175   1.124   3.421
 2588SOL     OW 8662   3.861   2.157   5.767
 2588SOL    HW1 8663   3.822   2.150   5.859
 2588SOL    HW2 8664   3.959   2.175   5.774
 2589SOL     OW 8665   1.658   6.924   5.633
 2589SOL    HW1 8666   1.730   6.946   5.698
 2589SOL    HW2 8667   1.639   6.826   5.635
 2590SOL     OW 8668   3.153   4.978   0.271
 2590SOL    HW1 8669   3.164   4.890   0.225
 2590SOL    HW2 8670   3.223   5.042   0.238
 2591SOL     OW 8671   6.491   4.895   3.329
 2591SOL    HW1 8672   6.527   4.960   3.396
 2591SOL    HW2 8673   6.549   4.897   3.247
 2592SOL     OW 8674   3.009   4.652   6.743
 2592SOL    HW1 8675   2.909   4.652   6.743
 2592SOL    HW2 8676   3.043   4.584   6.678
 2593SOL     OW 8677   3.435   5.995   0.774
 2593SOL    HW1 8678   3.457   5.907   0.817
 2593SOL    HW2 8679   3.384   5.979   0.690
 2594SOL     OW 8680   2.312   4.005   5.955
 2594SOL    HW1 8681   2.213   4.017   5.963
 2594SOL    HW2 8682   2.356   4.033   6.040
 2595SOL     OW 8683   0.081   1.244   3.934
 2595SOL    HW1 8684   0.050   1.315   3.872
 2595SOL    HW2 8685   0.059   1.154   3.896
 2596SOL     OW 8686   2.555   2.395   1.423
 2596SOL    HW1 8687   2.474   2.419   1.476
 2596SOL    HW2 8688   2.530   2.335   1.347
 2597SOL     OW 8689   0.416   5.130   6.542
 2597SOL    HW1 8690   0.491   5.196   6.543
 2597SOL    HW2 8691   0.333   5.173   6.580
 2598SOL     OW 8692   6.802   1.339   1.863
 2598SOL    HW1 8693   6.795   1.437   1.842
 2598SOL    HW2 8694   6.785   1.286   1.780
 2599SOL     OW 8695   1.697   6.113   0.566
 2599SOL    HW1 8696   1.707   6.055   0.485
 2599SOL    HW2 8697   1.758   6.192   0.558
 2600SOL     OW 8698   5.975   2.412   4.429
 2600SOL    HW1 8699   6.043   2.475   4.391
 2600SOL    HW2 8700   5.883   2.448   4.413
 2601SOL     OW 8701   1.469   1.666   1.125
 2601SOL    HW1 8702   1.455   1.763   1.144
 2601SOL    HW2 8703   1.393   1.613   1.162
 2602SOL     OW 8704   1.721   4.756   4.814
 2602SOL    HW1 8705   1.809   4.717   4.839
 2602SOL    HW2 8706   1.699   4.731   4.719
 2603SOL     OW 8707   2.717   0.966   2.781
 2603SOL    HW1 8708   2.725   0.977   2.682
 2603SOL    HW2 8709   2.651   1.032   2.816
 2604SOL     OW 8710   5.251   1.788   2.687
 2604SOL    HW1 8711   5.197   1.705   2.673
 2604SOL    HW2 8712   5.202   1.867   2.652
 2605SOL     OW 8713   1.678   3.064   2.559
 2605SOL    HW1 8714   1.700   2.973   2.526
 2605SOL    HW2 8715   1.688   3.130   2.484
 2606SOL     OW 8716   5.810   5.126   1.652
 2606SOL    HW1 8717   5.880   5.136   1.723
 2606SOL    HW2 8718   5.853   5.104   1.565
 2607SOL     OW 8719   0.782   1.282   0.927
 2607SOL    HW1 8720   0.737   1.242   0.847
 2607SOL    HW2 8721   0.732   1.364   0.955
 2608SOL     OW 8722   3.286   5.655   6.802
 2608SOL    HW1 8723   3.381   5.633   6.826
 2608SOL    HW2 8724   3.262   5.744   6.842
 2609SOL     OW 8725   6.579   1.472   1.395
 2609SOL    HW1 8726   6.505   1.405   1.394
 2609SOL    HW2 8727   6.628   1.466   1.482
 2610SOL     OW 8728   1.077   4.419   3.914
 2610SOL    HW1 8729   1.115   4.503   3.952
 2610SOL    HW2 8730   1.121   4.398   3.827
 2611SOL     OW 8731   4.637   6.235   0.141
 2611SOL    HW1 8732   4.677   6.206   0.227
 2611SOL    HW2 8733   4.565   6.301   0.158
 2612SOL     OW 8734   5.232   6.787   3.974
 2612SOL    HW1 8735   5.216   6.705   4.028
 2612SOL    HW2 8736   5.179   6.782   3.889
 2613SOL     OW 8737   2.211   4.996   6.382
 2613SOL    HW1 8738   2.258   5.084   6.393
 2613SOL    HW2 8739   2.150   4.981   6.459
 2614SOL     OW 8740   5.916   1.357   6.357
 2614SOL    HW1 8741   5.957   1.434   6.307
 2614SOL    HW2 8742   5.860   1.303   6.295
 2615SOL     OW 8743   0.135   2.697   1.891
 2615SOL    HW1 8744   0.060   2.651   1.939
 2615SOL    HW2 8745   0.143   2.659   1.799
 2616SOL     OW 8746   0.899   1.731   5.637
 2616SOL    HW1 8747   0.830   1.739   5.565
 2616SOL    HW2 8748   0.986   1.703   5.597
 2617SOL     OW 8749   4.880   0.629   0.794
 2617SOL    HW1 8750   4.959   0.647   0.852
 2617SOL    HW2 8751   4.900   0.658   0.700
 2618SOL     OW 8752   1.164   5.964   4.870
 2618SOL    HW1 8753   1.130   5.965   4.776
 2618SOL    HW2 8754   1.193   6.056   4.895
 2619SOL     OW 8755   3.894   1.890   1.859
 2619SOL    HW1 8756   3.903   1.989   1.851
 2619SOL    HW2 8757   3.953   1.857   1.933
 2620SOL     OW 8758   6.468   6.463   1.823
 2620SOL    HW1 8759   6.546   6.447   1.882
 2620SOL    HW2 8760   6.450   6.381   1.768
 2621SOL     OW 8761   0.698   4.806   2.717
 2621SOL    HW1 8762   0.702   4.707   2.703
 2621SOL    HW2 8763   0.735   4.853   2.636
 2622SOL     OW 8764   3.392   3.208   5.867
 2622SOL    HW1 8765   3.370   3.202   5.964
 2622SOL    HW2 8766   3.431   3.122   5.836
 2623SOL     OW 8767   0.568   0.288   3.872
 2623SOL    HW1 8768   0.493   0.354   3.871
 2623SOL    HW2 8769   0.655   0.336   3.856
 2624SOL     OW 8770   6.883   2.326   4.493
 2624SOL    HW1 8771   6.839   2.239   4.514
 2624SOL    HW2 8772   6.914   2.326   4.398
 2625SOL     OW 8773   1.787   5.168   5.543
 2625SOL    HW1 8774   1.861   5.105   5.567
 2625SOL    HW2 8775   1.748   5.207   5.626
 2626SOL     OW 8776   6.455   6.980   5.584
 2626SOL    HW1 8777   6.541   7.015   5.622
 2626SOL    HW2 8778   6.463   6.974   5.484
 2627SOL     OW 8779   0.980   0.357   6.457
 2627SOL    HW1 8780   0.883   0.358   6.483
 2627SOL    HW2 8781   1.034   0.319   6.533
 2628SOL     OW 8782   1.853   3.484   4.308
 2628SOL    HW1 8783   1.949   3.482   4.279
 2628SOL    HW2 8784   1.848   3.467   4.406
 2629SOL     OW 8785   3.741   3.496   3.510
 2629SOL    HW1 8786   3.671   3.546   3.459
 2629SOL    HW2 8787   3.760   3.409   3.465
 2630SOL     OW 8788   3.609   1.060   3.702
 2630SOL    HW1 8789   3.620   0.982   3.640
 2630SOL    HW2 8790   3.688   1.064   3.763
 2631SOL     OW 8791   5.881   0.809   6.568
 2631SOL    HW1 8792   5.810   0.776   6.631
 2631SOL    HW2 8793   5.895   0.907   6.581
 2632SOL     OW 8794   5.695   4.233   1.635
 2632SOL    HW1 8795   5.763   4.273   1.697
 2632SOL    HW2 8796   5.675   4.298   1.562
 2633SOL     OW 8797   6.482   2.589   5.246
 2633SOL    HW1 8798   6.580   2.572   5.261
 2633SOL    HW2 8799   6.457   2.558   5.155
 2634SOL     OW 8800   0.696   6.015   4.353
 2634SOL    HW1 8801   0.682   6.080   4.428
 2634SOL    HW2 8802   0.747   5.936   4.387
 2635SOL     OW 8803   6.022   5.115   4.170
 2635SOL    HW1 8804   6.002   5.105   4.072
 2635SOL    HW2 8805   5.937   5.128   4.220
 2636SOL     OW 8806   3.166   1.190   6.459
 2636SOL    HW1 8807   3.143   1.166   6.553
 2636SOL    HW2 8808   3.249   1.246   6.458
 2637SOL     OW 8809   7.029   1.520   3.896
 2637SOL    HW1 8810   6.966   1.566   3.958
 2637SOL    HW2 8811   6.986   1.510   3.807
 2638SOL     OW 8812   0.403   0.508   4.615
 2638SOL    HW1 8813   0.406   0.604   4.644
 2638SOL    HW2 8814   0.323   0.492   4.558
 2639SOL     OW 8815   4.835   5.176   5.374
 2639SOL    HW1 8816   4.744   5.137   5.388
 2639SOL    HW2 8817   4.904   5.106   5.393
 2640SOL     OW 8818   0.265   0.090   5.173
 2640SOL    HW1 8819   0.325   0.047   5.105
 2640SOL    HW2 8820   0.177   0.112   5.131
 2641SOL     OW 8821   4.837   2.431   0.627
 2641SOL    HW1 8822   4.927   2.405   0.663
 2641SOL    HW2 8823   4.784   2.349   0.606
 2642SOL     OW 8824   0.011   0.786   3.772
 2642SOL    HW1 8825   0.095   0.824   3.733
 2642SOL    HW2 8826   7.023   0.699   3.727
 2643SOL     OW 8827   0.537   3.254   4.055
 2643SOL    HW1 8828   0.548   3.192   3.977
 2643SOL    HW2 8829   0.522   3.347   4.023
 2644SOL     OW 8830   4.765   5.499   5.135
 2644SOL    HW1 8831   4.703   5.507   5.212
 2644SOL    HW2 8832   4.756   5.408   5.094
 2645SOL     OW 8833   4.981   4.606   4.157
 2645SOL    HW1 8834   5.022   4.694   4.181
 2645SOL    HW2 8835   4.936   4.614   4.068
 2646SOL     OW 8836   0.811   4.120   6.563
 2646SOL    HW1 8837   0.778   4.077   6.479
 2646SOL    HW2 8838   0.733   4.160   6.612
 2647SOL     OW 8839   4.947   0.132   1.746
 2647SOL    HW1 8840   4.974   0.185   1.827
 2647SOL    HW2 8841   4.908   0.194   1.678
 2648SOL     OW 8842   0.710   6.998   3.358
 2648SOL    HW1 8843   0.613   7.018   3.358
 2648SOL    HW2 8844   0.751   7.028   3.272
 2649SOL     OW 8845   5.154   3.063   1.814
 2649SOL    HW1 8846   5.221   3.001   1.855
 2649SOL    HW2 8847   5.061   3.032   1.837
 2650SOL     OW 8848   2.974   5.547   4.560
 2650SOL    HW1 8849   3.014   5.457   4.542
 2650SOL    HW2 8850   2.880   5.536   4.594
 2651SOL     OW 8851   3.351   1.393   6.374
 2651SOL    HW1 8852   3.311   1.464   6.316
 2651SOL    HW2 8853   3.451   1.397   6.367
 2652SOL     OW 8854   4.509   3.707   5.579
 2652SOL    HW1 8855   4.512   3.749   5.488
 2652SOL    HW2 8856   4.566   3.625   5.580
 2653SOL     OW 8857   3.712   6.159   5.713
 2653SOL    HW1 8858   3.722   6.070   5.669
 2653SOL    HW2 8859   3.631   6.159   5.772
 2654SOL     OW 8860   5.170   6.771   0.704
 2654SOL    HW1 8861   5.209   6.827   0.631
 2654SOL    HW2 8862   5.232   6.771   0.783
 2655SOL     OW 8863   4.744   6.218   3.436
 2655SOL    HW1 8864   4.730   6.128   3.476
 2655SOL    HW2 8865   4.656   6.262   3.422
 2656SOL     OW 8866   3.731   5.683   3.658
 2656SOL    HW1 8867   3.763   5.775   3.681
 2656SOL    HW2 8868   3.649   5.689   3.602
 2657SOL     OW 8869   1.871   3.117   0.358
 2657SOL    HW1 8870   1.856   3.203   0.310
 2657SOL    HW2 8871   1.788   3.092   0.407
 2658SOL     OW 8872   4.605   3.988   6.501
 2658SOL    HW1 8873   4.582   4.071   6.452
 2658SOL    HW2 8874   4.624   4.010   6.597
 2659SOL     OW 8875   5.623   2.677   4.939
 2659SOL    HW1 8876   5.634   2.765   4.893
 2659SOL    HW2 8877   5.708   2.625   4.932
 2660SOL     OW 8878   0.299   1.041   0.656
 2660SOL    HW1 8879   0.215   0.994   0.627
 2660SOL    HW2 8880   0.356   1.060   0.576
 2661SOL     OW 8881   1.128   0.874   2.184
 2661SOL    HW1 8882   1.155   0.958   2.136
 2661SOL    HW2 8883   1.200   0.847   2.248
 2662SOL     OW 8884   3.119   0.596   3.821
 2662SOL    HW1 8885   3.093   0.691   3.807
 2662SOL    HW2 8886   3.038   0.541   3.837
 2663SOL     OW 8887   3.298   6.891   5.971
 2663SOL    HW1 8888   3.213   6.897   6.022
 2663SOL    HW2 8889   3.326   6.795   5.963
 2664SOL     OW 8890   3.790   2.260   5.514
 2664SOL    HW1 8891   3.806   2.354   5.546
 2664SOL    HW2 8892   3.839   2.197   5.574
 2665SOL     OW 8893   2.392   3.547   5.447
 2665SOL    HW1 8894   2.396   3.471   5.382
 2665SOL    HW2 8895   2.485   3.572   5.475
 2666SOL     OW 8896   1.940   2.983   2.044
 2666SOL    HW1 8897   2.017   3.031   2.086
 2666SOL    HW2 8898   1.869   3.049   2.020
 2667SOL     OW 8899   6.632   4.757   3.758
 2667SOL    HW1 8900   6.630   4.781   3.661
 2667SOL    HW2 8901   6.563   4.688   3.777
 2668SOL     OW 8902   5.321   2.338   4.392
 2668SOL    HW1 8903   5.293   2.369   4.483
 2668SOL    HW2 8904   5.403   2.388   4.364
 2669SOL     OW 8905   2.889   5.942   6.856
 2669SOL    HW1 8906   2.858   5.973   6.766
 2669SOL    HW2 8907   2.847   5.854   6.877
 2670SOL     OW 8908   6.337   1.624   5.509
 2670SOL    HW1 8909   6.344   1.597   5.605
 2670SOL    HW2 8910   6.242   1.614   5.479
 2671SOL     OW 8911   4.291   6.114   6.388
 2671SOL    HW1 8912   4.336   6.025   6.398
 2671SOL    HW2 8913   4.237   6.115   6.304
 2672SOL     OW 8914   3.471   1.118   1.765
 2672SOL    HW1 8915   3.462   1.045   1.832
 2672SOL    HW2 8916   3.491   1.078   1.675
 2673SOL     OW 8917   4.931   6.910   2.842
 2673SOL    HW1 8918   4.979   6.989   2.879
 2673SOL    HW2 8919   4.868   6.940   2.770
 2674SOL     OW 8920   1.639   5.300   3.978
 2674SOL    HW1 8921   1.632   5.203   3.958
 2674SOL    HW2 8922   1.575   5.351   3.921
 2675SOL     OW 8923   0.331   6.777   3.474
 2675SOL    HW1 8924   0.285   6.702   3.520
 2675SOL    HW2 8925   0.427   6.755   3.460
 2676SOL     OW 8926   2.948   3.805   2.303
 2676SOL    HW1 8927   2.876   3.872   2.284
 2676SOL    HW2 8928   2.987   3.823   2.393
 2677SOL     OW 8929   2.700   4.605   0.866
 2677SOL    HW1 8930   2.714   4.506   0.862
 2677SOL    HW2 8931   2.602   4.624   0.874
 2678SOL     OW 8932   6.969   2.367   2.319
 2678SOL    HW1 8933   6.969   2.465   2.299
 2678SOL    HW2 8934   0.031   2.333   2.316
 2679SOL     OW 8935   2.192   5.640   2.348
 2679SOL    HW1 8936   2.123   5.687   2.404
 2679SOL    HW2 8937   2.156   5.551   2.321
 2680SOL     OW 8938   1.057   2.473   0.251
 2680SOL    HW1 8939   1.129   2.403   0.245
 2680SOL    HW2 8940   1.091   2.552   0.300
 2681SOL     OW 8941   1.383   2.597   5.165
 2681SOL    HW1 8942   1.431   2.509   5.163
 2681SOL    HW2 8943   1.291   2.583   5.203
 2682SOL     OW 8944   4.854   4.092   2.245
 2682SOL    HW1 8945   4.942   4.137   2.259
 2682SOL    HW2 8946   4.782   4.141   2.294
 2683SOL     OW 8947   2.044   4.508   2.706
 2683SOL    HW1 8948   1.981   4.455   2.763
 2683SOL    HW2 8949   2.014   4.503   2.610
 2684SOL     OW 8950   5.371   6.695   2.241
 2684SOL    HW1 8951   5.395   6.632   2.315
 2684SOL    HW2 8952   5.431   6.679   2.162
 2685SOL     OW 8953   6.770   4.797   4.892
 2685SOL    HW1 8954   6.761   4.881   4.839
 2685SOL    HW2 8955   6.687   4.742   4.882
 2686SOL     OW 8956   1.172   1.603   4.748
 2686SOL    HW1 8957   1.101   1.533   4.735
 2686SOL    HW2 8958   1.167   1.639   4.841
 2687SOL     OW 8959   3.892   0.646   1.587
 2687SOL    HW1 8960   3.889   0.645   1.687
 2687SOL    HW2 8961   3.801   0.626   1.551
 2688SOL     OW 8962   3.192   2.075   0.921
 2688SOL    HW1 8963   3.238   2.091   1.009
 2688SOL    HW2 8964   3.260   2.068   0.849
 2689SOL     OW 8965   0.548   4.198   2.367
 2689SOL    HW1 8966   0.554   4.295   2.347
 2689SOL    HW2 8967   0.638   4.156   2.352
 2690SOL     OW 8968   3.081   2.465   6.452
 2690SOL    HW1 8969   3.155   2.399   6.450
 2690SOL    HW2 8970   3.074   2.505   6.544
 2691SOL     OW 8971   0.264   4.597   3.745
 2691SOL    HW1 8972   0.191   4.631   3.685
 2691SOL    HW2 8973   0.228   4.580   3.836
 2692SOL     OW 8974   2.775   6.214   3.114
 2692SOL    HW1 8975   2.729   6.302   3.125
 2692SOL    HW2 8976   2.802   6.179   3.204
 2693SOL     OW 8977   1.892   5.013   3.947
 2693SOL    HW1 8978   1.927   5.063   3.867
 2693SOL    HW2 8979   1.966   5.002   4.013
 2694SOL     OW 8980   3.949   6.140   3.641
 2694SOL    HW1 8981   3.866   6.163   3.691
 2694SOL    HW2 8982   4.029   6.155   3.699
 2695SOL     OW 8983   6.262   0.024   2.870
 2695SOL    HW1 8984   6.231   0.062   2.783
 2695SOL    HW2 8985   6.305   0.095   2.925
 2696SOL     OW 8986   4.501   3.735   6.541
 2696SOL    HW1 8987   4.575   3.802   6.540
 2696SOL    HW2 8988   4.417   3.777   6.508
 2697SOL     OW 8989   4.256   1.521   1.031
 2697SOL    HW1 8990   4.334   1.584   1.031
 2697SOL    HW2 8991   4.285   1.432   0.997
 2698SOL     OW 8992   1.517   5.166   6.322
 2698SOL    HW1 8993   1.526   5.266   6.313
 2698SOL    HW2 8994   1.473   5.129   6.240
 2699SOL     OW 8995   2.839   5.894   1.899
 2699SOL    HW1 8996   2.800   5.902   1.807
 2699SOL    HW2 8997   2.939   5.898   1.892
 2700SOL     OW 8998   2.573   1.693   0.964
 2700SOL    HW1 8999   2.483   1.693   1.009
 2700SOL    HW2 9000   2.634   1.757   1.010
 2701SOL     OW 9001   4.971   2.103   4.835
 2701SOL    HW1 9002   4.946   2.143   4.923
 2701SOL    HW2 9003   4.983   2.176   4.768
 2702SOL     OW 9004   1.650   1.573   4.098
 2702SOL    HW1 9005   1.602   1.550   4.183
 2702SOL    HW2 9006   1.743   1.537   4.102
 2703SOL     OW 9007   1.501   5.642   1.196
 2703SOL    HW1 9008   1.436   5.694   1.140
 2703SOL    HW2 9009   1.451   5.579   1.255
 2704SOL     OW 9010   6.975   5.683   2.874
 2704SOL    HW1 9011   6.878   5.685   2.900
 2704SOL    HW2 9012   6.994   5.598   2.825
 2705SOL     OW 9013   6.797   1.483   5.544
 2705SOL    HW1 9014   6.881   1.536   5.551
 2705SOL    HW2 9015   6.781   1.458   5.448
 2706SOL     OW 9016   5.730   4.441   4.333
 2706SOL    HW1 9017   5.801   4.408   4.395
 2706SOL    HW2 9018   5.652   4.377   4.336
 2707SOL     OW 9019   4.102   6.879   3.520
 2707SOL    HW1 9020   4.157   6.898   3.438
 2707SOL    HW2 9021   4.109   6.782   3.542
 2708SOL     OW 9022   6.069   3.062   0.010
 2708SOL    HW1 9023   5.975   3.078   0.040
 2708SOL    HW2 9024   6.129   3.053   0.089
 2709SOL     OW 9025   5.152   6.826   6.300
 2709SOL    HW1 9026   5.220   6.773   6.351
 2709SOL    HW2 9027   5.062   6.784   6.311
 2710SOL     OW 9028   1.592   2.729   3.927
 2710SOL    HW1 9029   1.566   2.643   3.972
 2710SOL    HW2 9030   1.635   2.708   3.839
 2711SOL     OW 9031   3.317   2.054   3.734
 2711SOL    HW1 9032   3.393   2.079   3.674
 2711SOL    HW2 9033   3.231   2.061   3.682
 2712SOL     OW 9034   3.442   5.668   2.339
 2712SOL    HW1 9035   3.398   5.717   2.264
 2712SOL    HW2 9036   3.382   5.595   2.370
 2713SOL     OW 9037   4.600   4.634   6.326
 2713SOL    HW1 9038   4.637   4.697   6.259
 2713SOL    HW2 9039   4.674   4.597   6.382
 2714SOL     OW 9040   3.624   4.038   6.531
 2714SOL    HW1 9041   3.604   3.946   6.566
 2714SOL    HW2 9042   3.671   4.030   6.443
 2715SOL     OW 9043   5.577   1.951   0.732
 2715SOL    HW1 9044   5.621   1.966   0.820
 2715SOL    HW2 9045   5.588   2.033   0.676
 2716SOL     OW 9046   4.435   2.445   2.707
 2716SOL    HW1 9047   4.363   2.377   2.693
 2716SOL    HW2 9048   4.471   2.475   2.618
 2717SOL     OW 9049   0.351   0.348   1.855
 2717SOL    HW1 9050   0.254   0.374   1.860
 2717SOL    HW2 9051   0.393   0.360   1.945
 2718SOL     OW 9052   0.366   1.361   5.189
 2718SOL    HW1 9053   0.333   1.328   5.101
 2718SOL    HW2 9054   0.393   1.457   5.181
 2719SOL     OW 9055   1.630   4.216   2.816
 2719SOL    HW1 9056   1.537   4.231   2.782
 2719SOL    HW2 9057   1.681   4.161   2.750
 2720SOL     OW 9058   0.777   6.724   4.941
 2720SOL    HW1 9059   0.788   6.813   4.986
 2720SOL    HW2 9060   0.681   6.713   4.914
 2721SOL     OW 9061   3.265   6.309   1.454
 2721SOL    HW1 9062   3.263   6.274   1.548
 2721SOL    HW2 9063   3.257   6.409   1.456
 2722SOL     OW 9064   4.655   5.731   6.409
 2722SOL    HW1 9065   4.687   5.700   6.320
 2722SOL    HW2 9066   4.700   5.817   6.432
 2723SOL     OW 9067   3.090   6.825   6.914
 2723SOL    HW1 9068   3.160   6.874   6.965
 2723SOL    HW2 9069   3.018   6.796   6.976
 2724SOL     OW 9070   1.344   5.833   6.208
 2724SOL    HW1 9071   1.363   5.745   6.164
 2724SOL    HW2 9072   1.369   5.829   6.304
 2725SOL     OW 9073   5.055   3.946   4.249
 2725SOL    HW1 9074   4.990   3.941   4.325
 2725SOL    HW2 9075   5.118   3.869   4.254
 2726SOL     OW 9076   0.946   1.809   1.146
 2726SOL    HW1 9077   0.929   1.755   1.229
 2726SOL    HW2 9078   0.866   1.803   1.086
 2727SOL     OW 9079   2.299   4.312   4.370
 2727SOL    HW1 9080   2.205   4.327   4.400
 2727SOL    HW2 9081   2.342   4.243   4.429
 2728SOL     OW 9082   5.468   5.917   6.671
 2728SOL    HW1 9083   5.565   5.895   6.664
 2728SOL    HW2 9084   5.432   5.881   6.757
 2729SOL     OW 9085   6.138   6.445   0.106
 2729SOL    HW1 9086   6.165   6.514   0.039
 2729SOL    HW2 9087   6.218   6.393   0.134
 2730SOL     OW 9088   0.534   5.492   1.738
 2730SOL    HW1 9089   0.480   5.409   1.752
 2730SOL    HW2 9090   0.615   5.489   1.796
 2731SOL     OW 9091   3.124   3.346   3.344
 2731SOL    HW1 9092   3.202   3.332   3.406
 2731SOL    HW2 9093   3.103   3.260   3.299
 2732SOL     OW 9094   4.888   1.676   1.320
 2732SOL    HW1 9095   4.799   1.653   1.360
 2732SOL    HW2 9096   4.960   1.662   1.388
 2733SOL     OW 9097   6.786   1.124   5.390
 2733SOL    HW1 9098   6.884   1.132   5.408
 2733SOL    HW2 9099   6.759   1.192   5.322
 2734SOL     OW 9100   3.677   6.265   1.935
 2734SOL    HW1 9101   3.774   6.251   1.916
 2734SOL    HW2 9102   3.623   6.242   1.854
 2735SOL     OW 9103   1.504   2.129   0.210
 2735SOL    HW1 9104   1.479   2.035   0.185
 2735SOL    HW2 9105   1.542   2.129   0.302
 2736SOL     OW 9106   5.568   6.091   4.448
 2736SOL    HW1 9107   5.517   6.060   4.528
 2736SOL    HW2 9108   5.642   6.027   4.428
 2737SOL     OW 9109   2.834   2.119   6.005
 2737SOL    HW1 9110   2.838   2.212   6.042
 2737SOL    HW2 9111   2.835   2.053   6.081
 2738SOL     OW 9112   5.865   0.171   1.832
 2738SOL    HW1 9113   5.787   0.197   1.889
 2738SOL    HW2 9114   5.835   0.108   1.761
 2739SOL     OW 9115   0.939   5.360   1.271
 2739SOL    HW1 9116   1.030   5.360   1.228
 2739SOL    HW2 9117   0.889   5.279   1.241
 2740SOL     OW 9118   0.440   5.351   2.742
 2740SOL    HW1 9119   0.440   5.446   2.709
 2740SOL    HW2 9120   0.500   5.344   2.821
 2741SOL     OW 9121   1.027   1.980   4.126
 2741SOL    HW1 9122   0.933   1.977   4.160
 2741SOL    HW2 9123   1.037   1.916   4.050
 2742SOL     OW 9124   3.237   4.832   1.967
 2742SOL    HW1 9125   3.281   4.889   2.037
 2742SOL    HW2 9126   3.307   4.782   1.916
 2743SOL     OW 9127   0.140   4.830   2.335
 2743SOL    HW1 9128   0.142   4.833   2.235
 2743SOL    HW2 9129   0.045   4.822   2.365
 2744SOL     OW 9130   3.454   3.560   2.472
 2744SOL    HW1 9131   3.520   3.484   2.469
 2744SOL    HW2 9132   3.503   3.646   2.486
 2745SOL     OW 9133   6.395   1.543   5.767
 2745SOL    HW1 9134   6.486   1.558   5.727
 2745SOL    HW2 9135   6.398   1.563   5.865
 2746SOL     OW 9136   0.928   1.176   4.236
 2746SOL    HW1 9137   0.889   1.258   4.277
 2746SOL    HW2 9138   0.937   1.189   4.137
 2747SOL     OW 9139   4.200   5.797   6.549
 2747SOL    HW1 9140   4.274   5.819   6.486
 2747SOL    HW2 9141   4.116   5.779   6.496
 2748SOL     OW 9142   4.403   0.866   1.446
 2748SOL    HW1 9143   4.415   0.965   1.436
 2748SOL    HW2 9144   4.478   0.819   1.401
 2749SOL     OW 9145   1.381   3.692   0.357
 2749SOL    HW1 9146   1.477   3.711   0.376
 2749SOL    HW2 9147   1.364   3.701   0.259
 2750SOL     OW 9148   2.392   5.026   1.690
 2750SOL    HW1 9149   2.476   5.010   1.638
 2750SOL    HW2 9150   2.380   4.954   1.758
 2751SOL     OW 9151   1.907   1.550   1.448
 2751SOL    HW1 9152   1.867   1.641   1.455
 2751SOL    HW2 9153   2.007   1.558   1.443
 2752SOL     OW 9154   4.562   4.340   6.167
 2752SOL    HW1 9155   4.645   4.299   6.204
 2752SOL    HW2 9156   4.570   4.440   6.167
 2753SOL     OW 9157   5.998   6.349   5.094
 2753SOL    HW1 9158   5.914   6.403   5.085
 2753SOL    HW2 9159   6.019   6.334   5.190
 2754SOL     OW 9160   1.031   6.747   6.854
 2754SOL    HW1 9161   1.081   6.693   6.922
 2754SOL    HW2 9162   0.953   6.694   6.821
 2755SOL     OW 9163   2.934   6.917   2.919
 2755SOL    HW1 9164   2.919   6.824   2.884
 2755SOL    HW2 9165   2.899   6.983   2.852
 2756SOL     OW 9166   4.450   6.369   0.721
 2756SOL    HW1 9167   4.364   6.326   0.750
 2756SOL    HW2 9168   4.448   6.384   0.622
 2757SOL     OW 9169   1.780   5.765   0.527
 2757SOL    HW1 9170   1.802   5.704   0.603
 2757SOL    HW2 9171   1.705   5.727   0.474
 2758SOL     OW 9172   4.858   0.555   5.002
 2758SOL    HW1 9173   4.912   0.501   4.938
 2758SOL    HW2 9174   4.890   0.650   5.001
 2759SOL     OW 9175   5.263   6.169   4.131
 2759SOL    HW1 9176   5.288   6.187   4.226
 2759SOL    HW2 9177   5.293   6.246   4.074
 2760SOL     OW 9178   1.283   5.593   2.070
 2760SOL    HW1 9179   1.253   5.684   2.040
 2760SOL    HW2 9180   1.376   5.576   2.038
 2761SOL     OW 9181   1.817   4.720   4.025
 2761SOL    HW1 9182   1.816   4.763   3.935
 2761SOL    HW2 9183   1.725   4.720   4.063
 2762SOL     OW 9184   0.974   0.951   5.318
 2762SOL    HW1 9185   0.974   0.854   5.295
 2762SOL    HW2 9186   0.899   0.970   5.383
 2763SOL     OW 9187   5.648   2.189   3.949
 2763SOL    HW1 9188   5.717   2.132   3.904
 2763SOL    HW2 9189   5.590   2.232   3.879
 2764SOL     OW 9190   5.713   0.036   1.129
 2764SOL    HW1 9191   5.640   0.094   1.164
 2764SOL    HW2 9192   5.754   7.016   1.205
 2765SOL     OW 9193   5.365   0.540   1.357
 2765SOL    HW1 9194   5.334   0.561   1.264
 2765SOL    HW2 9195   5.310   0.592   1.422
 2766SOL     OW 9196   5.771   1.598   0.587
 2766SOL    HW1 9197   5.724   1.685   0.570
 2766SOL    HW2 9198   5.829   1.576   0.509
 2767SOL     OW 9199   0.101   5.247   6.908
 2767SOL    HW1 9200   0.064   5.267   6.999
 2767SOL    HW2 9201   0.155   5.163   6.911
 2768SOL     OW 9202   5.711   1.365   0.340
 2768SOL    HW1 9203   5.789   1.427   0.341
 2768SOL    HW2 9204   5.686   1.345   0.245
 2769SOL     OW 9205   6.335   4.600   4.299
 2769SOL    HW1 9206   6.386   4.617   4.383
 2769SOL    HW2 9207   6.239   4.622   4.313
 2770SOL     OW 9208   1.688   5.669   6.558
 2770SOL    HW1 9209   1.764   5.676   6.494
 2770SOL    HW2 9210   1.618   5.609   6.520
 2771SOL     OW 9211   5.146   1.172   1.588
 2771SOL    HW1 9212   5.219   1.219   1.635
 2771SOL    HW2 9213   5.069   1.157   1.650
 2772SOL     OW 9214   4.555   2.271   0.543
 2772SOL    HW1 9215   4.586   2.286   0.449
 2772SOL    HW2 9216   4.503   2.185   0.547
 2773SOL     OW 9217   4.501   3.086   5.946
 2773SOL    HW1 9218   4.554   3.153   5.997
 2773SOL    HW2 9219   4.404   3.112   5.948
 2774SOL     OW 9220   6.231   3.238   3.126
 2774SOL    HW1 9221   6.159   3.169   3.129
 2774SOL    HW2 9222   6.223   3.291   3.042
 2775SOL     OW 9223   6.921   5.738   0.436
 2775SOL    HW1 9224   6.955   5.740   0.530
 2775SOL    HW2 9225   6.831   5.782   0.433
 2776SOL     OW 9226   4.254   5.703   5.470
 2776SOL    HW1 9227   4.183   5.715   5.539
 2776SOL    HW2 9228   4.301   5.790   5.455
 2777SOL     OW 9229   3.148   1.124   2.048
 2777SOL    HW1 9230   3.175   1.028   2.059
 2777SOL    HW2 9231   3.081   1.148   2.118
 2778SOL     OW 9232   1.935   1.275   5.299
 2778SOL    HW1 9233   1.916   1.264   5.396
 2778SOL    HW2 9234   1.910   1.190   5.251
 2779SOL     OW 9235   4.397   0.333   0.560
 2779SOL    HW1 9236   4.456   0.296   0.631
 2779SOL    HW2 9237   4.424   0.427   0.539
 2780SOL     OW 9238   6.208   6.101   5.857
 2780SOL    HW1 9239   6.280   6.166   5.830
 2780SOL    HW2 9240   6.120   6.133   5.824
 2781SOL     OW 9241   6.250   5.386   2.058
 2781SOL    HW1 9242   6.180   5.419   2.121
 2781SOL    HW2 9243   6.282   5.461   2.001
 2782SOL     OW 9244   3.256   2.953   6.269
 2782SOL    HW1 9245   3.175   2.932   6.214
 2782SOL    HW2 9246   3.227   2.977   6.362
 2783SOL     OW 9247   5.870   3.536   4.987
 2783SOL    HW1 9248   5.776   3.505   4.999
 2783SOL    HW2 9249   5.928   3.459   4.960
 2784SOL     OW 9250   2.399   1.955   1.343
 2784SOL    HW1 9251   2.333   1.889   1.306
 2784SOL    HW2 9252   2.436   1.920   1.429
 2785SOL     OW 9253   6.239   1.145   0.093
 2785SOL    HW1 9254   6.165   1.121   0.156
 2785SOL    HW2 9255   6.234   1.088   0.012
 2786SOL     OW 9256   3.413   6.937   1.342
 2786SOL    HW1 9257   3.332   6.909   1.291
 2786SOL    HW2 9258   3.435   0.001   1.321
 2787SOL     OW 9259   2.616   3.102   6.616
 2787SOL    HW1 9260   2.529   3.056   6.632
 2787SOL    HW2 9261   2.602   3.200   6.607
 2788SOL     OW 9262   1.973   3.957   0.234
 2788SOL    HW1 9263   1.916   4.015   0.292
 2788SOL    HW2 9264   1.918   3.919   0.160
 2789SOL     OW 9265   1.568   1.882   3.634
 2789SOL    HW1 9266   1.486   1.853   3.583
 2789SOL    HW2 9267   1.585   1.818   3.708
 2790SOL     OW 9268   3.582   5.377   2.740
 2790SOL    HW1 9269   3.603   5.302   2.804
 2790SOL    HW2 9270   3.546   5.339   2.655
 2791SOL     OW 9271   1.928   4.172   4.835
 2791SOL    HW1 9272   1.982   4.232   4.895
 2791SOL    HW2 9273   1.885   4.227   4.763
 2792SOL     OW 9274   1.345   0.201   5.129
 2792SOL    HW1 9275   1.309   0.115   5.093
 2792SOL    HW2 9276   1.423   0.183   5.189
 2793SOL     OW 9277   4.809   2.299   2.531
 2793SOL    HW1 9278   4.742   2.270   2.598
 2793SOL    HW2 9279   4.784   2.265   2.440
 2794SOL     OW 9280   7.022   3.086   0.521
 2794SOL    HW1 9281   6.932   3.043   0.513
 2794SOL    HW2 9282   0.053   3.042   0.457
 2795SOL     OW 9283   3.047   4.067   1.538
 2795SOL    HW1 9284   2.970   4.091   1.596
 2795SOL    HW2 9285   3.115   4.016   1.593
 2796SOL     OW 9286   6.827   4.323   2.604
 2796SOL    HW1 9287   6.834   4.258   2.680
 2796SOL    HW2 9288   6.790   4.277   2.524
 2797SOL     OW 9289   5.132   5.681   4.976
 2797SOL    HW1 9290   5.182   5.767   4.985
 2797SOL    HW2 9291   5.085   5.661   5.062
 2798SOL     OW 9292   1.246   4.089   2.281
 2798SOL    HW1 9293   1.285   4.064   2.193
 2798SOL    HW2 9294   1.242   4.008   2.340
 2799SOL     OW 9295   0.233   5.820   6.843
 2799SOL    HW1 9296   0.205   5.916   6.851
 2799SOL    HW2 9297   0.319   5.815   6.792
 2800SOL     OW 9298   4.577   4.274   6.866
 2800SOL    HW1 9299   4.503   4.342   6.861
 2800SOL    HW2 9300   4.556   4.197   6.806
 2801SOL     OW 9301   4.270   5.933   4.020
 2801SOL    HW1 9302   4.316   5.901   4.103
 2801SOL    HW2 9303   4.321   5.903   3.939
 2802SOL     OW 9304   4.476   3.235   6.404
 2802SOL    HW1 9305   4.510   3.258   6.496
 2802SOL    HW2 9306   4.440   3.142   6.404
 2803SOL     OW 9307   2.446   6.086   6.268
 2803SOL    HW1 9308   2.463   6.104   6.171
 2803SOL    HW2 9309   2.514   6.134   6.323
 2804SOL     OW 9310   6.769   4.372   3.767
 2804SOL    HW1 9311   6.740   4.277   3.758
 2804SOL    HW2 9312   6.768   4.399   3.863
 2805SOL     OW 9313   4.313   3.772   1.177
 2805SOL    HW1 9314   4.375   3.834   1.225
 2805SOL    HW2 9315   4.330   3.778   1.078
 2806SOL     OW 9316   5.979   5.238   3.490
 2806SOL    HW1 9317   6.047   5.307   3.515
 2806SOL    HW2 9318   5.969   5.173   3.566
 2807SOL     OW 9319   5.439   4.834   3.796
 2807SOL    HW1 9320   5.393   4.914   3.756
 2807SOL    HW2 9321   5.374   4.784   3.852
 2808SOL     OW 9322   3.929   1.506   3.186
 2808SOL    HW1 9323   3.887   1.550   3.265
 2808SOL    HW2 9324   3.875   1.426   3.160
 2809SOL     OW 9325   6.786   2.888   1.304
 2809SOL    HW1 9326   6.820   2.953   1.373
 2809SOL    HW2 9327   6.778   2.798   1.346
 2810SOL     OW 9328   3.608   6.880   4.722
 2810SOL    HW1 9329   3.538   6.892   4.651
 2810SOL    HW2 9330   3.668   6.805   4.696
 2811SOL     OW 9331   0.548   0.735   3.466
 2811SOL    HW1 9332   0.517   0.779   3.381
 2811SOL    HW2 9333   0.474   0.680   3.504
 2812SOL     OW 9334   5.322   3.492   1.536
 2812SOL    HW1 9335   5.312   3.548   1.453
 2812SOL    HW2 9336   5.248   3.425   1.540
 2813SOL     OW 9337   6.224   6.793   5.658
 2813SOL    HW1 9338   6.298   6.859   5.641
 2813SOL    HW2 9339   6.236   6.713   5.599
 2814SOL     OW 9340   4.360   3.243   6.901
 2814SOL    HW1 9341   4.279   3.211   6.950
 2814SOL    HW2 9342   4.341   3.332   6.859
 2815SOL     OW 9343   0.064   1.546   4.782
 2815SOL    HW1 9344   0.015   1.609   4.721
 2815SOL    HW2 9345   0.019   1.546   4.871
 2816SOL     OW 9346   6.980   6.480   3.663
 2816SOL    HW1 9347   6.980   6.415   3.740
 2816SOL    HW2 9348   0.016   6.552   3.680
 2817SOL     OW 9349   1.562   0.107   1.232
 2817SOL    HW1 9350   1.645   0.108   1.287
 2817SOL    HW2 9351   1.550   0.197   1.189
 2818SOL     OW 9352   6.795   5.447   0.091
 2818SOL    HW1 9353   6.723   5.452   0.161
 2818SOL    HW2 9354   6.883   5.427   0.135
 2819SOL     OW 9355   0.398   2.275   0.821
 2819SOL    HW1 9356   0.300   2.296   0.823
 2819SOL    HW2 9357   0.419   2.221   0.740
 2820SOL     OW 9358   0.926   2.369   1.954
 2820SOL    HW1 9359   0.833   2.334   1.953
 2820SOL    HW2 9360   0.975   2.333   2.033
 2821SOL     OW 9361   3.570   3.801   6.664
 2821SOL    HW1 9362   3.552   3.703   6.664
 2821SOL    HW2 9363   3.513   3.845   6.734
 2822SOL     OW 9364   3.743   2.411   0.240
 2822SOL    HW1 9365   3.739   2.337   0.308
 2822SOL    HW2 9366   3.655   2.458   0.236
 2823SOL     OW 9367   2.193   6.292   1.452
 2823SOL    HW1 9368   2.104   6.249   1.436
 2823SOL    HW2 9369   2.243   6.241   1.522
 2824SOL     OW 9370   2.572   1.271   4.558
 2824SOL    HW1 9371   2.610   1.363   4.558
 2824SOL    HW2 9372   2.634   1.209   4.606
 2825SOL     OW 9373   6.427   6.568   0.308
 2825SOL    HW1 9374   6.462   6.650   0.355
 2825SOL    HW2 9375   6.483   6.489   0.334
 2826SOL     OW 9376   5.339   2.240   6.202
 2826SOL    HW1 9377   5.335   2.308   6.129
 2826SOL    HW2 9378   5.434   2.210   6.215
 2827SOL     OW 9379   6.739   0.891   5.537
 2827SOL    HW1 9380   6.713   0.910   5.631
 2827SOL    HW2 9381   6.775   0.974   5.494
 2828SOL     OW 9382   3.467   1.282   6.658
 2828SOL    HW1 9383   3.448   1.280   6.756
 2828SOL    HW2 9384   3.555   1.327   6.643
 2829SOL     OW 9385   4.091   4.202   6.429
 2829SOL    HW1 9386   4.086   4.119   6.485
 2829SOL    HW2 9387   4.063   4.181   6.335
 2830SOL     OW 9388   0.062   4.197   6.815
 2830SOL    HW1 9389   0.035   4.104   6.840
 2830SOL    HW2 9390   0.010   4.226   6.734
 2831SOL     OW 9391   6.660   6.087   3.675
 2831SOL    HW1 9392   6.626   6.113   3.584
 2831SOL    HW2 9393   6.731   6.018   3.665
 2832SOL     OW 9394   0.483   0.970   1.445
 2832SOL    HW1 9395   0.511   1.005   1.355
 2832SOL    HW2 9396   0.556   0.912   1.482
 2833SOL     OW 9397   5.027   2.102   1.943
 2833SOL    HW1 9398   5.122   2.132   1.941
 2833SOL    HW2 9399   5.023   2.004   1.926
 2834SOL     OW 9400   2.982   0.757   5.946
 2834SOL    HW1 9401   2.933   0.838   5.979
 2834SOL    HW2 9402   3.058   0.737   6.007
 2835SOL     OW 9403   0.079   0.278   1.259
 2835SOL    HW1 9404   0.117   0.193   1.294
 2835SOL    HW2 9405   0.135   0.355   1.291
 2836SOL     OW 9406   6.411   0.437   1.234
 2836SOL    HW1 9407   6.344   0.502   1.271
 2836SOL    HW2 9408   6.494   0.440   1.289
 2837SOL     OW 9409   5.695   3.077   3.018
 2837SOL    HW1 9410   5.683   3.068   3.117
 2837SOL    HW2 9411   5.769   3.018   2.988
 2838SOL     OW 9412   2.182   4.043   2.030
 2838SOL    HW1 9413   2.087   4.074   2.028
 2838SOL    HW2 9414   2.186   3.946   2.053
 2839SOL     OW 9415   6.008   1.374   2.050
 2839SOL    HW1 9416   5.959   1.436   2.111
 2839SOL    HW2 9417   5.993   1.402   1.955
 2840SOL     OW 9418   0.631   0.926   4.259
 2840SOL    HW1 9419   0.728   0.905   4.270
 2840SOL    HW2 9420   0.601   0.988   4.332
 2841SOL     OW 9421   0.049   0.922   6.052
 2841SOL    HW1 9422   6.989   0.927   6.014
 2841SOL    HW2 9423   0.058   0.989   6.127
 2842SOL     OW 9424   0.689   1.826   4.091
 2842SOL    HW1 9425   0.621   1.831   4.018
 2842SOL    HW2 9426   0.743   1.743   4.081
 2843SOL     OW 9427   3.416   1.851   3.881
 2843SOL    HW1 9428   3.390   1.924   3.817
 2843SOL    HW2 9429   3.488   1.884   3.942
 2844SOL     OW 9430   1.284   4.167   0.640
 2844SOL    HW1 9431   1.369   4.126   0.607
 2844SOL    HW2 9432   1.303   4.218   0.724
 2845SOL     OW 9433   1.322   3.286   0.592
 2845SOL    HW1 9434   1.288   3.379   0.578
 2845SOL    HW2 9435   1.375   3.257   0.512
 2846SOL     OW 9436   5.012   1.694   6.774
 2846SOL    HW1 9437   5.064   1.623   6.727
 2846SOL    HW2 9438   5.007   1.775   6.716
 2847SOL     OW 9439   5.293   3.781   3.341
 2847SOL    HW1 9440   5.241   3.717   3.398
 2847SOL    HW2 9441   5.312   3.864   3.393
 2848SOL     OW 9442   0.291   4.695   6.112
 2848SOL    HW1 9443   0.323   4.644   6.192
 2848SOL    HW2 9444   0.325   4.789   6.116
 2849SOL     OW 9445   3.653   0.252   1.614
 2849SOL    HW1 9446   3.668   0.255   1.515
 2849SOL    HW2 9447   3.558   0.274   1.635
 2850SOL     OW 9448   3.372   0.192   2.219
 2850SOL    HW1 9449   3.407   0.098   2.216
 2850SOL    HW2 9450   3.327   0.214   2.133
 2851SOL     OW 9451   0.849   4.007   5.468
 2851SOL    HW1 9452   0.842   4.104   5.444
 2851SOL    HW2 9453   0.763   3.961   5.446
 2852SOL     OW 9454   5.639   4.468   0.272
 2852SOL    HW1 9455   5.711   4.494   0.335
 2852SOL    HW2 9456   5.607   4.376   0.293
 2853SOL     OW 9457   2.667   2.018   6.838
 2853SOL    HW1 9458   2.685   2.081   6.914
 2853SOL    HW2 9459   2.580   1.971   6.854
 2854SOL     OW 9460   3.132   1.604   4.118
 2854SOL    HW1 9461   3.111   1.513   4.083
 2854SOL    HW2 9462   3.075   1.672   4.071
 2855SOL     OW 9463   2.069   0.917   6.004
 2855SOL    HW1 9464   2.007   0.917   5.926
 2855SOL    HW2 9465   2.123   0.832   6.003
 2856SOL     OW 9466   2.215   3.024   6.023
 2856SOL    HW1 9467   2.152   3.014   6.099
 2856SOL    HW2 9468   2.245   3.119   6.016
 2857SOL     OW 9469   3.154   1.846   1.706
 2857SOL    HW1 9470   3.088   1.841   1.781
 2857SOL    HW2 9471   3.241   1.882   1.742
 2858SOL     OW 9472   6.148   3.475   1.887
 2858SOL    HW1 9473   6.076   3.544   1.897
 2858SOL    HW2 9474   6.236   3.514   1.913
 2859SOL     OW 9475   5.387   2.221   0.638
 2859SOL    HW1 9476   5.376   2.143   0.577
 2859SOL    HW2 9477   5.323   2.213   0.714
 2860SOL     OW 9478   3.752   1.839   1.045
 2860SOL    HW1 9479   3.731   1.763   1.107
 2860SOL    HW2 9480   3.832   1.888   1.077
 2861SOL     OW 9481   4.864   5.350   5.815
 2861SOL    HW1 9482   4.823   5.264   5.844
 2861SOL    HW2 9483   4.893   5.342   5.719
 2862SOL     OW 9484   5.296   1.471   2.918
 2862SOL    HW1 9485   5.356   1.510   2.849
 2862SOL    HW2 9486   5.282   1.374   2.900
 2863SOL     OW 9487   5.990   1.196   6.971
 2863SOL    HW1 9488   6.033   1.218   6.883
 2863SOL    HW2 9489   6.006   1.270   0.004
 2864SOL     OW 9490   4.036   0.009   1.846
 2864SOL    HW1 9491   4.085   0.096   1.858
 2864SOL    HW2 9492   4.029   7.019   1.749
 2865SOL     OW 9493   5.136   4.558   5.478
 2865SOL    HW1 9494   5.062   4.565   5.411
 2865SOL    HW2 9495   5.217   4.520   5.435
 2866SOL     OW 9496   6.044   6.325   0.443
 2866SOL    HW1 9497   5.993   6.360   0.365
 2866SOL    HW2 9498   6.142   6.337   0.427
 2867SOL     OW 9499   5.818   3.757   2.222
 2867SOL    HW1 9500   5.823   3.818   2.143
 2867SOL    HW2 9501   5.812   3.812   2.306
 2868SOL     OW 9502   0.167   3.110   5.468
 2868SOL    HW1 9503   0.144   3.017   5.437
 2868SOL    HW2 9504   0.262   3.130   5.445
 2869SOL     OW 9505   6.124   1.427   3.461
 2869SOL    HW1 9506   6.131   1.366   3.540
 2869SOL    HW2 9507   6.178   1.390   3.386
 2870SOL     OW 9508   6.720   1.555   4.702
 2870SOL    HW1 9509   6.789   1.576   4.633
 2870SOL    HW2 9510   6.712   1.632   4.766
 2871SOL     OW 9511   1.929   1.460   6.757
 2871SOL    HW1 9512   1.937   1.560   6.757
 2871SOL    HW2 9513   2.019   1.420   6.776
 2872SOL     OW 9514   2.667   1.487   3.569
 2872SOL    HW1 9515   2.722   1.475   3.486
 2872SOL    HW2 9516   2.670   1.404   3.624
 2873SOL     OW 9517   1.572   5.112   3.495
 2873SOL    HW1 9518   1.502   5.141   3.560
 2873SOL    HW2 9519   1.587   5.184   3.427
 2874SOL     OW 9520   4.726   5.664   2.566
 2874SOL    HW1 9521   4.818   5.630   2.583
 2874SOL    HW2 9522   4.731   5.742   2.503
 2875SOL     OW 9523   4.604   6.343   6.646
 2875SOL    HW1 9524   4.623   6.255   6.603
 2875SOL    HW2 9525   4.584   6.411   6.575
 2876SOL     OW 9526   0.885   0.128   1.713
 2876SOL    HW1 9527   0.833   0.059   1.763
 2876SOL    HW2 9528   0.956   0.083   1.658
 2877SOL     OW 9529   3.516   2.926   5.198
 2877SOL    HW1 9530   3.460   2.848   5.168
 2877SOL    HW2 9531   3.569   2.899   5.278
 2878SOL     OW 9532   3.608   5.031   4.687
 2878SOL    HW1 9533   3.634   5.038   4.783
 2878SOL    HW2 9534   3.524   4.978   4.679
 2879SOL     OW 9535   4.743   5.343   0.284
 2879SOL    HW1 9536   4.797   5.294   0.353
 2879SOL    HW2 9537   4.671   5.283   0.249
 2880SOL     OW 9538   6.103   6.452   0.786
 2880SOL    HW1 9539   6.110   6.498   0.697
 2880SOL    HW2 9540   6.188   6.465   0.837
 2881SOL     OW 9541   5.558   6.156   1.136
 2881SOL    HW1 9542   5.529   6.225   1.203
 2881SOL    HW2 9543   5.511   6.173   1.049
 2882SOL     OW 9544   0.642   3.523   2.438
 2882SOL    HW1 9545   0.587   3.455   2.389
 2882SOL    HW2 9546   0.603   3.538   2.529
 2883SOL     OW 9547   4.877   6.499   3.937
 2883SOL    HW1 9548   4.854   6.551   4.019
 2883SOL    HW2 9549   4.794   6.460   3.898
 2884SOL     OW 9550   0.533   5.295   3.323
 2884SOL    HW1 9551   0.541   5.286   3.422
 2884SOL    HW2 9552   0.537   5.392   3.298
 2885SOL     OW 9553   6.847   2.578   2.726
 2885SOL    HW1 9554   6.835   2.667   2.682
 2885SOL    HW2 9555   6.788   2.511   2.683
 2886SOL     OW 9556   2.181   3.291   6.762
 2886SOL    HW1 9557   2.235   3.329   6.687
 2886SOL    HW2 9558   2.101   3.349   6.779
 2887SOL     OW 9559   1.942   0.070   5.119
 2887SOL    HW1 9560   1.843   0.087   5.121
 2887SOL    HW2 9561   1.961   7.016   5.071
 2888SOL     OW 9562   0.232   4.871   6.835
 2888SOL    HW1 9563   0.249   4.773   6.829
 2888SOL    HW2 9564   0.197   4.904   6.747
 2889SOL     OW 9565   1.648   0.981   2.299
 2889SOL    HW1 9566   1.602   1.034   2.228
 2889SOL    HW2 9567   1.589   0.906   2.328
 2890SOL     OW 9568   2.726   0.481   1.038
 2890SOL    HW1 9569   2.724   0.542   1.116
 2890SOL    HW2 9570   2.735   0.535   0.954
 2891SOL     OW 9571   2.354   4.688   3.070
 2891SOL    HW1 9572   2.258   4.665   3.086
 2891SOL    HW2 9573   2.387   4.639   2.990
 2892SOL     OW 9574   5.001   4.266   0.428
 2892SOL    HW1 9575   4.910   4.281   0.466
 2892SOL    HW2 9576   4.999   4.184   0.370
 2893SOL     OW 9577   1.224   6.860   5.014
 2893SOL    HW1 9578   1.207   6.950   4.974
 2893SOL    HW2 9579   1.236   6.869   5.113
 2894SOL     OW 9580   3.188   2.521   0.066
 2894SOL    HW1 9581   3.193   2.515   0.165
 2894SOL    HW2 9582   3.177   2.430   0.027
 2895SOL     OW 9583   4.171   2.894   6.262
 2895SOL    HW1 9584   4.209   2.968   6.317
 2895SOL    HW2 9585   4.160   2.812   6.319
 2896SOL     OW 9586   2.727   4.949   6.621
 2896SOL    HW1 9587   2.673   5.032   6.632
 2896SOL    HW2 9588   2.780   4.932   6.704
 2897SOL     OW 9589   2.488   6.256   4.030
 2897SOL    HW1 9590   2.411   6.193   4.023
 2897SOL    HW2 9591   2.567   6.217   3.981
 2898SOL     OW 9592   4.631   4.887   2.927
 2898SOL    HW1 9593   4.558   4.903   2.860
 2898SOL    HW2 9594   4.597   4.906   3.019
 2899SOL     OW 9595   0.116   1.856   6.682
 2899SOL    HW1 9596   0.020   1.834   6.699
 2899SOL    HW2 9597   0.173   1.813   6.753
 2900SOL     OW 9598   1.334   5.143   5.263
 2900SOL    HW1 9599   1.315   5.233   5.304
 2900SOL    HW2 9600   1.424   5.112   5.294
 2901SOL     OW 9601   1.357   6.932   3.110
 2901SOL    HW1 9602   1.430   6.903   3.049
 2901SOL    HW2 9603   1.329   6.856   3.168
 2902SOL     OW 9604   5.648   6.177   0.738
 2902SOL    HW1 9605   5.574   6.160   0.803
 2902SOL    HW2 9606   5.692   6.264   0.758
 2903SOL     OW 9607   3.026   0.099   2.206
 2903SOL    HW1 9608   3.090   0.080   2.280
 2903SOL    HW2 9609   3.004   0.015   2.158
 2904SOL     OW 9610   2.453   3.294   5.336
 2904SOL    HW1 9611   2.497   3.227   5.276
 2904SOL    HW2 9612   2.377   3.250   5.385
 2905SOL     OW 9613   0.931   2.144   2.787
 2905SOL    HW1 9614   0.950   2.159   2.689
 2905SOL    HW2 9615   0.838   2.108   2.797
 2906SOL     OW 9616   5.370   4.978   2.700
 2906SOL    HW1 9617   5.303   4.905   2.699
 2906SOL    HW2 9618   5.455   4.944   2.740
 2907SOL     OW 9619   6.395   0.773   4.684
 2907SOL    HW1 9620   6.422   0.852   4.738
 2907SOL    HW2 9621   6.406   0.793   4.586
 2908SOL     OW 9622   4.184   6.593   4.159
 2908SOL    HW1 9623   4.247   6.518   4.178
 2908SOL    HW2 9624   4.194   6.664   4.228
 2909SOL     OW 9625   0.594   5.606   4.386
 2909SOL    HW1 9626   0.571   5.511   4.411
 2909SOL    HW2 9627   0.643   5.607   4.299
 2910SOL     OW 9628   4.201   6.807   4.338
 2910SOL    HW1 9629   4.239   6.875   4.402
 2910SOL    HW2 9630   4.158   6.855   4.261
 2911SOL     OW 9631   2.491   5.344   3.673
 2911SOL    HW1 9632   2.469   5.250   3.647
 2911SOL    HW2 9633   2.556   5.343   3.749
 2912SOL     OW 9634   3.512   6.309   0.094
 2912SOL    HW1 9635   3.429   6.288   0.042
 2912SOL    HW2 9636   3.512   6.257   0.180
 2913SOL     OW 9637   2.119   4.838   2.479
 2913SOL    HW1 9638   2.172   4.897   2.418
 2913SOL    HW2 9639   2.118   4.877   2.571
 2914SOL     OW 9640   5.604   5.256   6.853
 2914SOL    HW1 9641   5.519   5.296   6.887
 2914SOL    HW2 9642   5.588   5.217   6.762
 2915SOL     OW 9643   4.767   1.929   4.282
 2915SOL    HW1 9644   4.713   1.954   4.202
 2915SOL    HW2 9645   4.723   1.854   4.330
 2916SOL     OW 9646   6.403   5.006   5.833
 2916SOL    HW1 9647   6.337   4.992   5.906
 2916SOL    HW2 9648   6.423   4.919   5.788
 2917SOL     OW 9649   4.358   0.450   1.998
 2917SOL    HW1 9650   4.278   0.508   1.983
 2917SOL    HW2 9651   4.400   0.428   1.910
 2918SOL     OW 9652   0.329   3.009   3.275
 2918SOL    HW1 9653   0.230   3.013   3.267
 2918SOL    HW2 9654   0.354   2.961   3.359
 2919SOL     OW 9655   6.673   0.636   0.455
 2919SOL    HW1 9656   6.633   0.727   0.449
 2919SOL    HW2 9657   6.673   0.593   0.365
 2920SOL     OW 9658   3.868   2.096   2.500
 2920SOL    HW1 9659   3.800   2.109   2.572
 2920SOL    HW2 9660   3.951   2.056   2.539
 2921SOL     OW 9661   0.180   0.495   2.566
 2921SOL    HW1 9662   0.101   0.554   2.551
 2921SOL    HW2 9663   0.181   0.423   2.497
 2922SOL     OW 9664   5.593   6.672   6.965
 2922SOL    HW1 9665   5.663   6.713   6.907
 2922SOL    HW2 9666   5.621   6.677   0.029
 2923SOL     OW 9667   6.954   5.305   1.783
 2923SOL    HW1 9668   6.925   5.260   1.868
 2923SOL    HW2 9669   6.883   5.368   1.753
 2924SOL     OW 9670   6.896   1.875   6.237
 2924SOL    HW1 9671   6.919   1.966   6.202
 2924SOL    HW2 9672   6.934   1.806   6.176
 2925SOL     OW 9673   5.349   0.757   3.145
 2925SOL    HW1 9674   5.289   0.790   3.072
 2925SOL    HW2 9675   5.411   0.830   3.174
 2926SOL     OW 9676   6.921   1.736   5.162
 2926SOL    HW1 9677   6.836   1.771   5.199
 2926SOL    HW2 9678   6.978   1.813   5.130
 2927SOL     OW 9679   1.859   1.859   2.102
 2927SOL    HW1 9680   1.921   1.902   2.167
 2927SOL    HW2 9681   1.765   1.868   2.135
 2928SOL     OW 9682   6.361   2.260   6.434
 2928SOL    HW1 9683   6.319   2.283   6.346
 2928SOL    HW2 9684   6.383   2.344   6.484
 2929SOL     OW 9685   0.940   1.229   5.560
 2929SOL    HW1 9686   0.861   1.269   5.514
 2929SOL    HW2 9687   0.923   1.131   5.574
 2930SOL     OW 9688   4.832   6.366   4.966
 2930SOL    HW1 9689   4.791   6.393   5.053
 2930SOL    HW2 9690   4.870   6.446   4.921
 2931SOL     OW 9691   5.069   6.100   6.483
 2931SOL    HW1 9692   5.089   6.133   6.575
 2931SOL    HW2 9693   5.044   6.178   6.425
 2932SOL     OW 9694   1.629   4.979   1.890
 2932SOL    HW1 9695   1.620   4.933   1.978
 2932SOL    HW2 9696   1.725   4.975   1.861
 2933SOL     OW 9697   5.432   2.679   3.770
 2933SOL    HW1 9698   5.487   2.740   3.714
 2933SOL    HW2 9699   5.336   2.707   3.767
 2934SOL     OW 9700   3.741   1.216   0.547
 2934SOL    HW1 9701   3.830   1.257   0.569
 2934SOL    HW2 9702   3.756   1.128   0.501
 2935SOL     OW 9703   6.656   3.083   1.658
 2935SOL    HW1 9704   6.611   3.006   1.703
 2935SOL    HW2 9705   6.588   3.149   1.627
 2936SOL     OW 9706   5.054   5.670   1.379
 2936SOL    HW1 9707   5.133   5.726   1.353
 2936SOL    HW2 9708   5.073   5.624   1.466
 2937SOL     OW 9709   3.475   4.995   0.797
 2937SOL    HW1 9710   3.457   5.020   0.892
 2937SOL    HW2 9711   3.395   5.016   0.740
 2938SOL     OW 9712   4.624   4.816   5.491
 2938SOL    HW1 9713   4.561   4.742   5.519
 2938SOL    HW2 9714   4.696   4.778   5.433
 2939SOL     OW 9715   0.504   6.528   3.982
 2939SOL    HW1 9716   0.556   6.443   3.970
 2939SOL    HW2 9717   0.538   6.597   3.917
 2940SOL     OW 9718   5.937   7.022   5.367
 2940SOL    HW1 9719   6.028   0.015   5.400
 2940SOL    HW2 9720   5.946   6.961   5.288
 2941SOL     OW 9721   2.160   2.271   5.453
 2941SOL    HW1 9722   2.179   2.335   5.379
 2941SOL    HW2 9723   2.061   2.259   5.461
 2942SOL     OW 9724   2.475   0.685   2.158
 2942SOL    HW1 9725   2.444   0.625   2.084
 2942SOL    HW2 9726   2.402   0.697   2.225
 2943SOL     OW 9727   5.232   3.323   3.136
 2943SOL    HW1 9728   5.264   3.416   3.152
 2943SOL    HW2 9729   5.164   3.323   3.063
 2944SOL     OW 9730   3.050   5.411   5.630
 2944SOL    HW1 9731   3.001   5.380   5.548
 2944SOL    HW2 9732   3.134   5.458   5.603
 2945SOL     OW 9733   4.036   3.539   3.467
 2945SOL    HW1 9734   3.948   3.535   3.514
 2945SOL    HW2 9735   4.070   3.633   3.469
 2946SOL     OW 9736   6.926   5.473   5.702
 2946SOL    HW1 9737   6.834   5.479   5.740
 2946SOL    HW2 9738   6.990   5.440   5.773
 2947SOL     OW 9739   1.019   4.216   0.800
 2947SOL    HW1 9740   0.949   4.145   0.804
 2947SOL    HW2 9741   1.100   4.181   0.752
 2948SOL     OW 9742   6.477   3.797   5.391
 2948SOL    HW1 9743   6.433   3.835   5.472
 2948SOL    HW2 9744   6.576   3.795   5.404
 2949SOL     OW 9745   1.937   6.029   1.057
 2949SOL    HW1 9746   1.884   6.043   0.973
 2949SOL    HW2 9747   1.941   5.931   1.078
 2950SOL     OW 9748   5.529   3.274   4.655
 2950SOL    HW1 9749   5.584   3.215   4.597
 2950SOL    HW2 9750   5.432   3.254   4.641
 2951SOL     OW 9751   6.879   2.738   6.807
 2951SOL    HW1 9752   6.862   2.738   6.709
 2951SOL    HW2 9753   6.872   2.644   6.842
 2952SOL     OW 9754   1.773   5.029   4.687
 2952SOL    HW1 9755   1.741   4.951   4.740
 2952SOL    HW2 9756   1.695   5.077   4.647
 2953SOL     OW 9757   5.006   2.768   2.356
 2953SOL    HW1 9758   5.023   2.855   2.309
 2953SOL    HW2 9759   4.969   2.702   2.291
 2954SOL     OW 9760   1.127   5.689   1.514
 2954SOL    HW1 9761   1.125   5.672   1.415
 2954SOL    HW2 9762   1.220   5.713   1.542
 2955SOL     OW 9763   0.865   3.182   0.370
 2955SOL    HW1 9764   0.776   3.141   0.348
 2955SOL    HW2 9765   0.856   3.281   0.372
 2956SOL     OW 9766   6.788   5.867   2.708
 2956SOL    HW1 9767   6.746   5.898   2.793
 2956SOL    HW2 9768   6.884   5.895   2.706
 2957SOL     OW 9769   6.357   3.341   0.964
 2957SOL    HW1 9770   6.364   3.271   0.893
 2957SOL    HW2 9771   6.383   3.302   1.053
 2958SOL     OW 9772   2.643   4.649   4.859
 2958SOL    HW1 9773   2.628   4.748   4.853
 2958SOL    HW2 9774   2.695   4.628   4.942
 2959SOL     OW 9775   5.045   4.584   0.164
 2959SOL    HW1 9776   5.117   4.576   0.232
 2959SOL    HW2 9777   4.983   4.658   0.190
 2960SOL     OW 9778   2.717   1.022   6.703
 2960SOL    HW1 9779   2.670   0.946   6.658
 2960SOL    HW2 9780   2.665   1.049   6.784
 2961SOL     OW 9781   5.228   2.668   4.458
 2961SOL    HW1 9782   5.235   2.575   4.492
 2961SOL    HW2 9783   5.134   2.701   4.470
 2962SOL     OW 9784   4.529   0.943   3.961
 2962SOL    HW1 9785   4.584   0.885   4.022
 2962SOL    HW2 9786   4.459   0.991   4.015
 2963SOL     OW 9787   1.728   1.819   5.415
 2963SOL    HW1 9788   1.693   1.737   5.460
 2963SOL    HW2 9789   1.823   1.835   5.443
 2964SOL     OW 9790   1.339   0.379   1.727
 2964SOL    HW1 9791   1.418   0.372   1.788
 2964SOL    HW2 9792   1.361   0.334   1.640
 2965SOL     OW 9793   0.152   1.305   4.955
 2965SOL    HW1 9794   0.109   1.391   4.982
 2965SOL    HW2 9795   0.171   1.308   4.857
 2966SOL     OW 9796   5.891   4.721   4.063
 2966SOL    HW1 9797   5.823   4.775   4.014
 2966SOL    HW2 9798   5.980   4.730   4.019
 2967SOL     OW 9799   6.282   2.536   3.771
 2967SOL    HW1 9800   6.265   2.463   3.705
 2967SOL    HW2 9801   6.208   2.538   3.838
 2968SOL     OW 9802   0.951   4.326   5.837
 2968SOL    HW1 9803   0.888   4.271   5.782
 2968SOL    HW2 9804   1.003   4.266   5.898
 2969SOL     OW 9805   5.710   0.993   5.163
 2969SOL    HW1 9806   5.771   1.051   5.217
 2969SOL    HW2 9807   5.700   1.031   5.071
 2970SOL     OW 9808   1.241   4.023   0.083
 2970SOL    HW1 9809   1.299   4.097   0.118
 2970SOL    HW2 9810   1.161   4.013   0.142
 2971SOL     OW 9811   5.276   2.779   4.909
 2971SOL    HW1 9812   5.295   2.689   4.871
 2971SOL    HW2 9813   5.181   2.805   4.888
 2972SOL     OW 9814   6.510   4.882   6.269
 2972SOL    HW1 9815   6.429   4.926   6.308
 2972SOL    HW2 9816   6.588   4.944   6.276
 2973SOL     OW 9817   5.710   0.954   4.563
 2973SOL    HW1 9818   5.765   0.871   4.551
 2973SOL    HW2 9819   5.621   0.929   4.601
 2974SOL     OW 9820   6.944   3.763   3.375
 2974SOL    HW1 9821   6.944   3.698   3.451
 2974SOL    HW2 9822   7.007   3.838   3.395
 2975SOL     OW 9823   0.611   2.316   5.166
 2975SOL    HW1 9824   0.516   2.331   5.192
 2975SOL    HW2 9825   0.657   2.403   5.154
 2976SOL     OW 9826   3.843   1.469   2.658
 2976SOL    HW1 9827   3.748   1.459   2.686
 2976SOL    HW2 9828   3.869   1.390   2.601
 2977SOL     OW 9829   1.881   0.345   4.507
 2977SOL    HW1 9830   1.931   0.295   4.436
 2977SOL    HW2 9831   1.879   0.291   4.591
 2978SOL     OW 9832   4.446   4.825   6.784
 2978SOL    HW1 9833   4.535   4.811   6.741
 2978SOL    HW2 9834   4.428   4.923   6.791
 2979SOL     OW 9835   4.390   6.780   4.067
 2979SOL    HW1 9836   4.438   6.805   4.151
 2979SOL    HW2 9837   4.337   6.696   4.083
 2980SOL     OW 9838   1.655   6.070   3.882
 2980SOL    HW1 9839   1.730   6.031   3.935
 2980SOL    HW2 9840   1.600   5.996   3.842
 2981SOL     OW 9841   0.890   6.866   6.363
 2981SOL    HW1 9842   0.959   6.908   6.422
 2981SOL    HW2 9843   0.801   6.870   6.407
 2982SOL     OW 9844   4.702   6.242   3.115
 2982SOL    HW1 9845   4.629   6.174   3.105
 2982SOL    HW2 9846   4.775   6.205   3.173
 2983SOL     OW 9847   1.177   0.790   4.136
 2983SOL    HW1 9848   1.204   0.701   4.171
 2983SOL    HW2 9849   1.195   0.795   4.037
 2984SOL     OW 9850   4.680   5.830   1.434
 2984SOL    HW1 9851   4.619   5.901   1.401
 2984SOL    HW2 9852   4.773   5.866   1.441
 2985SOL     OW 9853   0.842   2.356   4.384
 2985SOL    HW1 9854   0.879   2.285   4.324
 2985SOL    HW2 9855   0.793   2.424   4.329
 2986SOL     OW 9856   2.069   4.129   6.436
 2986SOL    HW1 9857   2.159   4.115   6.477
 2986SOL    HW2 9858   2.073   4.208   6.375
 2987SOL     OW 9859   5.021   0.834   3.758
 2987SOL    HW1 9860   5.042   0.876   3.670
 2987SOL    HW2 9861   4.993   0.739   3.744
 2988SOL     OW 9862   0.270   6.763   2.447
 2988SOL    HW1 9863   0.194   6.824   2.471
 2988SOL    HW2 9864   0.238   6.694   2.382
 2989SOL     OW 9865   6.319   6.051   0.947
 2989SOL    HW1 9866   6.247   5.986   0.924
 2989SOL    HW2 9867   6.361   6.025   1.034
 2990SOL     OW 9868   4.313   1.092   3.412
 2990SOL    HW1 9869   4.297   0.993   3.414
 2990SOL    HW2 9870   4.226   1.140   3.426
 2991SOL     OW 9871   6.655   3.636   0.463
 2991SOL    HW1 9872   6.697   3.704   0.403
 2991SOL    HW2 9873   6.705   3.549   0.454
 2992SOL     OW 9874   1.999   5.374   5.774
 2992SOL    HW1 9875   1.904   5.344   5.773
 2992SOL    HW2 9876   2.039   5.355   5.864
 2993SOL     OW 9877   1.425   4.620   2.069
 2993SOL    HW1 9878   1.383   4.628   1.978
 2993SOL    HW2 9879   1.405   4.703   2.122
 2994SOL     OW 9880   4.086   1.092   0.484
 2994SOL    HW1 9881   4.100   1.089   0.385
 2994SOL    HW2 9882   4.060   1.185   0.511
 2995SOL     OW 9883   1.136   3.035   6.945
 2995SOL    HW1 9884   1.162   3.010   6.852
 2995SOL    HW2 9885   1.049   3.085   6.944
 2996SOL     OW 9886   3.418   6.341   4.561
 2996SOL    HW1 9887   3.326   6.377   4.576
 2996SOL    HW2 9888   3.482   6.384   4.624
 2997SOL     OW 9889   5.076   6.329   1.959
 2997SOL    HW1 9890   5.084   6.252   2.023
 2997SOL    HW2 9891   5.136   6.403   1.989
 2998SOL     OW 9892   5.032   6.047   5.104
 2998SOL    HW1 9893   5.028   6.111   5.181
 2998SOL    HW2 9894   4.948   5.993   5.102
 2999SOL     OW 9895   3.670   6.132   4.092
 2999SOL    HW1 9896   3.620   6.048   4.072
 2999SOL    HW2 9897   3.689   6.136   4.190
 3000SOL     OW 9898   1.332   4.047   6.283
 3000SOL    HW1 9899   1.374   4.128   6.243
 3000SOL    HW2 9900   1.389   4.013   6.358
 3001SOL     OW 9901   5.512   0.326   6.973
 3001SOL    HW1 9902   5.566   0.410   6.978
 3001SOL    HW2 9903   5.550   0.266   6.903
 3002SOL     OW 9904   4.172   0.402   5.586
 3002SOL    HW1 9905   4.132   0.339   5.653
 3002SOL    HW2 9906   4.174   0.494   5.624
 3003SOL     OW 9907   2.760   6.124   0.015
 3003SOL    HW1 9908   2.771   6.046   6.985
 3003SOL    HW2 9909   2.737   6.206   6.993
 3004SOL     OW 9910   6.640   4.784   4.028
 3004SOL    HW1 9911   6.659   4.749   3.936
 3004SOL    HW2 9912   6.725   4.782   4.082
 3005SOL     OW 9913   3.520   2.875   1.001
 3005SOL    HW1 9914   3.519   2.960   0.947
 3005SOL    HW2 9915   3.474   2.891   1.089
 3006SOL     OW 9916   6.429   2.484   0.434
 3006SOL    HW1 9917   6.475   2.410   0.386
 3006SOL    HW2 9918   6.497   2.540   0.481
 3007SOL     OW 9919   6.163   5.159   2.460
 3007SOL    HW1 9920   6.116   5.243   2.490
 3007SOL    HW2 9921   6.097   5.084   2.456
 3008SOL     OW 9922   3.829   0.343   6.430
 3008SOL    HW1 9923   3.848   0.396   6.347
 3008SOL    HW2 9924   3.900   0.274   6.441
 3009SOL     OW 9925   0.689   6.596   2.350
 3009SOL    HW1 9926   0.678   6.665   2.422
 3009SOL    HW2 9927   0.775   6.546   2.366
 3010SOL     OW 9928   3.829   5.541   3.389
 3010SOL    HW1 9929   3.895   5.501   3.452
 3010SOL    HW2 9930   3.740   5.546   3.433
 3011SOL     OW 9931   5.677   1.133   6.915
 3011SOL    HW1 9932   5.720   1.096   6.998
 3011SOL    HW2 9933   5.608   1.070   6.882
 3012SOL     OW 9934   0.917   3.858   5.000
 3012SOL    HW1 9935   0.866   3.941   4.977
 3012SOL    HW2 9936   1.001   3.854   4.946
 3013SOL     OW 9937   5.273   5.652   3.958
 3013SOL    HW1 9938   5.347   5.622   3.898
 3013SOL    HW2 9939   5.308   5.718   4.024
 3014SOL     OW 9940   4.912   2.567   3.815
 3014SOL    HW1 9941   4.980   2.494   3.828
 3014SOL    HW2 9942   4.828   2.544   3.864
 3015SOL     OW 9943   3.616   2.471   0.684
 3015SOL    HW1 9944   3.615   2.374   0.707
 3015SOL    HW2 9945   3.674   2.486   0.604
 3016SOL     OW 9946   3.485   5.993   4.666
 3016SOL    HW1 9947   3.531   5.906   4.649
 3016SOL    HW2 9948   3.445   6.027   4.581
 3017SOL     OW 9949   1.187   5.380   1.157
 3017SOL    HW1 9950   1.178   5.281   1.157
 3017SOL    HW2 9951   1.284   5.405   1.166
 3018SOL     OW 9952   3.197   6.787   6.375
 3018SOL    HW1 9953   3.141   6.825   6.302
 3018SOL    HW2 9954   3.177   6.835   6.461
 3019SOL     OW 9955   2.765   6.562   1.079
 3019SOL    HW1 9956   2.696   6.616   1.127
 3019SOL    HW2 9957   2.779   6.600   0.987
 3020SOL     OW 9958   3.702   3.736   1.429
 3020SOL    HW1 9959   3.703   3.643   1.467
 3020SOL    HW2 9960   3.769   3.742   1.355
 3021SOL     OW 9961   2.447   1.538   0.441
 3021SOL    HW1 9962   2.525   1.519   0.381
 3021SOL    HW2 9963   2.374   1.471   0.421
 3022SOL     OW 9964   4.092   6.264   2.623
 3022SOL    HW1 9965   4.041   6.297   2.702
 3022SOL    HW2 9966   4.062   6.312   2.541
 3023SOL     OW 9967   3.529   6.467   2.944
 3023SOL    HW1 9968   3.474   6.548   2.928
 3023SOL    HW2 9969   3.475   6.399   2.994
 3024SOL     OW 9970   3.177   0.509   6.652
 3024SOL    HW1 9971   3.227   0.569   6.714
 3024SOL    HW2 9972   3.242   0.454   6.598
 3025SOL     OW 9973   3.427   2.600   0.466
 3025SOL    HW1 9974   3.458   2.618   0.559
 3025SOL    HW2 9975   3.437   2.683   0.410
 3026SOL     OW 9976   1.235   3.065   0.785
 3026SOL    HW1 9977   1.147   3.074   0.833
 3026SOL    HW2 9978   1.244   3.139   0.718
 3027SOL     OW 9979   3.794   1.053   1.769
 3027SOL    HW1 9980   3.749   0.992   1.703
 3027SOL    HW2 9981   3.835   1.130   1.721
 3028SOL     OW 9982   1.440   4.362   6.535
 3028SOL    HW1 9983   1.354   4.390   6.579
 3028SOL    HW2 9984   1.515   4.418   6.571
 3029SOL     OW 9985   6.981   5.222   4.653
 3029SOL    HW1 9986   6.953   5.282   4.728
 3029SOL    HW2 9987   6.900   5.196   4.600
 3030SOL     OW 9988   0.388   2.043   5.579
 3030SOL    HW1 9989   0.461   2.094   5.624
 3030SOL    HW2 9990   0.428   1.966   5.528
 3031SOL     OW 9991   0.496   3.815   0.740
 3031SOL    HW1 9992   0.575   3.795   0.683
 3031SOL    HW2 9993   0.474   3.734   0.796
 3032SOL     OW 9994   5.391   0.649   0.545
 3032SOL    HW1 9995   5.472   0.691   0.586
 3032SOL    HW2 9996   5.389   0.670   0.448
 3033SOL     OW 9997   0.909   2.935   0.805
 3033SOL    HW1 9998   0.912   2.836   0.786
 3033SOL    HW2 9999   0.877   2.983   0.724
 3034SOL     OW10000   2.307   6.053   4.027
 3034SOL    HW110001   2.275   5.981   4.090
 3034SOL    HW210002   2.295   6.023   3.933
 3035SOL     OW10003   0.234   3.085   0.683
 3035SOL    HW110004   0.286   3.103   0.766
 3035SOL    HW210005   0.137   3.076   0.706
 3036SOL     OW10006   1.502   3.359   6.731
 3036SOL    HW110007   1.513   3.428   6.802
 3036SOL    HW210008   1.509   3.267   6.772
 3037SOL     OW10009   6.316   5.923   4.815
 3037SOL    HW110010   6.230   5.898   4.862
 3037SOL    HW210011   6.315   6.020   4.792
 3038SOL     OW10012   5.754   6.802   6.444
 3038SOL    HW110013   5.788   6.894   6.462
 3038SOL    HW210014   5.748   6.788   6.345
 3039SOL     OW10015   6.857   3.823   2.434
 3039SOL    HW110016   6.894   3.833   2.342
 3039SOL    HW210017   6.801   3.739   2.438
 3040SOL     OW10018   4.812   4.177   6.291
 3040SOL    HW110019   4.894   4.120   6.291
 3040SOL    HW210020   4.829   4.259   6.346
 3041SOL     OW10021   1.868   2.451   5.596
 3041SOL    HW110022   1.825   2.450   5.505
 3041SOL    HW210023   1.863   2.544   5.633
 3042SOL     OW10024   4.937   6.216   1.765
 3042SOL    HW110025   4.968   6.283   1.832
 3042SOL    HW210026   4.943   6.256   1.673
 3043SOL     OW10027   0.629   5.505   0.688
 3043SOL    HW110028   0.655   5.426   0.633
 3043SOL    HW210029   0.594   5.474   0.777
 3044SOL     OW10030   3.051   4.646   6.139
 3044SOL    HW110031   2.987   4.694   6.079
 3044SOL    HW210032   3.021   4.653   6.234
 3045SOL     OW10033   4.795   0.425   2.172
 3045SOL    HW110034   4.827   0.456   2.261
 3045SOL    HW210035   4.707   0.467   2.151
 3046SOL     OW10036   1.589   2.376   5.644
 3046SOL    HW110037   1.671   2.354   5.695
 3046SOL    HW210038   1.511   2.327   5.683
 3047SOL     OW10039   4.951   5.744   2.173
 3047SOL    HW110040   4.970   5.794   2.089
 3047SOL    HW210041   4.922   5.651   2.150
 3048SOL     OW10042   3.336   3.220   1.283
 3048SOL    HW110043   3.288   3.157   1.345
 3048SOL    HW210044   3.269   3.279   1.237
 3049SOL     OW10045   1.013   5.925   1.203
 3049SOL    HW110046   0.960   5.962   1.279
 3049SOL    HW210047   1.065   5.846   1.235
 3050SOL     OW10048   3.526   0.564   3.478
 3050SOL    HW110049   3.470   0.552   3.560
 3050SOL    HW210050   3.616   0.522   3.492
 3051SOL     OW10051   2.682   3.618   0.102
 3051SOL    HW110052   2.722   3.526   0.095
 3051SOL    HW210053   2.727   3.668   0.175
 3052SOL     OW10054   4.398   0.812   2.246
 3052SOL    HW110055   4.347   0.838   2.164
 3052SOL    HW210056   4.454   0.731   2.227
 3053SOL     OW10057   6.384   0.727   6.691
 3053SOL    HW110058   6.285   0.710   6.696
 3053SOL    HW210059   6.429   0.685   6.770
 3054SOL     OW10060   0.622   2.831   0.513
 3054SOL    HW110061   0.675   2.761   0.560
 3054SOL    HW210062   0.654   2.840   0.419
 3055SOL     OW10063   4.906   0.218   3.670
 3055SOL    HW110064   4.839   0.285   3.638
 3055SOL    HW210065   4.906   0.139   3.609
 3056SOL     OW10066   0.346   0.381   6.752
 3056SOL    HW110067   0.394   0.408   6.668
 3056SOL    HW210068   0.249   0.403   6.743
 3057SOL     OW10069   4.425   5.501   3.115
 3057SOL    HW110070   4.512   5.542   3.086
 3057SOL    HW210071   4.361   5.502   3.038
 3058SOL     OW10072   6.721   5.664   1.319
 3058SOL    HW110073   6.798   5.676   1.382
 3058SOL    HW210074   6.756   5.644   1.228
 3059SOL     OW10075   1.621   2.771   5.153
 3059SOL    HW110076   1.682   2.735   5.082
 3059SOL    HW210077   1.540   2.713   5.159
 3060SOL     OW10078   0.261   6.081   0.088
 3060SOL    HW110079   0.280   5.983   0.095
 3060SOL    HW210080   0.234   6.103   7.026
 3061SOL     OW10081   6.907   1.037   4.891
 3061SOL    HW110082   7.001   1.019   4.862
 3061SOL    HW210083   6.886   0.979   4.970
 3062SOL     OW10084   1.603   6.884   0.398
 3062SOL    HW110085   1.564   6.837   0.319
 3062SOL    HW210086   1.645   6.817   0.460
 3063SOL     OW10087   2.462   5.246   1.918
 3063SOL    HW110088   2.542   5.205   1.961
 3063SOL    HW210089   2.459   5.222   1.821
 3064SOL     OW10090   6.012   3.259   3.643
 3064SOL    HW110091   6.098   3.257   3.593
 3064SOL    HW210092   6.030   3.260   3.742
 3065SOL     OW10093   2.024   0.415   6.529
 3065SOL    HW110094   2.067   0.354   6.462
 3065SOL    HW210095   1.967   0.482   6.481
 3066SOL     OW10096   5.590   4.445   0.598
 3066SOL    HW110097   5.516   4.450   0.665
 3066SOL    HW210098   5.571   4.508   0.522
 3067SOL     OW10099   3.386   1.375   4.406
 3067SOL    HW110100   3.304   1.333   4.367
 3067SOL    HW210101   3.448   1.401   4.333
 3068SOL     OW10102   5.380   5.910   0.509
 3068SOL    HW110103   5.419   5.821   0.531
 3068SOL    HW210104   5.454   5.977   0.499
 3069SOL     OW10105   6.630   5.740   1.629
 3069SOL    HW110106   6.612   5.688   1.546
 3069SOL    HW210107   6.577   5.825   1.627
 3070SOL     OW10108   2.119   0.855   1.919
 3070SOL    HW110109   2.141   0.783   1.853
 3070SOL    HW210110   2.019   0.860   1.931
 3071SOL     OW10111   6.207   6.728   3.724
 3071SOL    HW110112   6.238   6.759   3.814
 3071SOL    HW210113   6.253   6.782   3.653
 3072SOL     OW10114   0.951   6.212   0.886
 3072SOL    HW110115   0.947   6.130   0.828
 3072SOL    HW210116   0.861   6.256   0.888
 3073SOL     OW10117   0.803   3.370   5.036
 3073SOL    HW110118   0.793   3.337   4.942
 3073SOL    HW210119   0.893   3.344   5.071
 3074SOL     OW10120   5.758   2.987   0.918
 3074SOL    HW110121   5.714   3.042   0.990
 3074SOL    HW210122   5.705   2.904   0.902
 3075SOL     OW10123   1.807   6.034   1.316
 3075SOL    HW110124   1.856   6.043   1.229
 3075SOL    HW210125   1.710   6.016   1.298
 3076SOL     OW10126   6.477   0.803   4.141
 3076SOL    HW110127   6.440   0.760   4.223
 3076SOL    HW210128   6.523   0.888   4.165
 3077SOL     OW10129   5.146   4.545   2.558
 3077SOL    HW110130   5.219   4.612   2.542
 3077SOL    HW210131   5.086   4.542   2.478
 3078SOL     OW10132   1.955   3.548   0.999
 3078SOL    HW110133   1.942   3.645   1.021
 3078SOL    HW210134   1.885   3.494   1.045
 3079SOL     OW10135   1.906   2.640   4.496
 3079SOL    HW110136   1.990   2.590   4.476
 3079SOL    HW210137   1.893   2.645   4.595
 3080SOL     OW10138   5.871   4.714   2.544
 3080SOL    HW110139   5.929   4.637   2.518
 3080SOL    HW210140   5.839   4.702   2.639
 3081SOL     OW10141   0.709   4.664   6.171
 3081SOL    HW110142   0.750   4.731   6.233
 3081SOL    HW210143   0.734   4.572   6.202
 3082SOL     OW10144   3.811   6.906   3.505
 3082SOL    HW110145   3.908   6.883   3.509
 3082SOL    HW210146   3.759   6.841   3.562
 3083SOL     OW10147   4.022   6.769   3.087
 3083SOL    HW110148   4.008   6.741   2.992
 3083SOL    HW210149   3.941   6.745   3.140
 3084SOL     OW10150   4.659   4.793   4.689
 3084SOL    HW110151   4.716   4.786   4.607
 3084SOL    HW210152   4.641   4.701   4.724
 3085SOL     OW10153   0.321   4.638   2.764
 3085SOL    HW110154   0.342   4.608   2.857
 3085SOL    HW210155   0.387   4.599   2.700
 3086SOL     OW10156   4.254   1.670   1.361
 3086SOL    HW110157   4.175   1.729   1.343
 3086SOL    HW210158   4.247   1.632   1.453
 3087SOL     OW10159   0.431   4.919   3.992
 3087SOL    HW110160   0.521   4.900   3.953
 3087SOL    HW210161   0.383   4.985   3.934
 3088SOL     OW10162   2.526   4.888   5.586
 3088SOL    HW110163   2.589   4.948   5.636
 3088SOL    HW210164   2.489   4.819   5.648
 3089SOL     OW10165   0.923   2.869   0.112
 3089SOL    HW110166   1.018   2.842   0.093
 3089SOL    HW210167   0.908   2.962   0.079
 3090SOL     OW10168   1.740   1.738   1.588
 3090SOL    HW110169   1.781   1.816   1.635
 3090SOL    HW210170   1.687   1.684   1.653
 3091SOL     OW10171   2.839   6.259   0.413
 3091SOL    HW110172   2.801   6.167   0.400
 3091SOL    HW210173   2.833   6.310   0.328
 3092SOL     OW10174   5.197   0.462   6.935
 3092SOL    HW110175   5.129   0.403   6.891
 3092SOL    HW210176   5.190   0.453   0.003
 3093SOL     OW10177   5.480   5.101   5.669
 3093SOL    HW110178   5.525   5.015   5.695
 3093SOL    HW210179   5.486   5.166   5.744
 3094SOL     OW10180   3.356   0.069   5.038
 3094SOL    HW110181   3.351   7.018   5.093
 3094SOL    HW210182   3.264   0.093   5.006
 3095SOL     OW10183   2.763   4.896   4.269
 3095SOL    HW110184   2.706   4.884   4.350
 3095SOL    HW210185   2.737   4.981   4.223
 3096SOL     OW10186   0.612   0.430   4.368
 3096SOL    HW110187   0.637   0.461   4.276
 3096SOL    HW210188   0.524   0.471   4.394
 3097SOL     OW10189   0.956   2.642   0.777
 3097SOL    HW110190   0.895   2.588   0.834
 3097SOL    HW210191   0.936   2.625   0.680
 3098SOL     OW10192   2.232   3.473   1.458
 3098SOL    HW110193   2.293   3.396   1.477
 3098SOL    HW210194   2.231   3.536   1.536
 3099SOL     OW10195   6.968   5.876   4.885
 3099SOL    HW110196   0.019   5.828   4.855
 3099SOL    HW210197   6.993   5.963   4.927
 3100SOL     OW10198   6.719   0.312   4.596
 3100SOL    HW110199   6.776   0.361   4.530
 3100SOL    HW210200   6.737   0.347   4.688
 3101SOL     OW10201   4.666   6.110   5.337
 3101SOL    HW110202   4.616   6.168   5.272
 3101SOL    HW210203   4.752   6.155   5.362
 3102SOL     OW10204   1.321   4.859   2.102
 3102SOL    HW110205   1.260   4.908   2.040
 3102SOL    HW210206   1.408   4.909   2.110
 3103SOL     OW10207   3.197   1.788   1.407
 3103SOL    HW110208   3.114   1.787   1.352
 3103SOL    HW210209   3.186   1.852   1.483
 3104SOL     OW10210   6.015   6.969   4.258
 3104SOL    HW110211   5.948   6.979   4.184
 3104SOL    HW210212   6.018   0.021   4.312
 3105SOL     OW10213   6.362   5.287   3.316
 3105SOL    HW110214   6.415   5.246   3.241
 3105SOL    HW210215   6.424   5.312   3.391
 3106SOL     OW10216   6.807   1.431   2.953
 3106SOL    HW110217   6.819   1.498   3.026
 3106SOL    HW210218   6.733   1.369   2.977
 3107SOL     OW10219   3.534   0.327   4.409
 3107SOL    HW110220   3.495   0.280   4.488
 3107SOL    HW210221   3.498   0.420   4.404
 3108SOL     OW10222   1.826   0.617   4.565
 3108SOL    HW110223   1.909   0.644   4.614
 3108SOL    HW210224   1.830   0.519   4.545
 3109SOL     OW10225   5.920   5.836   2.900
 3109SOL    HW110226   5.901   5.922   2.949
 3109SOL    HW210227   5.961   5.857   2.811
 3110SOL     OW10228   1.255   1.686   3.791
 3110SOL    HW110229   1.247   1.605   3.733
 3110SOL    HW210230   1.311   1.664   3.871
 3111SOL     OW10231   6.634   5.658   4.102
 3111SOL    HW110232   6.687   5.672   4.018
 3111SOL    HW210233   6.564   5.728   4.110
 3112SOL     OW10234   5.138   2.706   5.933
 3112SOL    HW110235   5.041   2.727   5.922
 3112SOL    HW210236   5.151   2.654   6.018
 3113SOL     OW10237   2.088   0.154   4.463
 3113SOL    HW110238   2.182   0.146   4.428
 3113SOL    HW210239   2.083   0.111   4.553
 3114SOL     OW10240   4.810   3.377   0.064
 3114SOL    HW110241   4.896   3.361   0.014
 3114SOL    HW210242   4.735   3.335   0.013
 3115SOL     OW10243   4.931   3.439   0.336
 3115SOL    HW110244   4.887   3.417   0.249
 3115SOL    HW210245   5.000   3.509   0.322
 3116SOL     OW10246   0.631   4.073   6.957
 3116SOL    HW110247   0.557   4.006   6.962
 3116SOL    HW210248   0.628   4.119   6.868
 3117SOL     OW10249   4.513   3.779   5.329
 3117SOL    HW110250   4.417   3.769   5.303
 3117SOL    HW210251   4.570   3.727   5.266
 3118SOL     OW10252   6.827   4.647   6.916
 3118SOL    HW110253   6.792   4.710   6.985
 3118SOL    HW210254   6.832   4.555   6.954
 3119SOL     OW10255   1.741   3.888   5.390
 3119SOL    HW110256   1.752   3.875   5.291
 3119SOL    HW210257   1.795   3.819   5.439
 3120SOL     OW10258   2.403   6.265   4.496
 3120SOL    HW110259   2.372   6.327   4.568
 3120SOL    HW210260   2.358   6.176   4.507
 3121SOL     OW10261   0.888   1.159   2.077
 3121SOL    HW110262   0.880   1.116   2.167
 3121SOL    HW210263   0.957   1.231   2.081
 3122SOL     OW10264   3.573   5.917   6.051
 3122SOL    HW110265   3.560   5.862   6.134
 3122SOL    HW210266   3.500   5.895   5.986
 3123SOL     OW10267   3.733   6.404   4.042
 3123SOL    HW110268   3.719   6.315   4.084
 3123SOL    HW210269   3.663   6.419   3.972
 3124SOL     OW10270   3.879   0.536   5.187
 3124SOL    HW110271   3.850   0.452   5.143
 3124SOL    HW210272   3.951   0.516   5.254
 3125SOL     OW10273   6.171   2.091   6.217
 3125SOL    HW110274   6.096   2.057   6.160
 3125SOL    HW210275   6.191   2.186   6.193
 3126SOL     OW10276   4.962   4.817   6.838
 3126SOL    HW110277   5.043   4.805   6.895
 3126SOL    HW210278   4.942   4.914   6.827
 3127SOL     OW10279   0.568   2.588   2.683
 3127SOL    HW110280   0.609   2.502   2.715
 3127SOL    HW210281   0.553   2.583   2.584
 3128SOL     OW10282   1.586   0.385   0.386
 3128SOL    HW110283   1.649   0.402   0.462
 3128SOL    HW210284   1.629   0.323   0.320
 3129SOL     OW10285   0.634   4.374   6.446
 3129SOL    HW110286   0.703   4.331   6.388
 3129SOL    HW210287   0.562   4.412   6.388
 3130SOL     OW10288   2.541   4.530   2.641
 3130SOL    HW110289   2.628   4.577   2.622
 3130SOL    HW210290   2.487   4.585   2.705
 3131SOL     OW10291   0.919   2.939   2.252
 3131SOL    HW110292   0.944   2.945   2.155
 3131SOL    HW210293   1.002   2.934   2.308
 3132SOL     OW10294   5.388   6.172   5.485
 3132SOL    HW110295   5.463   6.167   5.551
 3132SOL    HW210296   5.337   6.086   5.486
 3133SOL     OW10297   2.701   2.132   3.991
 3133SOL    HW110298   2.712   2.214   3.935
 3133SOL    HW210299   2.645   2.154   4.071
 3134SOL     OW10300   5.694   3.790   1.788
 3134SOL    HW110301   5.628   3.772   1.715
 3134SOL    HW210302   5.671   3.876   1.833
 3135SOL     OW10303   4.486   2.086   4.481
 3135SOL    HW110304   4.425   2.009   4.463
 3135SOL    HW210305   4.572   2.052   4.521
 3136SOL     OW10306   6.039   6.334   5.542
 3136SOL    HW110307   6.103   6.299   5.473
 3136SOL    HW210308   5.948   6.342   5.502
 3137SOL     OW10309   5.318   0.768   3.777
 3137SOL    HW110310   5.249   0.837   3.753
 3137SOL    HW210311   5.312   0.692   3.713
 3138SOL     OW10312   6.472   1.667   4.441
 3138SOL    HW110313   6.433   1.576   4.457
 3138SOL    HW210314   6.538   1.688   4.512
 3139SOL     OW10315   5.044   7.018   6.493
 3139SOL    HW110316   5.033   0.077   6.452
 3139SOL    HW210317   5.092   6.958   6.429
 3140SOL     OW10318   6.527   5.678   6.164
 3140SOL    HW110319   6.568   5.768   6.179
 3140SOL    HW210320   6.472   5.680   6.081
 3141SOL     OW10321   0.951   6.613   6.341
 3141SOL    HW110322   0.920   6.571   6.255
 3141SOL    HW210323   0.919   6.708   6.345
 3142SOL     OW10324   4.987   6.666   0.390
 3142SOL    HW110325   4.978   6.591   0.324
 3142SOL    HW210326   4.982   6.629   0.483
 3143SOL     OW10327   6.937   2.408   6.840
 3143SOL    HW110328   7.018   2.442   6.888
 3143SOL    HW210329   6.958   2.398   6.743
 3144SOL     OW10330   2.642   3.688   0.997
 3144SOL    HW110331   2.717   3.702   1.062
 3144SOL    HW210332   2.631   3.590   0.980
 3145SOL     OW10333   2.317   5.670   2.822
 3145SOL    HW110334   2.234   5.653   2.769
 3145SOL    HW210335   2.295   5.725   2.903
 3146SOL     OW10336   1.114   6.079   3.386
 3146SOL    HW110337   1.157   6.019   3.453
 3146SOL    HW210338   1.017   6.055   3.376
 3147SOL     OW10339   4.262   5.447   6.715
 3147SOL    HW110340   4.346   5.493   6.743
 3147SOL    HW210341   4.271   5.349   6.731
 3148SOL     OW10342   4.204   5.606   4.446
 3148SOL    HW110343   4.275   5.625   4.379
 3148SOL    HW210344   4.140   5.539   4.408
 3149SOL     OW10345   3.086   0.108   5.668
 3149SOL    HW110346   3.181   0.134   5.685
 3149SOL    HW210347   3.024   0.173   5.712
 3150SOL     OW10348   5.353   6.248   4.366
 3150SOL    HW110349   5.435   6.210   4.408
 3150SOL    HW210350   5.273   6.221   4.421
 3151SOL     OW10351   4.739   1.633   6.284
 3151SOL    HW110352   4.823   1.640   6.338
 3151SOL    HW210353   4.685   1.716   6.296
 3152SOL     OW10354   1.215   5.108   1.777
 3152SOL    HW110355   1.116   5.101   1.781
 3152SOL    HW210356   1.240   5.200   1.745
 3153SOL     OW10357   6.448   4.262   1.909
 3153SOL    HW110358   6.430   4.169   1.878
 3153SOL    HW210359   6.546   4.278   1.911
 3154SOL     OW10360   6.530   2.028   0.227
 3154SOL    HW110361   6.522   1.995   0.133
 3154SOL    HW210362   6.438   2.039   0.265
 3155SOL     OW10363   0.386   5.035   1.774
 3155SOL    HW110364   0.424   5.104   1.712
 3155SOL    HW210365   0.397   4.944   1.733
 3156SOL     OW10366   4.026   3.171   4.234
 3156SOL    HW110367   3.987   3.149   4.144
 3156SOL    HW210368   3.984   3.113   4.304
 3157SOL     OW10369   1.299   2.787   4.577
 3157SOL    HW110370   1.376   2.794   4.512
 3157SOL    HW210371   1.234   2.720   4.543
 3158SOL     OW10372   4.802   0.333   1.507
 3158SOL    HW110373   4.893   0.349   1.467
 3158SOL    HW210374   4.733   0.341   1.435
 3159SOL     OW10375   4.913   6.463   0.198
 3159SOL    HW110376   4.815   6.452   0.213
 3159SOL    HW210377   4.929   6.519   0.118
 3160SOL     OW10378   6.258   4.916   6.072
 3160SOL    HW110379   6.337   4.854   6.076
 3160SOL    HW210380   6.258   4.974   6.153
 3161SOL     OW10381   1.251   1.577   2.778
 3161SOL    HW110382   1.227   1.671   2.753
 3161SOL    HW210383   1.350   1.564   2.771
 3162SOL     OW10384   0.076   5.404   0.142
 3162SOL    HW110385   0.169   5.440   0.141
 3162SOL    HW210386   0.046   5.393   0.237
 3163SOL     OW10387   3.702   2.877   6.082
 3163SOL    HW110388   3.794   2.840   6.089
 3163SOL    HW210389   3.705   2.963   6.030
 3164SOL     OW10390   4.986   4.283   1.837
 3164SOL    HW110391   4.912   4.237   1.886
 3164SOL    HW210392   4.978   4.382   1.850
 3165SOL     OW10393   1.533   6.711   1.944
 3165SOL    HW110394   1.481   6.728   2.028
 3165SOL    HW210395   1.477   6.733   1.865
 3166SOL     OW10396   5.252   2.951   6.017
 3166SOL    HW110397   5.198   2.867   6.010
 3166SOL    HW210398   5.347   2.930   5.994
 3167SOL     OW10399   6.419   4.717   1.677
 3167SOL    HW110400   6.406   4.803   1.628
 3167SOL    HW210401   6.330   4.683   1.707
 3168SOL     OW10402   5.275   2.689   0.774
 3168SOL    HW110403   5.369   2.677   0.742
 3168SOL    HW210404   5.270   2.768   0.835
 3169SOL     OW10405   0.903   3.396   5.682
 3169SOL    HW110406   0.875   3.315   5.734
 3169SOL    HW210407   0.851   3.476   5.713
 3170SOL     OW10408   3.547   0.210   0.322
 3170SOL    HW110409   3.629   0.156   0.302
 3170SOL    HW210410   3.497   0.169   0.398
 3171SOL     OW10411   6.392   6.805   1.507
 3171SOL    HW110412   6.379   6.902   1.528
 3171SOL    HW210413   6.419   6.795   1.411
 3172SOL     OW10414   6.820   6.160   4.921
 3172SOL    HW110415   6.814   6.123   4.828
 3172SOL    HW210416   6.728   6.166   4.960
 3173SOL     OW10417   2.439   0.641   2.481
 3173SOL    HW110418   2.479   0.723   2.442
 3173SOL    HW210419   2.367   0.666   2.545
 3174SOL     OW10420   2.470   3.319   6.049
 3174SOL    HW110421   2.395   3.297   5.986
 3174SOL    HW210422   2.538   3.375   6.001
 3175SOL     OW10423   1.047   6.415   6.711
 3175SOL    HW110424   1.018   6.388   6.803
 3175SOL    HW210425   0.970   6.459   6.664
 3176SOL     OW10426   1.752   4.558   6.171
 3176SOL    HW110427   1.657   4.559   6.142
 3176SOL    HW210428   1.758   4.520   6.264
 3177SOL     OW10429   5.508   5.282   5.904
 3177SOL    HW110430   5.469   5.276   5.996
 3177SOL    HW210431   5.601   5.245   5.905
 3178SOL     OW10432   0.265   4.138   1.759
 3178SOL    HW110433   0.190   4.129   1.824
 3178SOL    HW210434   0.328   4.061   1.770
 3179SOL     OW10435   1.644   2.087   1.901
 3179SOL    HW110436   1.632   2.156   1.829
 3179SOL    HW210437   1.593   2.115   1.982
 3180SOL     OW10438   4.385   1.111   5.880
 3180SOL    HW110439   4.411   1.036   5.940
 3180SOL    HW210440   4.406   1.198   5.923
 3181SOL     OW10441   0.688   0.990   3.718
 3181SOL    HW110442   0.739   0.989   3.804
 3181SOL    HW210443   0.636   0.906   3.709
 3182SOL     OW10444   0.486   0.328   5.686
 3182SOL    HW110445   0.487   0.241   5.636
 3182SOL    HW210446   0.578   0.348   5.719
 3183SOL     OW10447   3.978   4.670   1.572
 3183SOL    HW110448   4.060   4.619   1.597
 3183SOL    HW210449   3.931   4.622   1.498
 3184SOL     OW10450   2.483   1.744   2.241
 3184SOL    HW110451   2.573   1.772   2.207
 3184SOL    HW210452   2.480   1.754   2.340
 3185SOL     OW10453   0.278   0.265   5.385
 3185SOL    HW110454   0.216   0.344   5.386
 3185SOL    HW210455   0.264   0.213   5.300
 3186SOL     OW10456   3.283   1.368   3.027
 3186SOL    HW110457   3.334   1.379   3.112
 3186SOL    HW210458   3.313   1.436   2.961
 3187SOL     OW10459   3.902   4.060   7.030
 3187SOL    HW110460   3.820   4.064   6.972
 3187SOL    HW210461   3.887   3.994   0.072
 3188SOL     OW10462   3.462   5.962   2.918
 3188SOL    HW110463   3.450   5.982   2.821
 3188SOL    HW210464   3.519   5.881   2.929
 3189SOL     OW10465   1.507   0.990   2.955
 3189SOL    HW110466   1.513   1.073   2.900
 3189SOL    HW210467   1.529   0.911   2.897
 3190SOL     OW10468   1.393   6.341   1.539
 3190SOL    HW110469   1.377   6.283   1.459
 3190SOL    HW210470   1.385   6.437   1.513
 3191SOL     OW10471   3.694   0.911   1.354
 3191SOL    HW110472   3.612   0.923   1.410
 3191SOL    HW210473   3.671   0.917   1.257
 3192SOL     OW10474   0.879   1.584   0.379
 3192SOL    HW110475   0.794   1.567   0.330
 3192SOL    HW210476   0.871   1.669   0.432
 3193SOL     OW10477   4.329   2.304   6.146
 3193SOL    HW110478   4.316   2.216   6.100
 3193SOL    HW210479   4.342   2.288   6.244
 3194SOL     OW10480   1.371   3.398   6.498
 3194SOL    HW110481   1.411   3.386   6.588
 3194SOL    HW210482   1.440   3.380   6.428
 3195SOL     OW10483   1.676   2.577   3.139
 3195SOL    HW110484   1.744   2.512   3.173
 3195SOL    HW210485   1.681   2.661   3.193
 3196SOL     OW10486   0.168   0.181   4.532
 3196SOL    HW110487   0.127   0.218   4.616
 3196SOL    HW210488   0.104   0.118   4.488
 3197SOL     OW10489   1.074   5.592   2.957
 3197SOL    HW110490   1.034   5.515   3.007
 3197SOL    HW210491   1.171   5.601   2.980
 3198SOL     OW10492   6.928   2.139   6.191
 3198SOL    HW110493   6.850   2.187   6.233
 3198SOL    HW210494   6.969   2.198   6.122
 3199SOL     OW10495   4.518   1.824   1.823
 3199SOL    HW110496   4.571   1.876   1.890
 3199SOL    HW210497   4.490   1.885   1.749
 3200SOL     OW10498   0.251   2.731   0.918
 3200SOL    HW110499   0.176   2.668   0.898
 3200SOL    HW210500   0.241   2.767   1.011
 3201SOL     OW10501   5.402   3.704   3.889
 3201SOL    HW110502   5.435   3.714   3.795
 3201SOL    HW210503   5.480   3.698   3.951
 3202SOL     OW10504   2.065   4.262   3.064
 3202SOL    HW110505   2.074   4.202   3.144
 3202SOL    HW210506   2.009   4.216   2.995
 3203SOL     OW10507   6.347   0.916   1.575
 3203SOL    HW110508   6.268   0.879   1.526
 3203SOL    HW210509   6.368   0.856   1.653
 3204SOL     OW10510   5.792   5.621   1.742
 3204SOL    HW110511   5.743   5.700   1.779
 3204SOL    HW210512   5.861   5.590   1.807
 3205SOL     OW10513   6.600   4.306   6.316
 3205SOL    HW110514   6.531   4.310   6.243
 3205SOL    HW210515   6.625   4.211   6.333
 3206SOL     OW10516   0.193   6.766   5.634
 3206SOL    HW110517   0.209   6.738   5.728
 3206SOL    HW210518   0.103   6.810   5.627
 3207SOL     OW10519   0.897   1.401   5.257
 3207SOL    HW110520   0.836   1.401   5.336
 3207SOL    HW210521   0.886   1.315   5.207
 3208SOL     OW10522   4.306   5.833   5.067
 3208SOL    HW110523   4.307   5.777   4.984
 3208SOL    HW210524   4.319   5.774   5.147
 3209SOL     OW10525   3.064   6.663   4.252
 3209SOL    HW110526   3.005   6.602   4.305
 3209SOL    HW210527   3.057   6.640   4.155
 3210SOL     OW10528   0.086   3.709   2.670
 3210SOL    HW110529   0.031   3.766   2.610
 3210SOL    HW210530   0.059   3.724   2.765
 3211SOL     OW10531   2.413   4.307   0.785
 3211SOL    HW110532   2.406   4.397   0.827
 3211SOL    HW210533   2.499   4.301   0.733
 3212SOL     OW10534   4.367   2.498   6.544
 3212SOL    HW110535   4.408   2.558   6.475
 3212SOL    HW210536   4.312   2.552   6.607
 3213SOL     OW10537   5.493   5.727   3.178
 3213SOL    HW110538   5.588   5.736   3.150
 3213SOL    HW210539   5.481   5.641   3.228
 3214SOL     OW10540   4.434   6.230   6.839
 3214SOL    HW110541   4.355   6.192   6.790
 3214SOL    HW210542   4.486   6.289   6.777
 3215SOL     OW10543   6.981   2.756   0.410
 3215SOL    HW110544   6.961   2.806   0.495
 3215SOL    HW210545   6.967   2.659   0.425
 3216SOL     OW10546   5.847   6.106   3.429
 3216SOL    HW110547   5.752   6.110   3.458
 3216SOL    HW210548   5.851   6.109   3.329
 3217SOL     OW10549   0.984   4.519   2.893
 3217SOL    HW110550   0.892   4.498   2.928
 3217SOL    HW210551   1.023   4.595   2.944
 3218SOL     OW10552   3.709   6.841   3.026
 3218SOL    HW110553   3.740   6.930   3.058
 3218SOL    HW210554   3.698   6.842   2.927
 3219SOL     OW10555   0.079   0.379   2.820
 3219SOL    HW110556   0.130   0.294   2.807
 3219SOL    HW210557   0.108   0.446   2.751
 3220SOL     OW10558   0.146   4.583   5.002
 3220SOL    HW110559   0.229   4.533   5.026
 3220SOL    HW210560   0.116   4.556   4.910
 3221SOL     OW10561   2.516   6.461   2.928
 3221SOL    HW110562   2.514   6.454   3.028
 3221SOL    HW210563   2.603   6.499   2.899
 3222SOL     OW10564   5.145   1.923   2.946
 3222SOL    HW110565   5.168   1.872   2.863
 3222SOL    HW210566   5.063   1.978   2.929
 3223SOL     OW10567   2.551   5.442   6.451
 3223SOL    HW110568   2.638   5.450   6.401
 3223SOL    HW210569   2.563   5.476   6.544
 3224SOL     OW10570   4.330   5.646   0.050
 3224SOL    HW110571   4.262   5.668   0.120
 3224SOL    HW210572   4.381   5.729   0.027
 3225SOL     OW10573   4.092   3.176   6.968
 3225SOL    HW110574   4.032   3.098   6.981
 3225SOL    HW210575   4.046   3.245   6.912
 3226SOL     OW10576   2.452   0.789   4.160
 3226SOL    HW110577   2.386   0.781   4.234
 3226SOL    HW210578   2.431   0.723   4.088
 3227SOL     OW10579   3.513   1.967   5.909
 3227SOL    HW110580   3.559   2.040   5.959
 3227SOL    HW210581   3.520   1.984   5.811
 3228SOL     OW10582   6.128   3.257   4.339
 3228SOL    HW110583   6.217   3.302   4.333
 3228SOL    HW210584   6.083   3.261   4.249
 3229SOL     OW10585   3.301   2.282   5.945
 3229SOL    HW110586   3.235   2.218   5.905
 3229SOL    HW210587   3.388   2.276   5.895
 3230SOL     OW10588   0.423   1.085   2.755
 3230SOL    HW110589   0.459   1.173   2.723
 3230SOL    HW210590   0.392   1.094   2.850
 3231SOL     OW10591   4.625   5.581   1.271
 3231SOL    HW110592   4.637   5.673   1.308
 3231SOL    HW210593   4.575   5.586   1.185
 3232SOL     OW10594   3.521   5.206   5.019
 3232SOL    HW110595   3.437   5.179   4.972
 3232SOL    HW210596   3.594   5.141   4.996
 3233SOL     OW10597   1.095   4.024   1.229
 3233SOL    HW110598   1.086   3.953   1.298
 3233SOL    HW210599   1.004   4.048   1.194
 3234SOL     OW10600   0.201   2.265   0.120
 3234SOL    HW110601   0.242   2.354   0.143
 3234SOL    HW210602   0.104   2.266   0.142
 3235SOL     OW10603   5.551   6.837   2.854
 3235SOL    HW110604   5.474   6.827   2.791
 3235SOL    HW210605   5.519   6.824   2.948
 3236SOL     OW10606   1.261   2.539   2.158
 3236SOL    HW110607   1.163   2.519   2.158
 3236SOL    HW210608   1.285   2.586   2.242
 3237SOL     OW10609   4.653   6.621   4.709
 3237SOL    HW110610   4.643   6.529   4.670
 3237SOL    HW210611   4.581   6.636   4.778
 3238SOL     OW10612   0.675   5.568   6.585
 3238SOL    HW110613   0.648   5.589   6.679
 3238SOL    HW210614   0.695   5.654   6.537
 3239SOL     OW10615   6.098   0.497   6.082
 3239SOL    HW110616   6.097   0.405   6.044
 3239SOL    HW210617   6.092   0.493   6.182
 3240SOL     OW10618   0.527   0.202   4.513
 3240SOL    HW110619   0.558   0.291   4.479
 3240SOL    HW210620   0.604   0.154   4.556
 3241SOL     OW10621   5.162   1.207   3.682
 3241SOL    HW110622   5.090   1.276   3.686
 3241SOL    HW210623   5.168   1.160   3.770
 3242SOL     OW10624   3.755   6.041   6.255
 3242SOL    HW110625   3.845   6.005   6.232
 3242SOL    HW210626   3.688   6.011   6.186
 3243SOL     OW10627   4.238   5.389   0.245
 3243SOL    HW110628   4.263   5.410   0.339
 3243SOL    HW210629   4.319   5.355   0.196
 3244SOL     OW10630   4.317   6.052   5.660
 3244SOL    HW110631   4.413   6.033   5.681
 3244SOL    HW210632   4.300   6.035   5.563
 3245SOL     OW10633   4.106   3.165   6.245
 3245SOL    HW110634   4.146   3.174   6.154
 3245SOL    HW210635   4.066   3.074   6.255
 3246SOL     OW10636   5.838   6.964   2.489
 3246SOL    HW110637   5.799   6.976   2.580
 3246SOL    HW210638   5.773   6.915   2.431
 3247SOL     OW10639   0.054   3.591   4.027
 3247SOL    HW110640   0.068   3.674   3.974
 3247SOL    HW210641   0.079   3.512   3.972
 3248SOL     OW10642   6.355   3.389   2.243
 3248SOL    HW110643   6.350   3.299   2.199
 3248SOL    HW210644   6.269   3.410   2.288
 3249SOL     OW10645   3.073   4.978   5.349
 3249SOL    HW110646   3.123   4.975   5.262
 3249SOL    HW210647   3.028   4.890   5.364
 3250SOL     OW10648   5.043   6.748   2.624
 3250SOL    HW110649   5.029   6.797   2.710
 3250SOL    HW210650   4.957   6.708   2.594
 3251SOL     OW10651   3.982   1.678   2.946
 3251SOL    HW110652   3.961   1.627   3.030
 3251SOL    HW210653   3.900   1.725   2.914
 3252SOL     OW10654   3.147   1.200   2.821
 3252SOL    HW110655   3.086   1.268   2.781
 3252SOL    HW210656   3.178   1.230   2.911
 3253SOL     OW10657   4.887   2.932   1.364
 3253SOL    HW110658   4.924   2.946   1.273
 3253SOL    HW210659   4.831   3.010   1.391
 3254SOL     OW10660   4.189   4.894   3.524
 3254SOL    HW110661   4.236   4.935   3.445
 3254SOL    HW210662   4.255   4.878   3.597
 3255SOL     OW10663   4.149   5.794   0.229
 3255SOL    HW110664   4.203   5.761   0.306
 3255SOL    HW210665   4.138   5.894   0.236
 3256SOL     OW10666   5.115   6.707   5.971
 3256SOL    HW110667   5.203   6.733   6.010
 3256SOL    HW210668   5.055   6.787   5.968
 3257SOL     OW10669   1.736   1.702   1.128
 3257SOL    HW110670   1.646   1.681   1.168
 3257SOL    HW210671   1.724   1.735   1.034
 3258SOL     OW10672   4.786   6.731   1.395
 3258SOL    HW110673   4.825   6.639   1.407
 3258SOL    HW210674   4.834   6.795   1.455
 3259SOL     OW10675   4.261   6.141   4.182
 3259SOL    HW110676   4.250   6.069   4.114
 3259SOL    HW210677   4.184   6.138   4.246
 3260SOL     OW10678   1.546   1.313   7.000
 3260SOL    HW110679   1.544   1.278   6.907
 3260SOL    HW210680   1.463   1.284   0.017
 3261SOL     OW10681   4.060   0.081   0.886
 3261SOL    HW110682   4.095   0.085   0.792
 3261SOL    HW210683   4.021   7.022   0.903
 3262SOL     OW10684   3.497   1.723   3.540
 3262SOL    HW110685   3.408   1.722   3.586
 3262SOL    HW210686   3.569   1.714   3.608
 3263SOL     OW10687   4.343   6.901   2.294
 3263SOL    HW110688   4.310   6.945   2.210
 3263SOL    HW210689   4.331   6.802   2.286
 3264SOL     OW10690   0.339   5.485   0.094
 3264SOL    HW110691   0.347   5.580   0.067
 3264SOL    HW210692   0.370   5.426   0.019
 3265SOL     OW10693   4.295   2.005   6.454
 3265SOL    HW110694   4.202   2.010   6.491
 3265SOL    HW210695   4.359   1.980   6.527
 3266SOL     OW10696   0.167   2.764   6.615
 3266SOL    HW110697   0.167   2.854   6.659
 3266SOL    HW210698   0.251   2.716   6.637
 3267SOL     OW10699   3.338   2.018   1.142
 3267SOL    HW110700   3.373   1.942   1.196
 3267SOL    HW210701   3.376   2.104   1.176
 3268SOL     OW10702   1.101   3.895   0.430
 3268SOL    HW110703   1.160   3.815   0.420
 3268SOL    HW210704   1.041   3.883   0.509
 3269SOL     OW10705   4.294   4.332   1.498
 3269SOL    HW110706   4.216   4.346   1.558
 3269SOL    HW210707   4.370   4.293   1.550
 3270SOL     OW10708   0.483   5.285   3.950
 3270SOL    HW110709   0.445   5.257   4.038
 3270SOL    HW210710   0.515   5.205   3.899
 3271SOL     OW10711   6.055   2.425   1.939
 3271SOL    HW110712   6.137   2.470   1.904
 3271SOL    HW210713   6.068   2.325   1.936
 3272SOL     OW10714   3.713   0.710   0.642
 3272SOL    HW110715   3.690   0.775   0.569
 3272SOL    HW210716   3.675   0.620   0.619
 3273SOL     OW10717   1.027   6.187   2.363
 3273SOL    HW110718   0.935   6.163   2.333
 3273SOL    HW210719   1.048   6.141   2.449
 3274SOL     OW10720   2.899   1.996   5.500
 3274SOL    HW110721   2.824   1.999   5.434
 3274SOL    HW210722   2.871   2.040   5.585
 3275SOL     OW10723   2.147   0.455   6.778
 3275SOL    HW110724   2.195   0.541   6.764
 3275SOL    HW210725   2.097   0.431   6.695
 3276SOL     OW10726   3.167   5.590   6.299
 3276SOL    HW110727   3.152   5.629   6.391
 3276SOL    HW210728   3.257   5.548   6.296
 3277SOL     OW10729   0.037   6.421   5.816
 3277SOL    HW110730   0.074   6.342   5.767
 3277SOL    HW210731   0.038   6.403   5.914
 3278SOL     OW10732   1.181   1.145   5.335
 3278SOL    HW110733   1.212   1.147   5.430
 3278SOL    HW210734   1.120   1.067   5.322
 3279SOL     OW10735   0.130   6.778   1.052
 3279SOL    HW110736   0.085   6.822   1.130
 3279SOL    HW210737   0.215   6.827   1.030
 3280SOL     OW10738   2.703   5.134   6.196
 3280SOL    HW110739   2.668   5.045   6.167
 3280SOL    HW210740   2.757   5.122   6.280
 3281SOL     OW10741   2.607   5.568   0.301
 3281SOL    HW110742   2.706   5.572   0.288
 3281SOL    HW210743   2.561   5.605   0.221
 3282SOL     OW10744   2.783   5.449   4.268
 3282SOL    HW110745   2.736   5.522   4.317
 3282SOL    HW210746   2.729   5.421   4.188
 3283SOL     OW10747   3.001   0.782   3.435
 3283SOL    HW110748   2.934   0.771   3.508
 3283SOL    HW210749   3.091   0.801   3.475
 3284SOL     OW10750   0.015   5.690   6.933
 3284SOL    HW110751   0.022   5.735   7.022
 3284SOL    HW210752   0.084   5.729   6.871
 3285SOL     OW10753   0.188   2.398   3.008
 3285SOL    HW110754   0.252   2.329   2.973
 3285SOL    HW210755   0.152   2.368   3.096
 3286SOL     OW10756   3.308   3.755   4.904
 3286SOL    HW110757   3.366   3.810   4.965
 3286SOL    HW210758   3.345   3.662   4.897
 3287SOL     OW10759   1.962   5.556   0.185
 3287SOL    HW110760   2.032   5.502   0.137
 3287SOL    HW210761   1.872   5.516   0.168
 3288SOL     OW10762   0.553   5.855   6.106
 3288SOL    HW110763   0.532   5.757   6.104
 3288SOL    HW210764   0.475   5.905   6.142
 3289SOL     OW10765   0.306   6.008   5.380
 3289SOL    HW110766   0.295   5.989   5.282
 3289SOL    HW210767   0.390   6.060   5.395
 3290SOL     OW10768   0.206   5.383   1.731
 3290SOL    HW110769   0.155   5.427   1.657
 3290SOL    HW210770   0.142   5.349   1.800
 3291SOL     OW10771   1.609   6.236   6.760
 3291SOL    HW110772   1.588   6.222   6.857
 3291SOL    HW210773   1.636   6.331   6.745
 3292SOL     OW10774   6.809   6.643   6.322
 3292SOL    HW110775   6.832   6.655   6.226
 3292SOL    HW210776   6.894   6.638   6.376
 3293SOL     OW10777   6.865   1.089   3.134
 3293SOL    HW110778   6.874   0.990   3.128
 3293SOL    HW210779   6.935   1.132   3.076
 3294SOL     OW10780   6.708   0.476   6.050
 3294SOL    HW110781   6.696   0.431   5.961
 3294SOL    HW210782   6.619   0.481   6.097
 3295SOL     OW10783   2.498   2.537   0.959
 3295SOL    HW110784   2.446   2.548   1.044
 3295SOL    HW210785   2.501   2.440   0.935
 3296SOL     OW10786   1.988   6.838   2.590
 3296SOL    HW110787   2.001   6.806   2.684
 3296SOL    HW210788   1.917   6.783   2.546
 3297SOL     OW10789   3.142   2.409   5.693
 3297SOL    HW110790   3.057   2.418   5.641
 3297SOL    HW210791   3.210   2.361   5.637
 3298SOL     OW10792   6.618   3.270   2.989
 3298SOL    HW110793   6.641   3.296   2.895
 3298SOL    HW210794   6.656   3.338   3.052
 3299SOL     OW10795   1.156   0.059   4.887
 3299SOL    HW110796   1.069   0.032   4.846
 3299SOL    HW210797   1.214   0.101   4.818
 3300SOL     OW10798   6.300   6.834   4.637
 3300SOL    HW110799   6.398   6.822   4.651
 3300SOL    HW210800   6.253   6.748   4.659
 3301SOL     OW10801   0.239   3.523   3.299
 3301SOL    HW110802   0.241   3.453   3.370
 3301SOL    HW210803   0.317   3.584   3.311
 3302SOL     OW10804   1.472   4.812   3.881
 3302SOL    HW110805   1.380   4.789   3.852
 3302SOL    HW210806   1.503   4.746   3.950
 3303SOL     OW10807   4.022   3.179   3.913
 3303SOL    HW110808   4.108   3.130   3.921
 3303SOL    HW210809   4.014   3.216   3.820
 3304SOL     OW10810   0.781   6.251   4.125
 3304SOL    HW110811   0.727   6.221   4.046
 3304SOL    HW210812   0.812   6.345   4.110
 3305SOL     OW10813   1.812   1.000   1.689
 3305SOL    HW110814   1.782   0.906   1.702
 3305SOL    HW210815   1.852   1.034   1.774
 3306SOL     OW10816   2.035   4.024   3.673
 3306SOL    HW110817   1.993   3.936   3.696
 3306SOL    HW210818   2.100   4.049   3.744
 3307SOL     OW10819   6.746   6.118   0.545
 3307SOL    HW110820   6.811   6.133   0.470
 3307SOL    HW210821   6.654   6.106   0.508
 3308SOL     OW10822   4.422   6.048   0.472
 3308SOL    HW110823   4.380   6.041   0.562
 3308SOL    HW210824   4.486   5.972   0.459
 3309SOL     OW10825   1.164   4.844   3.577
 3309SOL    HW110826   1.208   4.912   3.519
 3309SOL    HW210827   1.080   4.812   3.533
 3310SOL     OW10828   0.948   4.846   2.833
 3310SOL    HW110829   0.851   4.842   2.807
 3310SOL    HW210830   0.978   4.941   2.838
 3311SOL     OW10831   4.147   6.756   1.046
 3311SOL    HW110832   4.075   6.812   1.087
 3311SOL    HW210833   4.208   6.815   0.993
 3312SOL     OW10834   3.159   3.937   5.871
 3312SOL    HW110835   3.067   3.974   5.856
 3312SOL    HW210836   3.220   3.971   5.799
 3313SOL     OW10837   0.918   5.140   3.650
 3313SOL    HW110838   0.978   5.087   3.711
 3313SOL    HW210839   0.948   5.236   3.651
 3314SOL     OW10840   1.918   3.259   4.794
 3314SOL    HW110841   1.842   3.196   4.810
 3314SOL    HW210842   2.002   3.222   4.834
 3315SOL     OW10843   6.788   2.439   3.620
 3315SOL    HW110844   6.868   2.392   3.657
 3315SOL    HW210845   6.708   2.419   3.677
 3316SOL     OW10846   4.609   2.083   6.129
 3316SOL    HW110847   4.588   1.993   6.092
 3316SOL    HW210848   4.583   2.153   6.062
 3317SOL     OW10849   4.694   2.841   1.706
 3317SOL    HW110850   4.672   2.907   1.777
 3317SOL    HW210851   4.631   2.852   1.629
 3318SOL     OW10852   2.852   5.947   5.423
 3318SOL    HW110853   2.879   6.022   5.483
 3318SOL    HW210854   2.867   5.860   5.469
 3319SOL     OW10855   0.663   6.455   4.527
 3319SOL    HW110856   0.758   6.435   4.504
 3319SOL    HW210857   0.635   6.400   4.605
 3320SOL     OW10858   6.029   0.883   5.338
 3320SOL    HW110859   6.026   0.968   5.286
 3320SOL    HW210860   6.112   0.881   5.394
 3321SOL     OW10861   3.642   3.026   3.093
 3321SOL    HW110862   3.598   3.100   3.144
 3321SOL    HW210863   3.639   2.942   3.147
 3322SOL     OW10864   3.776   2.175   1.039
 3322SOL    HW110865   3.702   2.219   0.987
 3322SOL    HW210866   3.749   2.082   1.062
 3323SOL     OW10867   2.100   4.462   6.973
 3323SOL    HW110868   2.034   4.494   0.009
 3323SOL    HW210869   2.164   4.398   7.017
 3324SOL     OW10870   0.865   3.460   0.421
 3324SOL    HW110871   0.917   3.467   0.507
 3324SOL    HW210872   0.917   3.502   0.347
 3325SOL     OW10873   1.379   2.652   0.626
 3325SOL    HW110874   1.281   2.674   0.621
 3325SOL    HW210875   1.429   2.728   0.666
 3326SOL     OW10876   6.741   1.858   1.148
 3326SOL    HW110877   6.761   1.946   1.191
 3326SOL    HW210878   6.652   1.862   1.103
 3327SOL     OW10879   3.067   6.825   2.129
 3327SOL    HW110880   3.073   6.848   2.226
 3327SOL    HW210881   2.971   6.808   2.105
 3328SOL     OW10882   5.080   1.177   2.292
 3328SOL    HW110883   5.004   1.241   2.279
 3328SOL    HW210884   5.164   1.228   2.309
 3329SOL     OW10885   4.100   0.804   5.404
 3329SOL    HW110886   4.007   0.815   5.439
 3329SOL    HW210887   4.098   0.794   5.305
 3330SOL     OW10888   5.727   6.880   2.123
 3330SOL    HW110889   5.806   6.822   2.102
 3330SOL    HW210890   5.688   6.853   2.211
 3331SOL     OW10891   2.130   3.541   3.253
 3331SOL    HW110892   2.032   3.551   3.270
 3331SOL    HW210893   2.155   3.445   3.260
 3332SOL     OW10894   4.357   5.431   0.472
 3332SOL    HW110895   4.454   5.412   0.462
 3332SOL    HW210896   4.322   5.382   0.552
 3333SOL     OW10897   3.361   3.706   1.681
 3333SOL    HW110898   3.409   3.723   1.595
 3333SOL    HW210899   3.263   3.692   1.663
 3334SOL     OW10900   2.025   2.223   2.465
 3334SOL    HW110901   2.115   2.192   2.436
 3334SOL    HW210902   2.009   2.316   2.431
 3335SOL     OW10903   3.816   4.474   5.292
 3335SOL    HW110904   3.782   4.552   5.345
 3335SOL    HW210905   3.744   4.405   5.285
 3336SOL     OW10906   3.780   6.705   4.021
 3336SOL    HW110907   3.742   6.614   4.036
 3336SOL    HW210908   3.706   6.771   4.009
 3337SOL     OW10909   3.654   3.967   2.883
 3337SOL    HW110910   3.717   3.892   2.860
 3337SOL    HW210911   3.643   3.972   2.982
 3338SOL     OW10912   2.245   1.243   1.201
 3338SOL    HW110913   2.236   1.318   1.266
 3338SOL    HW210914   2.319   1.262   1.138
 3339SOL     OW10915   2.241   0.704   5.661
 3339SOL    HW110916   2.224   0.702   5.759
 3339SOL    HW210917   2.339   0.715   5.644
 3340SOL     OW10918   4.211   1.253   3.998
 3340SOL    HW110919   4.263   1.283   3.918
 3340SOL    HW210920   4.197   1.154   3.993
 3341SOL     OW10921   2.588   4.971   2.589
 3341SOL    HW110922   2.551   4.891   2.636
 3341SOL    HW210923   2.548   5.054   2.627
 3342SOL     OW10924   6.219   0.328   2.798
 3342SOL    HW110925   6.193   0.358   2.890
 3342SOL    HW210926   6.137   0.307   2.745
 3343SOL     OW10927   4.885   5.397   6.586
 3343SOL    HW110928   4.976   5.359   6.569
 3343SOL    HW210929   4.839   5.415   6.499
 3344SOL     OW10930   0.511   3.201   1.831
 3344SOL    HW110931   0.532   3.129   1.897
 3344SOL    HW210932   0.470   3.279   1.879
 3345SOL     OW10933   0.465   4.241   0.904
 3345SOL    HW110934   0.391   4.266   0.966
 3345SOL    HW210935   0.470   4.307   0.829
 3346SOL     OW10936   2.342   0.927   6.954
 3346SOL    HW110937   2.265   0.924   6.891
 3346SOL    HW210938   2.322   0.870   0.003
 3347SOL     OW10939   0.688   3.362   6.325
 3347SOL    HW110940   0.730   3.279   6.362
 3347SOL    HW210941   0.751   3.439   6.335
 3348SOL     OW10942   4.061   3.851   6.218
 3348SOL    HW110943   4.130   3.922   6.229
 3348SOL    HW210944   4.092   3.783   6.152
 3349SOL     OW10945   2.613   4.658   3.666
 3349SOL    HW110946   2.553   4.733   3.639
 3349SOL    HW210947   2.599   4.638   3.763
 3350SOL     OW10948   0.187   4.102   5.665
 3350SOL    HW110949   0.236   4.029   5.715
 3350SOL    HW210950   0.221   4.106   5.571
 3351SOL     OW10951   5.138   0.912   0.820
 3351SOL    HW110952   5.145   0.884   0.916
 3351SOL    HW210953   5.161   0.835   0.761
 3352SOL     OW10954   5.398   2.664   6.606
 3352SOL    HW110955   5.325   2.646   6.672
 3352SOL    HW210956   5.360   2.710   6.526
 3353SOL     OW10957   2.191   0.724   1.684
 3353SOL    HW110958   2.179   0.799   1.619
 3353SOL    HW210959   2.275   0.737   1.736
 3354SOL     OW10960   3.936   2.737   5.777
 3354SOL    HW110961   3.975   2.787   5.699
 3354SOL    HW210962   3.900   2.802   5.844
 3355SOL     OW10963   2.013   1.177   4.777
 3355SOL    HW110964   1.997   1.245   4.848
 3355SOL    HW210965   2.050   1.221   4.695
 3356SOL     OW10966   1.628   6.645   5.591
 3356SOL    HW110967   1.564   6.626   5.666
 3356SOL    HW210968   1.694   6.570   5.584
 3357SOL     OW10969   3.164   3.280   2.350
 3357SOL    HW110970   3.203   3.371   2.338
 3357SOL    HW210971   3.065   3.287   2.364
 3358SOL     OW10972   6.351   1.050   2.761
 3358SOL    HW110973   6.380   0.964   2.719
 3358SOL    HW210974   6.259   1.039   2.799
 3359SOL     OW10975   7.015   5.714   4.116
 3359SOL    HW110976   6.929   5.666   4.136
 3359SOL    HW210977   0.060   5.651   4.129
 3360SOL     OW10978   0.012   2.940   5.680
 3360SOL    HW110979   7.025   3.036   5.699
 3360SOL    HW210980   7.010   2.884   5.755
 3361SOL     OW10981   0.357   0.798   4.643
 3361SOL    HW110982   0.434   0.796   4.706
 3361SOL    HW210983   0.289   0.865   4.675
 3362SOL     OW10984   3.808   1.959   3.764
 3362SOL    HW110985   3.764   2.042   3.730
 3362SOL    HW210986   3.826   1.970   3.862
 3363SOL     OW10987   5.827   3.465   1.107
 3363SOL    HW110988   5.825   3.558   1.145
 3363SOL    HW210989   5.830   3.399   1.182
 3364SOL     OW10990   2.504   4.453   2.936
 3364SOL    HW110991   2.549   4.449   2.847
 3364SOL    HW210992   2.436   4.380   2.942
 3365SOL     OW10993   1.764   3.107   4.540
 3365SOL    HW110994   1.714   3.190   4.512
 3365SOL    HW210995   1.809   3.124   4.628
 3366SOL     OW10996   6.506   3.467   4.574
 3366SOL    HW110997   6.485   3.375   4.609
 3366SOL    HW210998   6.602   3.472   4.547
 3367SOL     OW10999   3.327   3.407   4.511
 3367SOL    HW111000   3.240   3.401   4.560
 3367SOL    HW211001   3.396   3.353   4.559
 3368SOL     OW11002   1.628   5.892   6.743
 3368SOL    HW111003   1.654   5.826   6.672
 3368SOL    HW211004   1.708   5.917   6.796
 3369SOL     OW11005   4.518   2.275   1.136
 3369SOL    HW111006   4.476   2.274   1.226
 3369SOL    HW211007   4.534   2.370   1.107
 3370SOL     OW11008   0.319   5.586   1.891
 3370SOL    HW111009   0.291   5.531   1.813
 3370SOL    HW211010   0.385   5.534   1.946
 3371SOL     OW11011   2.243   2.971   3.274
 3371SOL    HW111012   2.220   2.939   3.366
 3371SOL    HW211013   2.212   3.066   3.264
 3372SOL     OW11014   6.282   3.062   1.355
 3372SOL    HW111015   6.345   2.987   1.377
 3372SOL    HW211016   6.293   3.135   1.422
 3373SOL     OW11017   0.229   2.262   1.692
 3373SOL    HW111018   0.184   2.227   1.774
 3373SOL    HW211019   0.160   2.296   1.628
 3374SOL     OW11020   1.057   0.336   3.496
 3374SOL    HW111021   1.123   0.265   3.522
 3374SOL    HW211022   1.083   0.422   3.539
 3375SOL     OW11023   6.897   5.097   6.779
 3375SOL    HW111024   6.943   5.015   6.744
 3375SOL    HW211025   6.965   5.162   6.812
 3376SOL     OW11026   2.292   3.714   5.651
 3376SOL    HW111027   2.315   3.648   5.579
 3376SOL    HW211028   2.224   3.674   5.712
 3377SOL     OW11029   5.779   4.604   3.353
 3377SOL    HW111030   5.859   4.631   3.300
 3377SOL    HW211031   5.755   4.677   3.418
 3378SOL     OW11032   1.692   6.528   6.739
 3378SOL    HW111033   1.683   6.627   6.734
 3378SOL    HW211034   1.749   6.496   6.663
 3379SOL     OW11035   0.967   3.919   4.146
 3379SOL    HW111036   1.031   3.842   4.142
 3379SOL    HW211037   0.991   3.978   4.224
 3380SOL     OW11038   4.067   4.083   5.781
 3380SOL    HW111039   4.131   4.126   5.845
 3380SOL    HW211040   4.004   4.153   5.746
 3381SOL     OW11041   1.476   3.037   1.467
 3381SOL    HW111042   1.423   3.052   1.384
 3381SOL    HW211043   1.516   3.124   1.497
 3382SOL     OW11044   7.021   2.604   0.962
 3382SOL    HW111045   6.939   2.564   0.920
 3382SOL    HW211046   7.005   2.700   0.981
 3383SOL     OW11047   4.399   5.086   6.795
 3383SOL    HW111048   4.431   5.124   6.882
 3383SOL    HW211049   4.306   5.118   6.778
 3384SOL     OW11050   3.222   4.149   0.760
 3384SOL    HW111051   3.205   4.204   0.842
 3384SOL    HW211052   3.259   4.060   0.787
 3385SOL     OW11053   0.414   2.244   3.156
 3385SOL    HW111054   0.468   2.165   3.126
 3385SOL    HW211055   0.476   2.319   3.180
 3386SOL     OW11056   6.644   4.838   6.770
 3386SOL    HW111057   6.563   4.845   6.829
 3386SOL    HW211058   6.716   4.790   6.819
 3387SOL     OW11059   6.279   0.410   3.081
 3387SOL    HW111060   6.316   0.325   3.119
 3387SOL    HW211061   6.333   0.487   3.114
 3388SOL     OW11062   5.609   3.220   1.397
 3388SOL    HW111063   5.559   3.158   1.458
 3388SOL    HW211064   5.624   3.307   1.444
 3389SOL     OW11065   5.887   6.043   0.820
 3389SOL    HW111066   5.891   6.082   0.912
 3389SOL    HW211067   5.807   6.079   0.772
 3390SOL     OW11068   3.953   6.696   6.131
 3390SOL    HW111069   3.893   6.758   6.182
 3390SOL    HW211070   3.923   6.602   6.143
 3391SOL     OW11071   5.682   3.014   3.295
 3391SOL    HW111072   5.612   3.041   3.361
 3391SOL    HW211073   5.772   3.016   3.338
 3392SOL     OW11074   4.369   0.031   5.867
 3392SOL    HW111075   4.337   7.013   5.786
 3392SOL    HW211076   4.461   0.066   5.851
 3393SOL     OW11077   5.076   6.749   1.197
 3393SOL    HW111078   5.052   6.724   1.291
 3393SOL    HW211079   5.112   6.670   1.148
 3394SOL     OW11080   3.230   5.500   1.489
 3394SOL    HW111081   3.236   5.580   1.428
 3394SOL    HW211082   3.147   5.508   1.545
 3395SOL     OW11083   3.835   0.591   3.279
 3395SOL    HW111084   3.924   0.564   3.319
 3395SOL    HW211085   3.843   0.596   3.180
 3396SOL     OW11086   4.460   2.124   3.906
 3396SOL    HW111087   4.439   2.026   3.898
 3396SOL    HW211088   4.542   2.136   3.963
 3397SOL     OW11089   2.240   5.591   6.412
 3397SOL    HW111090   2.280   5.573   6.322
 3397SOL    HW211091   2.313   5.600   6.480
 3398SOL     OW11092   6.838   2.207   5.125
 3398SOL    HW111093   6.899   2.142   5.079
 3398SOL    HW211094   6.816   2.282   5.063
 3399SOL     OW11095   0.110   4.819   3.456
 3399SOL    HW111096   0.118   4.843   3.552
 3399SOL    HW211097   0.027   4.764   3.442
 3400SOL     OW11098   5.778   1.994   5.396
 3400SOL    HW111099   5.741   1.968   5.486
 3400SOL    HW211100   5.772   1.915   5.335
 3401SOL     OW11101   6.684   3.678   6.094
 3401SOL    HW111102   6.623   3.603   6.070
 3401SOL    HW211103   6.710   3.728   6.011
 3402SOL     OW11104   6.964   5.116   1.184
 3402SOL    HW111105   6.905   5.036   1.191
 3402SOL    HW211106   6.936   5.185   1.250
 3403SOL     OW11107   4.604   6.556   6.457
 3403SOL    HW111108   4.671   6.602   6.516
 3403SOL    HW211109   4.647   6.529   6.371
 3404SOL     OW11110   5.235   3.251   5.294
 3404SOL    HW111111   5.323   3.204   5.297
 3404SOL    HW211112   5.247   3.343   5.256
 3405SOL     OW11113   5.245   6.335   5.712
 3405SOL    HW111114   5.287   6.267   5.652
 3405SOL    HW211115   5.268   6.426   5.679
 3406SOL     OW11116   2.133   3.747   2.048
 3406SOL    HW111117   2.199   3.675   2.069
 3406SOL    HW211118   2.097   3.734   1.956
 3407SOL     OW11119   1.895   3.685   0.365
 3407SOL    HW111120   1.929   3.778   0.380
 3407SOL    HW211121   1.972   3.625   0.342
 3408SOL     OW11122   5.009   2.173   3.650
 3408SOL    HW111123   4.936   2.116   3.689
 3408SOL    HW211124   4.976   2.219   3.568
 3409SOL     OW11125   4.541   0.935   0.482
 3409SOL    HW111126   4.506   1.028   0.475
 3409SOL    HW211127   4.546   0.909   0.579
 3410SOL     OW11128   5.510   6.912   1.954
 3410SOL    HW111129   5.576   6.877   2.021
 3410SOL    HW211130   5.442   6.968   2.000
 3411SOL     OW11131   6.743   1.867   0.585
 3411SOL    HW111132   6.725   1.790   0.646
 3411SOL    HW211133   6.775   1.945   0.639
 3412SOL     OW11134   5.247   2.899   0.983
 3412SOL    HW111135   5.292   2.988   0.982
 3412SOL    HW211136   5.290   2.840   1.051
 3413SOL     OW11137   0.026   2.319   6.015
 3413SOL    HW111138   7.026   2.397   5.961
 3413SOL    HW211139   0.081   2.351   6.092
 3414SOL     OW11140   4.061   3.064   0.931
 3414SOL    HW111141   4.104   3.094   0.846
 3414SOL    HW211142   3.964   3.048   0.916
 3415SOL     OW11143   2.351   2.716   4.679
 3415SOL    HW111144   2.396   2.677   4.759
 3415SOL    HW211145   2.260   2.749   4.705
 3416SOL     OW11146   6.459   6.753   6.779
 3416SOL    HW111147   6.477   6.767   6.682
 3416SOL    HW211148   6.380   6.693   6.790
 3417SOL     OW11149   6.972   7.015   2.851
 3417SOL    HW111150   0.038   7.009   2.870
 3417SOL    HW211151   6.922   6.951   2.910
 3418SOL     OW11152   4.365   4.908   2.074
 3418SOL    HW111153   4.296   4.871   2.011
 3418SOL    HW211154   4.397   4.996   2.040
 3419SOL     OW11155   2.979   5.968   6.200
 3419SOL    HW111156   2.951   6.040   6.137
 3419SOL    HW211157   3.074   5.942   6.181
 3420SOL     OW11158   4.451   2.462   3.742
 3420SOL    HW111159   4.364   2.442   3.787
 3420SOL    HW211160   4.512   2.383   3.752
 3421SOL     OW11161   5.853   2.385   3.733
 3421SOL    HW111162   5.884   2.440   3.810
 3421SOL    HW211163   5.901   2.297   3.732
 3422SOL     OW11164   2.223   6.616   1.112
 3422SOL    HW111165   2.135   6.585   1.076
 3422SOL    HW211166   2.282   6.642   1.036
 3423SOL     OW11167   1.062   4.450   5.571
 3423SOL    HW111168   1.001   4.528   5.561
 3423SOL    HW211169   1.047   4.406   5.660
 3424SOL     OW11170   4.645   0.126   1.576
 3424SOL    HW111171   4.719   0.187   1.546
 3424SOL    HW211172   4.629   0.139   1.674
 3425SOL     OW11173   5.735   4.354   1.293
 3425SOL    HW111174   5.808   4.289   1.310
 3425SOL    HW211175   5.760   4.444   1.330
 3426SOL     OW11176   5.186   3.601   0.641
 3426SOL    HW111177   5.127   3.667   0.595
 3426SOL    HW211178   5.277   3.603   0.601
 3427SOL     OW11179   1.378   1.971   0.673
 3427SOL    HW111180   1.475   1.972   0.651
 3427SOL    HW211181   1.326   1.944   0.592
 3428SOL     OW11182   5.267   5.947   5.524
 3428SOL    HW111183   5.322   5.963   5.606
 3428SOL    HW211184   5.170   5.947   5.548
 3429SOL     OW11185   6.866   0.257   1.147
 3429SOL    HW111186   6.954   0.249   1.194
 3429SOL    HW211187   6.878   0.244   1.049
 3430SOL     OW11188   2.198   4.562   5.543
 3430SOL    HW111189   2.249   4.488   5.499
 3430SOL    HW211190   2.254   4.645   5.544
 3431SOL     OW11191   2.399   5.942   2.694
 3431SOL    HW111192   2.358   5.857   2.724
 3431SOL    HW211193   2.498   5.930   2.685
 3432SOL     OW11194   2.612   4.268   0.562
 3432SOL    HW111195   2.677   4.330   0.517
 3432SOL    HW211196   2.662   4.192   0.604
 3433SOL     OW11197   2.593   1.470   6.215
 3433SOL    HW111198   2.575   1.488   6.118
 3433SOL    HW211199   2.508   1.445   6.261
 3434SOL     OW11200   3.018   2.062   1.586
 3434SOL    HW111201   3.073   1.991   1.631
 3434SOL    HW211202   3.024   2.147   1.637
 3435SOL     OW11203   2.046   0.652   0.540
 3435SOL    HW111204   1.947   0.651   0.527
 3435SOL    HW211205   2.071   0.585   0.609
 3436SOL     OW11206   3.655   5.667   1.227
 3436SOL    HW111207   3.718   5.662   1.305
 3436SOL    HW211208   3.685   5.740   1.165
 3437SOL     OW11209   1.366   6.739   6.102
 3437SOL    HW111210   1.329   6.694   6.020
 3437SOL    HW211211   1.322   6.701   6.183
 3438SOL     OW11212   1.300   3.789   1.177
 3438SOL    HW111213   1.253   3.877   1.165
 3438SOL    HW211214   1.234   3.720   1.206
 3439SOL     OW11215   2.048   5.682   2.731
 3439SOL    HW111216   2.027   5.725   2.819
 3439SOL    HW211217   2.028   5.746   2.657
 3440SOL     OW11218   3.883   3.452   4.332
 3440SOL    HW111219   3.960   3.391   4.350
 3440SOL    HW211220   3.912   3.525   4.270
 3441SOL     OW11221   5.596   5.690   5.832
 3441SOL    HW111222   5.596   5.740   5.745
 3441SOL    HW211223   5.654   5.608   5.823
 3442SOL     OW11224   3.450   2.850   1.588
 3442SOL    HW111225   3.444   2.782   1.514
 3442SOL    HW211226   3.469   2.940   1.549
 3443SOL     OW11227   2.230   6.050   2.501
 3443SOL    HW111228   2.291   6.036   2.579
 3443SOL    HW211229   2.252   6.136   2.456
 3444SOL     OW11230   5.963   4.221   1.341
 3444SOL    HW111231   6.022   4.144   1.317
 3444SOL    HW211232   5.996   4.304   1.296
 3445SOL     OW11233   6.152   4.707   3.939
 3445SOL    HW111234   6.234   4.651   3.954
 3445SOL    HW211235   6.178   4.793   3.895
 3446SOL     OW11236   5.000   1.095   1.322
 3446SOL    HW111237   4.982   1.063   1.415
 3446SOL    HW211238   5.034   1.189   1.326
 3447SOL     OW11239   4.810   0.836   0.529
 3447SOL    HW111240   4.848   0.927   0.544
 3447SOL    HW211241   4.711   0.839   0.541
 3448SOL     OW11242   1.666   6.294   4.885
 3448SOL    HW111243   1.744   6.346   4.849
 3448SOL    HW211244   1.605   6.270   4.809
 3449SOL     OW11245   6.783   4.315   5.332
 3449SOL    HW111246   6.737   4.235   5.295
 3449SOL    HW211247   6.799   4.303   5.430
 3450SOL     OW11248   1.464   6.702   0.193
 3450SOL    HW111249   1.454   6.736   0.100
 3450SOL    HW211250   1.553   6.658   0.204
 3451SOL     OW11251   2.135   6.086   0.320
 3451SOL    HW111252   2.082   6.020   0.373
 3451SOL    HW211253   2.228   6.092   0.356
 3452SOL     OW11254   4.950   0.374   5.718
 3452SOL    HW111255   4.865   0.380   5.666
 3452SOL    HW211256   4.986   0.281   5.712
 3453SOL     OW11257   5.029   6.652   5.690
 3453SOL    HW111258   4.980   6.700   5.763
 3453SOL    HW211259   5.127   6.653   5.709
 3454SOL     OW11260   1.037   2.147   2.528
 3454SOL    HW111261   1.106   2.109   2.589
 3454SOL    HW211262   1.077   2.161   2.437
 3455SOL     OW11263   1.667   3.385   5.482
 3455SOL    HW111264   1.583   3.371   5.430
 3455SOL    HW211265   1.695   3.480   5.473
 3456SOL     OW11266   4.973   4.495   2.367
 3456SOL    HW111267   4.910   4.519   2.294
 3456SOL    HW211268   4.923   4.448   2.440
 3457SOL     OW11269   3.890   5.690   5.287
 3457SOL    HW111270   3.916   5.785   5.302
 3457SOL    HW211271   3.951   5.648   5.220
 3458SOL     OW11272   4.381   1.894   2.919
 3458SOL    HW111273   4.387   1.907   2.820
 3458SOL    HW211274   4.439   1.818   2.946
 3459SOL     OW11275   4.281   0.569   3.277
 3459SOL    HW111276   4.358   0.611   3.229
 3459SOL    HW211277   4.269   0.475   3.245
 3460SOL     OW11278   3.776   1.949   5.616
 3460SOL    HW111279   3.680   1.957   5.643
 3460SOL    HW211280   3.830   2.016   5.667
 3461SOL     OW11281   5.301   4.660   6.601
 3461SOL    HW111282   5.364   4.638   6.527
 3461SOL    HW211283   5.306   4.590   6.672
 3462SOL     OW11284   2.609   3.386   6.607
 3462SOL    HW111285   2.509   3.394   6.613
 3462SOL    HW211286   2.639   3.401   6.513
 3463SOL     OW11287   6.403   4.240   1.033
 3463SOL    HW111288   6.463   4.315   1.006
 3463SOL    HW211289   6.381   4.249   1.130
 3464SOL     OW11290   0.082   4.941   6.117
 3464SOL    HW111291   0.101   4.935   6.019
 3464SOL    HW211292   0.110   4.857   6.162
 3465SOL     OW11293   2.001   0.258   1.868
 3465SOL    HW111294   2.016   0.200   1.788
 3465SOL    HW211295   1.905   0.287   1.871
 3466SOL     OW11296   6.780   3.948   5.236
 3466SOL    HW111297   6.770   3.872   5.172
 3466SOL    HW211298   6.800   3.912   5.327
 3467SOL     OW11299   1.628   2.365   6.310
 3467SOL    HW111300   1.718   2.397   6.281
 3467SOL    HW211301   1.563   2.375   6.235
 3468SOL     OW11302   3.308   0.259   4.017
 3468SOL    HW111303   3.397   0.299   4.040
 3468SOL    HW211304   3.236   0.318   4.053
 3469SOL     OW11305   5.863   2.516   3.273
 3469SOL    HW111306   5.815   2.513   3.360
 3469SOL    HW211307   5.962   2.519   3.289
 3470SOL     OW11308   0.305   5.735   0.890
 3470SOL    HW111309   0.364   5.715   0.968
 3470SOL    HW211310   0.352   5.711   0.806
 3471SOL     OW11311   4.124   6.050   4.807
 3471SOL    HW111312   4.117   5.968   4.749
 3471SOL    HW211313   4.042   6.058   4.864
 3472SOL     OW11314   3.072   0.716   4.876
 3472SOL    HW111315   3.060   0.647   4.947
 3472SOL    HW211316   3.089   0.672   4.788
 3473SOL     OW11317   5.880   0.946   6.301
 3473SOL    HW111318   5.856   0.896   6.385
 3473SOL    HW211319   5.896   0.880   6.227
 3474SOL     OW11320   3.840   5.184   1.880
 3474SOL    HW111321   3.853   5.086   1.891
 3474SOL    HW211322   3.876   5.213   1.791
 3475SOL     OW11323   1.385   5.509   4.303
 3475SOL    HW111324   1.368   5.565   4.384
 3475SOL    HW211325   1.477   5.529   4.269
 3476SOL     OW11326   4.286   0.631   4.259
 3476SOL    HW111327   4.311   0.584   4.174
 3476SOL    HW211328   4.325   0.581   4.336
 3477SOL     OW11329   3.939   6.191   1.464
 3477SOL    HW111330   3.962   6.108   1.412
 3477SOL    HW211331   4.015   6.215   1.524
 3478SOL     OW11332   3.865   5.501   6.639
 3478SOL    HW111333   3.830   5.594   6.630
 3478SOL    HW211334   3.932   5.483   6.567
 3479SOL     OW11335   0.892   0.597   1.526
 3479SOL    HW111336   0.974   0.577   1.473
 3479SOL    HW211337   0.830   0.519   1.522
 3480SOL     OW11338   0.309   1.318   3.237
 3480SOL    HW111339   0.275   1.387   3.302
 3480SOL    HW211340   0.371   1.256   3.284
 3481SOL     OW11341   2.385   6.620   6.805
 3481SOL    HW111342   2.404   6.596   6.900
 3481SOL    HW211343   2.291   6.654   6.797
 3482SOL     OW11344   0.040   2.315   0.814
 3482SOL    HW111345   7.031   2.284   0.728
 3482SOL    HW211346   0.063   2.412   0.807
 3483SOL     OW11347   2.005   0.252   1.288
 3483SOL    HW111348   1.935   0.302   1.237
 3483SOL    HW211349   2.010   0.286   1.382
 3484SOL     OW11350   3.601   3.049   3.860
 3484SOL    HW111351   3.643   3.129   3.902
 3484SOL    HW211352   3.521   3.021   3.913
 3485SOL     OW11353   1.258   3.184   5.312
 3485SOL    HW111354   1.281   3.088   5.298
 3485SOL    HW211355   1.221   3.223   5.228
 3486SOL     OW11356   4.426   2.042   1.682
 3486SOL    HW111357   4.334   2.040   1.722
 3486SOL    HW211358   4.473   2.125   1.710
 3487SOL     OW11359   6.115   1.859   6.357
 3487SOL    HW111360   6.121   1.869   6.456
 3487SOL    HW211361   6.124   1.950   6.315
 3488SOL     OW11362   5.852   3.499   3.623
 3488SOL    HW111363   5.900   3.412   3.633
 3488SOL    HW211364   5.764   3.484   3.578
 3489SOL     OW11365   3.482   0.175   1.281
 3489SOL    HW111366   3.417   0.192   1.354
 3489SOL    HW211367   3.515   0.262   1.245
 3490SOL     OW11368   4.592   3.717   0.243
 3490SOL    HW111369   4.575   3.755   0.152
 3490SOL    HW211370   4.567   3.620   0.244
 3491SOL     OW11371   0.121   3.315   5.629
 3491SOL    HW111372   0.217   3.320   5.656
 3491SOL    HW211373   0.109   3.241   5.563
 3492SOL     OW11374   0.242   4.564   6.637
 3492SOL    HW111375   0.148   4.562   6.604
 3492SOL    HW211376   0.244   4.537   6.733
 3493SOL     OW11377   6.507   4.548   0.795
 3493SOL    HW111378   6.450   4.619   0.755
 3493SOL    HW211379   6.528   4.479   0.726
 3494SOL     OW11380   3.289   0.185   1.481
 3494SOL    HW111381   3.306   0.255   1.550
 3494SOL    HW211382   3.194   0.156   1.485
 3495SOL     OW11383   4.600   5.189   1.500
 3495SOL    HW111384   4.545   5.164   1.580
 3495SOL    HW211385   4.592   5.287   1.483
 3496SOL     OW11386   1.871   2.770   0.483
 3496SOL    HW111387   1.877   2.704   0.408
 3496SOL    HW211388   1.946   2.836   0.476
 3497SOL     OW11389   4.548   0.633   3.893
 3497SOL    HW111390   4.527   0.543   3.931
 3497SOL    HW211391   4.591   0.690   3.963
 3498SOL     OW11392   2.511   1.545   1.508
 3498SOL    HW111393   2.561   1.627   1.482
 3498SOL    HW211394   2.455   1.565   1.589
 3499SOL     OW11395   6.748   2.773   4.704
 3499SOL    HW111396   6.711   2.721   4.780
 3499SOL    HW211397   6.679   2.779   4.631
 3500SOL     OW11398   6.373   4.294   6.834
 3500SOL    HW111399   6.429   4.245   6.767
 3500SOL    HW211400   6.376   4.392   6.815
 3501SOL     OW11401   1.936   4.522   4.810
 3501SOL    HW111402   1.977   4.611   4.793
 3501SOL    HW211403   1.982   4.478   4.887
 3502SOL     OW11404   0.944   2.140   0.739
 3502SOL    HW111405   0.992   2.075   0.679
 3502SOL    HW211406   0.907   2.091   0.818
 3503SOL     OW11407   5.000   5.582   5.456
 3503SOL    HW111408   5.018   5.583   5.357
 3503SOL    HW211409   5.087   5.587   5.505
 3504SOL     OW11410   2.408   3.269   1.492
 3504SOL    HW111411   2.484   3.284   1.555
 3504SOL    HW211412   2.436   3.203   1.422
 3505SOL     OW11413   5.612   5.880   5.590
 3505SOL    HW111414   5.570   5.848   5.506
 3505SOL    HW211415   5.678   5.952   5.569
 3506SOL     OW11416   4.737   5.383   3.347
 3506SOL    HW111417   4.828   5.353   3.378
 3506SOL    HW211418   4.728   5.364   3.249
 3507SOL     OW11419   1.041   6.978   6.549
 3507SOL    HW111420   1.109   0.005   6.503
 3507SOL    HW211421   1.047   6.992   6.648
 3508SOL     OW11422   5.195   3.640   0.020
 3508SOL    HW111423   5.143   3.725   0.023
 3508SOL    HW211424   5.191   3.601   6.959
 3509SOL     OW11425   6.589   6.089   6.694
 3509SOL    HW111426   6.538   6.009   6.661
 3509SOL    HW211427   6.594   6.086   6.794
 3510SOL     OW11428   2.242   2.097   1.984
 3510SOL    HW111429   2.181   2.176   1.994
 3510SOL    HW211430   2.299   2.111   1.903
 3511SOL     OW11431   0.368   2.698   6.952
 3511SOL    HW111432   0.356   2.647   6.866
 3511SOL    HW211433   0.379   2.795   6.932
 3512SOL     OW11434   2.606   2.592   0.599
 3512SOL    HW111435   2.616   2.510   0.656
 3512SOL    HW211436   2.675   2.660   0.626
 3513SOL     OW11437   6.385   4.162   1.331
 3513SOL    HW111438   6.479   4.129   1.320
 3513SOL    HW211439   6.369   4.184   1.427
 3514SOL     OW11440   0.852   6.511   1.154
 3514SOL    HW111441   0.844   6.528   1.056
 3514SOL    HW211442   0.782   6.564   1.203
 3515SOL     OW11443   3.002   6.286   3.388
 3515SOL    HW111444   3.094   6.253   3.409
 3515SOL    HW211445   2.941   6.207   3.375
 3516SOL     OW11446   3.070   1.181   0.713
 3516SOL    HW111447   3.012   1.262   0.711
 3516SOL    HW211448   3.109   1.170   0.805
 3517SOL     OW11449   1.077   1.478   6.476
 3517SOL    HW111450   0.996   1.437   6.433
 3517SOL    HW211451   1.125   1.535   6.410
 3518SOL     OW11452   4.580   3.271   6.150
 3518SOL    HW111453   4.553   3.367   6.145
 3518SOL    HW211454   4.538   3.227   6.229
 3519SOL     OW11455   2.363   6.680   6.383
 3519SOL    HW111456   2.282   6.630   6.351
 3519SOL    HW211457   2.406   6.727   6.306
 3520SOL     OW11458   3.930   5.567   1.111
 3520SOL    HW111459   3.876   5.492   1.149
 3520SOL    HW211460   3.883   5.604   1.030
 3521SOL     OW11461   5.572   2.188   1.705
 3521SOL    HW111462   5.484   2.235   1.700
 3521SOL    HW211463   5.575   2.114   1.639
 3522SOL     OW11464   3.473   4.881   2.378
 3522SOL    HW111465   3.505   4.914   2.467
 3522SOL    HW211466   3.549   4.837   2.330
 3523SOL     OW11467   2.925   4.814   4.832
 3523SOL    HW111468   2.914   4.736   4.894
 3523SOL    HW211469   2.835   4.855   4.814
 3524SOL     OW11470   2.943   0.143   0.556
 3524SOL    HW111471   2.863   0.162   0.499
 3524SOL    HW211472   2.931   0.187   0.645
 3525SOL     OW11473   0.704   3.096   2.278
 3525SOL    HW111474   0.663   3.051   2.358
 3525SOL    HW211475   0.793   3.055   2.258
 3526SOL     OW11476   1.276   0.597   2.648
 3526SOL    HW111477   1.191   0.623   2.695
 3526SOL    HW211478   1.253   0.551   2.562
 3527SOL     OW11479   5.412   3.209   6.335
 3527SOL    HW111480   5.372   3.210   6.243
 3527SOL    HW211481   5.445   3.300   6.358
 3528SOL     OW11482   0.487   6.448   3.389
 3528SOL    HW111483   0.545   6.528   3.374
 3528SOL    HW211484   0.393   6.470   3.362
 3529SOL     OW11485   4.387   6.671   5.849
 3529SOL    HW111486   4.288   6.680   5.862
 3529SOL    HW211487   4.435   6.727   5.916
 3530SOL     OW11488   2.648   5.611   2.777
 3530SOL    HW111489   2.677   5.515   2.786
 3530SOL    HW211490   2.550   5.618   2.793
 3531SOL     OW11491   6.051   4.773   0.715
 3531SOL    HW111492   6.005   4.766   0.627
 3531SOL    HW211493   6.000   4.722   0.784
 3532SOL     OW11494   2.573   0.191   6.929
 3532SOL    HW111495   2.517   0.154   6.854
 3532SOL    HW211496   2.643   0.251   6.892
 3533SOL     OW11497   1.237   1.496   3.381
 3533SOL    HW111498   1.213   1.404   3.348
 3533SOL    HW211499   1.283   1.546   3.307
 3534SOL     OW11500   5.074   1.146   4.877
 3534SOL    HW111501   4.995   1.199   4.907
 3534SOL    HW211502   5.143   1.145   4.949
 3535SOL     OW11503   5.702   5.358   6.193
 3535SOL    HW111504   5.720   5.298   6.115
 3535SOL    HW211505   5.735   5.450   6.172
 3536SOL     OW11506   1.852   3.540   3.288
 3536SOL    HW111507   1.822   3.491   3.206
 3536SOL    HW211508   1.833   3.637   3.277
 3537SOL     OW11509   1.885   5.770   0.825
 3537SOL    HW111510   1.974   5.767   0.780
 3537SOL    HW211511   1.898   5.773   0.924
 3538SOL     OW11512   2.589   0.520   3.425
 3538SOL    HW111513   2.581   0.422   3.407
 3538SOL    HW211514   2.640   0.564   3.350
 3539SOL     OW11515   5.105   4.808   6.498
 3539SOL    HW111516   5.015   4.804   6.541
 3539SOL    HW211517   5.158   4.727   6.523
 3540SOL     OW11518   3.149   3.289   6.808
 3540SOL    HW111519   3.247   3.296   6.789
 3540SOL    HW211520   3.101   3.367   6.767
 3541SOL     OW11521   3.086   2.337   0.959
 3541SOL    HW111522   3.079   2.242   0.928
 3541SOL    HW211523   3.044   2.397   0.891
 3542SOL     OW11524   5.587   2.125   6.004
 3542SOL    HW111525   5.606   2.177   6.087
 3542SOL    HW211526   5.611   2.029   6.018
 3543SOL     OW11527   2.149   2.518   3.097
 3543SOL    HW111528   2.166   2.616   3.094
 3543SOL    HW211529   2.110   2.493   3.186
 3544SOL     OW11530   2.878   4.443   6.105
 3544SOL    HW111531   2.787   4.475   6.078
 3544SOL    HW211532   2.943   4.461   6.032
 3545SOL     OW11533   3.179   6.893   1.194
 3545SOL    HW111534   3.189   6.901   1.095
 3545SOL    HW211535   3.085   6.868   1.216
 3546SOL     OW11536   6.535   3.673   3.180
 3546SOL    HW111537   6.606   3.742   3.164
 3546SOL    HW211538   6.567   3.584   3.148
 3547SOL     OW11539   0.063   3.556   5.870
 3547SOL    HW111540   7.003   3.515   5.870
 3547SOL    HW211541   0.127   3.495   5.822
 3548SOL     OW11542   5.655   1.062   5.646
 3548SOL    HW111543   5.566   1.103   5.630
 3548SOL    HW211544   5.654   1.013   5.733
 3549SOL     OW11545   2.618   5.442   6.751
 3549SOL    HW111546   2.533   5.403   6.786
 3549SOL    HW211547   2.608   5.540   6.738
 3550SOL     OW11548   5.111   1.438   5.022
 3550SOL    HW111549   5.011   1.444   5.014
 3550SOL    HW211550   5.137   1.430   5.118
 3551SOL     OW11551   4.079   1.956   4.886
 3551SOL    HW111552   4.059   1.883   4.820
 3551SOL    HW211553   4.079   2.044   4.839
 3552SOL     OW11554   0.097   6.284   2.655
 3552SOL    HW111555   0.156   6.265   2.577
 3552SOL    HW211556   0.153   6.301   2.737
 3553SOL     OW11557   4.088   5.237   6.445
 3553SOL    HW111558   4.013   5.178   6.416
 3553SOL    HW211559   4.077   5.328   6.404
 3554SOL     OW11560   4.569   3.600   1.640
 3554SOL    HW111561   4.629   3.607   1.560
 3554SOL    HW211562   4.512   3.682   1.647
 3555SOL     OW11563   2.421   2.333   3.964
 3555SOL    HW111564   2.457   2.279   4.040
 3555SOL    HW211565   2.455   2.426   3.969
 3556SOL     OW11566   4.429   1.211   5.633
 3556SOL    HW111567   4.393   1.166   5.714
 3556SOL    HW211568   4.438   1.144   5.559
 3557SOL     OW11569   6.575   1.757   1.414
 3557SOL    HW111570   6.573   1.658   1.420
 3557SOL    HW211571   6.492   1.790   1.369
 3558SOL     OW11572   2.900   6.848   1.145
 3558SOL    HW111573   2.912   6.934   1.097
 3558SOL    HW211574   2.857   6.866   1.234
 3559SOL     OW11575   4.184   6.600   4.523
 3559SOL    HW111576   4.173   6.509   4.482
 3559SOL    HW211577   4.175   6.670   4.452
 3560SOL     OW11578   1.776   5.870   4.927
 3560SOL    HW111579   1.800   5.773   4.935
 3560SOL    HW211580   1.689   5.879   4.880
 3561SOL     OW11581   5.182   4.328   5.262
 3561SOL    HW111582   5.219   4.262   5.198
 3561SOL    HW211583   5.101   4.290   5.308
 3562SOL     OW11584   2.615   1.505   5.240
 3562SOL    HW111585   2.709   1.519   5.270
 3562SOL    HW211586   2.556   1.573   5.285
 3563SOL     OW11587   5.897   2.371   5.622
 3563SOL    HW111588   5.997   2.373   5.617
 3563SOL    HW211589   5.860   2.335   5.536
 3564SOL     OW11590   6.945   4.572   2.528
 3564SOL    HW111591   6.922   4.669   2.533
 3564SOL    HW211592   6.861   4.519   2.514
 3565SOL     OW11593   3.541   6.078   3.584
 3565SOL    HW111594   3.587   6.088   3.496
 3565SOL    HW211595   3.563   5.988   3.622
 3566SOL     OW11596   0.012   1.550   5.352
 3566SOL    HW111597   6.968   1.572   5.290
 3566SOL    HW211598   0.096   1.592   5.319
 3567SOL     OW11599   0.284   4.508   6.912
 3567SOL    HW111600   0.256   4.451   6.989
 3567SOL    HW211601   0.382   4.528   6.920
 3568SOL     OW11602   6.052   3.831   6.385
 3568SOL    HW111603   6.099   3.904   6.433
 3568SOL    HW211604   6.065   3.744   6.433
 3569SOL     OW11605   2.511   2.395   5.285
 3569SOL    HW111606   2.593   2.340   5.272
 3569SOL    HW211607   2.536   2.482   5.329
 3570SOL     OW11608   6.559   1.398   4.032
 3570SOL    HW111609   6.646   1.389   3.983
 3570SOL    HW211610   6.511   1.310   4.032
 3571SOL     OW11611   6.404   5.712   6.412
 3571SOL    HW111612   6.338   5.637   6.417
 3571SOL    HW211613   6.453   5.708   6.325
 3572SOL     OW11614   5.620   3.731   4.554
 3572SOL    HW111615   5.654   3.758   4.644
 3572SOL    HW211616   5.684   3.761   4.484
 3573SOL     OW11617   1.501   3.805   3.232
 3573SOL    HW111618   1.482   3.838   3.324
 3573SOL    HW211619   1.496   3.881   3.168
 3574SOL     OW11620   0.189   4.090   0.304
 3574SOL    HW111621   0.239   4.121   0.385
 3574SOL    HW211622   0.093   4.117   0.312
 3575SOL     OW11623   6.211   5.476   2.717
 3575SOL    HW111624   6.186   5.545   2.786
 3575SOL    HW211625   6.186   5.510   2.626
 3576SOL     OW11626   0.424   1.627   6.135
 3576SOL    HW111627   0.371   1.659   6.214
 3576SOL    HW211628   0.363   1.616   6.057
 3577SOL     OW11629   0.846   2.848   6.343
 3577SOL    HW111630   0.938   2.884   6.328
 3577SOL    HW211631   0.853   2.761   6.392
 3578SOL     OW11632   3.281   4.368   6.726
 3578SOL    HW111633   3.221   4.305   6.775
 3578SOL    HW211634   3.376   4.350   6.750
 3579SOL     OW11635   6.750   3.128   4.740
 3579SOL    HW111636   6.790   3.219   4.744
 3579SOL    HW211637   6.822   3.059   4.737
 3580SOL     OW11638   6.134   1.691   2.074
 3580SOL    HW111639   6.159   1.730   1.986
 3580SOL    HW211640   6.216   1.655   2.119
 3581SOL     OW11641   0.102   0.553   2.102
 3581SOL    HW111642   0.169   0.515   2.165
 3581SOL    HW211643   0.010   0.543   2.140
 3582SOL     OW11644   0.774   0.501   5.959
 3582SOL    HW111645   0.772   0.594   5.921
 3582SOL    HW211646   0.847   0.495   6.027
 3583SOL     OW11647   1.172   4.463   0.118
 3583SOL    HW111648   1.256   4.457   0.171
 3583SOL    HW211649   1.094   4.471   0.180
 3584SOL     OW11650   5.470   6.392   6.634
 3584SOL    HW111651   5.447   6.313   6.691
 3584SOL    HW211652   5.453   6.369   6.538
 3585SOL     OW11653   3.748   4.954   4.454
 3585SOL    HW111654   3.789   4.865   4.471
 3585SOL    HW211655   3.679   4.973   4.524
 3586SOL     OW11656   6.435   3.226   5.880
 3586SOL    HW111657   6.526   3.245   5.916
 3586SOL    HW211658   6.367   3.276   5.933
 3587SOL     OW11659   3.397   6.771   0.597
 3587SOL    HW111660   3.461   6.718   0.652
 3587SOL    HW211661   3.399   6.739   0.503
 3588SOL     OW11662   1.850   2.120   5.527
 3588SOL    HW111663   1.781   2.180   5.485
 3588SOL    HW211664   1.835   2.116   5.625
 3589SOL     OW11665   3.083   0.794   5.253
 3589SOL    HW111666   2.997   0.810   5.204
 3589SOL    HW211667   3.159   0.826   5.196
 3590SOL     OW11668   1.587   5.396   6.007
 3590SOL    HW111669   1.619   5.467   5.944
 3590SOL    HW211670   1.666   5.350   6.047
 3591SOL     OW11671   5.592   2.802   5.560
 3591SOL    HW111672   5.606   2.707   5.590
 3591SOL    HW211673   5.564   2.858   5.637
 3592SOL     OW11674   5.193   3.362   2.728
 3592SOL    HW111675   5.144   3.402   2.650
 3592SOL    HW211676   5.170   3.265   2.735
 3593SOL     OW11677   2.255   6.853   4.153
 3593SOL    HW111678   2.263   6.920   4.227
 3593SOL    HW211679   2.342   6.805   4.142
 3594SOL     OW11680   2.254   1.040   3.227
 3594SOL    HW111681   2.259   1.096   3.144
 3594SOL    HW211682   2.191   0.964   3.212
 3595SOL     OW11683   2.243   6.398   5.867
 3595SOL    HW111684   2.298   6.318   5.891
 3595SOL    HW211685   2.235   6.459   5.946
 3596SOL     OW11686   6.343   0.873   2.538
 3596SOL    HW111687   6.289   0.919   2.467
 3596SOL    HW211688   6.404   0.806   2.496
 3597SOL     OW11689   4.133   6.354   4.409
 3597SOL    HW111690   4.058   6.365   4.344
 3597SOL    HW211691   4.123   6.267   4.457
 3598SOL     OW11692   0.728   0.090   5.953
 3598SOL    HW111693   0.760   0.157   5.886
 3598SOL    HW211694   0.647   0.044   5.917
 3599SOL     OW11695   6.798   2.423   4.978
 3599SOL    HW111696   6.867   2.391   4.913
 3599SOL    HW211697   6.751   2.503   4.940
 3600SOL     OW11698   6.228   3.047   1.664
 3600SOL    HW111699   6.221   3.144   1.640
 3600SOL    HW211700   6.198   2.992   1.587
 3601SOL     OW11701   0.429   3.773   0.173
 3601SOL    HW111702   0.463   3.860   0.209
 3601SOL    HW211703   0.504   3.706   0.170
 3602SOL     OW11704   1.844   0.828   0.165
 3602SOL    HW111705   1.850   0.757   0.095
 3602SOL    HW211706   1.752   0.827   0.204
 3603SOL     OW11707   3.809   4.916   4.168
 3603SOL    HW111708   3.791   4.913   4.267
 3603SOL    HW211709   3.902   4.949   4.152
 3604SOL     OW11710   6.677   2.398   2.638
 3604SOL    HW111711   6.599   2.377   2.698
 3604SOL    HW211712   6.746   2.326   2.648
 3605SOL     OW11713   5.890   4.342   6.364
 3605SOL    HW111714   5.962   4.373   6.426
 3605SOL    HW211715   5.835   4.420   6.336
 3606SOL     OW11716   6.725   4.538   5.589
 3606SOL    HW111717   6.693   4.559   5.497
 3606SOL    HW211718   6.701   4.614   5.650
 3607SOL     OW11719   5.258   1.157   0.815
 3607SOL    HW111720   5.246   1.058   0.803
 3607SOL    HW211721   5.173   1.197   0.849
 3608SOL     OW11722   0.596   1.849   1.529
 3608SOL    HW111723   0.556   1.777   1.587
 3608SOL    HW211724   0.525   1.886   1.469
 3609SOL     OW11725   6.555   0.560   4.526
 3609SOL    HW111726   6.569   0.461   4.529
 3609SOL    HW211727   6.505   0.589   4.607
 3610SOL     OW11728   0.685   6.759   5.256
 3610SOL    HW111729   0.688   6.855   5.284
 3610SOL    HW211730   0.773   6.716   5.277
 3611SOL     OW11731   3.779   5.247   5.354
 3611SOL    HW111732   3.741   5.338   5.343
 3611SOL    HW211733   3.723   5.181   5.304
 3612SOL     OW11734   1.301   6.313   6.649
 3612SOL    HW111735   1.362   6.340   6.724
 3612SOL    HW211736   1.207   6.337   6.673
 3613SOL     OW11737   4.681   5.025   0.648
 3613SOL    HW111738   4.583   5.041   0.634
 3613SOL    HW211739   4.698   5.007   0.745
 3614SOL     OW11740   4.003   3.275   3.621
 3614SOL    HW111741   3.993   3.219   3.539
 3614SOL    HW211742   4.041   3.364   3.596
 3615SOL     OW11743   6.083   5.175   5.762
 3615SOL    HW111744   6.068   5.078   5.780
 3615SOL    HW211745   6.003   5.213   5.716
 3616SOL     OW11746   6.673   2.119   6.669
 3616SOL    HW111747   6.768   2.092   6.652
 3616SOL    HW211748   6.627   2.134   6.581
 3617SOL     OW11749   6.028   2.435   6.670
 3617SOL    HW111750   6.099   2.366   6.682
 3617SOL    HW211751   5.945   2.391   6.633
 3618SOL     OW11752   1.454   1.653   5.567
 3618SOL    HW111753   1.527   1.611   5.513
 3618SOL    HW211754   1.488   1.673   5.659
 3619SOL     OW11755   6.150   2.351   4.201
 3619SOL    HW111756   6.073   2.312   4.252
 3619SOL    HW211757   6.232   2.349   4.259
 3620SOL     OW11758   5.788   0.199   5.882
 3620SOL    HW111759   5.838   0.157   5.806
 3620SOL    HW211760   5.691   0.175   5.876
 3621SOL     OW11761   3.057   2.963   5.733
 3621SOL    HW111762   3.118   2.940   5.657
 3621SOL    HW211763   3.019   2.880   5.773
 3622SOL     OW11764   0.873   1.005   2.773
 3622SOL    HW111765   0.786   0.978   2.732
 3622SOL    HW211766   0.857   1.081   2.837
 3623SOL     OW11767   5.716   5.182   4.113
 3623SOL    HW111768   5.649   5.208   4.044
 3623SOL    HW211769   5.695   5.090   4.147
 3624SOL     OW11770   2.223   6.531   3.472
 3624SOL    HW111771   2.220   6.502   3.376
 3624SOL    HW211772   2.319   6.531   3.503
 3625SOL     OW11773   6.252   3.351   6.032
 3625SOL    HW111774   6.178   3.386   5.973
 3625SOL    HW211775   6.214   3.326   6.121
 3626SOL     OW11776   2.168   3.528   4.973
 3626SOL    HW111777   2.179   3.444   5.026
 3626SOL    HW211778   2.169   3.607   5.034
 3627SOL     OW11779   4.061   3.814   3.518
 3627SOL    HW111780   4.061   3.781   3.613
 3627SOL    HW211781   3.998   3.891   3.510
 3628SOL     OW11782   2.569   5.939   1.777
 3628SOL    HW111783   2.524   5.928   1.688
 3628SOL    HW211784   2.525   5.879   1.844
 3629SOL     OW11785   6.276   2.193   5.077
 3629SOL    HW111786   6.243   2.173   5.169
 3629SOL    HW211787   6.271   2.111   5.021
 3630SOL     OW11788   5.681   1.996   4.513
 3630SOL    HW111789   5.726   1.956   4.433
 3630SOL    HW211790   5.732   2.077   4.542
 3631SOL     OW11791   2.241   0.099   4.888
 3631SOL    HW111792   2.340   0.104   4.875
 3631SOL    HW211793   2.205   0.015   4.847
 3632SOL     OW11794   5.363   1.014   1.075
 3632SOL    HW111795   5.330   1.109   1.068
 3632SOL    HW211796   5.304   0.963   1.137
 3633SOL     OW11797   2.873   2.539   5.597
 3633SOL    HW111798   2.834   2.449   5.614
 3633SOL    HW211799   2.901   2.546   5.502
 3634SOL     OW11800   0.542   6.455   4.794
 3634SOL    HW111801   0.459   6.400   4.803
 3634SOL    HW211802   0.521   6.551   4.812
 3635SOL     OW11803   3.158   1.396   5.186
 3635SOL    HW111804   3.115   1.306   5.172
 3635SOL    HW211805   3.102   1.466   5.142
 3636SOL     OW11806   0.263   5.812   5.933
 3636SOL    HW111807   0.332   5.775   5.870
 3636SOL    HW211808   0.308   5.839   6.018
 3637SOL     OW11809   6.292   1.972   0.859
 3637SOL    HW111810   6.302   2.065   0.894
 3637SOL    HW211811   6.205   1.934   0.891
 3638SOL     OW11812   6.539   4.548   4.120
 3638SOL    HW111813   6.569   4.636   4.083
 3638SOL    HW211814   6.458   4.561   4.176
 3639SOL     OW11815   3.723   3.644   1.134
 3639SOL    HW111816   3.772   3.561   1.108
 3639SOL    HW211817   3.788   3.714   1.164
 3640SOL     OW11818   3.635   6.301   6.867
 3640SOL    HW111819   3.666   6.209   6.842
 3640SOL    HW211820   3.608   6.302   6.964
 3641SOL     OW11821   3.715   1.670   4.701
 3641SOL    HW111822   3.652   1.629   4.767
 3641SOL    HW211823   3.674   1.753   4.663
 3642SOL     OW11824   5.020   1.055   5.774
 3642SOL    HW111825   5.110   1.036   5.814
 3642SOL    HW211826   5.028   1.128   5.707
 3643SOL     OW11827   3.322   5.727   4.419
 3643SOL    HW111828   3.230   5.737   4.381
 3643SOL    HW211829   3.315   5.711   4.518
 3644SOL     OW11830   6.923   1.419   1.055
 3644SOL    HW111831   6.905   1.480   1.132
 3644SOL    HW211832   6.840   1.366   1.034
 3645SOL     OW11833   5.668   1.480   4.076
 3645SOL    HW111834   5.615   1.563   4.064
 3645SOL    HW211835   5.630   1.408   4.018
 3646SOL     OW11836   6.686   4.582   5.335
 3646SOL    HW111837   6.590   4.576   5.309
 3646SOL    HW211838   6.731   4.494   5.322
 3647SOL     OW11839   1.803   3.143   6.804
 3647SOL    HW111840   1.705   3.128   6.806
 3647SOL    HW211841   1.846   3.099   6.883
 3648SOL     OW11842   4.249   5.524   2.878
 3648SOL    HW111843   4.151   5.531   2.857
 3648SOL    HW211844   4.293   5.612   2.858
 3649SOL     OW11845   4.184   3.209   0.681
 3649SOL    HW111846   4.138   3.251   0.604
 3649SOL    HW211847   4.247   3.139   0.649
 3650SOL     OW11848   6.846   5.974   0.772
 3650SOL    HW111849   6.841   6.049   0.705
 3650SOL    HW211850   6.759   5.925   0.772
 3651SOL     OW11851   0.690   6.221   2.321
 3651SOL    HW111852   0.702   6.287   2.248
 3651SOL    HW211853   0.628   6.148   2.291
 3652SOL     OW11854   4.720   6.653   3.364
 3652SOL    HW111855   4.789   6.593   3.405
 3652SOL    HW211856   4.629   6.620   3.388
 3653SOL     OW11857   6.396   1.143   3.059
 3653SOL    HW111858   6.459   1.088   3.114
 3653SOL    HW211859   6.333   1.083   3.010
 3654SOL     OW11860   2.137   6.536   0.650
 3654SOL    HW111861   2.071   6.498   0.714
 3654SOL    HW211862   2.229   6.529   0.688
 3655SOL     OW11863   1.145   6.745   3.949
 3655SOL    HW111864   1.165   6.798   4.032
 3655SOL    HW211865   1.128   6.650   3.974
 3656SOL     OW11866   1.332   2.386   1.459
 3656SOL    HW111867   1.382   2.471   1.442
 3656SOL    HW211868   1.343   2.325   1.381
 3657SOL     OW11869   4.410   5.860   6.376
 3657SOL    HW111870   4.505   5.845   6.403
 3657SOL    HW211871   4.388   5.805   6.296
 3658SOL     OW11872   1.081   5.860   5.283
 3658SOL    HW111873   1.062   5.763   5.268
 3658SOL    HW211874   1.159   5.888   5.227
 3659SOL     OW11875   2.589   4.337   6.736
 3659SOL    HW111876   2.522   4.365   6.805
 3659SOL    HW211877   2.571   4.242   6.710
 3660SOL     OW11878   4.722   6.067   2.091
 3660SOL    HW111879   4.718   5.999   2.164
 3660SOL    HW211880   4.815   6.075   2.057
 3661SOL     OW11881   4.884   2.311   6.604
 3661SOL    HW111882   4.839   2.309   6.515
 3661SOL    HW211883   4.964   2.371   6.600
 3662SOL     OW11884   3.637   7.007   4.971
 3662SOL    HW111885   3.637   6.959   4.883
 3662SOL    HW211886   3.557   0.035   4.976
 3663SOL     OW11887   1.301   1.183   0.172
 3663SOL    HW111888   1.337   1.096   0.204
 3663SOL    HW211889   1.301   1.249   0.247
 3664SOL     OW11890   5.313   1.578   0.748
 3664SOL    HW111891   5.303   1.670   0.711
 3664SOL    HW211892   5.289   1.577   0.845
 3665SOL     OW11893   0.117   5.772   5.404
 3665SOL    HW111894   0.121   5.682   5.447
 3665SOL    HW211895   0.200   5.824   5.427
 3666SOL     OW11896   1.787   4.397   3.920
 3666SOL    HW111897   1.786   4.497   3.922
 3666SOL    HW211898   1.856   4.366   3.854
 3667SOL     OW11899   6.069   0.316   0.275
 3667SOL    HW111900   5.979   0.353   0.251
 3667SOL    HW211901   6.059   0.257   0.355
 3668SOL     OW11902   1.655   6.894   2.376
 3668SOL    HW111903   1.719   6.971   2.377
 3668SOL    HW211904   1.701   6.812   2.410
 3669SOL     OW11905   5.925   1.523   4.250
 3669SOL    HW111906   5.849   1.547   4.190
 3669SOL    HW211907   5.991   1.599   4.252
 3670SOL     OW11908   2.427   5.654   0.539
 3670SOL    HW111909   2.358   5.695   0.480
 3670SOL    HW211910   2.483   5.590   0.486
 3671SOL     OW11911   6.497   0.604   3.123
 3671SOL    HW111912   6.518   0.533   3.189
 3671SOL    HW211913   6.566   0.604   3.050
 3672SOL     OW11914   6.060   1.746   0.512
 3672SOL    HW111915   6.044   1.704   0.602
 3672SOL    HW211916   5.990   1.816   0.495
 3673SOL     OW11917   4.065   1.115   6.349
 3673SOL    HW111918   3.987   1.168   6.383
 3673SOL    HW211919   4.104   1.061   6.423
 3674SOL     OW11920   0.474   6.679   6.387
 3674SOL    HW111921   0.477   6.630   6.474
 3674SOL    HW211922   0.489   6.615   6.312
 3675SOL     OW11923   1.872   2.476   5.293
 3675SOL    HW111924   1.895   2.447   5.201
 3675SOL    HW211925   1.896   2.572   5.306
 3676SOL     OW11926   4.047   5.093   4.094
 3676SOL    HW111927   4.058   5.061   4.000
 3676SOL    HW211928   3.971   5.159   4.098
 3677SOL     OW11929   0.913   5.850   2.946
 3677SOL    HW111930   0.919   5.924   3.013
 3677SOL    HW211931   0.969   5.773   2.976
 3678SOL     OW11932   0.577   3.055   3.855
 3678SOL    HW111933   0.662   3.026   3.814
 3678SOL    HW211934   0.547   2.987   3.922
 3679SOL     OW11935   0.376   0.850   2.637
 3679SOL    HW111936   0.382   0.937   2.686
 3679SOL    HW211937   0.336   0.865   2.547
 3680SOL     OW11938   6.260   3.086   3.896
 3680SOL    HW111939   6.162   3.069   3.899
 3680SOL    HW211940   6.300   3.073   3.987
 3681SOL     OW11941   0.802   0.775   6.069
 3681SOL    HW111942   0.787   0.777   6.168
 3681SOL    HW211943   0.900   0.777   6.051
 3682SOL     OW11944   6.142   2.509   5.678
 3682SOL    HW111945   6.109   2.591   5.631
 3682SOL    HW211946   6.242   2.512   5.684
 3683SOL     OW11947   6.649   0.569   4.855
 3683SOL    HW111948   6.710   0.571   4.934
 3683SOL    HW211949   6.567   0.623   4.874
 3684SOL     OW11950   1.800   2.803   1.399
 3684SOL    HW111951   1.748   2.781   1.482
 3684SOL    HW211952   1.856   2.884   1.416
 3685SOL     OW11953   6.306   6.338   5.759
 3685SOL    HW111954   6.272   6.381   5.675
 3685SOL    HW211955   6.269   6.387   5.838
 3686SOL     OW11956   6.292   5.031   2.942
 3686SOL    HW111957   6.218   5.085   2.901
 3686SOL    HW211958   6.254   4.974   3.015
 3687SOL     OW11959   3.241   6.230   5.867
 3687SOL    HW111960   3.267   6.254   5.774
 3687SOL    HW211961   3.191   6.307   5.908
 3688SOL     OW11962   0.991   3.991   0.184
 3688SOL    HW111963   0.944   3.910   0.151
 3688SOL    HW211964   1.040   3.970   0.269
 3689SOL     OW11965   0.825   0.673   5.316
 3689SOL    HW111966   0.771   0.732   5.255
 3689SOL    HW211967   0.764   0.606   5.358
 3690SOL     OW11968   4.494   0.599   6.194
 3690SOL    HW111969   4.590   0.591   6.165
 3690SOL    HW211970   4.469   0.695   6.202
 3691SOL     OW11971   2.639   2.801   6.681
 3691SOL    HW111972   2.634   2.721   6.622
 3691SOL    HW211973   2.675   2.878   6.629
 3692SOL     OW11974   0.942   5.537   4.839
 3692SOL    HW111975   0.849   5.536   4.803
 3692SOL    HW211976   0.955   5.618   4.897
 3693SOL     OW11977   1.579   2.940   2.830
 3693SOL    HW111978   1.562   2.949   2.732
 3693SOL    HW211979   1.611   2.848   2.850
 3694SOL     OW11980   0.573   5.301   3.605
 3694SOL    HW111981   0.597   5.244   3.684
 3694SOL    HW211982   0.576   5.397   3.632
 3695SOL     OW11983   0.395   2.088   2.368
 3695SOL    HW111984   0.372   1.998   2.331
 3695SOL    HW211985   0.401   2.083   2.468
 3696SOL     OW11986   4.658   6.354   5.589
 3696SOL    HW111987   4.732   6.288   5.579
 3696SOL    HW211988   4.650   6.407   5.505
 3697SOL     OW11989   6.869   6.379   3.415
 3697SOL    HW111990   6.779   6.407   3.382
 3697SOL    HW211991   6.890   6.426   3.500
 3698SOL     OW11992   3.645   0.318   5.861
 3698SOL    HW111993   3.664   0.220   5.867
 3698SOL    HW211994   3.590   0.337   5.780
 3699SOL     OW11995   6.771   3.855   3.157
 3699SOL    HW111996   6.748   3.944   3.197
 3699SOL    HW211997   6.832   3.806   3.219
 3700SOL     OW11998   6.107   0.607   3.339
 3700SOL    HW111999   6.101   0.512   3.310
 3700SOL    HW212000   6.028   0.629   3.396
 3701SOL     OW12001   0.484   0.990   4.024
 3701SOL    HW112002   0.444   1.081   4.033
 3701SOL    HW212003   0.551   0.976   4.097
 3702SOL     OW12004   4.423   0.252   1.774
 3702SOL    HW112005   4.502   0.206   1.814
 3702SOL    HW212006   4.455   0.316   1.704
 3703SOL     OW12007   4.224   3.926   5.599
 3703SOL    HW112008   4.315   3.926   5.638
 3703SOL    HW212009   4.159   3.965   5.664
 3704SOL     OW12010   2.710   0.772   2.075
 3704SOL    HW112011   2.742   0.843   2.137
 3704SOL    HW212012   2.616   0.747   2.099
 3705SOL     OW12013   4.772   6.898   3.991
 3705SOL    HW112014   4.678   6.933   3.987
 3705SOL    HW212015   4.824   6.930   3.912
 3706SOL     OW12016   1.363   2.550   4.380
 3706SOL    HW112017   1.270   2.573   4.407
 3706SOL    HW212018   1.396   2.616   4.313
 3707SOL     OW12019   5.549   3.229   5.378
 3707SOL    HW112020   5.515   3.138   5.358
 3707SOL    HW212021   5.641   3.241   5.340
 3708SOL     OW12022   5.849   0.011   6.571
 3708SOL    HW112023   5.882   0.040   6.660
 3708SOL    HW212024   5.816   0.090   6.519
 3709SOL     OW12025   3.527   1.049   6.520
 3709SOL    HW112026   3.577   1.080   6.440
 3709SOL    HW212027   3.482   1.127   6.564
 3710SOL     OW12028   6.674   5.773   0.295
 3710SOL    HW112029   6.732   5.824   0.231
 3710SOL    HW212030   6.578   5.793   0.276
 3711SOL     OW12031   0.449   5.655   2.624
 3711SOL    HW112032   0.354   5.636   2.647
 3711SOL    HW212033   0.505   5.651   2.707
 3712SOL     OW12034   6.894   6.433   6.619
 3712SOL    HW112035   6.945   6.393   6.695
 3712SOL    HW212036   6.832   6.364   6.580
 3713SOL     OW12037   2.205   6.551   4.841
 3713SOL    HW112038   2.229   6.608   4.919
 3713SOL    HW212039   2.198   6.456   4.869
 3714SOL     OW12040   5.256   6.386   4.851
 3714SOL    HW112041   5.181   6.432   4.901
 3714SOL    HW212042   5.253   6.414   4.755
 3715SOL     OW12043   5.888   4.346   5.049
 3715SOL    HW112044   5.869   4.301   5.137
 3715SOL    HW212045   5.913   4.276   4.981
 3716SOL     OW12046   0.085   6.386   4.245
 3716SOL    HW112047   0.029   6.314   4.202
 3716SOL    HW212048   0.031   6.432   4.315
 3717SOL     OW12049   5.908   5.532   0.388
 3717SOL    HW112050   5.868   5.622   0.372
 3717SOL    HW212051   5.837   5.469   0.422
 3718SOL     OW12052   1.850   6.412   6.228
 3718SOL    HW112053   1.799   6.467   6.161
 3718SOL    HW212054   1.815   6.318   6.227
 3719SOL     OW12055   4.625   4.344   1.229
 3719SOL    HW112056   4.688   4.417   1.256
 3719SOL    HW212057   4.595   4.295   1.310
 3720SOL     OW12058   6.620   2.630   6.973
 3720SOL    HW112059   6.601   2.693   6.897
 3720SOL    HW212060   6.543   2.566   6.982
 3721SOL     OW12061   5.242   4.662   0.388
 3721SOL    HW112062   5.209   4.748   0.425
 3721SOL    HW212063   5.341   4.656   0.403
 3722SOL     OW12064   6.812   6.473   2.359
 3722SOL    HW112065   6.858   6.398   2.406
 3722SOL    HW212066   6.713   6.463   2.370
 3723SOL     OW12067   5.748   6.911   1.800
 3723SOL    HW112068   5.670   6.911   1.863
 3723SOL    HW212069   5.830   6.881   1.849
 3724SOL     OW12070   1.907   5.115   6.805
 3724SOL    HW112071   1.939   5.098   6.712
 3724SOL    HW212072   1.836   5.049   6.828
 3725SOL     OW12073   5.813   5.981   0.082
 3725SOL    HW112074   5.896   6.034   0.096
 3725SOL    HW212075   5.744   6.038   0.037
 3726SOL     OW12076   6.662   4.106   1.352
 3726SOL    HW112077   6.663   4.161   1.268
 3726SOL    HW212078   6.726   4.030   1.342
 3727SOL     OW12079   0.291   3.396   5.993
 3727SOL    HW112080   0.343   3.417   6.075
 3727SOL    HW212081   0.224   3.469   5.976
 3728SOL     OW12082   1.868   3.367   0.263
 3728SOL    HW112083   1.778   3.361   0.219
 3728SOL    HW212084   1.939   3.372   0.193
 3729SOL     OW12085   0.560   2.464   3.148
 3729SOL    HW112086   0.658   2.457   3.133
 3729SOL    HW212087   0.519   2.519   3.075
 3730SOL     OW12088   2.689   5.989   0.445
 3730SOL    HW112089   2.626   6.015   0.372
 3730SOL    HW212090   2.638   5.944   0.519
 3731SOL     OW12091   4.642   1.631   0.641
 3731SOL    HW112092   4.583   1.551   0.636
 3731SOL    HW212093   4.587   1.714   0.637
 3732SOL     OW12094   2.179   3.322   5.644
 3732SOL    HW112095   2.086   3.293   5.670
 3732SOL    HW212096   2.213   3.265   5.570
 3733SOL     OW12097   2.199   3.952   1.768
 3733SOL    HW112098   2.258   3.872   1.779
 3733SOL    HW212099   2.154   3.973   1.855
 3734SOL     OW12100   4.255   1.520   1.612
 3734SOL    HW112101   4.352   1.530   1.633
 3734SOL    HW212102   4.230   1.423   1.615
 3735SOL     OW12103   0.882   1.837   2.781
 3735SOL    HW112104   0.853   1.764   2.843
 3735SOL    HW212105   0.974   1.868   2.806
 3736SOL     OW12106   6.963   3.069   0.800
 3736SOL    HW112107   6.928   3.160   0.820
 3736SOL    HW212108   6.963   3.055   0.701
 3737SOL     OW12109   4.815   0.203   3.377
 3737SOL    HW112110   4.847   0.230   3.287
 3737SOL    HW212111   4.870   0.127   3.412
 3738SOL     OW12112   6.138   5.648   3.205
 3738SOL    HW112113   6.215   5.712   3.201
 3738SOL    HW212114   6.105   5.630   3.112
 3739SOL     OW12115   1.957   4.127   2.850
 3739SOL    HW112116   1.994   4.159   2.762
 3739SOL    HW212117   1.984   4.033   2.866
 3740SOL     OW12118   4.317   0.802   6.860
 3740SOL    HW112119   4.238   0.777   6.917
 3740SOL    HW212120   4.353   0.720   6.815
 3741SOL     OW12121   4.647   4.074   1.117
 3741SOL    HW112122   4.653   4.172   1.135
 3741SOL    HW212123   4.573   4.056   1.052
 3742SOL     OW12124   2.744   2.307   5.583
 3742SOL    HW112125   2.653   2.323   5.623
 3742SOL    HW212126   2.798   2.251   5.646
 3743SOL     OW12127   6.253   5.072   0.984
 3743SOL    HW112128   6.249   5.032   0.893
 3743SOL    HW212129   6.281   5.167   0.978
 3744SOL     OW12130   1.018   5.622   4.460
 3744SOL    HW112131   0.955   5.572   4.401
 3744SOL    HW212132   0.982   5.714   4.476
 3745SOL     OW12133   3.337   5.373   3.073
 3745SOL    HW112134   3.304   5.283   3.044
 3745SOL    HW212135   3.272   5.443   3.042
 3746SOL     OW12136   4.329   1.421   1.304
 3746SOL    HW112137   4.364   1.382   1.218
 3746SOL    HW212138   4.294   1.513   1.286
 3747SOL     OW12139   2.834   6.516   6.326
 3747SOL    HW112140   2.893   6.487   6.401
 3747SOL    HW212141   2.824   6.616   6.327
 3748SOL     OW12142   5.773   1.215   1.890
 3748SOL    HW112143   5.792   1.301   1.842
 3748SOL    HW212144   5.679   1.215   1.923
 3749SOL     OW12145   1.977   6.781   4.465
 3749SOL    HW112146   1.934   6.692   4.476
 3749SOL    HW212147   2.075   6.774   4.486
 3750SOL     OW12148   1.621   3.753   0.478
 3750SOL    HW112149   1.703   3.698   0.492
 3750SOL    HW212150   1.591   3.791   0.565
 3751SOL     OW12151   0.061   3.782   2.916
 3751SOL    HW112152   0.013   3.869   2.901
 3751SOL    HW212153   0.034   3.744   3.005
 3752SOL     OW12154   5.253   0.630   5.934
 3752SOL    HW112155   5.323   0.657   5.868
 3752SOL    HW212156   5.164   0.627   5.889
 3753SOL     OW12157   6.143   0.557   4.601
 3753SOL    HW112158   6.218   0.502   4.637
 3753SOL    HW212159   6.085   0.589   4.676
 3754SOL     OW12160   2.018   0.494   2.194
 3754SOL    HW112161   1.921   0.484   2.215
 3754SOL    HW212162   2.049   0.584   2.222
 3755SOL     OW12163   3.329   5.073   4.891
 3755SOL    HW112164   3.343   5.007   4.817
 3755SOL    HW212165   3.254   5.042   4.949
 3756SOL     OW12166   3.157   5.881   6.880
 3756SOL    HW112167   3.206   5.943   6.940
 3756SOL    HW212168   3.066   5.917   6.860
 3757SOL     OW12169   6.475   4.900   1.997
 3757SOL    HW112170   6.572   4.876   1.993
 3757SOL    HW212171   6.422   4.822   2.031
 3758SOL     OW12172   2.056   0.905   4.107
 3758SOL    HW112173   1.967   0.878   4.072
 3758SOL    HW212174   2.084   0.992   4.068
 3759SOL     OW12175   5.485   0.873   4.670
 3759SOL    HW112176   5.531   0.789   4.701
 3759SOL    HW212177   5.394   0.877   4.710
 3760SOL     OW12178   0.377   0.483   3.870
 3760SOL    HW112179   0.408   0.548   3.939
 3760SOL    HW212180   0.282   0.457   3.889
 3761SOL     OW12181   6.003   1.412   4.660
 3761SOL    HW112182   6.048   1.501   4.653
 3761SOL    HW212183   5.905   1.423   4.645
 3762SOL     OW12184   1.826   3.740   2.462
 3762SOL    HW112185   1.922   3.765   2.461
 3762SOL    HW212186   1.770   3.822   2.468
 3763SOL     OW12187   0.021   3.890   0.409
 3763SOL    HW112188   0.054   3.796   0.416
 3763SOL    HW212189   0.098   3.950   0.388
 3764SOL     OW12190   1.730   7.020   3.090
 3764SOL    HW112191   1.682   7.009   3.177
 3764SOL    HW212192   1.742   6.931   3.047
 3765SOL     OW12193   6.264   1.660   1.518
 3765SOL    HW112194   6.254   1.758   1.500
 3765SOL    HW212195   6.329   1.620   1.452
 3766SOL     OW12196   1.865   2.723   4.072
 3766SOL    HW112197   1.770   2.751   4.062
 3766SOL    HW212198   1.888   2.657   4.000
 3767SOL     OW12199   3.085   4.260   6.098
 3767SOL    HW112200   3.017   4.330   6.119
 3767SOL    HW212201   3.106   4.208   6.180
 3768SOL     OW12202   1.516   0.319   4.230
 3768SOL    HW112203   1.604   0.285   4.264
 3768SOL    HW212204   1.447   0.312   4.302
 3769SOL     OW12205   5.645   5.534   4.992
 3769SOL    HW112206   5.744   5.526   4.980
 3769SOL    HW212207   5.625   5.598   5.067
 3770SOL     OW12208   0.901   1.168   0.310
 3770SOL    HW112209   0.881   1.130   0.400
 3770SOL    HW212210   0.933   1.096   0.249
 3771SOL     OW12211   7.005   4.896   0.845
 3771SOL    HW112212   0.001   4.959   0.773
 3771SOL    HW212213   6.950   4.822   0.806
 3772SOL     OW12214   0.958   6.713   0.330
 3772SOL    HW112215   1.013   6.648   0.383
 3772SOL    HW212216   0.994   6.805   0.341
 3773SOL     OW12217   5.691   4.091   5.727
 3773SOL    HW112218   5.605   4.080   5.778
 3773SOL    HW212219   5.702   4.015   5.663
 3774SOL     OW12220   5.350   5.580   1.829
 3774SOL    HW112221   5.386   5.633   1.752
 3774SOL    HW212222   5.322   5.641   1.903
 3775SOL     OW12223   4.280   5.111   2.998
 3775SOL    HW112224   4.201   5.168   3.018
 3775SOL    HW212225   4.252   5.015   2.993
 3776SOL     OW12226   4.000   2.787   6.083
 3776SOL    HW112227   4.058   2.849   6.137
 3776SOL    HW212228   4.055   2.743   6.012
 3777SOL     OW12229   3.067   6.364   4.028
 3777SOL    HW112230   3.030   6.330   4.114
 3777SOL    HW212231   3.015   6.326   3.951
 3778SOL     OW12232   3.164   6.205   4.591
 3778SOL    HW112233   3.262   6.217   4.600
 3778SOL    HW212234   3.142   6.107   4.582
 3779SOL     OW12235   0.303   5.242   1.023
 3779SOL    HW112236   0.245   5.163   1.004
 3779SOL    HW212237   0.376   5.247   0.954
 3780SOL     OW12238   0.168   2.203   2.209
 3780SOL    HW112239   0.245   2.150   2.245
 3780SOL    HW212240   0.202   2.289   2.171
 3781SOL     OW12241   1.181   6.548   5.127
 3781SOL    HW112242   1.161   6.568   5.223
 3781SOL    HW212243   1.271   6.584   5.103
 3782SOL     OW12244   4.028   6.388   2.403
 3782SOL    HW112245   4.092   6.361   2.332
 3782SOL    HW212246   3.934   6.380   2.368
 3783SOL     OW12247   5.641   4.744   5.456
 3783SOL    HW112248   5.578   4.695   5.517
 3783SOL    HW212249   5.699   4.677   5.409
 3784SOL     OW12250   5.368   2.409   2.108
 3784SOL    HW112251   5.283   2.415   2.056
 3784SOL    HW212252   5.445   2.434   2.050
 3785SOL     OW12253   0.491   3.313   5.156
 3785SOL    HW112254   0.559   3.320   5.083
 3785SOL    HW212255   0.494   3.220   5.195
 3786SOL     OW12256   2.368   2.264   3.462
 3786SOL    HW112257   2.388   2.358   3.487
 3786SOL    HW212258   2.301   2.263   3.387
 3787SOL     OW12259   4.206   0.622   2.947
 3787SOL    HW112260   4.185   0.611   2.850
 3787SOL    HW212261   4.181   0.538   2.996
 3788SOL     OW12262   6.985   3.799   4.666
 3788SOL    HW112263   7.024   3.747   4.742
 3788SOL    HW212264   0.004   3.884   4.654
 3789SOL     OW12265   0.775   2.666   2.805
 3789SOL    HW112266   0.775   2.599   2.879
 3789SOL    HW212267   0.684   2.673   2.766
 3790SOL     OW12268   1.256   5.850   0.162
 3790SOL    HW112269   1.239   5.845   0.063
 3790SOL    HW212270   1.324   5.921   0.180
 3791SOL     OW12271   5.350   1.580   5.780
 3791SOL    HW112272   5.397   1.542   5.700
 3791SOL    HW212273   5.416   1.631   5.835
 3792SOL     OW12274   0.740   0.865   4.629
 3792SOL    HW112275   0.823   0.909   4.665
 3792SOL    HW212276   0.762   0.772   4.599
 3793SOL     OW12277   6.120   5.891   0.868
 3793SOL    HW112278   6.027   5.925   0.875
 3793SOL    HW212279   6.119   5.791   0.874
 3794SOL     OW12280   1.783   3.374   1.119
 3794SOL    HW112281   1.685   3.354   1.120
 3794SOL    HW212282   1.824   3.340   1.204
 3795SOL     OW12283   3.087   5.974   0.901
 3795SOL    HW112284   3.149   6.053   0.899
 3795SOL    HW212285   3.040   5.966   0.813
 3796SOL     OW12286   4.215   2.499   1.128
 3796SOL    HW112287   4.307   2.538   1.123
 3796SOL    HW212288   4.183   2.477   1.036
 3797SOL     OW12289   1.328   3.867   2.453
 3797SOL    HW112290   1.384   3.868   2.536
 3797SOL    HW212291   1.244   3.816   2.471
 3798SOL     OW12292   2.436   6.801   3.130
 3798SOL    HW112293   2.446   6.794   3.031
 3798SOL    HW212294   2.526   6.797   3.173
 3799SOL     OW12295   6.271   2.637   2.835
 3799SOL    HW112296   6.273   2.608   2.931
 3799SOL    HW212297   6.363   2.662   2.806
 3800SOL     OW12298   5.096   1.482   3.102
 3800SOL    HW112299   5.154   1.477   3.020
 3800SOL    HW212300   5.002   1.502   3.075
 3801SOL     OW12301   5.112   6.728   1.881
 3801SOL    HW112302   5.146   6.821   1.892
 3801SOL    HW212303   5.154   6.669   1.950
 3802SOL     OW12304   0.409   1.454   2.176
 3802SOL    HW112305   0.499   1.416   2.194
 3802SOL    HW212306   0.417   1.538   2.122
 3803SOL     OW12307   3.224   4.023   3.477
 3803SOL    HW112308   3.241   3.966   3.397
 3803SOL    HW212309   3.306   4.075   3.499
 3804SOL     OW12310   3.617   0.794   4.549
 3804SOL    HW112311   3.716   0.780   4.545
 3804SOL    HW212312   3.589   0.858   4.478
 3805SOL     OW12313   2.781   2.625   0.923
 3805SOL    HW112314   2.786   2.720   0.892
 3805SOL    HW212315   2.686   2.594   0.920
 3806SOL     OW12316   4.090   4.470   6.359
 3806SOL    HW112317   4.062   4.381   6.394
 3806SOL    HW212318   4.185   4.488   6.387
 3807SOL     OW12319   1.513   5.090   4.290
 3807SOL    HW112320   1.543   5.002   4.329
 3807SOL    HW212321   1.569   5.111   4.210
 3808SOL     OW12322   4.974   0.478   5.975
 3808SOL    HW112323   4.963   0.577   5.967
 3808SOL    HW212324   4.970   0.436   5.884
 3809SOL     OW12325   6.243   1.930   1.365
 3809SOL    HW112326   6.277   2.012   1.411
 3809SOL    HW212327   6.145   1.920   1.385
 3810SOL     OW12328   6.631   2.442   3.085
 3810SOL    HW112329   6.681   2.388   3.152
 3810SOL    HW212330   6.640   2.540   3.107
 3811SOL     OW12331   0.172   5.660   4.485
 3811SOL    HW112332   0.246   5.719   4.455
 3811SOL    HW212333   0.192   5.624   4.576
 3812SOL     OW12334   3.467   5.808   6.548
 3812SOL    HW112335   3.421   5.759   6.621
 3812SOL    HW212336   3.452   5.907   6.559
 3813SOL     OW12337   5.896   3.957   1.023
 3813SOL    HW112338   5.939   3.877   1.063
 3813SOL    HW212339   5.882   3.941   0.925
 3814SOL     OW12340   0.328   0.138   3.982
 3814SOL    HW112341   0.347   0.067   3.915
 3814SOL    HW212342   0.392   0.214   3.970
 3815SOL     OW12343   5.092   2.951   0.717
 3815SOL    HW112344   5.162   2.989   0.656
 3815SOL    HW212345   5.136   2.891   0.784
 3816SOL     OW12346   0.465   6.853   5.129
 3816SOL    HW112347   0.546   6.806   5.164
 3816SOL    HW212348   0.386   6.792   5.134
 3817SOL     OW12349   4.871   3.193   2.451
 3817SOL    HW112350   4.871   3.265   2.382
 3817SOL    HW212351   4.873   3.234   2.542
 3818SOL     OW12352   0.109   0.392   0.889
 3818SOL    HW112353   0.069   0.437   0.969
 3818SOL    HW212354   0.197   0.352   0.913
 3819SOL     OW12355   6.555   4.194   2.818
 3819SOL    HW112356   6.632   4.208   2.881
 3819SOL    HW212357   6.585   4.139   2.740
 3820SOL     OW12358   5.746   6.725   3.708
 3820SOL    HW112359   5.701   6.775   3.781
 3820SOL    HW212360   5.678   6.694   3.641
 3821SOL     OW12361   0.667   0.275   0.572
 3821SOL    HW112362   0.680   0.371   0.549
 3821SOL    HW212363   0.756   0.233   0.591
 3822SOL     OW12364   3.407   0.381   7.007
 3822SOL    HW112365   3.443   0.334   6.926
 3822SOL    HW212366   3.481   0.427   0.023
 3823SOL     OW12367   4.835   4.891   6.520
 3823SOL    HW112368   4.793   4.965   6.573
 3823SOL    HW212369   4.860   4.925   6.429
 3824SOL     OW12370   0.976   2.944   0.456
 3824SOL    HW112371   0.934   3.034   0.442
 3824SOL    HW212372   1.019   2.914   0.371
 3825SOL     OW12373   1.334   4.338   1.043
 3825SOL    HW112374   1.295   4.303   1.128
 3825SOL    HW212375   1.342   4.437   1.048
 3826SOL     OW12376   6.970   3.998   2.676
 3826SOL    HW112377   6.928   3.970   2.589
 3826SOL    HW212378   6.910   3.970   2.752
 3827SOL     OW12379   1.008   0.804   1.332
 3827SOL    HW112380   1.024   0.902   1.326
 3827SOL    HW212381   1.062   0.766   1.407
 3828SOL     OW12382   3.577   4.200   4.975
 3828SOL    HW112383   3.528   4.276   4.931
 3828SOL    HW212384   3.658   4.177   4.922
 3829SOL     OW12385   0.679   5.298   2.279
 3829SOL    HW112386   0.653   5.384   2.323
 3829SOL    HW212387   0.773   5.306   2.245
 3830SOL     OW12388   0.350   0.650   5.457
 3830SOL    HW112389   0.386   0.742   5.439
 3830SOL    HW212390   0.343   0.636   5.556
 3831SOL     OW12391   4.120   2.244   2.901
 3831SOL    HW112392   4.105   2.148   2.924
 3831SOL    HW212393   4.144   2.294   2.984
 3832SOL     OW12394   0.220   0.485   1.352
 3832SOL    HW112395   0.300   0.476   1.411
 3832SOL    HW212396   0.185   0.578   1.356
 3833SOL     OW12397   1.987   6.601   6.549
 3833SOL    HW112398   2.038   6.588   6.464
 3833SOL    HW212399   1.919   6.528   6.559
 3834SOL     OW12400   3.981   4.157   1.271
 3834SOL    HW112401   4.067   4.167   1.220
 3834SOL    HW212402   3.928   4.242   1.264
 3835SOL     OW12403   3.937   5.975   5.378
 3835SOL    HW112404   3.883   6.028   5.313
 3835SOL    HW212405   4.034   5.998   5.367
 3836SOL     OW12406   0.361   4.869   5.704
 3836SOL    HW112407   0.346   4.875   5.605
 3836SOL    HW212408   0.441   4.924   5.729
 3837SOL     OW12409   4.277   5.080   5.369
 3837SOL    HW112410   4.232   5.049   5.286
 3837SOL    HW212411   4.340   5.154   5.347
 3838SOL     OW12412   1.482   1.208   3.181
 3838SOL    HW112413   1.461   1.157   3.098
 3838SOL    HW212414   1.544   1.283   3.159
 3839SOL     OW12415   4.275   0.948   2.604
 3839SOL    HW112416   4.201   0.881   2.598
 3839SOL    HW212417   4.261   1.006   2.685
 3840SOL     OW12418   2.695   1.974   6.206
 3840SOL    HW112419   2.599   1.994   6.188
 3840SOL    HW212420   2.730   1.915   6.133
 3841SOL     OW12421   0.807   4.388   3.940
 3841SOL    HW112422   0.900   4.395   3.904
 3841SOL    HW212423   0.811   4.361   4.036
 3842SOL     OW12424   2.520   2.604   4.114
 3842SOL    HW112425   2.516   2.634   4.209
 3842SOL    HW212426   2.592   2.535   4.103
 3843SOL     OW12427   5.535   3.368   0.926
 3843SOL    HW112428   5.508   3.464   0.935
 3843SOL    HW212429   5.635   3.362   0.923
 3844SOL     OW12430   1.296   4.620   6.944
 3844SOL    HW112431   1.337   4.701   6.984
 3844SOL    HW212432   1.227   4.583   7.006
 3845SOL     OW12433   2.390   6.061   0.036
 3845SOL    HW112434   2.299   6.102   0.025
 3845SOL    HW212435   2.425   6.034   6.978
 3846SOL     OW12436   0.531   3.293   4.573
 3846SOL    HW112437   0.461   3.316   4.640
 3846SOL    HW212438   0.585   3.374   4.551
 3847SOL     OW12439   5.503   2.025   4.141
 3847SOL    HW112440   5.416   2.074   4.132
 3847SOL    HW212441   5.574   2.073   4.089
 3848SOL     OW12442   4.885   3.468   2.904
 3848SOL    HW112443   4.932   3.536   2.847
 3848SOL    HW212444   4.834   3.515   2.976
 3849SOL     OW12445   0.784   6.823   6.744
 3849SOL    HW112446   0.702   6.878   6.731
 3849SOL    HW212447   0.852   6.875   6.796
 3850SOL     OW12448   3.247   3.056   1.015
 3850SOL    HW112449   3.290   2.980   1.063
 3850SOL    HW212450   3.169   3.023   0.963
 3851SOL     OW12451   6.724   5.162   3.807
 3851SOL    HW112452   6.632   5.142   3.841
 3851SOL    HW212453   6.739   5.113   3.721
 3852SOL     OW12454   3.434   6.928   4.468
 3852SOL    HW112455   3.496   6.932   4.389
 3852SOL    HW212456   3.368   6.854   4.454
 3853SOL     OW12457   1.383   2.103   3.451
 3853SOL    HW112458   1.462   2.140   3.403
 3853SOL    HW212459   1.402   2.009   3.479
 3854SOL     OW12460   1.104   3.249   3.220
 3854SOL    HW112461   1.069   3.303   3.143
 3854SOL    HW212462   1.157   3.308   3.281
 3855SOL     OW12463   4.122   6.329   0.364
 3855SOL    HW112464   4.049   6.298   0.425
 3855SOL    HW212465   4.093   6.411   0.315
 3856SOL     OW12466   0.594   1.501   5.585
 3856SOL    HW112467   0.650   1.483   5.666
 3856SOL    HW212468   0.639   1.570   5.528
 3857SOL     OW12469   1.294   6.350   5.720
 3857SOL    HW112470   1.367   6.364   5.787
 3857SOL    HW212471   1.326   6.378   5.629
 3858SOL     OW12472   3.286   1.475   5.596
 3858SOL    HW112473   3.233   1.391   5.586
 3858SOL    HW212474   3.383   1.454   5.592
 3859SOL     OW12475   6.268   1.027   1.185
 3859SOL    HW112476   6.231   1.089   1.255
 3859SOL    HW212477   6.221   1.044   1.098
 3860SOL     OW12478   1.592   1.163   4.238
 3860SOL    HW112479   1.684   1.182   4.204
 3860SOL    HW212480   1.585   1.193   4.333
 3861SOL     OW12481   4.555   6.376   2.860
 3861SOL    HW112482   4.632   6.363   2.922
 3861SOL    HW212483   4.559   6.468   2.820
 3862SOL     OW12484   0.869   0.677   4.445
 3862SOL    HW112485   0.914   0.766   4.442
 3862SOL    HW212486   0.804   0.670   4.370
 3863SOL     OW12487   5.881   1.349   6.663
 3863SOL    HW112488   5.886   1.343   6.563
 3863SOL    HW212489   5.789   1.380   6.689
 3864SOL     OW12490   2.584   0.603   5.236
 3864SOL    HW112491   2.493   0.641   5.255
 3864SOL    HW212492   2.592   0.584   5.138
 3865SOL     OW12493   4.086   1.800   0.780
 3865SOL    HW112494   4.029   1.719   0.793
 3865SOL    HW212495   4.179   1.780   0.810
 3866SOL     OW12496   3.746   1.391   6.718
 3866SOL    HW112497   3.786   1.314   6.766
 3866SOL    HW212498   3.764   1.476   6.769
 3867SOL     OW12499   1.134   4.076   3.448
 3867SOL    HW112500   1.052   4.070   3.506
 3867SOL    HW212501   1.156   4.172   3.432
 3868SOL     OW12502   4.279   0.401   6.943
 3868SOL    HW112503   4.242   0.317   6.983
 3868SOL    HW212504   4.356   0.434   6.999
 3869SOL     OW12505   6.455   3.069   3.459
 3869SOL    HW112506   6.441   2.998   3.528
 3869SOL    HW212507   6.504   3.146   3.498
 3870SOL     OW12508   6.562   6.771   1.696
 3870SOL    HW112509   6.478   6.788   1.644
 3870SOL    HW212510   6.613   6.696   1.654
 3871SOL     OW12511   3.410   0.228   2.880
 3871SOL    HW112512   3.413   0.136   2.921
 3871SOL    HW212513   3.323   0.272   2.903
 3872SOL     OW12514   2.934   3.421   4.295
 3872SOL    HW112515   2.922   3.444   4.199
 3872SOL    HW212516   2.922   3.504   4.350
 3873SOL     OW12517   5.340   4.230   0.874
 3873SOL    HW112518   5.319   4.142   0.916
 3873SOL    HW212519   5.396   4.285   0.936
 3874SOL     OW12520   4.138   0.848   0.593
 3874SOL    HW112521   4.074   0.790   0.543
 3874SOL    HW212522   4.140   0.940   0.552
 3875SOL     OW12523   1.902   2.699   3.550
 3875SOL    HW112524   1.901   2.741   3.459
 3875SOL    HW212525   1.974   2.742   3.605
 3876SOL     OW12526   3.492   5.325   1.312
 3876SOL    HW112527   3.468   5.317   1.408
 3876SOL    HW212528   3.467   5.240   1.264
 3877SOL     OW12529   6.602   2.509   1.196
 3877SOL    HW112530   6.697   2.484   1.179
 3877SOL    HW212531   6.555   2.433   1.240
 3878SOL     OW12532   4.668   6.215   4.359
 3878SOL    HW112533   4.613   6.198   4.442
 3878SOL    HW212534   4.748   6.155   4.359
 3879SOL     OW12535   5.845   5.387   0.880
 3879SOL    HW112536   5.918   5.402   0.946
 3879SOL    HW212537   5.884   5.369   0.790
 3880SOL     OW12538   5.060   4.043   4.650
 3880SOL    HW112539   4.994   4.047   4.725
 3880SOL    HW212540   5.153   4.053   4.686
 3881SOL     OW12541   1.272   3.691   1.828
 3881SOL    HW112542   1.371   3.689   1.810
 3881SOL    HW212543   1.257   3.697   1.927
 3882SOL     OW12544   0.049   1.089   6.288
 3882SOL    HW112545   0.107   1.171   6.294
 3882SOL    HW212546   0.102   1.009   6.314
 3883SOL     OW12547   4.061   1.320   2.169
 3883SOL    HW112548   4.011   1.319   2.082
 3883SOL    HW212549   4.034   1.400   2.221
 3884SOL     OW12550   0.513   5.906   2.585
 3884SOL    HW112551   0.613   5.906   2.597
 3884SOL    HW212552   0.478   5.814   2.601
 3885SOL     OW12553   6.684   5.560   2.789
 3885SOL    HW112554   6.686   5.651   2.830
 3885SOL    HW212555   6.714   5.492   2.857
 3886SOL     OW12556   4.356   5.579   5.241
 3886SOL    HW112557   4.427   5.510   5.254
 3886SOL    HW212558   4.336   5.624   5.328
 3887SOL     OW12559   0.720   6.911   0.294
 3887SOL    HW112560   0.725   6.891   0.196
 3887SOL    HW212561   0.627   6.894   0.327
 3888SOL     OW12562   6.857   6.939   5.059
 3888SOL    HW112563   6.850   6.964   5.155
 3888SOL    HW212564   6.833   6.842   5.047
 3889SOL     OW12565   6.847   3.419   0.388
 3889SOL    HW112566   6.895   3.406   0.301
 3889SOL    HW212567   6.771   3.354   0.394
 3890SOL     OW12568   6.073   4.798   3.390
 3890SOL    HW112569   5.976   4.814   3.405
 3890SOL    HW212570   6.086   4.750   3.303
 3891SOL     OW12571   5.160   3.684   4.490
 3891SOL    HW112572   5.168   3.623   4.569
 3891SOL    HW212573   5.071   3.670   4.446
 3892SOL     OW12574   0.345   2.409   1.107
 3892SOL    HW112575   0.372   2.484   1.168
 3892SOL    HW212576   0.270   2.438   1.049
 3893SOL     OW12577   4.155   3.613   0.368
 3893SOL    HW112578   4.236   3.656   0.408
 3893SOL    HW212579   4.073   3.644   0.417
 3894SOL     OW12580   4.693   1.274   0.112
 3894SOL    HW112581   4.780   1.228   0.131
 3894SOL    HW212582   4.640   1.282   0.197
 3895SOL     OW12583   0.728   0.308   5.795
 3895SOL    HW112584   0.754   0.369   5.870
 3895SOL    HW212585   0.790   0.321   5.718
 3896SOL     OW12586   0.683   1.248   5.962
 3896SOL    HW112587   0.747   1.175   5.985
 3896SOL    HW212588   0.721   1.303   5.887
 3897SOL     OW12589   3.952   5.341   2.718
 3897SOL    HW112590   3.882   5.395   2.672
 3897SOL    HW212591   3.907   5.270   2.773
 3898SOL     OW12592   2.684   2.806   5.874
 3898SOL    HW112593   2.777   2.777   5.849
 3898SOL    HW212594   2.688   2.859   5.959
 3899SOL     OW12595   4.829   6.828   5.555
 3899SOL    HW112596   4.834   6.916   5.508
 3899SOL    HW212597   4.921   6.793   5.572
 3900SOL     OW12598   4.844   3.147   3.728
 3900SOL    HW112599   4.859   3.215   3.801
 3900SOL    HW212600   4.855   3.191   3.639
 3901SOL     OW12601   3.313   0.676   6.320
 3901SOL    HW112602   3.311   0.579   6.343
 3901SOL    HW212603   3.233   0.722   6.359
 3902SOL     OW12604   6.454   2.954   1.820
 3902SOL    HW112605   6.370   2.990   1.780
 3902SOL    HW212606   6.434   2.871   1.872
 3903SOL     OW12607   3.655   5.936   0.486
 3903SOL    HW112608   3.587   5.863   0.484
 3903SOL    HW212609   3.679   5.957   0.581
 3904SOL     OW12610   2.205   1.558   6.159
 3904SOL    HW112611   2.270   1.598   6.095
 3904SOL    HW212612   2.244   1.561   6.251
 3905SOL     OW12613   0.088   6.988   6.538
 3905SOL    HW112614   0.150   0.029   6.508
 3905SOL    HW212615   0.037   7.019   6.619
 3906SOL     OW12616   5.862   5.998   5.502
 3906SOL    HW112617   5.845   5.919   5.444
 3906SOL    HW212618   5.950   5.986   5.549
 3907SOL     OW12619   5.932   0.967   3.511
 3907SOL    HW112620   5.983   1.019   3.442
 3907SOL    HW212621   5.835   0.964   3.487
 3908SOL     OW12622   0.902   2.371   0.039
 3908SOL    HW112623   0.964   2.301   0.002
 3908SOL    HW212624   0.938   2.405   0.126
 3909SOL     OW12625   6.418   5.952   5.540
 3909SOL    HW112626   6.405   5.864   5.586
 3909SOL    HW212627   6.468   5.938   5.455
 3910SOL     OW12628   3.101   4.025   3.071
 3910SOL    HW112629   3.061   4.009   2.981
 3910SOL    HW212630   3.118   3.938   3.116
 3911SOL     OW12631   5.388   1.698   5.100
 3911SOL    HW112632   5.398   1.703   5.001
 3911SOL    HW212633   5.298   1.732   5.126
 3912SOL     OW12634   5.286   0.938   5.315
 3912SOL    HW112635   5.250   0.856   5.359
 3912SOL    HW212636   5.378   0.958   5.350
 3913SOL     OW12637   2.664   6.302   6.296
 3913SOL    HW112638   2.726   6.227   6.272
 3913SOL    HW212639   2.715   6.374   6.342
 3914SOL     OW12640   2.673   0.936   1.694
 3914SOL    HW112641   2.689   1.033   1.710
 3914SOL    HW212642   2.694   0.914   1.598
 3915SOL     OW12643   4.875   5.454   1.334
 3915SOL    HW112644   4.807   5.499   1.276
 3915SOL    HW212645   4.939   5.522   1.370
 3916SOL     OW12646   1.384   0.262   3.984
 3916SOL    HW112647   1.395   0.172   4.027
 3916SOL    HW212648   1.450   0.326   4.023
 3917SOL     OW12649   6.989   6.297   6.860
 3917SOL    HW112650   6.923   6.224   6.878
 3917SOL    HW212651   7.012   6.343   6.946
 3918SOL     OW12652   5.460   6.199   1.560
 3918SOL    HW112653   5.471   6.103   1.537
 3918SOL    HW212654   5.398   6.209   1.638
 3919SOL     OW12655   3.670   6.764   0.060
 3919SOL    HW112656   3.725   6.682   0.043
 3919SOL    HW212657   3.721   6.845   0.030
 3920SOL     OW12658   3.449   3.182   0.802
 3920SOL    HW112659   3.529   3.179   0.743
 3920SOL    HW212660   3.478   3.195   0.897
 3921SOL     OW12661   0.336   3.642   1.698
 3921SOL    HW112662   0.244   3.613   1.671
 3921SOL    HW212663   0.354   3.732   1.660
 3922SOL     OW12664   6.628   3.500   1.822
 3922SOL    HW112665   6.708   3.476   1.876
 3922SOL    HW212666   6.545   3.493   1.878
 3923SOL     OW12667   6.783   0.589   6.886
 3923SOL    HW112668   6.785   0.651   6.808
 3923SOL    HW212669   6.862   0.606   6.945
 3924SOL     OW12670   6.240   4.996   3.472
 3924SOL    HW112671   6.165   4.932   3.457
 3924SOL    HW212672   6.319   4.970   3.416
 3925SOL     OW12673   2.795   5.256   1.313
 3925SOL    HW112674   2.888   5.268   1.279
 3925SOL    HW212675   2.798   5.228   1.409
 3926SOL     OW12676   6.735   5.365   2.994
 3926SOL    HW112677   6.814   5.414   3.031
 3926SOL    HW212678   6.683   5.324   3.070
 3927SOL     OW12679   6.404   2.647   4.004
 3927SOL    HW112680   6.339   2.603   3.943
 3927SOL    HW212681   6.428   2.738   3.968
 3928SOL     OW12682   3.977   5.911   6.190
 3928SOL    HW112683   3.970   5.825   6.241
 3928SOL    HW212684   4.069   5.949   6.201
 3929SOL     OW12685   7.018   0.717   5.335
 3929SOL    HW112686   6.999   0.781   5.260
 3929SOL    HW212687   7.015   0.765   5.422
 3930SOL     OW12688   2.672   1.955   3.752
 3930SOL    HW112689   2.753   2.003   3.786
 3930SOL    HW212690   2.595   2.019   3.746
 3931SOL     OW12691   1.373   0.676   1.686
 3931SOL    HW112692   1.369   0.598   1.748
 3931SOL    HW212693   1.409   0.646   1.597
 3932SOL     OW12694   1.806   4.748   3.376
 3932SOL    HW112695   1.809   4.648   3.379
 3932SOL    HW212696   1.812   4.778   3.281
 3933SOL     OW12697   2.298   6.384   0.091
 3933SOL    HW112698   2.246   6.327   0.027
 3933SOL    HW212699   2.304   6.338   0.180
 3934SOL     OW12700   6.733   0.997   0.020
 3934SOL    HW112701   6.774   1.019   6.963
 3934SOL    HW212702   6.664   1.066   0.043
 3935SOL     OW12703   2.872   6.452   0.213
 3935SOL    HW112704   2.897   6.463   0.117
 3935SOL    HW212705   2.927   6.513   0.270
 3936SOL     OW12706   6.883   5.382   5.449
 3936SOL    HW112707   6.909   5.403   5.543
 3936SOL    HW212708   6.952   5.416   5.386
 3937SOL     OW12709   6.947   2.022   3.707
 3937SOL    HW112710   6.917   1.948   3.647
 3937SOL    HW212711   6.868   2.060   3.755
 3938SOL     OW12712   0.566   1.792   3.769
 3938SOL    HW112713   0.519   1.871   3.808
 3938SOL    HW212714   0.567   1.800   3.669
 3939SOL     OW12715   2.567   2.448   2.463
 3939SOL    HW112716   2.576   2.354   2.431
 3939SOL    HW212717   2.476   2.482   2.439
 3940SOL     OW12718   4.922   4.912   1.085
 3940SOL    HW112719   4.933   4.877   1.178
 3940SOL    HW212720   5.007   4.953   1.055
 3941SOL     OW12721   5.254   3.239   5.651
 3941SOL    HW112722   5.232   3.147   5.620
 3941SOL    HW212723   5.215   3.306   5.588
 3942SOL     OW12724   0.660   6.890   0.009
 3942SOL    HW112725   0.563   6.913   0.006
 3942SOL    HW212726   0.673   6.797   7.006
 3943SOL     OW12727   0.034   3.370   3.069
 3943SOL    HW112728   6.999   3.383   3.143
 3943SOL    HW212729   7.021   3.325   2.992
 3944SOL     OW12730   4.630   2.596   5.161
 3944SOL    HW112731   4.592   2.665   5.221
 3944SOL    HW212732   4.556   2.545   5.117
 3945SOL     OW12733   0.296   1.728   0.394
 3945SOL    HW112734   0.213   1.762   0.437
 3945SOL    HW212735   0.337   1.800   0.339
 3946SOL     OW12736   5.692   5.355   5.520
 3946SOL    HW112737   5.595   5.372   5.538
 3946SOL    HW212738   5.736   5.320   5.602
 3947SOL     OW12739   5.414   6.216   0.888
 3947SOL    HW112740   5.355   6.290   0.920
 3947SOL    HW212741   5.364   6.160   0.822
 3948SOL     OW12742   1.337   5.531   2.306
 3948SOL    HW112743   1.265   5.464   2.324
 3948SOL    HW212744   1.317   5.578   2.219
 3949SOL     OW12745   4.761   0.584   3.027
 3949SOL    HW112746   4.713   0.512   3.077
 3949SOL    HW212747   4.740   0.673   3.069
 3950SOL     OW12748   2.075   3.976   0.856
 3950SOL    HW112749   2.122   3.920   0.924
 3950SOL    HW212750   2.049   3.919   0.778
 3951SOL     OW12751   5.468   0.166   1.191
 3951SOL    HW112752   5.458   0.196   1.286
 3951SOL    HW212753   5.391   0.106   1.167
 3952SOL     OW12754   6.293   2.807   2.450
 3952SOL    HW112755   6.287   2.708   2.435
 3952SOL    HW212756   6.251   2.830   2.538
 3953SOL     OW12757   3.791   4.846   1.678
 3953SOL    HW112758   3.854   4.772   1.651
 3953SOL    HW212759   3.756   4.891   1.597
 3954SOL     OW12760   4.164   5.180   4.893
 3954SOL    HW112761   4.119   5.260   4.852
 3954SOL    HW212762   4.197   5.119   4.821
 3955SOL     OW12763   3.146   5.970   6.562
 3955SOL    HW112764   3.072   5.990   6.497
 3955SOL    HW212765   3.137   5.876   6.594
 3956SOL     OW12766   0.612   0.810   2.904
 3956SOL    HW112767   0.604   0.896   2.953
 3956SOL    HW212768   0.631   0.828   2.807
 3957SOL     OW12769   5.001   6.348   4.126
 3957SOL    HW112770   4.969   6.333   4.033
 3957SOL    HW212771   5.079   6.288   4.145
 3958SOL     OW12772   6.148   1.322   4.870
 3958SOL    HW112773   6.245   1.312   4.850
 3958SOL    HW212774   6.100   1.355   4.789
 3959SOL     OW12775   4.141   0.337   0.866
 3959SOL    HW112776   4.135   0.416   0.926
 3959SOL    HW212777   4.075   0.268   0.895
 3960SOL     OW12778   4.916   1.931   6.377
 3960SOL    HW112779   4.817   1.940   6.375
 3960SOL    HW212780   4.958   2.006   6.325
 3961SOL     OW12781   5.457   1.575   2.698
 3961SOL    HW112782   5.417   1.666   2.698
 3961SOL    HW212783   5.547   1.578   2.655
 3962SOL     OW12784   3.077   3.885   0.182
 3962SOL    HW112785   3.081   3.974   0.226
 3962SOL    HW212786   3.157   3.831   0.208
 3963SOL     OW12787   4.991   5.165   3.700
 3963SOL    HW112788   4.900   5.155   3.740
 3963SOL    HW212789   5.024   5.259   3.715
 3964SOL     OW12790   4.762   5.418   4.029
 3964SOL    HW112791   4.670   5.443   4.060
 3964SOL    HW212792   4.825   5.421   4.106
 3965SOL     OW12793   4.867   2.553   4.914
 3965SOL    HW112794   4.800   2.627   4.920
 3965SOL    HW212795   4.896   2.527   5.006
 3966SOL     OW12796   4.905   6.329   6.195
 3966SOL    HW112797   4.905   6.369   6.287
 3966SOL    HW212798   4.949   6.392   6.131
 3967SOL     OW12799   2.052   3.596   2.990
 3967SOL    HW112800   2.109   3.584   3.072
 3967SOL    HW212801   2.052   3.511   2.938
 3968SOL     OW12802   4.618   0.327   1.275
 3968SOL    HW112803   4.624   0.312   1.176
 3968SOL    HW212804   4.523   0.320   1.304
 3969SOL     OW12805   1.473   4.326   2.371
 3969SOL    HW112806   1.563   4.341   2.413
 3969SOL    HW212807   1.419   4.265   2.428
 3970SOL     OW12808   6.111   6.249   3.083
 3970SOL    HW112809   6.075   6.342   3.077
 3970SOL    HW212810   6.039   6.184   3.058
 3971SOL     OW12811   3.149   5.451   3.367
 3971SOL    HW112812   3.217   5.522   3.349
 3971SOL    HW212813   3.195   5.363   3.378
 3972SOL     OW12814   1.420   4.081   0.914
 3972SOL    HW112815   1.392   4.165   0.961
 3972SOL    HW212816   1.510   4.052   0.946
 3973SOL     OW12817   1.529   5.545   6.349
 3973SOL    HW112818   1.605   5.577   6.291
 3973SOL    HW212819   1.443   5.568   6.304
 3974SOL     OW12820   2.019   0.351   5.353
 3974SOL    HW112821   1.976   0.263   5.373
 3974SOL    HW212822   1.985   0.385   5.265
 3975SOL     OW12823   5.193   1.300   5.242
 3975SOL    HW112824   5.269   1.300   5.307
 3975SOL    HW212825   5.199   1.218   5.185
 3976SOL     OW12826   1.354   5.813   1.616
 3976SOL    HW112827   1.414   5.759   1.675
 3976SOL    HW212828   1.408   5.881   1.566
 3977SOL     OW12829   2.418   3.931   5.713
 3977SOL    HW112830   2.367   3.853   5.678
 3977SOL    HW212831   2.378   3.961   5.800
 3978SOL     OW12832   5.874   5.190   4.654
 3978SOL    HW112833   5.948   5.247   4.688
 3978SOL    HW212834   5.826   5.147   4.732
 3979SOL     OW12835   3.195   0.154   0.349
 3979SOL    HW112836   3.173   0.067   0.392
 3979SOL    HW212837   3.292   0.174   0.363
 3980SOL     OW12838   5.588   6.080   0.496
 3980SOL    HW112839   5.590   6.121   0.588
 3980SOL    HW212840   5.669   6.109   0.445
 3981SOL     OW12841   3.574   0.447   0.607
 3981SOL    HW112842   3.651   0.420   0.549
 3981SOL    HW212843   3.488   0.432   0.558
 3982SOL     OW12844   2.347   7.030   3.243
 3982SOL    HW112845   2.352   6.943   3.194
 3982SOL    HW212846   2.431   0.011   3.297
 3983SOL     OW12847   5.104   4.850   4.230
 3983SOL    HW112848   5.170   4.821   4.298
 3983SOL    HW212849   5.088   4.948   4.238
 3984SOL     OW12850   6.578   1.454   2.602
 3984SOL    HW112851   6.488   1.423   2.575
 3984SOL    HW212852   6.607   1.405   2.684
 3985SOL     OW12853   2.801   4.445   6.466
 3985SOL    HW112854   2.748   4.498   6.532
 3985SOL    HW212855   2.745   4.425   6.386
 3986SOL     OW12856   5.060   1.729   2.214
 3986SOL    HW112857   5.089   1.753   2.121
 3986SOL    HW212858   5.006   1.803   2.252
 3987SOL     OW12859   3.878   5.139   3.294
 3987SOL    HW112860   3.951   5.158   3.229
 3987SOL    HW212861   3.915   5.091   3.373
 3988SOL     OW12862   3.675   4.446   6.641
 3988SOL    HW112863   3.590   4.491   6.615
 3988SOL    HW212864   3.704   4.384   6.569
 3989SOL     OW12865   6.787   2.982   6.903
 3989SOL    HW112866   6.818   3.007   6.994
 3989SOL    HW212867   6.837   2.902   6.871
 3990SOL     OW12868   4.551   2.133   2.963
 3990SOL    HW112869   4.552   2.146   3.062
 3990SOL    HW212870   4.483   2.063   2.939
 3991SOL     OW12871   6.194   0.707   2.714
 3991SOL    HW112872   6.250   0.754   2.645
 3991SOL    HW212873   6.239   0.622   2.741
 3992SOL     OW12874   3.166   1.480   0.215
 3992SOL    HW112875   3.212   1.393   0.232
 3992SOL    HW212876   3.107   1.471   0.135
 3993SOL     OW12877   1.342   1.873   2.437
 3993SOL    HW112878   1.323   1.776   2.426
 3993SOL    HW212879   1.277   1.926   2.382
 3994SOL     OW12880   1.678   0.145   6.025
 3994SOL    HW112881   1.731   0.139   6.110
 3994SOL    HW212882   1.593   0.094   6.035
 3995SOL     OW12883   2.659   3.474   5.933
 3995SOL    HW112884   2.639   3.495   5.838
 3995SOL    HW212885   2.757   3.459   5.944
 3996SOL     OW12886   0.751   6.765   4.583
 3996SOL    HW112887   0.815   6.735   4.653
 3996SOL    HW212888   0.700   6.686   4.548
 3997SOL     OW12889   5.387   1.498   3.457
 3997SOL    HW112890   5.450   1.420   3.462
 3997SOL    HW212891   5.437   1.582   3.477
 3998SOL     OW12892   4.509   1.162   3.580
 3998SOL    HW112893   4.450   1.147   3.501
 3998SOL    HW212894   4.562   1.079   3.598
 3999SOL     OW12895   5.363   3.292   4.049
 3999SOL    HW112896   5.419   3.365   4.008
 3999SOL    HW212897   5.400   3.268   4.139
 4000SOL     OW12898   3.448   6.792   3.436
 4000SOL    HW112899   3.510   6.715   3.452
 4000SOL    HW212900   3.495   6.877   3.457
 4001SOL     OW12901   2.394   1.557   3.363
 4001SOL    HW112902   2.326   1.599   3.303
 4001SOL    HW212903   2.371   1.460   3.376
 4002SOL     OW12904   3.189   4.111   0.291
 4002SOL    HW112905   3.181   4.193   0.348
 4002SOL    HW212906   3.285   4.081   0.289
 4003SOL     OW12907   3.738   0.183   4.301
 4003SOL    HW112908   3.676   0.236   4.360
 4003SOL    HW212909   3.760   0.236   4.220
 4004SOL     OW12910   5.255   1.765   3.868
 4004SOL    HW112911   5.243   1.715   3.783
 4004SOL    HW212912   5.317   1.842   3.854
 4005SOL     OW12913   5.000   5.213   0.083
 4005SOL    HW112914   5.014   5.247   0.175
 4005SOL    HW212915   5.011   5.113   0.082
 4006SOL     OW12916   4.528   5.918   2.620
 4006SOL    HW112917   4.584   5.862   2.680
 4006SOL    HW212918   4.468   5.860   2.566
 4007SOL     OW12919   0.077   2.841   6.928
 4007SOL    HW112920   0.130   2.897   6.863
 4007SOL    HW212921   7.023   2.813   6.885
 4008SOL     OW12922   2.964   1.893   4.282
 4008SOL    HW112923   2.929   1.867   4.192
 4008SOL    HW212924   2.958   1.814   4.344
 4009SOL     OW12925   4.200   3.333   1.416
 4009SOL    HW112926   4.264   3.330   1.493
 4009SOL    HW212927   4.205   3.422   1.371
 4010SOL     OW12928   2.285   3.364   1.139
 4010SOL    HW112929   2.342   3.311   1.201
 4010SOL    HW212930   2.242   3.439   1.190
 4011SOL     OW12931   0.609   1.248   1.784
 4011SOL    HW112932   0.569   1.213   1.869
 4011SOL    HW212933   0.545   1.234   1.709
 4012SOL     OW12934   6.202   4.555   1.739
 4012SOL    HW112935   6.118   4.518   1.778
 4012SOL    HW212936   6.279   4.532   1.798
 4013SOL     OW12937   3.001   1.637   5.123
 4013SOL    HW112938   2.990   1.619   5.025
 4013SOL    HW212939   3.077   1.701   5.137
 4014SOL     OW12940   5.256   6.351   2.607
 4014SOL    HW112941   5.335   6.410   2.587
 4014SOL    HW212942   5.231   6.361   2.704
 4015SOL     OW12943   4.990   4.966   6.265
 4015SOL    HW112944   5.044   4.945   6.347
 4015SOL    HW212945   5.034   4.926   6.185
 4016SOL     OW12946   2.686   6.082   5.980
 4016SOL    HW112947   2.672   5.986   6.005
 4016SOL    HW212948   2.686   6.091   5.881
 4017SOL     OW12949   0.194   6.061   0.800
 4017SOL    HW112950   0.124   6.084   0.733
 4017SOL    HW212951   0.161   5.988   0.859
 4018SOL     OW12952   3.731   6.198   2.555
 4018SOL    HW112953   3.809   6.222   2.613
 4018SOL    HW212954   3.653   6.255   2.579
 4019SOL     OW12955   5.217   4.613   3.443
 4019SOL    HW112956   5.311   4.646   3.433
 4019SOL    HW212957   5.184   4.632   3.536
 4020SOL     OW12958   4.848   1.559   4.975
 4020SOL    HW112959   4.939   1.597   4.986
 4020SOL    HW212960   4.810   1.535   5.064
 4021SOL     OW12961   3.963   4.960   5.836
 4021SOL    HW112962   3.871   4.969   5.873
 4021SOL    HW212963   4.008   4.881   5.878
 4022SOL     OW12964   4.978   1.639   6.439
 4022SOL    HW112965   5.035   1.604   6.512
 4022SOL    HW212966   5.021   1.621   6.351
 4023SOL     OW12967   6.288   1.673   4.810
 4023SOL    HW112968   6.240   1.648   4.726
 4023SOL    HW212969   6.366   1.732   4.788
 4024SOL     OW12970   3.440   6.655   3.735
 4024SOL    HW112971   3.408   6.749   3.749
 4024SOL    HW212972   3.512   6.654   3.666
 4025SOL     OW12973   0.408   4.072   2.670
 4025SOL    HW112974   0.449   4.017   2.597
 4025SOL    HW212975   0.454   4.051   2.757
 4026SOL     OW12976   5.655   5.993   4.037
 4026SOL    HW112977   5.735   5.984   4.097
 4026SOL    HW212978   5.671   5.942   3.952
 4027SOL     OW12979   3.537   4.202   1.874
 4027SOL    HW112980   3.486   4.236   1.795
 4027SOL    HW212981   3.615   4.261   1.892
 4028SOL     OW12982   1.900   2.012   4.574
 4028SOL    HW112983   1.810   2.044   4.544
 4028SOL    HW212984   1.935   1.946   4.507
 4029SOL     OW12985   2.894   4.024   5.802
 4029SOL    HW112986   2.849   4.085   5.868
 4029SOL    HW212987   2.826   3.960   5.765
 4030SOL     OW12988   1.011   2.420   5.683
 4030SOL    HW112989   0.971   2.398   5.593
 4030SOL    HW212990   0.993   2.344   5.746
 4031SOL     OW12991   4.824   5.569   3.818
 4031SOL    HW112992   4.835   5.525   3.907
 4031SOL    HW212993   4.765   5.514   3.759
 4032SOL     OW12994   6.414   6.577   4.078
 4032SOL    HW112995   6.409   6.665   4.029
 4032SOL    HW212996   6.481   6.518   4.034
 4033SOL     OW12997   3.164   3.659   4.653
 4033SOL    HW112998   3.172   3.711   4.738
 4033SOL    HW212999   3.230   3.694   4.587
 4034SOL     OW13000   6.135   1.291   4.448
 4034SOL    HW113001   6.082   1.331   4.523
 4034SOL    HW213002   6.074   1.241   4.387
 4035SOL     OW13003   0.557   4.570   6.983
 4035SOL    HW113004   0.640   4.514   6.990
 4035SOL    HW213005   0.546   4.624   0.035
 4036SOL     OW13006   6.082   6.122   2.718
 4036SOL    HW113007   6.010   6.189   2.698
 4036SOL    HW213008   6.161   6.140   2.659
 4037SOL     OW13009   1.415   3.622   5.992
 4037SOL    HW113010   1.371   3.663   5.912
 4037SOL    HW213011   1.354   3.629   6.071
 4038SOL     OW13012   4.927   4.356   2.833
 4038SOL    HW113013   5.006   4.331   2.890
 4038SOL    HW213014   4.850   4.296   2.854
 4039SOL     OW13015   5.309   5.906   0.248
 4039SOL    HW113016   5.347   5.901   0.340
 4039SOL    HW213017   5.342   5.990   0.203
 4040SOL     OW13018   3.125   0.531   1.400
 4040SOL    HW113019   3.082   0.475   1.330
 4040SOL    HW213020   3.072   0.527   1.484
 4041SOL     OW13021   0.925   6.092   3.080
 4041SOL    HW113022   0.933   6.148   2.998
 4041SOL    HW213023   0.982   6.130   3.153
 4042SOL     OW13024   6.072   5.465   2.260
 4042SOL    HW113025   6.017   5.548   2.251
 4042SOL    HW213026   6.038   5.410   2.336
 4043SOL     OW13027   4.894   1.909   2.331
 4043SOL    HW113028   4.921   2.002   2.305
 4043SOL    HW213029   4.841   1.912   2.416
 4044SOL     OW13030   6.004   0.434   3.005
 4044SOL    HW113031   5.931   0.380   3.048
 4044SOL    HW213032   6.078   0.447   3.071
 4045SOL     OW13033   2.285   4.885   6.762
 4045SOL    HW113034   2.266   4.983   6.764
 4045SOL    HW213035   2.206   4.835   6.798
 4046SOL     OW13036   0.846   1.898   1.907
 4046SOL    HW113037   0.769   1.956   1.932
 4046SOL    HW213038   0.903   1.946   1.839
 4047SOL     OW13039   3.096   3.655   1.677
 4047SOL    HW113040   3.049   3.705   1.604
 4047SOL    HW213041   3.068   3.559   1.674
 4048SOL     OW13042   5.563   0.972   1.338
 4048SOL    HW113043   5.492   0.949   1.404
 4048SOL    HW213044   5.600   1.063   1.358
 4049SOL     OW13045   6.027   6.920   5.812
 4049SOL    HW113046   6.103   6.869   5.773
 4049SOL    HW213047   6.019   7.009   5.766
 4050SOL     OW13048   1.532   6.296   0.220
 4050SOL    HW113049   1.519   6.393   0.198
 4050SOL    HW213050   1.589   6.253   0.150
 4051SOL     OW13051   3.028   4.991   0.543
 4051SOL    HW113052   3.053   5.009   0.447
 4051SOL    HW213053   2.938   5.028   0.562
 4052SOL     OW13054   0.561   0.567   0.229
 4052SOL    HW113055   0.619   0.527   0.158
 4052SOL    HW213056   0.500   0.497   0.265
 4053SOL     OW13057   3.463   5.157   3.981
 4053SOL    HW113058   3.514   5.153   4.067
 4053SOL    HW213059   3.521   5.198   3.910
 4054SOL     OW13060   3.285   2.496   0.740
 4054SOL    HW113061   3.311   2.438   0.817
 4054SOL    HW213062   3.354   2.568   0.728
 4055SOL     OW13063   3.053   2.702   6.307
 4055SOL    HW113064   3.021   2.677   6.216
 4055SOL    HW213065   3.070   2.618   6.360
 4056SOL     OW13066   3.791   2.813   6.704
 4056SOL    HW113067   3.772   2.777   6.795
 4056SOL    HW213068   3.710   2.804   6.647
 4057SOL     OW13069   5.004   3.355   6.920
 4057SOL    HW113070   4.954   3.283   6.874
 4057SOL    HW213071   5.069   3.397   6.856
 4058SOL     OW13072   2.354   1.099   4.995
 4058SOL    HW113073   2.425   1.057   5.051
 4058SOL    HW213074   2.288   1.145   5.054
 4059SOL     OW13075   2.043   1.930   4.803
 4059SOL    HW113076   1.995   1.963   4.722
 4059SOL    HW213077   1.977   1.896   4.870
 4060SOL     OW13078   4.078   4.804   4.164
 4060SOL    HW113079   4.042   4.731   4.105
 4060SOL    HW213080   4.156   4.848   4.120
 4061SOL     OW13081   3.627   4.458   1.665
 4061SOL    HW113082   3.623   4.544   1.716
 4061SOL    HW213083   3.541   4.409   1.675
 4062SOL     OW13084   3.308   1.214   2.602
 4062SOL    HW113085   3.304   1.311   2.581
 4062SOL    HW213086   3.267   1.198   2.692
 4063SOL     OW13087   3.150   5.467   5.917
 4063SOL    HW113088   3.134   5.565   5.923
 4063SOL    HW213089   3.091   5.427   5.846
 4064SOL     OW13090   0.874   0.064   2.769
 4064SOL    HW113091   0.899   0.101   2.680
 4064SOL    HW213092   0.954   0.023   2.812
 4065SOL     OW13093   6.954   6.611   1.029
 4065SOL    HW113094   7.028   6.677   1.039
 4065SOL    HW213095   6.991   6.518   1.029
 4066SOL     OW13096   5.582   4.037   1.850
 4066SOL    HW113097   5.591   4.117   1.791
 4066SOL    HW213098   5.486   4.026   1.877
 4067SOL     OW13099   5.699   1.603   2.964
 4067SOL    HW113100   5.621   1.593   2.902
 4067SOL    HW213101   5.784   1.600   2.911
 4068SOL     OW13102   5.621   0.617   4.369
 4068SOL    HW113103   5.695   0.660   4.420
 4068SOL    HW213104   5.615   0.520   4.393
 4069SOL     OW13105   5.428   5.014   0.899
 4069SOL    HW113106   5.423   5.010   0.800
 4069SOL    HW213107   5.461   5.104   0.927
 4070SOL     OW13108   2.184   3.870   3.221
 4070SOL    HW113109   2.241   3.953   3.217
 4070SOL    HW213110   2.241   3.790   3.201
 4071SOL     OW13111   1.657   0.196   4.467
 4071SOL    HW113112   1.736   0.257   4.475
 4071SOL    HW213113   1.686   0.102   4.487
 4072SOL     OW13114   1.305   0.087   4.545
 4072SOL    HW113115   1.377   0.112   4.610
 4072SOL    HW213116   1.278   0.168   4.493
 4073SOL     OW13117   2.590   5.670   6.253
 4073SOL    HW113118   2.652   5.731   6.304
 4073SOL    HW213119   2.631   5.580   6.246
 4074SOL     OW13120   0.996   2.716   1.106
 4074SOL    HW113121   0.923   2.741   1.043
 4074SOL    HW213122   0.993   2.618   1.124
 4075SOL     OW13123   4.533   1.439   3.048
 4075SOL    HW113124   4.451   1.475   3.094
 4075SOL    HW213125   4.597   1.406   3.117
 4076SOL     OW13126   2.139   3.313   4.517
 4076SOL    HW113127   2.115   3.385   4.583
 4076SOL    HW213128   2.144   3.353   4.425
 4077SOL     OW13129   3.913   0.898   7.024
 4077SOL    HW113130   3.873   0.980   0.033
 4077SOL    HW213131   3.842   0.831   7.008
 4078SOL     OW13132   6.172   4.048   1.254
 4078SOL    HW113133   6.189   4.023   1.159
 4078SOL    HW213134   6.254   4.091   1.292
 4079SOL     OW13135   0.880   1.094   3.517
 4079SOL    HW113136   0.893   1.041   3.433
 4079SOL    HW213137   0.796   1.065   3.562
 4080SOL     OW13138   3.151   3.532   1.334
 4080SOL    HW113139   3.188   3.621   1.307
 4080SOL    HW213140   3.217   3.460   1.312
 4081SOL     OW13141   2.123   1.580   5.304
 4081SOL    HW113142   2.206   1.622   5.341
 4081SOL    HW213143   2.096   1.504   5.363
 4082SOL     OW13144   1.049   2.639   4.965
 4082SOL    HW113145   1.135   2.596   4.936
 4082SOL    HW213146   1.036   2.726   4.917
 4083SOL     OW13147   5.767   4.876   3.399
 4083SOL    HW113148   5.801   4.940   3.330
 4083SOL    HW213149   5.681   4.910   3.437
 4084SOL     OW13150   4.529   1.803   3.613
 4084SOL    HW113151   4.538   1.792   3.514
 4084SOL    HW213152   4.484   1.889   3.633
 4085SOL     OW13153   2.711   5.654   2.031
 4085SOL    HW113154   2.762   5.730   1.990
 4085SOL    HW213155   2.738   5.568   1.987
 4086SOL     OW13156   6.714   5.645   6.609
 4086SOL    HW113157   6.761   5.639   6.696
 4086SOL    HW213158   6.780   5.644   6.534
 4087SOL     OW13159   2.374   6.997   2.556
 4087SOL    HW113160   2.459   0.016   2.565
 4087SOL    HW213161   2.390   6.900   2.575
 4088SOL     OW13162   0.191   1.331   5.437
 4088SOL    HW113163   0.238   1.329   5.349
 4088SOL    HW213164   0.115   1.395   5.433
 4089SOL     OW13165   0.224   6.545   3.305
 4089SOL    HW113166   0.225   6.610   3.229
 4089SOL    HW213167   0.144   6.561   3.362
 4090SOL     OW13168   2.129   6.916   5.317
 4090SOL    HW113169   2.194   6.953   5.250
 4090SOL    HW213170   2.042   6.965   5.308
 4091SOL     OW13171   2.256   5.765   1.196
 4091SOL    HW113172   2.307   5.744   1.279
 4091SOL    HW213173   2.246   5.681   1.142
 4092SOL     OW13174   4.896   3.463   4.593
 4092SOL    HW113175   4.839   3.535   4.553
 4092SOL    HW213176   4.867   3.446   4.687
 4093SOL     OW13177   5.078   5.807   2.957
 4093SOL    HW113178   5.010   5.735   2.945
 4093SOL    HW213179   5.169   5.767   2.964
 4094SOL     OW13180   7.027   5.464   6.775
 4094SOL    HW113181   0.036   5.394   6.834
 4094SOL    HW213182   7.007   5.545   6.829
 4095SOL     OW13183   0.227   4.558   0.283
 4095SOL    HW113184   0.216   4.647   0.328
 4095SOL    HW213185   0.158   4.549   0.211
 4096SOL     OW13186   1.531   1.822   6.596
 4096SOL    HW113187   1.534   1.919   6.573
 4096SOL    HW213188   1.541   1.811   6.695
 4097SOL     OW13189   0.450   4.482   5.316
 4097SOL    HW113190   0.496   4.571   5.314
 4097SOL    HW213191   0.386   4.480   5.393
 4098SOL     OW13192   2.351   5.348   2.885
 4098SOL    HW113193   2.324   5.433   2.839
 4098SOL    HW213194   2.363   5.367   2.983
 4099SOL     OW13195   4.524   4.379   5.825
 4099SOL    HW113196   4.540   4.464   5.877
 4099SOL    HW213197   4.428   4.354   5.831
 4100SOL     OW13198   1.858   0.833   3.632
 4100SOL    HW113199   1.782   0.797   3.579
 4100SOL    HW213200   1.944   0.797   3.596
 4101SOL     OW13201   6.199   0.545   0.312
 4101SOL    HW113202   6.179   0.451   0.287
 4101SOL    HW213203   6.255   0.588   0.241
 4102SOL     OW13204   1.927   0.643   7.008
 4102SOL    HW113205   2.000   0.617   6.945
 4102SOL    HW213206   1.839   0.613   6.972
 4103SOL     OW13207   1.484   0.017   1.995
 4103SOL    HW113208   1.571   0.029   1.949
 4103SOL    HW213209   1.496   6.991   2.076
 4104SOL     OW13210   0.175   5.667   3.705
 4104SOL    HW113211   0.253   5.725   3.685
 4104SOL    HW213212   0.123   5.705   3.782
 4105SOL     OW13213   4.339   1.262   1.002
 4105SOL    HW113214   4.290   1.175   1.016
 4105SOL    HW213215   4.434   1.244   0.979
 4106SOL     OW13216   0.212   1.831   3.964
 4106SOL    HW113217   0.177   1.910   3.913
 4106SOL    HW213218   0.257   1.768   3.901
 4107SOL     OW13219   0.521   6.363   6.426
 4107SOL    HW113220   0.575   6.422   6.486
 4107SOL    HW213221   0.512   6.406   6.336
 4108SOL     OW13222   0.093   5.305   4.002
 4108SOL    HW113223   0.006   5.255   4.004
 4108SOL    HW213224   0.076   5.401   3.980
 4109SOL     OW13225   6.019   5.901   3.278
 4109SOL    HW113226   6.094   5.965   3.287
 4109SOL    HW213227   6.054   5.813   3.246
 4110SOL     OW13228   5.113   3.634   0.286
 4110SOL    HW113229   5.171   3.703   0.329
 4110SOL    HW213230   5.144   3.620   0.192
 4111SOL     OW13231   7.020   3.993   5.496
 4111SOL    HW113232   6.938   4.051   5.500
 4111SOL    HW213233   0.062   4.036   5.547
 4112SOL     OW13234   4.352   0.125   5.156
 4112SOL    HW113235   4.306   0.037   5.152
 4112SOL    HW213236   4.354   0.166   5.065
 4113SOL     OW13237   4.836   4.326   4.788
 4113SOL    HW113238   4.904   4.399   4.794
 4113SOL    HW213239   4.862   4.261   4.718
 4114SOL     OW13240   6.547   1.368   3.049
 4114SOL    HW113241   6.527   1.440   3.115
 4114SOL    HW213242   6.480   1.294   3.058
 4115SOL     OW13243   3.092   4.950   3.865
 4115SOL    HW113244   3.006   4.900   3.864
 4115SOL    HW213245   3.161   4.896   3.913
 4116SOL     OW13246   5.352   2.871   3.208
 4116SOL    HW113247   5.442   2.840   3.235
 4116SOL    HW213248   5.290   2.793   3.201
 4117SOL     OW13249   1.300   2.677   2.404
 4117SOL    HW113250   1.245   2.608   2.452
 4117SOL    HW213251   1.396   2.650   2.406
 4118SOL     OW13252   6.899   6.226   6.238
 4118SOL    HW113253   6.823   6.178   6.194
 4118SOL    HW213254   6.867   6.269   6.323
 4119SOL     OW13255   1.985   1.243   2.870
 4119SOL    HW113256   1.895   1.280   2.890
 4119SOL    HW213257   1.996   1.235   2.771
 4120SOL     OW13258   1.826   1.171   6.369
 4120SOL    HW113259   1.817   1.227   6.452
 4120SOL    HW213260   1.921   1.168   6.341
 4121SOL     OW13261   6.861   6.881   2.124
 4121SOL    HW113262   6.800   6.831   2.062
 4121SOL    HW213263   6.885   6.823   2.202
 4122SOL     OW13264   0.698   4.891   4.220
 4122SOL    HW113265   0.661   4.802   4.245
 4122SOL    HW213266   0.748   4.930   4.298
 4123SOL     OW13267   3.769   4.870   2.790
 4123SOL    HW113268   3.700   4.798   2.795
 4123SOL    HW213269   3.799   4.880   2.695
 4124SOL     OW13270   6.487   5.966   0.754
 4124SOL    HW113271   6.433   5.941   0.673
 4124SOL    HW213272   6.425   5.996   0.827
 4125SOL     OW13273   5.286   2.134   1.947
 4125SOL    HW113274   5.318   2.220   1.987
 4125SOL    HW213275   5.297   2.138   1.848
 4126SOL     OW13276   1.185   2.290   2.064
 4126SOL    HW113277   1.238   2.369   2.093
 4126SOL    HW213278   1.227   2.250   1.983
 4127SOL     OW13279   3.947   2.184   4.241
 4127SOL    HW113280   4.028   2.242   4.250
 4127SOL    HW213281   3.913   2.159   4.332
 4128SOL     OW13282   0.716   3.556   1.181
 4128SOL    HW113283   0.762   3.581   1.266
 4128SOL    HW213284   0.717   3.457   1.170
 4129SOL     OW13285   2.755   3.027   0.596
 4129SOL    HW113286   2.822   3.100   0.608
 4129SOL    HW213287   2.758   2.993   0.502
 4130SOL     OW13288   6.033   3.011   1.289
 4130SOL    HW113289   6.132   3.022   1.302
 4130SOL    HW213290   5.992   2.977   1.373
 4131SOL     OW13291   4.940   0.785   2.090
 4131SOL    HW113292   5.022   0.842   2.086
 4131SOL    HW213293   4.949   0.708   2.028
 4132SOL     OW13294   6.687   3.954   4.903
 4132SOL    HW113295   6.598   3.995   4.883
 4132SOL    HW213296   6.748   4.024   4.940
 4133SOL     OW13297   6.101   6.818   1.704
 4133SOL    HW113298   6.043   6.827   1.785
 4133SOL    HW213299   6.156   6.735   1.711
 4134SOL     OW13300   2.399   2.855   1.327
 4134SOL    HW113301   2.427   2.794   1.401
 4134SOL    HW213302   2.476   2.913   1.301
 4135SOL     OW13303   6.852   1.425   2.547
 4135SOL    HW113304   6.878   1.330   2.530
 4135SOL    HW213305   6.752   1.431   2.549
 4136SOL     OW13306   1.091   4.023   1.928
 4136SOL    HW113307   1.055   4.110   1.962
 4136SOL    HW213308   1.026   3.950   1.948
 4137SOL     OW13309   1.653   2.929   0.379
 4137SOL    HW113310   1.730   2.896   0.432
 4137SOL    HW213311   1.584   2.857   0.371
 4138SOL     OW13312   4.276   6.308   1.152
 4138SOL    HW113313   4.286   6.408   1.156
 4138SOL    HW213314   4.255   6.273   1.243
 4139SOL     OW13315   1.537   1.785   3.050
 4139SOL    HW113316   1.629   1.747   3.060
 4139SOL    HW213317   1.536   1.877   3.089
 4140SOL     OW13318   2.487   2.693   4.373
 4140SOL    HW113319   2.427   2.773   4.367
 4140SOL    HW213320   2.545   2.701   4.454
 4141SOL     OW13321   4.256   0.172   0.059
 4141SOL    HW113322   4.299   0.090   0.020
 4141SOL    HW213323   4.288   0.184   0.153
 4142SOL     OW13324   6.759   4.270   2.972
 4142SOL    HW113325   6.839   4.293   2.916
 4142SOL    HW213326   6.722   4.354   3.013
 4143SOL     OW13327   5.774   3.282   0.654
 4143SOL    HW113328   5.750   3.187   0.635
 4143SOL    HW213329   5.790   3.294   0.752
 4144SOL     OW13330   5.904   1.973   0.518
 4144SOL    HW113331   5.926   2.050   0.457
 4144SOL    HW213332   5.812   1.939   0.496
 4145SOL     OW13333   0.102   6.496   0.641
 4145SOL    HW113334   0.162   6.431   0.689
 4145SOL    HW213335   0.015   6.453   0.622
 4146SOL     OW13336   5.722   6.443   3.359
 4146SOL    HW113337   5.720   6.490   3.271
 4146SOL    HW213338   5.650   6.374   3.360
 4147SOL     OW13339   4.703   4.181   5.334
 4147SOL    HW113340   4.649   4.117   5.390
 4147SOL    HW213341   4.754   4.129   5.265
 4148SOL     OW13342   2.749   0.819   5.620
 4148SOL    HW113343   2.682   0.787   5.687
 4148SOL    HW213344   2.830   0.762   5.625
 4149SOL     OW13345   1.965   2.990   0.754
 4149SOL    HW113346   1.939   3.061   0.821
 4149SOL    HW213347   1.985   2.905   0.802
 4150SOL     OW13348   6.241   2.411   6.218
 4150SOL    HW113349   6.318   2.467   6.186
 4150SOL    HW213350   6.155   2.459   6.199
 4151SOL     OW13351   2.357   6.904   4.754
 4151SOL    HW113352   2.424   6.843   4.795
 4151SOL    HW213353   2.301   6.854   4.688
 4152SOL     OW13354   3.120   5.812   1.884
 4152SOL    HW113355   3.139   5.762   1.969
 4152SOL    HW213356   3.207   5.845   1.846
 4153SOL     OW13357   6.795   5.005   1.570
 4153SOL    HW113358   6.888   5.030   1.597
 4153SOL    HW213359   6.747   5.086   1.538
 4154SOL     OW13360   0.764   5.807   5.181
 4154SOL    HW113361   0.820   5.829   5.102
 4154SOL    HW213362   0.792   5.863   5.259
 4155SOL     OW13363   0.977   1.954   1.455
 4155SOL    HW113364   0.989   2.002   1.367
 4155SOL    HW213365   0.940   1.863   1.438
 4156SOL     OW13366   6.839   4.675   5.131
 4156SOL    HW113367   6.780   4.643   5.205
 4156SOL    HW213368   6.782   4.707   5.055
 4157SOL     OW13369   6.774   6.504   1.918
 4157SOL    HW113370   6.839   6.497   1.994
 4157SOL    HW213371   6.733   6.595   1.919
 4158SOL     OW13372   1.977   2.475   1.876
 4158SOL    HW113373   2.035   2.556   1.860
 4158SOL    HW213374   2.021   2.416   1.944
 4159SOL     OW13375   2.778   1.312   3.032
 4159SOL    HW113376   2.793   1.325   3.130
 4159SOL    HW213377   2.683   1.284   3.016
 4160SOL     OW13378   6.603   0.356   0.062
 4160SOL    HW113379   6.532   0.285   0.064
 4160SOL    HW213380   6.646   0.358   7.003
 4161SOL     OW13381   2.136   1.763   1.322
 4161SOL    HW113382   2.094   1.853   1.317
 4161SOL    HW213383   2.090   1.701   1.258
 4162SOL     OW13384   6.553   5.939   1.188
 4162SOL    HW113385   6.621   5.937   1.116
 4162SOL    HW213386   6.498   5.855   1.184
 4163SOL     OW13387   4.334   6.936   1.274
 4163SOL    HW113388   4.370   6.942   1.180
 4163SOL    HW213389   4.409   6.953   1.338
 4164SOL     OW13390   6.982   6.401   4.956
 4164SOL    HW113391   6.917   6.325   4.957
 4164SOL    HW213392   7.029   6.406   5.044
 4165SOL     OW13393   3.620   1.369   5.800
 4165SOL    HW113394   3.543   1.306   5.807
 4165SOL    HW213395   3.702   1.327   5.838
 4166SOL     OW13396   5.706   0.441   2.732
 4166SOL    HW113397   5.744   0.519   2.780
 4166SOL    HW213398   5.611   0.461   2.705
 4167SOL     OW13399   3.172   4.914   5.886
 4167SOL    HW113400   3.191   4.835   5.827
 4167SOL    HW213401   3.255   4.970   5.894
 4168SOL     OW13402   6.613   4.648   0.431
 4168SOL    HW113403   6.586   4.564   0.384
 4168SOL    HW213404   6.690   4.629   0.492
 4169SOL     OW13405   5.280   4.123   5.075
 4169SOL    HW113406   5.352   4.058   5.052
 4169SOL    HW213407   5.254   4.174   4.994
 4170SOL     OW13408   4.766   2.922   4.668
 4170SOL    HW113409   4.787   3.012   4.706
 4170SOL    HW213410   4.698   2.876   4.724
 4171SOL     OW13411   1.551   3.795   1.329
 4171SOL    HW113412   1.637   3.810   1.280
 4171SOL    HW213413   1.476   3.786   1.263
 4172SOL     OW13414   3.502   3.776   0.977
 4172SOL    HW113415   3.454   3.719   0.911
 4172SOL    HW213416   3.573   3.722   1.023
 4173SOL     OW13417   4.455   2.873   5.317
 4173SOL    HW113418   4.397   2.792   5.321
 4173SOL    HW213419   4.551   2.846   5.308
 4174SOL     OW13420   4.756   0.404   4.351
 4174SOL    HW113421   4.787   0.496   4.374
 4174SOL    HW213422   4.821   0.362   4.288
 4175SOL     OW13423   1.627   4.532   6.680
 4175SOL    HW113424   1.714   4.485   6.698
 4175SOL    HW213425   1.559   4.500   6.746
 4176SOL     OW13426   5.135   6.800   0.180
 4176SOL    HW113427   5.093   6.732   0.239
 4176SOL    HW213428   5.183   6.755   0.105
 4177SOL     OW13429   4.777   4.908   4.901
 4177SOL    HW113430   4.876   4.904   4.885
 4177SOL    HW213431   4.729   4.900   4.813
 4178SOL     OW13432   3.649   6.040   2.351
 4178SOL    HW113433   3.691   6.095   2.424
 4178SOL    HW213434   3.687   6.068   2.263
 4179SOL     OW13435   5.065   3.297   4.470
 4179SOL    HW113436   5.119   3.347   4.402
 4179SOL    HW213437   5.015   3.363   4.526
 4180SOL     OW13438   5.847   3.580   0.597
 4180SOL    HW113439   5.832   3.483   0.613
 4180SOL    HW213440   5.903   3.618   0.671
 4181SOL     OW13441   5.323   0.365   5.815
 4181SOL    HW113442   5.415   0.380   5.779
 4181SOL    HW213443   5.296   0.444   5.870
 4182SOL     OW13444   0.772   5.888   4.133
 4182SOL    HW113445   0.734   5.803   4.168
 4182SOL    HW213446   0.750   5.963   4.195
 4183SOL     OW13447   2.338   0.956   2.027
 4183SOL    HW113448   2.248   0.918   2.007
 4183SOL    HW213449   2.408   0.908   1.974
 4184SOL     OW13450   3.718   6.866   2.419
 4184SOL    HW113451   3.727   6.778   2.372
 4184SOL    HW213452   3.622   6.894   2.420
 4185SOL     OW13453   0.233   3.661   3.617
 4185SOL    HW113454   0.261   3.752   3.587
 4185SOL    HW213455   0.218   3.603   3.537
 4186SOL     OW13456   2.139   5.764   6.767
 4186SOL    HW113457   2.145   5.799   6.861
 4186SOL    HW213458   2.121   5.665   6.770
 4187SOL     OW13459   2.290   3.167   6.973
 4187SOL    HW113460   2.246   3.198   6.889
 4187SOL    HW213461   2.356   3.094   6.951
 4188SOL     OW13462   5.532   0.746   5.763
 4188SOL    HW113463   5.440   0.768   5.729
 4188SOL    HW213464   5.559   0.812   5.832
 4189SOL     OW13465   4.957   5.563   3.568
 4189SOL    HW113466   4.916   5.646   3.531
 4189SOL    HW213467   4.914   5.541   3.656
 4190SOL     OW13468   6.934   6.241   0.961
 4190SOL    HW113469   6.972   6.164   0.911
 4190SOL    HW213470   7.003   6.279   1.023
 4191SOL     OW13471   4.762   3.749   6.115
 4191SOL    HW113472   4.729   3.716   6.204
 4191SOL    HW213473   4.741   3.847   6.107
 4192SOL     OW13474   1.247   1.230   2.310
 4192SOL    HW113475   1.286   1.274   2.392
 4192SOL    HW213476   1.150   1.255   2.302
 4193SOL     OW13477   5.683   0.557   0.378
 4193SOL    HW113478   5.720   0.520   0.464
 4193SOL    HW213479   5.720   0.505   0.301
 4194SOL     OW13480   3.889   0.692   5.557
 4194SOL    HW113481   3.915   0.621   5.622
 4194SOL    HW213482   3.871   0.651   5.468
 4195SOL     OW13483   4.668   6.586   1.772
 4195SOL    HW113484   4.740   6.605   1.705
 4195SOL    HW213485   4.681   6.494   1.810
 4196SOL     OW13486   6.801   2.918   3.627
 4196SOL    HW113487   6.851   2.842   3.586
 4196SOL    HW213488   6.797   2.994   3.563
 4197SOL     OW13489   3.952   6.289   5.768
 4197SOL    HW113490   3.918   6.336   5.850
 4197SOL    HW213491   3.891   6.214   5.745
 4198SOL     OW13492   6.804   0.368   2.154
 4198SOL    HW113493   6.852   0.331   2.074
 4198SOL    HW213494   6.717   0.321   2.165
 4199SOL     OW13495   1.508   3.749   6.382
 4199SOL    HW113496   1.434   3.783   6.441
 4199SOL    HW213497   1.525   3.815   6.309
 4200SOL     OW13498   3.530   1.124   5.219
 4200SOL    HW113499   3.579   1.210   5.227
 4200SOL    HW213500   3.531   1.094   5.123
 4201SOL     OW13501   6.293   6.897   3.512
 4201SOL    HW113502   6.212   6.954   3.524
 4201SOL    HW213503   6.373   6.947   3.545
 4202SOL     OW13504   3.635   5.483   6.367
 4202SOL    HW113505   3.624   5.427   6.450
 4202SOL    HW213506   3.645   5.422   6.288
 4203SOL     OW13507   4.921   4.699   0.507
 4203SOL    HW113508   4.980   4.779   0.500
 4203SOL    HW213509   4.948   4.644   0.586
 4204SOL     OW13510   3.873   3.385   5.753
 4204SOL    HW113511   3.776   3.376   5.778
 4204SOL    HW213512   3.886   3.468   5.699
 4205SOL     OW13513   3.744   5.822   4.926
 4205SOL    HW113514   3.671   5.836   4.993
 4205SOL    HW213515   3.786   5.733   4.940
 4206SOL     OW13516   0.871   1.207   5.055
 4206SOL    HW113517   0.776   1.176   5.053
 4206SOL    HW213518   0.930   1.133   5.023
 4207SOL     OW13519   1.708   2.270   1.247
 4207SOL    HW113520   1.745   2.298   1.335
 4207SOL    HW213521   1.687   2.351   1.192
 4208SOL     OW13522   1.266   4.669   5.198
 4208SOL    HW113523   1.229   4.761   5.209
 4208SOL    HW213524   1.344   4.671   5.137
 4209SOL     OW13525   6.670   5.869   2.954
 4209SOL    HW113526   6.732   5.835   3.025
 4209SOL    HW213527   6.582   5.823   2.963
 4210SOL     OW13528   3.924   3.127   4.606
 4210SOL    HW113529   3.956   3.075   4.526
 4210SOL    HW213530   3.840   3.085   4.642
 4211SOL     OW13531   3.429   1.863   4.933
 4211SOL    HW113532   3.382   1.843   4.847
 4211SOL    HW213533   3.486   1.785   4.959
 4212SOL     OW13534   0.081   1.132   3.603
 4212SOL    HW113535   0.113   1.038   3.596
 4212SOL    HW213536   7.012   1.132   3.611
 4213SOL     OW13537   2.874   0.953   3.284
 4213SOL    HW113538   2.935   1.025   3.249
 4213SOL    HW213539   2.928   0.886   3.334
 4214SOL     OW13540   0.684   5.558   4.718
 4214SOL    HW113541   0.689   5.503   4.634
 4214SOL    HW213542   0.671   5.498   4.796
 4215SOL     OW13543   5.151   6.591   5.348
 4215SOL    HW113544   5.197   6.673   5.383
 4215SOL    HW213545   5.219   6.521   5.327
 4216SOL     OW13546   1.508   0.795   2.447
 4216SOL    HW113547   1.577   0.741   2.494
 4216SOL    HW213548   1.448   0.840   2.514
 4217SOL     OW13549   1.297   0.087   1.802
 4217SOL    HW113550   1.370   0.072   1.869
 4217SOL    HW213551   1.271   0.184   1.803
 4218SOL     OW13552   3.363   1.104   1.352
 4218SOL    HW113553   3.278   1.148   1.380
 4218SOL    HW213554   3.354   1.070   1.258
 4219SOL     OW13555   4.657   6.332   4.663
 4219SOL    HW113556   4.575   6.289   4.625
 4219SOL    HW213557   4.729   6.334   4.594
 4220SOL     OW13558   5.335   2.305   1.668
 4220SOL    HW113559   5.294   2.226   1.622
 4220SOL    HW213560   5.300   2.389   1.628
 4221SOL     OW13561   6.449   4.903   6.967
 4221SOL    HW113562   6.358   4.943   6.958
 4221SOL    HW213563   6.441   4.811   7.005
 4222SOL     OW13564   5.338   1.955   3.420
 4222SOL    HW113565   5.369   2.050   3.408
 4222SOL    HW213566   5.253   1.942   3.368
 4223SOL     OW13567   4.192   4.183   1.064
 4223SOL    HW113568   4.276   4.131   1.051
 4223SOL    HW213569   4.124   4.155   0.996
 4224SOL     OW13570   5.658   4.507   5.047
 4224SOL    HW113571   5.673   4.508   5.146
 4224SOL    HW213572   5.733   4.458   5.002
 4225SOL     OW13573   1.578   1.974   5.653
 4225SOL    HW113574   1.496   2.031   5.658
 4225SOL    HW213575   1.594   1.947   5.558
 4226SOL     OW13576   1.100   5.998   4.618
 4226SOL    HW113577   1.017   6.054   4.623
 4226SOL    HW213578   1.104   5.953   4.528
 4227SOL     OW13579   5.109   6.005   1.766
 4227SOL    HW113580   5.200   6.028   1.799
 4227SOL    HW213581   5.052   6.087   1.764
 4228SOL     OW13582   0.624   6.185   5.125
 4228SOL    HW113583   0.614   6.128   5.043
 4228SOL    HW213584   0.696   6.147   5.183
 4229SOL     OW13585   4.985   6.054   5.572
 4229SOL    HW113586   4.936   5.969   5.593
 4229SOL    HW213587   4.993   6.109   5.655
 4230SOL     OW13588   0.945   6.886   2.937
 4230SOL    HW113589   1.038   6.874   2.901
 4230SOL    HW213590   0.947   6.954   3.010
 4231SOL     OW13591   4.957   0.613   5.567
 4231SOL    HW113592   4.988   0.531   5.615
 4231SOL    HW213593   4.893   0.663   5.625
 4232SOL     OW13594   2.333   5.753   3.561
 4232SOL    HW113595   2.395   5.813   3.612
 4232SOL    HW213596   2.314   5.671   3.614
 4233SOL     OW13597   0.584   0.087   4.201
 4233SOL    HW113598   0.511   0.069   4.267
 4233SOL    HW213599   0.650   0.151   4.241
 4234SOL     OW13600   1.771   5.652   5.404
 4234SOL    HW113601   1.738   5.585   5.471
 4234SOL    HW213602   1.700   5.669   5.336
 4235SOL     OW13603   6.506   5.060   5.523
 4235SOL    HW113604   6.598   5.058   5.562
 4235SOL    HW213605   6.475   4.967   5.506
 4236SOL     OW13606   0.785   4.787   2.072
 4236SOL    HW113607   0.696   4.746   2.053
 4236SOL    HW213608   0.779   4.840   2.157
 4237SOL     OW13609   6.283   4.349   4.579
 4237SOL    HW113610   6.264   4.308   4.668
 4237SOL    HW213611   6.215   4.318   4.513
 4238SOL     OW13612   1.192   0.790   3.435
 4238SOL    HW113613   1.132   0.799   3.355
 4238SOL    HW213614   1.150   0.729   3.502
 4239SOL     OW13615   4.109   1.084   2.310
 4239SOL    HW113616   4.057   1.166   2.284
 4239SOL    HW213617   4.204   1.094   2.282
 4240SOL     OW13618   2.113   5.179   6.991
 4240SOL    HW113619   2.044   5.145   6.927
 4240SOL    HW213620   2.119   5.116   0.038
 4241SOL     OW13621   5.852   1.706   0.180
 4241SOL    HW113622   5.820   1.652   0.102
 4241SOL    HW213623   5.818   1.800   0.170
 4242SOL     OW13624   2.230   2.397   3.771
 4242SOL    HW113625   2.269   2.361   3.856
 4242SOL    HW213626   2.294   2.463   3.731
 4243SOL     OW13627   4.791   1.758   2.636
 4243SOL    HW113628   4.787   1.749   2.736
 4243SOL    HW213629   4.750   1.846   2.609
 4244SOL     OW13630   3.537   3.596   1.854
 4244SOL    HW113631   3.472   3.646   1.797
 4244SOL    HW213632   3.533   3.498   1.832
 4245SOL     OW13633   6.446   1.891   6.713
 4245SOL    HW113634   6.507   1.827   6.760
 4245SOL    HW213635   6.500   1.947   6.650
 4246SOL     OW13636   6.379   4.261   3.270
 4246SOL    HW113637   6.293   4.231   3.311
 4246SOL    HW213638   6.367   4.271   3.171
 4247SOL     OW13639   0.533   6.209   4.269
 4247SOL    HW113640   0.563   6.117   4.291
 4247SOL    HW213641   0.606   6.257   4.220
 4248SOL     OW13642   2.317   1.938   4.483
 4248SOL    HW113643   2.256   1.863   4.509
 4248SOL    HW213644   2.327   1.940   4.384
 4249SOL     OW13645   6.580   3.026   5.290
 4249SOL    HW113646   6.561   3.072   5.376
 4249SOL    HW213647   6.512   2.954   5.275
 4250SOL     OW13648   6.656   4.561   2.958
 4250SOL    HW113649   6.750   4.592   2.971
 4250SOL    HW213650   6.615   4.542   3.047
 4251SOL     OW13651   5.846   4.845   0.207
 4251SOL    HW113652   5.855   4.918   0.139
 4251SOL    HW213653   5.765   4.789   0.186
 4252SOL     OW13654   6.541   6.327   4.862
 4252SOL    HW113655   6.465   6.263   4.845
 4252SOL    HW213656   6.563   6.326   4.959
 4253SOL     OW13657   2.991   0.510   2.214
 4253SOL    HW113658   2.987   0.609   2.228
 4253SOL    HW213659   3.086   0.480   2.226
 4254SOL     OW13660   1.151   3.206   1.520
 4254SOL    HW113661   1.190   3.232   1.608
 4254SOL    HW213662   1.108   3.285   1.477
 4255SOL     OW13663   6.226   2.343   3.598
 4255SOL    HW113664   6.243   2.313   3.504
 4255SOL    HW213665   6.157   2.283   3.640
 4256SOL     OW13666   1.119   6.431   0.843
 4256SOL    HW113667   1.217   6.416   0.857
 4256SOL    HW213668   1.070   6.344   0.852
 4257SOL     OW13669   3.471   0.603   5.348
 4257SOL    HW113670   3.438   0.573   5.258
 4257SOL    HW213671   3.410   0.673   5.385
 4258SOL     OW13672   6.025   0.033   1.580
 4258SOL    HW113673   5.943   0.052   1.635
 4258SOL    HW213674   6.074   6.987   1.620
 4259SOL     OW13675   2.679   0.742   6.628
 4259SOL    HW113676   2.774   0.714   6.641
 4259SOL    HW213677   2.626   0.664   6.595
 4260SOL     OW13678   4.707   5.787   4.054
 4260SOL    HW113679   4.634   5.736   4.008
 4260SOL    HW213680   4.747   5.853   3.991
 4261SOL     OW13681   2.370   0.251   2.102
 4261SOL    HW113682   2.423   0.330   2.133
 4261SOL    HW213683   2.385   0.174   2.164
 4262SOL     OW13684   1.235   4.926   5.427
 4262SOL    HW113685   1.294   4.904   5.505
 4262SOL    HW213686   1.274   5.003   5.376
 4263SOL     OW13687   2.837   6.505   4.350
 4263SOL    HW113688   2.824   6.417   4.305
 4263SOL    HW213689   2.750   6.536   4.388
 4264SOL     OW13690   0.051   1.698   2.092
 4264SOL    HW113691   0.016   1.659   2.177
 4264SOL    HW213692   0.094   1.627   2.037
 4265SOL     OW13693   6.028   1.783   6.950
 4265SOL    HW113694   6.112   1.773   7.003
 4265SOL    HW213695   5.966   1.846   6.996
 4266SOL     OW13696   2.371   5.450   0.307
 4266SOL    HW113697   2.464   5.485   0.302
 4266SOL    HW213698   2.317   5.509   0.367
 4267SOL     OW13699   1.973   3.958   5.057
 4267SOL    HW113700   2.035   3.955   5.135
 4267SOL    HW213701   2.017   4.007   4.982
 4268SOL     OW13702   1.747   6.689   0.173
 4268SOL    HW113703   1.822   6.714   0.234
 4268SOL    HW213704   1.778   6.694   0.078
 4269SOL     OW13705   1.861   1.377   0.488
 4269SOL    HW113706   1.888   1.309   0.421
 4269SOL    HW213707   1.770   1.412   0.466
 4270SOL     OW13708   3.237   3.030   4.001
 4270SOL    HW113709   3.153   3.064   4.044
 4270SOL    HW213710   3.216   2.999   3.908
 4271SOL     OW13711   0.284   0.493   5.768
 4271SOL    HW113712   0.359   0.430   5.751
 4271SOL    HW213713   0.259   0.490   5.864
 4272SOL     OW13714   0.392   4.915   4.505
 4272SOL    HW113715   0.346   4.922   4.594
 4272SOL    HW213716   0.392   4.820   4.475
 4273SOL     OW13717   4.800   6.661   4.150
 4273SOL    HW113718   4.858   6.683   4.228
 4273SOL    HW213719   4.762   6.746   4.112
 4274SOL     OW13720   0.660   6.724   3.114
 4274SOL    HW113721   0.605   6.643   3.093
 4274SOL    HW213722   0.757   6.699   3.113
 4275SOL     OW13723   0.037   1.725   6.040
 4275SOL    HW113724   0.007   1.747   5.947
 4275SOL    HW213725   0.001   1.635   6.066
 4276SOL     OW13726   1.211   5.168   2.877
 4276SOL    HW113727   1.303   5.207   2.873
 4276SOL    HW213728   1.211   5.086   2.934
 4277SOL     OW13729   6.882   4.722   4.214
 4277SOL    HW113730   6.960   4.665   4.239
 4277SOL    HW213731   6.906   4.818   4.225
 4278SOL     OW13732   6.970   0.924   5.161
 4278SOL    HW113733   0.014   0.920   5.096
 4278SOL    HW213734   6.990   0.994   5.231
 4279SOL     OW13735   3.605   6.623   5.422
 4279SOL    HW113736   3.604   6.541   5.480
 4279SOL    HW213737   3.512   6.643   5.391
 4280SOL     OW13738   5.120   1.398   5.722
 4280SOL    HW113739   5.181   1.476   5.737
 4280SOL    HW213740   5.045   1.401   5.788
 4281SOL     OW13741   2.196   4.923   4.426
 4281SOL    HW113742   2.104   4.960   4.414
 4281SOL    HW213743   2.254   4.951   4.350
 4282SOL     OW13744   2.300   2.048   0.089
 4282SOL    HW113745   2.296   2.070   0.186
 4282SOL    HW213746   2.251   2.117   0.036
 4283SOL     OW13747   1.962   0.266   3.976
 4283SOL    HW113748   2.028   0.339   3.957
 4283SOL    HW213749   1.977   0.190   3.912
 4284SOL     OW13750   5.275   6.373   2.328
 4284SOL    HW113751   5.375   6.369   2.333
 4284SOL    HW213752   5.237   6.364   2.420
 4285SOL     OW13753   0.647   6.882   6.456
 4285SOL    HW113754   0.620   6.910   6.548
 4285SOL    HW213755   0.591   6.804   6.427
 4286SOL     OW13756   4.916   5.751   6.971
 4286SOL    HW113757   4.931   5.706   6.882
 4286SOL    HW213758   4.994   5.733   7.031
 4287SOL     OW13759   6.034   0.416   5.732
 4287SOL    HW113760   5.981   0.478   5.675
 4287SOL    HW213761   6.123   0.457   5.752
 4288SOL     OW13762   0.626   5.980   3.581
 4288SOL    HW113763   0.711   6.026   3.609
 4288SOL    HW213764   0.548   6.040   3.600
 4289SOL     OW13765   5.972   2.952   1.541
 4289SOL    HW113766   6.024   2.872   1.571
 4289SOL    HW213767   5.929   2.995   1.620
 4290SOL     OW13768   2.402   6.212   1.217
 4290SOL    HW113769   2.341   6.151   1.167
 4290SOL    HW213770   2.349   6.265   1.284
 4291SOL     OW13771   4.777   3.440   1.772
 4291SOL    HW113772   4.867   3.483   1.770
 4291SOL    HW213773   4.711   3.497   1.723
 4292SOL     OW13774   6.363   4.634   5.679
 4292SOL    HW113775   6.434   4.600   5.742
 4292SOL    HW213776   6.315   4.556   5.638
 4293SOL     OW13777   6.766   4.002   6.588
 4293SOL    HW113778   6.816   3.932   6.638
 4293SOL    HW213779   6.677   4.018   6.631
 4294SOL     OW13780   4.459   3.026   0.266
 4294SOL    HW113781   4.448   2.958   0.193
 4294SOL    HW213782   4.374   3.077   0.277
 4295SOL     OW13783   3.770   6.784   5.077
 4295SOL    HW113784   3.705   6.709   5.094
 4295SOL    HW213785   3.721   6.861   5.037
 4296SOL     OW13786   2.962   1.550   0.478
 4296SOL    HW113787   2.877   1.497   0.469
 4296SOL    HW213788   3.032   1.511   0.419
 4297SOL     OW13789   5.386   7.013   5.209
 4297SOL    HW113790   5.416   0.015   5.299
 4297SOL    HW213791   5.456   0.002   5.141
 4298SOL     OW13792   1.697   5.570   6.818
 4298SOL    HW113793   1.607   5.530   6.832
 4298SOL    HW213794   1.705   5.605   6.725
 4299SOL     OW13795   1.116   2.729   6.794
 4299SOL    HW113796   1.043   2.670   6.760
 4299SOL    HW213797   1.199   2.674   6.808
 4300SOL     OW13798   2.996   1.634   6.660
 4300SOL    HW113799   2.929   1.701   6.692
 4300SOL    HW213800   2.990   1.626   6.560
 4301SOL     OW13801   2.749   1.367   0.488
 4301SOL    HW113802   2.738   1.436   0.559
 4301SOL    HW213803   2.663   1.317   0.476
 4302SOL     OW13804   1.043   6.316   5.548
 4302SOL    HW113805   1.106   6.344   5.621
 4302SOL    HW213806   1.055   6.218   5.530
 4303SOL     OW13807   5.882   4.430   3.523
 4303SOL    HW113808   5.821   4.352   3.537
 4303SOL    HW213809   5.843   4.492   3.455
 4304SOL     OW13810   3.271   3.729   4.160
 4304SOL    HW113811   3.179   3.767   4.161
 4304SOL    HW213812   3.293   3.694   4.252
 4305SOL     OW13813   6.357   1.871   3.957
 4305SOL    HW113814   6.388   1.801   4.021
 4305SOL    HW213815   6.425   1.883   3.885
 4306SOL     OW13816   0.089   3.904   6.572
 4306SOL    HW113817   0.042   3.907   6.660
 4306SOL    HW213818   0.135   3.816   6.561
 4307SOL     OW13819   4.886   4.691   5.797
 4307SOL    HW113820   4.821   4.767   5.802
 4307SOL    HW213821   4.968   4.719   5.748
 4308SOL     OW13822   5.513   5.710   6.382
 4308SOL    HW113823   5.433   5.738   6.436
 4308SOL    HW213824   5.560   5.791   6.347
 4309SOL     OW13825   0.442   6.813   0.345
 4309SOL    HW113826   0.388   6.878   0.291
 4309SOL    HW213827   0.382   6.766   0.410
 4310SOL     OW13828   1.735   2.369   3.613
 4310SOL    HW113829   1.698   2.291   3.664
 4310SOL    HW213830   1.714   2.454   3.662
 4311SOL     OW13831   1.209   5.383   3.196
 4311SOL    HW113832   1.127   5.326   3.190
 4311SOL    HW213833   1.256   5.382   3.108
 4312SOL     OW13834   1.507   5.443   1.400
 4312SOL    HW113835   1.426   5.384   1.406
 4312SOL    HW213836   1.574   5.413   1.467
 4313SOL     OW13837   5.415   1.567   1.999
 4313SOL    HW113838   5.393   1.470   1.992
 4313SOL    HW213839   5.337   1.617   2.036
 4314SOL     OW13840   5.116   3.177   3.473
 4314SOL    HW113841   5.156   3.169   3.565
 4314SOL    HW213842   5.188   3.164   3.404
 4315SOL     OW13843   1.727   0.691   2.233
 4315SOL    HW113844   1.697   0.671   2.327
 4315SOL    HW213845   1.755   0.787   2.228
 4316SOL     OW13846   5.266   6.934   1.372
 4316SOL    HW113847   5.362   6.907   1.361
 4316SOL    HW213848   5.211   6.887   1.302
 4317SOL     OW13849   3.159   1.147   4.713
 4317SOL    HW113850   3.256   1.156   4.692
 4317SOL    HW213851   3.144   1.064   4.768
 4318SOL     OW13852   0.928   3.637   3.441
 4318SOL    HW113853   0.899   3.543   3.457
 4318SOL    HW213854   0.859   3.700   3.475
 4319SOL     OW13855   2.760   3.021   0.326
 4319SOL    HW113856   2.770   3.119   0.310
 4319SOL    HW213857   2.766   2.972   0.238
 4320SOL     OW13858   1.492   6.009   1.509
 4320SOL    HW113859   1.557   6.063   1.562
 4320SOL    HW213860   1.516   6.014   1.412
 4321SOL     OW13861   6.397   0.566   4.280
 4321SOL    HW113862   6.444   0.509   4.213
 4321SOL    HW213863   6.450   0.567   4.365
 4322SOL     OW13864   6.282   1.376   6.741
 4322SOL    HW113865   6.227   1.444   6.789
 4322SOL    HW213866   6.228   1.292   6.727
 4323SOL     OW13867   5.872   3.492   2.195
 4323SOL    HW113868   5.830   3.470   2.107
 4323SOL    HW213869   5.839   3.582   2.225
 4324SOL     OW13870   5.488   4.737   6.928
 4324SOL    HW113871   5.463   4.832   6.911
 4324SOL    HW213872   5.476   4.683   6.844
 4325SOL     OW13873   0.900   0.973   6.648
 4325SOL    HW113874   0.950   1.027   6.715
 4325SOL    HW213875   0.957   0.959   6.567
 4326SOL     OW13876   6.992   2.945   5.202
 4326SOL    HW113877   6.946   2.911   5.284
 4326SOL    HW213878   6.989   3.045   5.202
 4327SOL     OW13879   5.978   5.346   2.500
 4327SOL    HW113880   5.994   5.444   2.498
 4327SOL    HW213881   5.886   5.327   2.536
 4328SOL     OW13882   4.735   4.572   6.068
 4328SOL    HW113883   4.736   4.665   6.104
 4328SOL    HW213884   4.792   4.567   5.986
 4329SOL     OW13885   3.167   1.865   6.282
 4329SOL    HW113886   3.177   1.775   6.240
 4329SOL    HW213887   3.149   1.933   6.210
 4330SOL     OW13888   2.989   0.539   5.386
 4330SOL    HW113889   2.922   0.544   5.460
 4330SOL    HW213890   3.027   0.630   5.370
 4331SOL     OW13891   5.098   3.257   1.603
 4331SOL    HW113892   5.089   3.157   1.603
 4331SOL    HW213893   5.107   3.289   1.697
 4332SOL     OW13894   5.554   4.329   2.388
 4332SOL    HW113895   5.537   4.367   2.297
 4332SOL    HW213896   5.471   4.283   2.421
 4333SOL     OW13897   4.415   1.694   5.173
 4333SOL    HW113898   4.477   1.692   5.095
 4333SOL    HW213899   4.390   1.600   5.198
 4334SOL     OW13900   2.738   1.869   2.167
 4334SOL    HW113901   2.801   1.814   2.112
 4334SOL    HW213902   2.750   1.966   2.146
 4335SOL     OW13903   3.071   3.776   3.143
 4335SOL    HW113904   3.100   3.687   3.108
 4335SOL    HW213905   3.008   3.763   3.220
 4336SOL     OW13906   0.925   7.002   5.454
 4336SOL    HW113907   0.940   6.917   5.404
 4336SOL    HW213908   0.919   0.047   5.390
 4337SOL     OW13909   1.401   4.519   0.255
 4337SOL    HW113910   1.367   4.613   0.265
 4337SOL    HW213911   1.498   4.521   0.232
 4338SOL     OW13912   4.815   5.956   4.689
 4338SOL    HW113913   4.762   5.907   4.758
 4338SOL    HW213914   4.861   6.034   4.731
 4339SOL     OW13915   5.643   3.174   5.622
 4339SOL    HW113916   5.592   3.238   5.565
 4339SOL    HW213917   5.581   3.128   5.685
 4340SOL     OW13918   6.040   3.835   3.131
 4340SOL    HW113919   5.966   3.793   3.184
 4340SOL    HW213920   6.104   3.881   3.192
 4341SOL     OW13921   1.286   4.321   1.859
 4341SOL    HW113922   1.349   4.256   1.818
 4341SOL    HW213923   1.317   4.345   1.951
 4342SOL     OW13924   6.485   2.868   3.932
 4342SOL    HW113925   6.466   2.938   4.001
 4342SOL    HW213926   6.582   2.872   3.906
 4343SOL     OW13927   2.536   6.767   6.577
 4343SOL    HW113928   2.495   6.740   6.490
 4343SOL    HW213929   2.520   6.696   6.646
 4344SOL     OW13930   2.209   5.070   3.149
 4344SOL    HW113931   2.144   5.006   3.191
 4344SOL    HW213932   2.189   5.163   3.179
 4345SOL     OW13933   1.842   3.046   5.783
 4345SOL    HW113934   1.805   2.976   5.844
 4345SOL    HW213935   1.776   3.064   5.710
 4346SOL     OW13936   2.230   2.961   1.521
 4346SOL    HW113937   2.273   2.972   1.431
 4346SOL    HW213938   2.160   2.890   1.516
 4347SOL     OW13939   6.831   0.999   1.518
 4347SOL    HW113940   6.866   0.950   1.597
 4347SOL    HW213941   6.838   0.942   1.436
 4348SOL     OW13942   0.219   3.136   2.486
 4348SOL    HW113943   0.165   3.205   2.438
 4348SOL    HW213944   0.258   3.175   2.569
 4349SOL     OW13945   6.927   1.854   2.906
 4349SOL    HW113946   6.930   1.775   2.844
 4349SOL    HW213947   7.015   1.902   2.903
 4350SOL     OW13948   5.016   2.108   4.152
 4350SOL    HW113949   4.991   2.047   4.228
 4350SOL    HW213950   5.006   2.203   4.181
 4351SOL     OW13951   2.042   6.337   0.816
 4351SOL    HW113952   2.110   6.274   0.778
 4351SOL    HW213953   1.958   6.332   0.762
 4352SOL     OW13954   0.921   2.092   1.707
 4352SOL    HW113955   0.955   2.053   1.621
 4352SOL    HW213956   0.951   2.187   1.714
 4353SOL     OW13957   3.109   4.844   0.747
 4353SOL    HW113958   3.035   4.819   0.809
 4353SOL    HW213959   3.072   4.894   0.669
 4354SOL     OW13960   1.959   6.348   5.862
 4354SOL    HW113961   2.057   6.351   5.844
 4354SOL    HW213962   1.928   6.437   5.894
 4355SOL     OW13963   3.475   6.972   2.224
 4355SOL    HW113964   3.413   6.908   2.270
 4355SOL    HW213965   3.483   6.946   2.127
 4356SOL     OW13966   4.846   3.869   1.900
 4356SOL    HW113967   4.911   3.945   1.899
 4356SOL    HW213968   4.762   3.897   1.853
 4357SOL     OW13969   6.536   7.000   6.888
 4357SOL    HW113970   6.560   6.909   6.854
 4357SOL    HW213971   6.584   7.017   6.974
 4358SOL     OW13972   6.486   6.103   0.443
 4358SOL    HW113973   6.430   6.024   0.468
 4358SOL    HW213974   6.445   6.186   0.480
 4359SOL     OW13975   1.494   2.063   5.071
 4359SOL    HW113976   1.560   2.084   5.142
 4359SOL    HW213977   1.541   2.023   4.992
 4360SOL     OW13978   1.836   3.358   3.043
 4360SOL    HW113979   1.789   3.286   2.993
 4360SOL    HW213980   1.927   3.373   3.004
 4361SOL     OW13981   3.098   2.615   1.739
 4361SOL    HW113982   3.056   2.559   1.811
 4361SOL    HW213983   3.060   2.589   1.651
 4362SOL     OW13984   6.255   4.005   5.233
 4362SOL    HW113985   6.205   3.924   5.262
 4362SOL    HW213986   6.345   3.979   5.200
 4363SOL     OW13987   5.081   2.078   5.746
 4363SOL    HW113988   5.036   2.012   5.806
 4363SOL    HW213989   5.174   2.096   5.780
 4364SOL     OW13990   2.894   3.738   5.327
 4364SOL    HW113991   2.976   3.689   5.296
 4364SOL    HW213992   2.904   3.835   5.304
 4365SOL     OW13993   2.637   1.266   2.016
 4365SOL    HW113994   2.621   1.361   2.043
 4365SOL    HW213995   2.643   1.209   2.098
 4366SOL     OW13996   5.663   6.925   0.874
 4366SOL    HW113997   5.602   6.988   0.825
 4366SOL    HW213998   5.696   6.969   0.958
 4367SOL     OW13999   0.966   4.868   5.409
 4367SOL    HW114000   1.055   4.913   5.399
 4367SOL    HW214001   0.920   4.865   5.320
 4368SOL     OW14002   3.762   5.344   1.218
 4368SOL    HW114003   3.669   5.376   1.236
 4368SOL    HW214004   3.762   5.280   1.141
 4369SOL     OW14005   4.440   6.141   2.786
 4369SOL    HW114006   4.514   6.076   2.768
 4369SOL    HW214007   4.479   6.228   2.816
 4370SOL     OW14008   5.234   4.725   3.050
 4370SOL    HW114009   5.149   4.708   3.101
 4370SOL    HW214010   5.308   4.670   3.089
 4371SOL     OW14011   6.414   0.239   1.052
 4371SOL    HW114012   6.344   0.167   1.056
 4371SOL    HW214013   6.405   0.298   1.133
 4372SOL     OW14014   4.313   1.445   2.394
 4372SOL    HW114015   4.269   1.408   2.475
 4372SOL    HW214016   4.315   1.545   2.400
 4373SOL     OW14017   0.158   3.384   6.800
 4373SOL    HW114018   0.059   3.374   6.811
 4373SOL    HW214019   0.195   3.439   6.875
 4374SOL     OW14020   1.242   1.623   1.765
 4374SOL    HW114021   1.234   1.698   1.701
 4374SOL    HW214022   1.319   1.640   1.827
 4375SOL     OW14023   2.589   0.240   4.076
 4375SOL    HW114024   2.676   0.246   4.027
 4375SOL    HW214025   2.567   0.145   4.096
 4376SOL     OW14026   6.996   0.070   2.099
 4376SOL    HW114027   6.949   7.014   2.106
 4376SOL    HW214028   6.948   0.128   2.033
 4377SOL     OW14029   5.850   3.893   0.758
 4377SOL    HW114030   5.767   3.888   0.703
 4377SOL    HW214031   5.887   3.801   0.771
 4378SOL     OW14032   1.681   1.102   2.746
 4378SOL    HW114033   1.626   1.127   2.666
 4378SOL    HW214034   1.735   1.020   2.725
 4379SOL     OW14035   2.744   1.607   4.041
 4379SOL    HW114036   2.797   1.682   4.001
 4379SOL    HW214037   2.716   1.632   4.134
 4380SOL     OW14038   0.944   0.552   1.832
 4380SOL    HW114039   0.896   0.542   1.745
 4380SOL    HW214040   0.943   0.648   1.859
 4381SOL     OW14041   1.557   5.510   4.869
 4381SOL    HW114042   1.533   5.435   4.932
 4381SOL    HW214043   1.474   5.555   4.837
 4382SOL     OW14044   6.702   3.203   5.978
 4382SOL    HW114045   6.684   3.209   6.076
 4382SOL    HW214046   6.797   3.177   5.963
 4383SOL     OW14047   6.261   4.064   6.480
 4383SOL    HW114048   6.298   4.022   6.397
 4383SOL    HW214049   6.323   4.046   6.556
 4384SOL     OW14050   6.327   0.909   3.324
 4384SOL    HW114051   6.270   0.942   3.400
 4384SOL    HW214052   6.269   0.889   3.245
 4385SOL     OW14053   4.464   2.387   5.081
 4385SOL    HW114054   4.375   2.368   5.040
 4385SOL    HW214055   4.522   2.306   5.071
 4386SOL     OW14056   1.375   3.711   4.888
 4386SOL    HW114057   1.289   3.663   4.905
 4386SOL    HW214058   1.394   3.773   4.964
 4387SOL     OW14059   6.633   2.608   1.527
 4387SOL    HW114060   6.680   2.620   1.439
 4387SOL    HW214061   6.700   2.587   1.598
 4388SOL     OW14062   4.875   2.152   6.018
 4388SOL    HW114063   4.905   2.229   5.961
 4388SOL    HW214064   4.780   2.166   6.046
 4389SOL     OW14065   6.662   3.646   1.202
 4389SOL    HW114066   6.601   3.661   1.124
 4389SOL    HW214067   6.656   3.550   1.231
 4390SOL     OW14068   4.710   6.794   1.119
 4390SOL    HW114069   4.626   6.839   1.149
 4390SOL    HW214070   4.755   6.750   1.198
 4391SOL     OW14071   2.742   4.871   6.330
 4391SOL    HW114072   2.760   4.922   6.414
 4391SOL    HW214073   2.668   4.806   6.346
 4392SOL     OW14074   0.812   1.736   4.521
 4392SOL    HW114075   0.780   1.714   4.613
 4392SOL    HW214076   0.906   1.770   4.526
 4393SOL     OW14077   6.048   0.623   1.943
 4393SOL    HW114078   6.072   0.591   1.851
 4393SOL    HW214079   6.075   0.554   2.010
 4394SOL     OW14080   1.109   6.702   1.674
 4394SOL    HW114081   1.104   6.749   1.585
 4394SOL    HW214082   1.069   6.760   1.745
 4395SOL     OW14083   1.753   0.335   1.538
 4395SOL    HW114084   1.713   0.416   1.496
 4395SOL    HW214085   1.852   0.347   1.546
 4396SOL     OW14086   1.606   1.672   3.825
 4396SOL    HW114087   1.597   1.592   3.766
 4396SOL    HW214088   1.616   1.642   3.920
 4397SOL     OW14089   1.886   2.999   4.331
 4397SOL    HW114090   1.882   2.900   4.347
 4397SOL    HW214091   1.837   3.046   4.405
 4398SOL     OW14092   1.674   3.882   6.177
 4398SOL    HW114093   1.708   3.951   6.240
 4398SOL    HW214094   1.687   3.791   6.217
 4399SOL     OW14095   2.196   6.024   1.919
 4399SOL    HW114096   2.236   5.934   1.905
 4399SOL    HW214097   2.185   6.041   2.017
 4400SOL     OW14098   2.342   6.973   3.664
 4400SOL    HW114099   2.285   6.921   3.601
 4400SOL    HW214100   2.392   6.911   3.724
 4401SOL     OW14101   4.000   6.633   5.114
 4401SOL    HW114102   3.912   6.671   5.084
 4401SOL    HW214103   4.036   6.689   5.189
 4402SOL     OW14104   0.896   0.685   2.281
 4402SOL    HW114105   0.971   0.729   2.230
 4402SOL    HW214106   0.828   0.652   2.216
 4403SOL     OW14107   1.101   6.162   1.104
 4403SOL    HW114108   1.053   6.206   1.028
 4403SOL    HW214109   1.050   6.082   1.135
 4404SOL     OW14110   1.204   5.772   5.590
 4404SOL    HW114111   1.262   5.716   5.531
 4404SOL    HW214112   1.257   5.850   5.624
 4405SOL     OW14113   2.735   5.017   3.089
 4405SOL    HW114114   2.692   5.039   3.001
 4405SOL    HW214115   2.751   4.919   3.095
 4406SOL     OW14116   6.590   3.404   1.287
 4406SOL    HW114117   6.609   3.395   1.384
 4406SOL    HW214118   6.506   3.354   1.265
 4407SOL     OW14119   0.174   5.491   1.116
 4407SOL    HW114120   0.244   5.562   1.126
 4407SOL    HW214121   0.217   5.403   1.099
 4408SOL     OW14122   3.307   6.232   6.932
 4408SOL    HW114123   3.215   6.196   6.938
 4408SOL    HW214124   3.368   6.162   6.894
 4409SOL     OW14125   4.056   1.096   1.310
 4409SOL    HW114126   4.009   1.021   1.356
 4409SOL    HW214127   4.136   1.061   1.261
 4410SOL     OW14128   0.194   5.819   0.583
 4410SOL    HW114129   0.261   5.744   0.592
 4410SOL    HW214130   0.239   5.906   0.600
 4411SOL     OW14131   3.877   5.030   5.532
 4411SOL    HW114132   3.822   5.032   5.616
 4411SOL    HW214133   3.859   5.112   5.479
 4412SOL     OW14134   4.942   6.499   4.437
 4412SOL    HW114135   5.010   6.465   4.502
 4412SOL    HW214136   4.944   6.443   4.354
 4413SOL     OW14137   4.372   6.395   4.212
 4413SOL    HW114138   4.465   6.412   4.181
 4413SOL    HW214139   4.338   6.309   4.174
 4414SOL     OW14140   4.344   5.655   1.777
 4414SOL    HW114141   4.440   5.665   1.752
 4414SOL    HW214142   4.323   5.558   1.790
 4415SOL     OW14143   3.669   3.954   0.875
 4415SOL    HW114144   3.738   3.960   0.947
 4415SOL    HW214145   3.592   3.899   0.906
 4416SOL     OW14146   3.848   1.448   4.042
 4416SOL    HW114147   3.940   1.447   4.081
 4416SOL    HW214148   3.807   1.538   4.056
 4417SOL     OW14149   6.394   3.039   4.113
 4417SOL    HW114150   6.353   2.988   4.188
 4417SOL    HW214151   6.401   3.136   4.138
 4418SOL     OW14152   6.078   1.942   2.160
 4418SOL    HW114153   6.100   1.928   2.256
 4418SOL    HW214154   6.073   1.853   2.114
 4419SOL     OW14155   6.278   6.544   5.976
 4419SOL    HW114156   6.358   6.588   5.934
 4419SOL    HW214157   6.212   6.614   6.004
 4420SOL     OW14158   3.452   1.829   1.337
 4420SOL    HW114159   3.359   1.811   1.369
 4420SOL    HW214160   3.511   1.848   1.415
 4421SOL     OW14161   1.456   2.930   5.593
 4421SOL    HW114162   1.486   2.839   5.565
 4421SOL    HW214163   1.535   2.986   5.616
 4422SOL     OW14164   1.019   5.067   6.987
 4422SOL    HW114165   0.957   4.991   7.006
 4422SOL    HW214166   1.113   5.033   6.985
 4423SOL     OW14167   6.525   4.553   5.882
 4423SOL    HW114168   6.608   4.609   5.887
 4423SOL    HW214169   6.474   4.560   5.967
 4424SOL     OW14170   5.366   5.888   4.084
 4424SOL    HW114171   5.465   5.885   4.090
 4424SOL    HW214172   5.335   5.983   4.080
 4425SOL     OW14173   1.661   5.612   0.806
 4425SOL    HW114174   1.702   5.520   0.808
 4425SOL    HW214175   1.732   5.680   0.822
 4426SOL     OW14176   1.023   0.415   4.147
 4426SOL    HW114177   0.986   0.452   4.061
 4426SOL    HW214178   1.111   0.460   4.166
 4427SOL     OW14179   3.876   6.267   2.805
 4427SOL    HW114180   3.939   6.330   2.851
 4427SOL    HW214181   3.782   6.295   2.823
 4428SOL     OW14182   5.074   0.945   4.660
 4428SOL    HW114183   5.059   1.009   4.736
 4428SOL    HW214184   5.081   0.996   4.574
 4429SOL     OW14185   3.056   6.649   3.066
 4429SOL    HW114186   3.065   6.595   3.149
 4429SOL    HW214187   3.043   6.745   3.090
 4430SOL     OW14188   5.639   5.112   4.497
 4430SOL    HW114189   5.720   5.129   4.553
 4430SOL    HW214190   5.563   5.169   4.528
 4431SOL     OW14191   3.359   0.537   3.688
 4431SOL    HW114192   3.269   0.569   3.718
 4431SOL    HW214193   3.413   0.510   3.768
 4432SOL     OW14194   2.293   3.265   6.262
 4432SOL    HW114195   2.213   3.325   6.253
 4432SOL    HW214196   2.364   3.294   6.198
 4433SOL     OW14197   0.498   2.387   4.145
 4433SOL    HW114198   0.511   2.390   4.046
 4433SOL    HW214199   0.541   2.305   4.182
 4434SOL     OW14200   5.826   1.492   1.828
 4434SOL    HW114201   5.757   1.561   1.849
 4434SOL    HW214202   5.916   1.535   1.826
 4435SOL     OW14203   4.016   4.093   0.868
 4435SOL    HW114204   4.044   4.023   0.802
 4435SOL    HW214205   3.958   4.160   0.823
 4436SOL     OW14206   4.045   1.806   1.340
 4436SOL    HW114207   3.963   1.829   1.288
 4436SOL    HW214208   4.026   1.811   1.438
 4437SOL     OW14209   0.378   3.250   2.692
 4437SOL    HW114210   0.317   3.281   2.766
 4437SOL    HW214211   0.435   3.175   2.726
 4438SOL     OW14212   4.824   0.079   5.726
 4438SOL    HW114213   4.741   0.132   5.710
 4438SOL    HW214214   4.871   0.065   5.639
 4439SOL     OW14215   0.983   5.343   3.012
 4439SOL    HW114216   0.903   5.290   3.042
 4439SOL    HW214217   1.041   5.286   2.955
 4440SOL     OW14218   2.937   4.325   1.083
 4440SOL    HW114219   2.958   4.231   1.110
 4440SOL    HW214220   2.845   4.328   1.043
 4441SOL     OW14221   0.521   1.661   0.516
 4441SOL    HW114222   0.441   1.674   0.458
 4441SOL    HW214223   0.515   1.573   0.562
 4442SOL     OW14224   1.158   5.368   5.982
 4442SOL    HW114225   1.228   5.348   5.912
 4442SOL    HW214226   1.087   5.425   5.942
 4443SOL     OW14227   0.728   4.856   6.415
 4443SOL    HW114228   0.760   4.761   6.413
 4443SOL    HW214229   0.635   4.858   6.451
 4444SOL     OW14230   4.451   3.937   0.345
 4444SOL    HW114231   4.530   3.987   0.382
 4444SOL    HW214232   4.482   3.850   0.308
 4445SOL     OW14233   1.404   5.331   0.155
 4445SOL    HW114234   1.388   5.420   0.199
 4445SOL    HW214235   1.326   5.308   0.098
 4446SOL     OW14236   5.457   1.731   0.340
 4446SOL    HW114237   5.440   1.722   0.242
 4446SOL    HW214238   5.377   1.701   0.392
 4447SOL     OW14239   6.025   4.843   5.492
 4447SOL    HW114240   6.003   4.749   5.467
 4447SOL    HW214241   6.057   4.893   5.412
 4448SOL     OW14242   2.958   0.078   1.071
 4448SOL    HW114243   3.050   0.101   1.041
 4448SOL    HW214244   2.903   0.161   1.077
 4449SOL     OW14245   4.517   1.210   6.519
 4449SOL    HW114246   4.504   1.129   6.576
 4449SOL    HW214247   4.428   1.253   6.502
 4450SOL     OW14248   3.303   1.734   0.225
 4450SOL    HW114249   3.287   1.798   0.300
 4450SOL    HW214250   3.266   1.644   0.249
 4451SOL     OW14251   4.672   4.761   4.142
 4451SOL    HW114252   4.679   4.852   4.184
 4451SOL    HW214253   4.733   4.756   4.063
 4452SOL     OW14254   5.811   5.912   4.406
 4452SOL    HW114255   5.871   5.868   4.340
 4452SOL    HW214256   5.840   5.888   4.499
 4453SOL     OW14257   1.038   2.862   1.902
 4453SOL    HW114258   1.015   2.778   1.952
 4453SOL    HW214259   0.982   2.937   1.937
 4454SOL     OW14260   0.434   1.555   6.523
 4454SOL    HW114261   0.380   1.542   6.440
 4454SOL    HW214262   0.447   1.468   6.569
 4455SOL     OW14263   5.988   5.629   5.287
 4455SOL    HW114264   6.046   5.659   5.363
 4455SOL    HW214265   5.969   5.707   5.228
 4456SOL     OW14266   2.213   6.072   3.708
 4456SOL    HW114267   2.146   6.000   3.689
 4456SOL    HW214268   2.177   6.160   3.674
 4457SOL     OW14269   1.945   2.410   5.046
 4457SOL    HW114270   2.028   2.448   5.005
 4457SOL    HW214271   1.967   2.325   5.093
 4458SOL     OW14272   1.992   3.402   1.546
 4458SOL    HW114273   1.940   3.486   1.530
 4458SOL    HW214274   2.081   3.408   1.500
 4459SOL     OW14275   2.196   1.629   4.279
 4459SOL    HW114276   2.232   1.667   4.194
 4459SOL    HW214277   2.215   1.531   4.281
 4460SOL     OW14278   0.531   3.643   4.261
 4460SOL    HW114279   0.612   3.702   4.273
 4460SOL    HW214280   0.561   3.549   4.249
 4461SOL     OW14281   1.635   0.628   1.204
 4461SOL    HW114282   1.538   0.611   1.223
 4461SOL    HW214283   1.643   0.682   1.120
 4462SOL     OW14284   5.858   3.919   2.444
 4462SOL    HW114285   5.843   3.906   2.542
 4462SOL    HW214286   5.856   4.017   2.423
 4463SOL     OW14287   4.886   1.293   1.105
 4463SOL    HW114288   4.940   1.209   1.112
 4463SOL    HW214289   4.849   1.317   1.195
 4464SOL     OW14290   0.755   5.295   0.181
 4464SOL    HW114291   0.664   5.279   0.220
 4464SOL    HW214292   0.816   5.220   0.206
 4465SOL     OW14293   2.861   5.583   0.339
 4465SOL    HW114294   2.930   5.655   0.339
 4465SOL    HW214295   2.876   5.521   0.263
 4466SOL     OW14296   1.871   1.947   3.187
 4466SOL    HW114297   1.858   1.942   3.286
 4466SOL    HW214298   1.960   1.908   3.163
 4467SOL     OW14299   2.717   5.713   3.965
 4467SOL    HW114300   2.787   5.649   3.997
 4467SOL    HW214301   2.703   5.784   4.034
 4468SOL     OW14302   1.011   3.527   0.653
 4468SOL    HW114303   1.109   3.531   0.638
 4468SOL    HW214304   0.986   3.437   0.691
 4469SOL     OW14305   2.602   0.647   1.304
 4469SOL    HW114306   2.674   0.693   1.253
 4469SOL    HW214307   2.581   0.698   1.387
 4470SOL     OW14308   0.484   0.827   2.122
 4470SOL    HW114309   0.428   0.745   2.134
 4470SOL    HW214310   0.581   0.801   2.123
 4471SOL     OW14311   2.382   2.968   6.641
 4471SOL    HW114312   2.362   2.879   6.601
 4471SOL    HW214313   2.361   2.967   6.739
 4472SOL     OW14314   1.291   2.524   1.135
 4472SOL    HW114315   1.259   2.602   1.189
 4472SOL    HW214316   1.246   2.526   1.045
 4473SOL     OW14317   6.313   2.940   3.663
 4473SOL    HW114318   6.306   2.962   3.760
 4473SOL    HW214319   6.222   2.947   3.621
 4474SOL     OW14320   2.948   0.515   1.607
 4474SOL    HW114321   2.867   0.457   1.602
 4474SOL    HW214322   2.929   0.595   1.664
 4475SOL     OW14323   0.935   3.594   2.086
 4475SOL    HW114324   0.908   3.549   2.001
 4475SOL    HW214325   0.856   3.604   2.146
 4476SOL     OW14326   5.725   1.031   4.306
 4476SOL    HW114327   5.725   1.012   4.404
 4476SOL    HW214328   5.731   1.130   4.292
 4477SOL     OW14329   1.638   0.455   5.330
 4477SOL    HW114330   1.659   0.493   5.420
 4477SOL    HW214331   1.619   0.529   5.266
 4478SOL     OW14332   1.116   0.517   1.373
 4478SOL    HW114333   1.095   0.569   1.290
 4478SOL    HW214334   1.198   0.462   1.359
 4479SOL     OW14335   1.204   1.525   0.011
 4479SOL    HW114336   1.286   1.538   0.067
 4479SOL    HW214337   1.128   1.575   0.052
 4480SOL     OW14338   0.902   4.355   4.459
 4480SOL    HW114339   0.826   4.292   4.471
 4480SOL    HW214340   0.915   4.410   4.541
 4481SOL     OW14341   2.451   5.480   5.481
 4481SOL    HW114342   2.373   5.451   5.426
 4481SOL    HW214343   2.507   5.400   5.504
 4482SOL     OW14344   2.771   3.821   6.210
 4482SOL    HW114345   2.799   3.735   6.252
 4482SOL    HW214346   2.851   3.881   6.200
 4483SOL     OW14347   0.575   2.602   1.755
 4483SOL    HW114348   0.553   2.504   1.747
 4483SOL    HW214349   0.631   2.630   1.677
 4484SOL     OW14350   2.499   2.972   0.392
 4484SOL    HW114351   2.597   2.987   0.401
 4484SOL    HW214352   2.451   3.059   0.398
 4485SOL     OW14353   4.938   2.177   5.094
 4485SOL    HW114354   4.844   2.169   5.129
 4485SOL    HW214355   5.002   2.176   5.171
 4486SOL     OW14356   5.779   4.927   5.622
 4486SOL    HW114357   5.870   4.899   5.591
 4486SOL    HW214358   5.710   4.870   5.577
 4487SOL     OW14359   1.860   2.656   6.475
 4487SOL    HW114360   1.955   2.638   6.450
 4487SOL    HW214361   1.854   2.742   6.526
 4488SOL     OW14362   1.133   3.681   3.634
 4488SOL    HW114363   1.208   3.716   3.578
 4488SOL    HW214364   1.050   3.674   3.579
 4489SOL     OW14365   5.089   5.252   5.214
 4489SOL    HW114366   5.112   5.182   5.146
 4489SOL    HW214367   4.991   5.250   5.232
 4490SOL     OW14368   5.559   2.205   1.073
 4490SOL    HW114369   5.615   2.215   1.155
 4490SOL    HW214370   5.498   2.284   1.065
 4491SOL     OW14371   0.537   3.644   3.095
 4491SOL    HW114372   0.511   3.547   3.090
 4491SOL    HW214373   0.466   3.700   3.053
 4492SOL     OW14374   5.983   1.115   1.593
 4492SOL    HW114375   5.967   1.170   1.675
 4492SOL    HW214376   5.912   1.045   1.585
 4493SOL     OW14377   5.520   6.732   4.519
 4493SOL    HW114378   5.533   6.661   4.588
 4493SOL    HW214379   5.480   6.691   4.437
 4494SOL     OW14380   0.938   0.959   5.774
 4494SOL    HW114381   0.840   0.939   5.776
 4494SOL    HW214382   0.968   0.992   5.863
 4495SOL     OW14383   3.451   6.310   2.619
 4495SOL    HW114384   3.413   6.224   2.653
 4495SOL    HW214385   3.415   6.386   2.673
 4496SOL     OW14386   4.707   5.955   6.685
 4496SOL    HW114387   4.651   5.878   6.656
 4496SOL    HW214388   4.728   6.013   6.606
 4497SOL     OW14389   3.957   2.390   0.060
 4497SOL    HW114390   3.882   2.378   0.125
 4497SOL    HW214391   3.986   2.301   0.026
 4498SOL     OW14392   6.958   5.173   6.331
 4498SOL    HW114393   0.024   5.154   6.340
 4498SOL    HW214394   6.938   5.261   6.373
 4499SOL     OW14395   6.534   1.608   3.190
 4499SOL    HW114396   6.464   1.678   3.203
 4499SOL    HW214397   6.607   1.644   3.132
 4500SOL     OW14398   4.260   4.750   6.588
 4500SOL    HW114399   4.164   4.722   6.596
 4500SOL    HW214400   4.298   4.765   6.679
 4501SOL     OW14401   5.916   2.250   2.206
 4501SOL    HW114402   5.930   2.179   2.274
 4501SOL    HW214403   5.983   2.241   2.133
 4502SOL     OW14404   0.810   3.759   6.852
 4502SOL    HW114405   0.710   3.764   6.843
 4502SOL    HW214406   0.850   3.726   6.766
 4503SOL     OW14407   2.920   0.287   2.048
 4503SOL    HW114408   2.956   0.224   2.116
 4503SOL    HW214409   2.923   0.381   2.085
 4504SOL     OW14410   6.980   1.864   4.048
 4504SOL    HW114411   6.921   1.788   4.022
 4504SOL    HW214412   0.044   1.835   4.041
 4505SOL     OW14413   6.803   4.398   2.247
 4505SOL    HW114414   6.896   4.430   2.263
 4505SOL    HW214415   6.741   4.444   2.310
 4506SOL     OW14416   5.187   3.064   4.070
 4506SOL    HW114417   5.191   3.025   4.162
 4506SOL    HW214418   5.256   3.135   4.060
 4507SOL     OW14419   6.640   3.366   3.502
 4507SOL    HW114420   6.545   3.358   3.470
 4507SOL    HW214421   6.641   3.385   3.600
 4508SOL     OW14422   1.086   4.222   0.433
 4508SOL    HW114423   1.069   4.131   0.394
 4508SOL    HW214424   1.140   4.212   0.517
 4509SOL     OW14425   5.130   2.037   2.603
 4509SOL    HW114426   5.076   2.097   2.662
 4509SOL    HW214427   5.164   2.089   2.525
 4510SOL     OW14428   4.344   1.557   3.970
 4510SOL    HW114429   4.334   1.592   4.063
 4510SOL    HW214430   4.259   1.511   3.942
 4511SOL     OW14431   0.090   3.719   1.057
 4511SOL    HW114432   0.122   3.728   0.963
 4511SOL    HW214433   0.018   3.649   1.061
 4512SOL     OW14434   2.966   2.358   6.136
 4512SOL    HW114435   3.055   2.312   6.141
 4512SOL    HW214436   2.935   2.382   6.228
 4513SOL     OW14437   0.721   5.835   6.499
 4513SOL    HW114438   0.696   5.930   6.517
 4513SOL    HW214439   0.758   5.828   6.406
 4514SOL     OW14440   3.423   3.276   6.758
 4514SOL    HW114441   3.463   3.191   6.723
 4514SOL    HW214442   3.493   3.327   6.807
 4515SOL     OW14443   5.683   1.063   4.872
 4515SOL    HW114444   5.781   1.076   4.862
 4515SOL    HW214445   5.656   0.979   4.825
 4516SOL     OW14446   3.135   1.114   5.781
 4516SOL    HW114447   3.037   1.098   5.764
 4516SOL    HW214448   3.150   1.126   5.879
 4517SOL     OW14449   4.564   7.006   6.772
 4517SOL    HW114450   4.531   0.065   6.797
 4517SOL    HW214451   4.638   7.014   6.704
 4518SOL     OW14452   1.316   6.842   1.034
 4518SOL    HW114453   1.340   6.745   1.034
 4518SOL    HW214454   1.224   6.854   1.072
 4519SOL     OW14455   5.056   0.029   0.063
 4519SOL    HW114456   4.998   0.006   7.016
 4519SOL    HW214457   5.073   6.979   0.118
 4520SOL     OW14458   4.214   6.052   5.365
 4520SOL    HW114459   4.202   6.053   5.266
 4520SOL    HW214460   4.240   6.143   5.397
 4521SOL     OW14461   4.872   1.710   4.583
 4521SOL    HW114462   4.921   1.768   4.648
 4521SOL    HW214463   4.921   1.708   4.496
 4522SOL     OW14464   5.800   3.753   3.686
 4522SOL    HW114465   5.844   3.667   3.659
 4522SOL    HW214466   5.866   3.810   3.735
 4523SOL     OW14467   0.997   3.920   6.601
 4523SOL    HW114468   1.086   3.951   6.635
 4523SOL    HW214469   0.934   3.998   6.598
 4524SOL     OW14470   0.300   4.087   2.284
 4524SOL    HW114471   0.222   4.137   2.321
 4524SOL    HW214472   0.383   4.113   2.332
 4525SOL     OW14473   2.119   2.457   5.706
 4525SOL    HW114474   2.051   2.434   5.636
 4525SOL    HW214475   2.211   2.437   5.671
 4526SOL     OW14476   0.232   0.666   6.520
 4526SOL    HW114477   0.267   0.619   6.439
 4526SOL    HW214478   0.308   0.691   6.579
 4527SOL     OW14479   6.822   7.026   2.605
 4527SOL    HW114480   6.854   7.029   2.700
 4527SOL    HW214481   6.752   6.956   2.595
 4528SOL     OW14482   4.113   0.646   6.368
 4528SOL    HW114483   4.017   0.667   6.388
 4528SOL    HW214484   4.172   0.713   6.414
 4529SOL     OW14485   2.877   1.383   6.442
 4529SOL    HW114486   2.960   1.438   6.431
 4529SOL    HW214487   2.821   1.391   6.359
 4530SOL     OW14488   2.384   5.994   5.061
 4530SOL    HW114489   2.440   6.076   5.050
 4530SOL    HW214490   2.301   6.002   5.006
 4531SOL     OW14491   1.484   4.069   6.507
 4531SOL    HW114492   1.575   4.041   6.537
 4531SOL    HW214493   1.479   4.169   6.504
 4532SOL     OW14494   4.793   0.839   2.482
 4532SOL    HW114495   4.750   0.792   2.404
 4532SOL    HW214496   4.722   0.876   2.541
 4533SOL     OW14497   1.372   1.180   2.770
 4533SOL    HW114498   1.377   1.087   2.733
 4533SOL    HW214499   1.283   1.195   2.811
 4534SOL     OW14500   4.322   1.943   5.251
 4534SOL    HW114501   4.371   1.858   5.233
 4534SOL    HW214502   4.248   1.954   5.184
 4535SOL     OW14503   3.649   1.676   1.227
 4535SOL    HW114504   3.709   1.651   1.303
 4535SOL    HW214505   3.571   1.728   1.263
 4536SOL     OW14506   2.427   1.927   5.612
 4536SOL    HW114507   2.501   1.980   5.570
 4536SOL    HW214508   2.346   1.985   5.621
 4537SOL     OW14509   3.689   3.917   3.448
 4537SOL    HW114510   3.752   3.965   3.509
 4537SOL    HW214511   3.615   3.876   3.501
 4538SOL     OW14512   1.075   2.347   1.720
 4538SOL    HW114513   1.173   2.346   1.741
 4538SOL    HW214514   1.023   2.373   1.801
 4539SOL     OW14515   2.733   5.298   4.834
 4539SOL    HW114516   2.730   5.224   4.767
 4539SOL    HW214517   2.645   5.305   4.881
 4540SOL     OW14518   0.824   0.799   0.685
 4540SOL    HW114519   0.919   0.811   0.712
 4540SOL    HW214520   0.788   0.885   0.648
 4541SOL     OW14521   4.495   1.787   6.576
 4541SOL    HW114522   4.421   1.740   6.624
 4541SOL    HW214523   4.581   1.741   6.593
 4542SOL     OW14524   6.522   2.792   1.228
 4542SOL    HW114525   6.535   2.696   1.203
 4542SOL    HW214526   6.611   2.835   1.245
 4543SOL     OW14527   4.359   2.142   0.779
 4543SOL    HW114528   4.430   2.212   0.789
 4543SOL    HW214529   4.305   2.136   0.863
 4544SOL     OW14530   4.776   4.568   1.278
 4544SOL    HW114531   4.845   4.533   1.341
 4544SOL    HW214532   4.812   4.565   1.184
 4545SOL     OW14533   0.834   4.393   5.005
 4545SOL    HW114534   0.856   4.444   5.089
 4545SOL    HW214535   0.751   4.432   4.964
 4546SOL     OW14536   3.192   0.652   6.049
 4546SOL    HW114537   3.262   0.635   6.119
 4546SOL    HW214538   3.207   0.591   5.971
 4547SOL     OW14539   6.505   0.536   6.855
 4547SOL    HW114540   6.591   0.546   6.905
 4547SOL    HW214541   6.506   0.449   6.805
 4548SOL     OW14542   2.447   2.569   3.184
 4548SOL    HW114543   2.482   2.589   3.092
 4548SOL    HW214544   2.347   2.566   3.182
 4549SOL     OW14545   4.836   4.413   2.586
 4549SOL    HW114546   4.737   4.425   2.585
 4549SOL    HW214547   4.867   4.402   2.680
 4550SOL     OW14548   0.630   4.683   3.321
 4550SOL    HW114549   0.705   4.636   3.368
 4550SOL    HW214550   0.598   4.759   3.378
 4551SOL     OW14551   1.022   4.186   5.109
 4551SOL    HW114552   0.967   4.260   5.069
 4551SOL    HW214553   1.068   4.135   5.036
 4552SOL     OW14554   6.103   1.556   1.792
 4552SOL    HW114555   6.096   1.626   1.721
 4552SOL    HW214556   6.190   1.508   1.783
 4553SOL     OW14557   5.063   4.524   6.818
 4553SOL    HW114558   5.059   4.622   6.834
 4553SOL    HW214559   5.156   4.498   6.790
 4554SOL     OW14560   0.432   6.458   1.137
 4554SOL    HW114561   0.486   6.392   1.189
 4554SOL    HW214562   0.437   6.547   1.182
 4555SOL     OW14563   1.093   0.913   6.434
 4555SOL    HW114564   1.077   0.815   6.417
 4555SOL    HW214565   1.167   0.945   6.375
 4556SOL     OW14566   6.039   3.170   5.811
 4556SOL    HW114567   5.959   3.110   5.808
 4556SOL    HW214568   6.009   3.264   5.829
 4557SOL     OW14569   6.257   5.067   4.774
 4557SOL    HW114570   6.170   5.035   4.810
 4557SOL    HW214571   6.330   5.052   4.841
 4558SOL     OW14572   6.715   3.005   4.989
 4558SOL    HW114573   6.712   3.058   4.904
 4558SOL    HW214574   6.773   2.924   4.975
 4559SOL     OW14575   0.206   2.830   2.869
 4559SOL    HW114576   0.153   2.745   2.870
 4559SOL    HW214577   0.144   2.908   2.879
 4560SOL     OW14578   6.114   3.941   2.372
 4560SOL    HW114579   6.021   3.914   2.396
 4560SOL    HW214580   6.166   3.860   2.344
 4561SOL     OW14581   3.190   2.192   3.945
 4561SOL    HW114582   3.225   2.196   4.039
 4561SOL    HW214583   3.260   2.152   3.886
 4562SOL     OW14584   2.197   6.165   0.667
 4562SOL    HW114585   2.225   6.081   0.713
 4562SOL    HW214586   2.273   6.201   0.613
 4563SOL     OW14587   6.638   3.406   1.541
 4563SOL    HW114588   6.598   3.459   1.616
 4563SOL    HW214589   6.733   3.434   1.528
 4564SOL     OW14590   6.747   4.524   1.843
 4564SOL    HW114591   6.807   4.563   1.912
 4564SOL    HW214592   6.725   4.593   1.774
 4565SOL     OW14593   1.574   0.651   4.697
 4565SOL    HW114594   1.595   0.602   4.782
 4565SOL    HW214595   1.651   0.642   4.634
 4566SOL     OW14596   0.761   3.991   1.207
 4566SOL    HW114597   0.717   3.935   1.137
 4566SOL    HW214598   0.716   4.080   1.211
 4567SOL     OW14599   6.764   0.158   6.588
 4567SOL    HW114600   6.692   0.147   6.520
 4567SOL    HW214601   6.813   0.244   6.571
 4568SOL     OW14602   0.718   4.138   4.460
 4568SOL    HW114603   0.775   4.061   4.487
 4568SOL    HW214604   0.632   4.135   4.510
 4569SOL     OW14605   3.208   0.937   2.866
 4569SOL    HW114606   3.286   0.973   2.918
 4569SOL    HW214607   3.146   1.012   2.843
 4570SOL     OW14608   6.350   5.614   1.890
 4570SOL    HW114609   6.309   5.683   1.830
 4570SOL    HW214610   6.440   5.588   1.853
 4571SOL     OW14611   4.844   2.859   6.262
 4571SOL    HW114612   4.887   2.947   6.242
 4571SOL    HW214613   4.842   2.845   6.361
 4572SOL     OW14614   2.477   2.464   6.650
 4572SOL    HW114615   2.539   2.509   6.586
 4572SOL    HW214616   2.513   2.374   6.675
 4573SOL     OW14617   0.824   6.432   0.504
 4573SOL    HW114618   0.821   6.525   0.542
 4573SOL    HW214619   0.734   6.390   0.512
 4574SOL     OW14620   6.102   4.202   6.895
 4574SOL    HW114621   6.194   4.242   6.893
 4574SOL    HW214622   6.106   4.110   6.855
 4575SOL     OW14623   6.202   1.041   4.298
 4575SOL    HW114624   6.166   1.080   4.382
 4575SOL    HW214625   6.196   0.941   4.301
 4576SOL     OW14626   2.719   4.910   5.084
 4576SOL    HW114627   2.625   4.885   5.105
 4576SOL    HW214628   2.778   4.829   5.090
 4577SOL     OW14629   1.221   2.290   2.746
 4577SOL    HW114630   1.305   2.249   2.780
 4577SOL    HW214631   1.143   2.255   2.798
 4578SOL     OW14632   0.136   0.598   3.200
 4578SOL    HW114633   0.121   0.680   3.145
 4578SOL    HW214634   0.209   0.543   3.159
 4579SOL     OW14635   4.733   0.582   1.880
 4579SOL    HW114636   4.830   0.560   1.888
 4579SOL    HW214637   4.713   0.666   1.931
 4580SOL     OW14638   5.244   3.843   0.421
 4580SOL    HW114639   5.311   3.841   0.347
 4580SOL    HW214640   5.292   3.850   0.509
 4581SOL     OW14641   2.910   6.741   2.378
 4581SOL    HW114642   2.910   6.642   2.368
 4581SOL    HW214643   2.816   6.775   2.383
 4582SOL     OW14644   4.998   0.487   2.886
 4582SOL    HW114645   4.972   0.406   2.939
 4582SOL    HW214646   4.944   0.565   2.917
 4583SOL     OW14647   2.206   1.147   6.250
 4583SOL    HW114648   2.171   1.093   6.173
 4583SOL    HW214649   2.157   1.234   6.253
 4584SOL     OW14650   1.909   6.982   5.765
 4584SOL    HW114651   1.935   0.041   5.730
 4584SOL    HW214652   1.983   6.945   5.821
 4585SOL     OW14653   1.628   3.717   3.635
 4585SOL    HW114654   1.554   3.661   3.672
 4585SOL    HW214655   1.705   3.717   3.699
 4586SOL     OW14656   4.734   4.332   0.486
 4586SOL    HW114657   4.749   4.410   0.425
 4586SOL    HW214658   4.727   4.364   0.580
 4587SOL     OW14659   3.090   3.606   4.978
 4587SOL    HW114660   3.030   3.675   5.019
 4587SOL    HW214661   3.168   3.651   4.935
 4588SOL     OW14662   3.210   3.407   5.800
 4588SOL    HW114663   3.284   3.443   5.744
 4588SOL    HW214664   3.245   3.335   5.859
 4589SOL     OW14665   5.685   5.564   2.103
 4589SOL    HW114666   5.710   5.654   2.066
 4589SOL    HW214667   5.612   5.525   2.047
 4590SOL     OW14668   3.701   5.776   2.322
 4590SOL    HW114669   3.622   5.716   2.312
 4590SOL    HW214670   3.671   5.871   2.328
 4591SOL     OW14671   2.428   0.885   5.566
 4591SOL    HW114672   2.375   0.938   5.632
 4591SOL    HW214673   2.504   0.940   5.532
 4592SOL     OW14674   2.789   1.730   3.692
 4592SOL    HW114675   2.735   1.655   3.653
 4592SOL    HW214676   2.727   1.804   3.718
 4593SOL     OW14677   7.017   6.018   2.676
 4593SOL    HW114678   0.017   6.112   2.663
 4593SOL    HW214679   7.006   5.974   2.587
 4594SOL     OW14680   2.722   6.774   3.193
 4594SOL    HW114681   2.744   6.871   3.194
 4594SOL    HW214682   2.724   6.740   3.099
 4595SOL     OW14683   4.868   2.201   5.608
 4595SOL    HW114684   4.952   2.151   5.628
 4595SOL    HW214685   4.790   2.154   5.650
 4596SOL     OW14686   0.419   0.917   1.866
 4596SOL    HW114687   0.437   0.896   1.963
 4596SOL    HW214688   0.343   0.982   1.860
 4597SOL     OW14689   2.268   5.196   6.735
 4597SOL    HW114690   2.216   5.235   6.659
 4597SOL    HW214691   2.212   5.197   6.817
 4598SOL     OW14692   2.183   5.426   0.082
 4598SOL    HW114693   2.260   5.418   0.145
 4598SOL    HW214694   2.159   5.335   0.047
 4599SOL     OW14695   1.765   3.155   1.976
 4599SOL    HW114696   1.711   3.133   1.895
 4599SOL    HW214697   1.833   3.224   1.953
 4600SOL     OW14698   0.101   6.881   6.053
 4600SOL    HW114699   0.159   6.829   6.115
 4600SOL    HW214700   0.158   6.934   5.990
 4601SOL     OW14701   1.017   1.018   4.604
 4601SOL    HW114702   0.989   1.005   4.509
 4601SOL    HW214703   1.116   1.015   4.611
 4602SOL     OW14704   2.721   0.270   6.106
 4602SOL    HW114705   2.810   0.316   6.101
 4602SOL    HW214706   2.734   0.171   6.105
 4603SOL     OW14707   4.239   6.188   1.409
 4603SOL    HW114708   4.260   6.092   1.427
 4603SOL    HW214709   4.273   6.245   1.484
 4604SOL     OW14710   4.782   6.714   5.847
 4604SOL    HW114711   4.748   6.738   5.756
 4604SOL    HW214712   4.848   6.782   5.877
 4605SOL     OW14713   2.140   0.111   1.667
 4605SOL    HW114714   2.158   0.018   1.633
 4605SOL    HW214715   2.213   0.138   1.729
 4606SOL     OW14716   0.531   6.749   2.547
 4606SOL    HW114717   0.549   6.820   2.615
 4606SOL    HW214718   0.433   6.744   2.529
 4607SOL     OW14719   2.028   3.834   3.439
 4607SOL    HW114720   2.055   3.898   3.511
 4607SOL    HW214721   2.083   3.851   3.357
 4608SOL     OW14722   0.250   3.566   4.213
 4608SOL    HW114723   0.187   3.594   4.141
 4608SOL    HW214724   0.332   3.623   4.209
 4609SOL     OW14725   4.550   5.732   6.659
 4609SOL    HW114726   4.586   5.697   6.572
 4609SOL    HW214727   4.507   5.657   6.710
 4610SOL     OW14728   5.414   2.127   7.021
 4610SOL    HW114729   5.500   2.097   6.981
 4610SOL    HW214730   5.351   2.153   6.948
 4611SOL     OW14731   0.361   0.872   5.987
 4611SOL    HW114732   0.270   0.905   6.013
 4611SOL    HW214733   0.423   0.879   6.064
 4612SOL     OW14734   2.434   6.140   2.341
 4612SOL    HW114735   2.448   6.048   2.306
 4612SOL    HW214736   2.406   6.201   2.267
 4613SOL     OW14737   1.961   4.716   2.886
 4613SOL    HW114738   1.957   4.625   2.845
 4613SOL    HW214739   1.868   4.752   2.898
 4614SOL     OW14740   6.310   3.612   4.066
 4614SOL    HW114741   6.267   3.540   4.011
 4614SOL    HW214742   6.347   3.682   4.004
 4615SOL     OW14743   1.202   0.801   1.533
 4615SOL    HW114744   1.133   0.857   1.580
 4615SOL    HW214745   1.244   0.739   1.599
 4616SOL     OW14746   6.622   2.638   4.904
 4616SOL    HW114747   6.573   2.552   4.892
 4616SOL    HW214748   6.556   2.712   4.921
 4617SOL     OW14749   0.885   2.610   2.061
 4617SOL    HW114750   0.908   2.534   2.000
 4617SOL    HW214751   0.916   2.588   2.154
 4618SOL     OW14752   2.660   3.621   5.460
 4618SOL    HW114753   2.717   3.634   5.379
 4618SOL    HW214754   2.717   3.598   5.538
 4619SOL     OW14755   3.433   6.076   3.846
 4619SOL    HW114756   3.422   6.161   3.795
 4619SOL    HW214757   3.406   5.999   3.789
 4620SOL     OW14758   0.693   5.504   1.185
 4620SOL    HW114759   0.683   5.555   1.271
 4620SOL    HW214760   0.778   5.452   1.187
 4621SOL     OW14761   4.997   0.545   1.922
 4621SOL    HW114762   5.091   0.577   1.918
 4621SOL    HW214763   4.995   0.452   1.957
 4622SOL     OW14764   4.284   5.036   0.903
 4622SOL    HW114765   4.272   5.121   0.955
 4622SOL    HW214766   4.237   4.961   0.950
 4623SOL     OW14767   3.782   5.251   1.488
 4623SOL    HW114768   3.751   5.256   1.393
 4623SOL    HW214769   3.722   5.191   1.540
 4624SOL     OW14770   3.960   1.358   3.510
 4624SOL    HW114771   3.950   1.355   3.610
 4624SOL    HW214772   4.030   1.424   3.486
 4625SOL     OW14773   2.339   5.776   1.893
 4625SOL    HW114774   2.295   5.716   1.827
 4625SOL    HW214775   2.350   5.727   1.980
 4626SOL     OW14776   4.254   3.840   1.778
 4626SOL    HW114777   4.177   3.792   1.735
 4626SOL    HW214778   4.260   3.813   1.874
 4627SOL     OW14779   0.184   5.776   4.821
 4627SOL    HW114780   0.215   5.687   4.789
 4627SOL    HW214781   0.258   5.843   4.812
 4628SOL     OW14782   4.478   4.486   3.251
 4628SOL    HW114783   4.494   4.399   3.204
 4628SOL    HW214784   4.416   4.542   3.196
 4629SOL     OW14785   2.259   5.891   6.270
 4629SOL    HW114786   2.304   5.818   6.218
 4629SOL    HW214787   2.322   5.968   6.279
 4630SOL     OW14788   1.237   5.193   2.125
 4630SOL    HW114789   1.334   5.211   2.112
 4630SOL    HW214790   1.193   5.180   2.036
 4631SOL     OW14791   0.829   0.346   3.657
 4631SOL    HW114792   0.752   0.368   3.596
 4631SOL    HW214793   0.908   0.320   3.603
 4632SOL     OW14794   2.781   5.801   2.966
 4632SOL    HW114795   2.859   5.838   2.916
 4632SOL    HW214796   2.718   5.758   2.901
 4633SOL     OW14797   4.891   1.440   4.392
 4633SOL    HW114798   4.977   1.393   4.411
 4633SOL    HW214799   4.908   1.515   4.328
 4634SOL     OW14800   2.907   3.822   5.015
 4634SOL    HW114801   2.910   3.887   5.091
 4634SOL    HW214802   2.820   3.833   4.966
 4635SOL     OW14803   4.231   5.222   1.084
 4635SOL    HW114804   4.313   5.264   1.124
 4635SOL    HW214805   4.178   5.178   1.156
 4636SOL     OW14806   1.617   5.300   0.603
 4636SOL    HW114807   1.658   5.324   0.691
 4636SOL    HW214808   1.688   5.275   0.538
 4637SOL     OW14809   1.428   6.578   1.028
 4637SOL    HW114810   1.408   6.504   0.963
 4637SOL    HW214811   1.414   6.545   1.121
 4638SOL     OW14812   3.623   5.337   6.609
 4638SOL    HW114813   3.610   5.238   6.614
 4638SOL    HW214814   3.707   5.362   6.658
 4639SOL     OW14815   2.679   2.138   0.061
 4639SOL    HW114816   2.584   2.169   0.062
 4639SOL    HW214817   2.732   2.188   0.131
 4640SOL     OW14818   5.992   2.752   5.291
 4640SOL    HW114819   5.915   2.811   5.316
 4640SOL    HW214820   5.958   2.660   5.274
 4641SOL     OW14821   1.992   6.780   3.884
 4641SOL    HW114822   1.906   6.757   3.929
 4641SOL    HW214823   1.985   6.762   3.786
 4642SOL     OW14824   1.828   1.497   3.714
 4642SOL    HW114825   1.927   1.479   3.714
 4642SOL    HW214826   1.789   1.465   3.800
 4643SOL     OW14827   6.637   2.300   0.364
 4643SOL    HW114828   6.693   2.352   0.300
 4643SOL    HW214829   6.622   2.208   0.328
 4644SOL     OW14830   0.227   0.910   6.328
 4644SOL    HW114831   0.321   0.925   6.296
 4644SOL    HW214832   0.218   0.818   6.363
 4645SOL     OW14833   1.835   0.759   4.081
 4645SOL    HW114834   1.825   0.667   4.042
 4645SOL    HW214835   1.750   0.785   4.128
 4646SOL     OW14836   2.489   5.182   4.368
 4646SOL    HW114837   2.438   5.119   4.426
 4646SOL    HW214838   2.456   5.276   4.384
 4647SOL     OW14839   1.869   6.427   3.112
 4647SOL    HW114840   1.813   6.456   3.034
 4647SOL    HW214841   1.949   6.486   3.118
 4648SOL     OW14842   2.982   0.960   4.041
 4648SOL    HW114843   2.957   0.875   4.086
 4648SOL    HW214844   3.051   1.008   4.095
 4649SOL     OW14845   5.931   0.895   1.175
 4649SOL    HW114846   5.852   0.939   1.133
 4649SOL    HW214847   5.985   0.964   1.224
 4650SOL     OW14848   4.863   5.814   1.172
 4650SOL    HW114849   4.898   5.794   1.264
 4650SOL    HW214850   4.799   5.890   1.177
 4651SOL     OW14851   5.974   3.837   6.117
 4651SOL    HW114852   5.985   3.933   6.088
 4651SOL    HW214853   6.010   3.826   6.210
 4652SOL     OW14854   0.034   5.815   3.879
 4652SOL    HW114855   0.063   5.910   3.889
 4652SOL    HW214856   7.023   5.784   3.964
 4653SOL     OW14857   4.773   5.635   0.311
 4653SOL    HW114858   4.741   5.541   0.304
 4653SOL    HW214859   4.865   5.637   0.350
 4654SOL     OW14860   6.762   6.684   5.033
 4654SOL    HW114861   6.765   6.653   4.938
 4654SOL    HW214862   6.811   6.620   5.091
 4655SOL     OW14863   5.635   3.239   1.718
 4655SOL    HW114864   5.538   3.215   1.712
 4655SOL    HW214865   5.653   3.320   1.661
 4656SOL     OW14866   0.521   0.695   1.231
 4656SOL    HW114867   0.454   0.657   1.167
 4656SOL    HW214868   0.514   0.795   1.232
 4657SOL     OW14869   5.722   6.655   1.636
 4657SOL    HW114870   5.716   6.670   1.538
 4657SOL    HW214871   5.726   6.743   1.684
 4658SOL     OW14872   2.744   2.873   5.621
 4658SOL    HW114873   2.712   2.834   5.707
 4658SOL    HW214874   2.809   2.947   5.641
 4659SOL     OW14875   3.588   4.210   1.496
 4659SOL    HW114876   3.639   4.128   1.522
 4659SOL    HW214877   3.582   4.215   1.396
 4660SOL     OW14878   1.739   6.928   4.040
 4660SOL    HW114879   1.728   6.829   4.025
 4660SOL    HW214880   1.823   6.944   4.092
 4661SOL     OW14881   2.568   4.165   5.634
 4661SOL    HW114882   2.561   4.242   5.698
 4661SOL    HW214883   2.492   4.101   5.650
 4662SOL     OW14884   2.893   0.039   5.481
 4662SOL    HW114885   2.858   0.126   5.446
 4662SOL    HW214886   2.954   0.056   5.558
 4663SOL     OW14887   1.212   6.592   6.993
 4663SOL    HW114888   1.207   6.600   0.061
 4663SOL    HW214889   1.300   6.551   6.967
 4664SOL     OW14890   6.796   6.578   0.745
 4664SOL    HW114891   6.717   6.630   0.777
 4664SOL    HW214892   6.880   6.615   0.785
 4665SOL     OW14893   1.911   0.867   5.795
 4665SOL    HW114894   1.817   0.892   5.773
 4665SOL    HW214895   1.970   0.892   5.718
 4666SOL     OW14896   1.990   2.403   0.103
 4666SOL    HW114897   1.992   2.471   0.030
 4666SOL    HW214898   1.918   2.336   0.083
 4667SOL     OW14899   6.585   3.952   1.716
 4667SOL    HW114900   6.615   3.864   1.681
 4667SOL    HW214901   6.612   4.025   1.653
 4668SOL     OW14902   4.073   2.002   5.147
 4668SOL    HW114903   4.018   1.956   5.216
 4668SOL    HW214904   4.050   1.966   5.056
 4669SOL     OW14905   5.125   0.505   0.183
 4669SOL    HW114906   5.034   0.511   0.223
 4669SOL    HW214907   5.164   0.597   0.175
 4670SOL     OW14908   1.463   3.128   0.106
 4670SOL    HW114909   1.451   3.036   0.143
 4670SOL    HW214910   1.427   3.132   0.013
 4671SOL     OW14911   0.765   3.356   7.018
 4671SOL    HW114912   0.703   3.354   6.939
 4671SOL    HW214913   0.841   3.418   6.998
 4672SOL     OW14914   4.482   4.636   5.887
 4672SOL    HW114915   4.454   4.650   5.982
 4672SOL    HW214916   4.484   4.724   5.840
 4673SOL     OW14917   5.333   0.669   6.844
 4673SOL    HW114918   5.283   0.591   6.881
 4673SOL    HW214919   5.269   0.735   6.806
 4674SOL     OW14920   6.891   1.383   0.403
 4674SOL    HW114921   6.958   1.458   0.410
 4674SOL    HW214922   6.931   1.299   0.440
 4675SOL     OW14923   3.627   6.624   6.586
 4675SOL    HW114924   3.677   6.560   6.528
 4675SOL    HW214925   3.533   6.634   6.552
 4676SOL     OW14926   0.779   6.347   4.860
 4676SOL    HW114927   0.839   6.423   4.885
 4676SOL    HW214928   0.688   6.382   4.839
 4677SOL     OW14929   3.185   0.213   7.005
 4677SOL    HW114930   3.263   0.276   7.002
 4677SOL    HW214931   3.193   0.155   0.055
 4678SOL     OW14932   2.047   5.342   1.816
 4678SOL    HW114933   2.054   5.425   1.871
 4678SOL    HW214934   2.054   5.366   1.719
 4679SOL     OW14935   2.748   1.671   6.322
 4679SOL    HW114936   2.721   1.751   6.269
 4679SOL    HW214937   2.681   1.597   6.308
 4680SOL     OW14938   2.190   5.160   1.291
 4680SOL    HW114939   2.172   5.099   1.368
 4680SOL    HW214940   2.104   5.186   1.248
 4681SOL     OW14941   6.876   6.144   4.636
 4681SOL    HW114942   6.879   6.054   4.594
 4681SOL    HW214943   6.823   6.206   4.579
 4682SOL     OW14944   4.179   5.788   6.826
 4682SOL    HW114945   4.189   5.781   6.726
 4682SOL    HW214946   4.142   5.703   6.862
 4683SOL     OW14947   5.842   3.916   2.709
 4683SOL    HW114948   5.908   3.854   2.752
 4683SOL    HW214949   5.766   3.933   2.772
 4684SOL     OW14950   1.505   2.074   3.978
 4684SOL    HW114951   1.437   2.006   4.006
 4684SOL    HW214952   1.550   2.112   4.058
 4685SOL     OW14953   6.367   5.460   4.721
 4685SOL    HW114954   6.372   5.559   4.716
 4685SOL    HW214955   6.413   5.420   4.641
 4686SOL     OW14956   5.158   5.343   0.280
 4686SOL    HW114957   5.102   5.426   0.287
 4686SOL    HW214958   5.250   5.367   0.248
 4687SOL     OW14959   6.583   4.119   4.509
 4687SOL    HW114960   6.560   4.037   4.562
 4687SOL    HW214961   6.577   4.200   4.568
 4688SOL     OW14962   0.448   3.467   6.238
 4688SOL    HW114963   0.535   3.425   6.263
 4688SOL    HW214964   0.389   3.473   6.318
 4689SOL     OW14965   6.183   0.074   5.516
 4689SOL    HW114966   6.253   0.008   5.545
 4689SOL    HW214967   6.225   0.164   5.507
 4690SOL     OW14968   1.320   0.978   6.609
 4690SOL    HW114969   1.311   1.070   6.648
 4690SOL    HW214970   1.257   0.968   6.532
 4691SOL     OW14971   2.726   4.313   0.940
 4691SOL    HW114972   2.643   4.277   0.981
 4691SOL    HW214973   2.764   4.246   0.876
 4692SOL     OW14974   0.165   5.038   3.063
 4692SOL    HW114975   0.217   5.042   2.977
 4692SOL    HW214976   0.216   5.086   3.135
 4693SOL     OW14977   0.370   1.504   4.505
 4693SOL    HW114978   0.418   1.449   4.436
 4693SOL    HW214979   0.364   1.599   4.474
 4694SOL     OW14980   3.216   0.638   0.331
 4694SOL    HW114981   3.265   0.711   0.283
 4694SOL    HW214982   3.121   0.636   0.301
 4695SOL     OW14983   3.990   3.214   1.769
 4695SOL    HW114984   4.076   3.177   1.733
 4695SOL    HW214985   4.005   3.309   1.798
 4696SOL     OW14986   1.203   3.626   6.195
 4696SOL    HW114987   1.126   3.564   6.178
 4696SOL    HW214988   1.214   3.639   6.293
 4697SOL     OW14989   1.700   3.421   0.507
 4697SOL    HW114990   1.774   3.397   0.443
 4697SOL    HW214991   1.649   3.338   0.530
 4698SOL     OW14992   5.391   4.515   1.874
 4698SOL    HW114993   5.376   4.483   1.780
 4698SOL    HW214994   5.334   4.595   1.892
 4699SOL     OW14995   0.202   6.961   2.173
 4699SOL    HW114996   0.158   6.876   2.204
 4699SOL    HW214997   0.131   7.028   2.150
 4700SOL     OW14998   5.020   2.307   1.529
 4700SOL    HW114999   5.045   2.318   1.625
 4700SOL    HW215000   4.939   2.249   1.521
 4701SOL     OW15001   0.802   1.636   6.718
 4701SOL    HW115002   0.825   1.670   6.627
 4701SOL    HW215003   0.783   1.538   6.713
 4702SOL     OW15004   4.586   4.020   6.778
 4702SOL    HW115005   4.499   3.997   6.823
 4702SOL    HW215006   4.658   4.029   6.847
 4703SOL     OW15007   1.003   1.761   3.134
 4703SOL    HW115008   1.006   1.832   3.203
 4703SOL    HW215009   1.074   1.778   3.065
 4704SOL     OW15010   0.009   5.813   1.403
 4704SOL    HW115011   0.022   5.860   1.316
 4704SOL    HW215012   0.088   5.829   1.462
 4705SOL     OW15013   3.615   2.863   4.194
 4705SOL    HW115014   3.587   2.910   4.278
 4705SOL    HW215015   3.548   2.791   4.173
 4706SOL     OW15016   3.803   5.953   6.560
 4706SOL    HW115017   3.801   5.994   6.469
 4706SOL    HW215018   3.755   5.865   6.557
 4707SOL     OW15019   1.983   5.740   1.067
 4707SOL    HW115020   2.076   5.732   1.102
 4707SOL    HW215021   1.920   5.688   1.125
 4708SOL     OW15022   3.091   2.769   0.680
 4708SOL    HW115023   3.022   2.794   0.612
 4708SOL    HW215024   3.173   2.735   0.634
 4709SOL     OW15025   3.996   5.055   5.237
 4709SOL    HW115026   3.974   5.069   5.140
 4709SOL    HW215027   3.974   4.961   5.262
 4710SOL     OW15028   4.658   1.559   6.533
 4710SOL    HW115029   4.689   1.571   6.439
 4710SOL    HW215030   4.610   1.471   6.541
 4711SOL     OW15031   3.498   0.063   2.661
 4711SOL    HW115032   3.553   0.090   2.582
 4711SOL    HW215033   3.454   0.143   2.701
 4712SOL     OW15034   2.288   4.558   1.084
 4712SOL    HW115035   2.355   4.510   1.141
 4712SOL    HW215036   2.211   4.498   1.066
 4713SOL     OW15037   3.282   4.828   1.476
 4713SOL    HW115038   3.187   4.807   1.455
 4713SOL    HW215039   3.311   4.775   1.556
 4714SOL     OW15040   2.065   1.424   0.932
 4714SOL    HW115041   2.036   1.365   0.857
 4714SOL    HW215042   2.157   1.399   0.961
 4715SOL     OW15043   6.920   3.111   2.538
 4715SOL    HW115044   6.973   3.195   2.520
 4715SOL    HW215045   6.823   3.132   2.534
 4716SOL     OW15046   3.641   4.775   6.396
 4716SOL    HW115047   3.718   4.735   6.443
 4716SOL    HW215048   3.558   4.721   6.414
 4717SOL     OW15049   1.029   6.100   2.089
 4717SOL    HW115050   1.062   6.134   2.177
 4717SOL    HW215051   1.012   6.177   2.027
 4718SOL     OW15052   5.176   1.866   6.282
 4718SOL    HW115053   5.094   1.832   6.328
 4718SOL    HW215054   5.162   1.961   6.255
 4719SOL     OW15055   5.335   3.963   3.062
 4719SOL    HW115056   5.402   3.892   3.042
 4719SOL    HW215057   5.289   3.991   2.978
 4720SOL     OW15058   2.188   6.625   5.756
 4720SOL    HW115059   2.198   6.544   5.814
 4720SOL    HW215060   2.094   6.657   5.761
 4721SOL     OW15061   0.719   2.079   0.904
 4721SOL    HW115062   0.687   2.160   0.952
 4721SOL    HW215063   0.646   2.043   0.846
 4722SOL     OW15064   1.361   6.326   0.450
 4722SOL    HW115065   1.371   6.400   0.516
 4722SOL    HW215066   1.431   6.335   0.379
 4723SOL     OW15067   2.353   6.140   5.938
 4723SOL    HW115068   2.299   6.057   5.924
 4723SOL    HW215069   2.450   6.119   5.927
 4724SOL     OW15070   4.219   6.561   2.477
 4724SOL    HW115071   4.262   6.577   2.388
 4724SOL    HW215072   4.160   6.481   2.471
 4725SOL     OW15073   5.014   6.417   3.218
 4725SOL    HW115074   4.997   6.429   3.316
 4725SOL    HW215075   5.030   6.506   3.176
 4726SOL     OW15076   1.051   4.244   6.568
 4726SOL    HW115077   0.959   4.205   6.578
 4726SOL    HW215078   1.087   4.267   6.659
 4727SOL     OW15079   6.632   5.503   0.310
 4727SOL    HW115080   6.650   5.602   0.316
 4727SOL    HW215081   6.691   5.455   0.375
 4728SOL     OW15082   6.124   1.431   0.652
 4728SOL    HW115083   6.032   1.393   0.662
 4728SOL    HW215084   6.133   1.513   0.708
 4729SOL     OW15085   1.671   0.605   2.561
 4729SOL    HW115086   1.658   0.509   2.585
 4729SOL    HW215087   1.751   0.641   2.608
 4730SOL     OW15088   2.575   6.182   5.353
 4730SOL    HW115089   2.657   6.237   5.372
 4730SOL    HW215090   2.533   6.154   5.439
 4731SOL     OW15091   5.891   0.641   5.342
 4731SOL    HW115092   5.922   0.736   5.337
 4731SOL    HW215093   5.965   0.580   5.314
 4732SOL     OW15094   6.872   3.632   6.758
 4732SOL    HW115095   6.797   3.650   6.694
 4732SOL    HW215096   6.891   3.533   6.761
 4733SOL     OW15097   0.343   3.695   2.805
 4733SOL    HW115098   0.274   3.765   2.784
 4733SOL    HW215099   0.302   3.624   2.862
 4734SOL     OW15100   5.305   3.035   6.715
 4734SOL    HW115101   5.215   2.993   6.709
 4734SOL    HW215102   5.352   3.003   6.798
 4735SOL     OW15103   1.242   4.217   4.028
 4735SOL    HW115104   1.179   4.295   4.019
 4735SOL    HW215105   1.207   4.141   3.973
 4736SOL     OW15106   6.842   0.965   6.387
 4736SOL    HW115107   6.929   1.002   6.354
 4736SOL    HW215108   6.805   0.901   6.320
 4737SOL     OW15109   2.595   4.610   1.911
 4737SOL    HW115110   2.691   4.619   1.934
 4737SOL    HW215111   2.579   4.521   1.868
 4738SOL     OW15112   6.734   6.128   1.672
 4738SOL    HW115113   6.800   6.199   1.697
 4738SOL    HW215114   6.777   6.064   1.608
 4739SOL     OW15115   3.982   0.504   2.383
 4739SOL    HW115116   3.957   0.431   2.320
 4739SOL    HW215117   3.991   0.467   2.475
 4740SOL     OW15118   0.686   1.489   2.531
 4740SOL    HW115119   0.774   1.507   2.573
 4740SOL    HW215120   0.635   1.575   2.523
 4741SOL     OW15121   3.841   2.482   1.401
 4741SOL    HW115122   3.909   2.415   1.371
 4741SOL    HW215123   3.847   2.493   1.501
 4742SOL     OW15124   2.589   6.853   0.243
 4742SOL    HW115125   2.540   6.889   0.323
 4742SOL    HW215126   2.601   6.754   0.253
 4743SOL     OW15127   1.997   3.861   2.233
 4743SOL    HW115128   2.050   3.823   2.157
 4743SOL    HW215129   1.900   3.848   2.215
 4744SOL     OW15130   1.807   6.029   0.819
 4744SOL    HW115131   1.802   5.930   0.808
 4744SOL    HW215132   1.793   6.073   0.730
 4745SOL     OW15133   2.541   3.806   0.319
 4745SOL    HW115134   2.490   3.734   0.367
 4745SOL    HW215135   2.514   3.807   0.223
 4746SOL     OW15136   4.251   5.110   4.591
 4746SOL    HW115137   4.310   5.030   4.605
 4746SOL    HW215138   4.177   5.087   4.528
 4747SOL     OW15139   1.483   3.023   0.977
 4747SOL    HW115140   1.485   2.932   0.935
 4747SOL    HW215141   1.412   3.079   0.934
 4748SOL     OW15142   1.766   6.269   2.055
 4748SOL    HW115143   1.713   6.353   2.071
 4748SOL    HW215144   1.850   6.292   2.005
 4749SOL     OW15145   2.061   6.772   0.522
 4749SOL    HW115146   2.082   6.687   0.571
 4749SOL    HW215147   2.105   6.849   0.568
 4750SOL     OW15148   6.131   3.706   4.993
 4750SOL    HW115149   6.075   3.681   5.071
 4750SOL    HW215150   6.225   3.674   5.008
 4751SOL     OW15151   4.390   1.440   2.145
 4751SOL    HW115152   4.330   1.501   2.093
 4751SOL    HW215153   4.356   1.431   2.239
 4752SOL     OW15154   4.733   1.908   0.137
 4752SOL    HW115155   4.660   1.919   0.204
 4752SOL    HW215156   4.694   1.894   0.046
 4753SOL     OW15157   1.814   6.648   4.938
 4753SOL    HW115158   1.876   6.614   5.008
 4753SOL    HW215159   1.822   6.591   4.855
 4754SOL     OW15160   4.286   4.021   6.259
 4754SOL    HW115161   4.255   4.107   6.300
 4754SOL    HW215162   4.280   4.027   6.160
 4755SOL     OW15163   1.160   0.407   1.907
 4755SOL    HW115164   1.216   0.399   1.825
 4755SOL    HW215165   1.066   0.432   1.882
 4756SOL     OW15166   6.395   4.651   0.099
 4756SOL    HW115167   6.329   4.679   0.169
 4756SOL    HW215168   6.380   4.554   0.077
 4757SOL     OW15169   1.397   2.829   1.611
 4757SOL    HW115170   1.473   2.765   1.621
 4757SOL    HW215171   1.426   2.906   1.554
 4758SOL     OW15172   1.638   6.961   3.327
 4758SOL    HW115173   1.591   0.017   3.328
 4758SOL    HW215174   1.694   6.952   3.409
 4759SOL     OW15175   0.824   4.991   0.214
 4759SOL    HW115176   0.899   5.046   0.250
 4759SOL    HW215177   0.857   4.899   0.193
 4760SOL     OW15178   1.457   0.079   0.535
 4760SOL    HW115179   1.548   0.120   0.548
 4760SOL    HW215180   1.467   7.022   0.490
 4761SOL     OW15181   0.185   6.703   0.810
 4761SOL    HW115182   0.147   6.716   0.901
 4761SOL    HW215183   0.122   6.647   0.755
 4762SOL     OW15184   1.827   5.495   2.423
 4762SOL    HW115185   1.884   5.439   2.362
 4762SOL    HW215186   1.744   5.444   2.447
 4763SOL     OW15187   4.959   5.796   1.887
 4763SOL    HW115188   4.938   5.729   1.816
 4763SOL    HW215189   4.997   5.879   1.845
 4764SOL     OW15190   4.868   3.811   5.502
 4764SOL    HW115191   4.819   3.872   5.564
 4764SOL    HW215192   4.818   3.802   5.416
 4765SOL     OW15193   3.001   1.859   4.754
 4765SOL    HW115194   2.970   1.774   4.795
 4765SOL    HW215195   2.933   1.892   4.688
 4766SOL     OW15196   5.997   6.733   4.464
 4766SOL    HW115197   6.079   6.760   4.414
 4766SOL    HW215198   5.931   6.693   4.400
 4767SOL     OW15199   2.482   5.204   5.200
 4767SOL    HW115200   2.472   5.274   5.270
 4767SOL    HW215201   2.520   5.120   5.240
 4768SOL     OW15202   4.600   2.835   6.536
 4768SOL    HW115203   4.559   2.773   6.603
 4768SOL    HW215204   4.699   2.829   6.541
 4769SOL     OW15205   3.316   5.987   1.449
 4769SOL    HW115206   3.255   5.916   1.412
 4769SOL    HW215207   3.265   6.072   1.457
 4770SOL     OW15208   6.358   1.937   5.566
 4770SOL    HW115209   6.439   1.977   5.610
 4770SOL    HW215210   6.356   1.839   5.584
 4771SOL     OW15211   2.448   0.251   5.711
 4771SOL    HW115212   2.470   0.168   5.660
 4771SOL    HW215213   2.372   0.233   5.773
 4772SOL     OW15214   2.939   5.199   0.955
 4772SOL    HW115215   2.889   5.264   0.897
 4772SOL    HW215216   2.944   5.235   1.048
 4773SOL     OW15217   2.642   5.614   5.018
 4773SOL    HW115218   2.737   5.586   5.008
 4773SOL    HW215219   2.621   5.628   5.115
 4774SOL     OW15220   1.933   4.197   0.399
 4774SOL    HW115221   1.886   4.149   0.474
 4774SOL    HW215222   2.030   4.204   0.421
 4775SOL     OW15223   5.635   6.364   4.456
 4775SOL    HW115224   5.608   6.404   4.544
 4775SOL    HW215225   5.633   6.265   4.462
 4776SOL     OW15226   1.077   0.510   5.647
 4776SOL    HW115227   1.069   0.474   5.739
 4776SOL    HW215228   1.173   0.529   5.626
 4777SOL     OW15229   0.952   5.538   0.601
 4777SOL    HW115230   0.909   5.564   0.688
 4777SOL    HW215231   1.049   5.560   0.605
 4778SOL     OW15232   0.727   2.590   4.227
 4778SOL    HW115233   0.665   2.630   4.160
 4778SOL    HW215234   0.702   2.621   4.319
 4779SOL     OW15235   6.202   0.763   3.976
 4779SOL    HW115236   6.295   0.776   4.012
 4779SOL    HW215237   6.170   0.849   3.936
 4780SOL     OW15238   5.314   2.586   5.656
 4780SOL    HW115239   5.261   2.585   5.740
 4780SOL    HW215240   5.403   2.628   5.674
 4781SOL     OW15241   2.018   5.832   2.506
 4781SOL    HW115242   2.064   5.921   2.499
 4781SOL    HW215243   1.934   5.834   2.452
 4782SOL     OW15244   5.439   5.461   5.729
 4782SOL    HW115245   5.451   5.534   5.796
 4782SOL    HW215246   5.460   5.373   5.771
 4783SOL     OW15247   5.467   3.640   0.874
 4783SOL    HW115248   5.372   3.664   0.892
 4783SOL    HW215249   5.527   3.713   0.907
 4784SOL     OW15250   5.625   2.742   6.789
 4784SOL    HW115251   5.548   2.727   6.727
 4784SOL    HW215252   5.624   2.673   6.862
 4785SOL     OW15253   0.412   5.890   3.313
 4785SOL    HW115254   0.501   5.934   3.326
 4785SOL    HW215255   0.385   5.898   3.217
 4786SOL     OW15256   2.585   6.988   1.197
 4786SOL    HW115257   2.513   0.013   1.156
 4786SOL    HW215258   2.586   6.899   1.152
 4787SOL     OW15259   4.218   1.977   4.269
 4787SOL    HW115260   4.188   1.994   4.175
 4787SOL    HW215261   4.201   2.059   4.324
 4788SOL     OW15262   6.394   5.844   0.207
 4788SOL    HW115263   6.369   5.826   0.112
 4788SOL    HW215264   6.311   5.850   0.263
 4789SOL     OW15265   4.951   1.234   1.799
 4789SOL    HW115266   5.005   1.278   1.871
 4789SOL    HW215267   4.877   1.180   1.841
 4790SOL     OW15268   5.634   1.524   5.215
 4790SOL    HW115269   5.626   1.447   5.152
 4790SOL    HW215270   5.550   1.579   5.211
 4791SOL     OW15271   0.257   2.890   1.141
 4791SOL    HW115272   0.251   2.960   1.069
 4791SOL    HW215273   0.235   2.932   1.229
 4792SOL     OW15274   2.023   4.223   4.472
 4792SOL    HW115275   1.985   4.274   4.549
 4792SOL    HW215276   1.952   4.208   4.403
 4793SOL     OW15277   1.211   3.899   6.041
 4793SOL    HW115278   1.201   3.801   6.059
 4793SOL    HW215279   1.246   3.945   6.122
 4794SOL     OW15280   4.877   0.584   4.046
 4794SOL    HW115281   4.888   0.498   4.096
 4794SOL    HW215282   4.958   0.641   4.059
 4795SOL     OW15283   0.817   0.933   3.944
 4795SOL    HW115284   0.877   0.857   3.923
 4795SOL    HW215285   0.826   0.957   4.041
 4796SOL     OW15286   3.669   1.183   6.289
 4796SOL    HW115287   3.735   1.143   6.226
 4796SOL    HW215288   3.577   1.175   6.251
 4797SOL     OW15289   0.487   5.340   4.435
 4797SOL    HW115290   0.394   5.325   4.469
 4797SOL    HW215291   0.541   5.257   4.448
 4798SOL     OW15292   5.119   5.322   6.897
 4798SOL    HW115293   5.059   5.287   6.969
 4798SOL    HW215294   5.116   5.261   6.818
 4799SOL     OW15295   3.341   2.631   6.269
 4799SOL    HW115296   3.291   2.716   6.251
 4799SOL    HW215297   3.386   2.601   6.186
 4800SOL     OW15298   2.116   4.994   0.203
 4800SOL    HW115299   2.053   4.981   0.280
 4800SOL    HW215300   2.200   4.942   0.220
 4801SOL     OW15301   4.782   2.512   1.439
 4801SOL    HW115302   4.823   2.421   1.433
 4801SOL    HW215303   4.837   2.570   1.499
 4802SOL     OW15304   0.247   6.083   2.493
 4802SOL    HW115305   0.214   6.086   2.399
 4802SOL    HW215306   0.347   6.082   2.493
 4803SOL     OW15307   5.604   4.721   0.162
 4803SOL    HW115308   5.614   4.627   0.196
 4803SOL    HW215309   5.554   4.719   0.075
 4804SOL     OW15310   4.936   1.907   0.496
 4804SOL    HW115311   4.946   1.839   0.424
 4804SOL    HW215312   4.902   1.863   0.579
 4805SOL     OW15313   6.601   2.223   1.367
 4805SOL    HW115314   6.681   2.169   1.341
 4805SOL    HW215315   6.600   2.237   1.466
 4806SOL     OW15316   1.430   3.237   3.162
 4806SOL    HW115317   1.392   3.226   3.070
 4806SOL    HW215318   1.429   3.334   3.186
 4807SOL     OW15319   0.888   3.510   6.420
 4807SOL    HW115320   0.886   3.581   6.349
 4807SOL    HW215321   0.899   3.553   6.510
 4808SOL     OW15322   4.121   5.973   1.052
 4808SOL    HW115323   4.186   6.049   1.054
 4808SOL    HW215324   4.051   5.991   0.983
 4809SOL     OW15325   3.367   4.983   1.701
 4809SOL    HW115326   3.324   4.975   1.611
 4809SOL    HW215327   3.316   5.050   1.756
 4810SOL     OW15328   0.673   4.406   3.571
 4810SOL    HW115329   0.583   4.437   3.539
 4810SOL    HW215330   0.661   4.333   3.638
 4811SOL     OW15331   3.326   4.018   4.678
 4811SOL    HW115332   3.410   3.976   4.712
 4811SOL    HW215333   3.341   4.055   4.587
 4812SOL     OW15334   0.580   6.567   2.039
 4812SOL    HW115335   0.538   6.563   2.130
 4812SOL    HW215336   0.560   6.656   1.998
 4813SOL     OW15337   6.258   1.477   0.040
 4813SOL    HW115338   6.222   1.401   0.094
 4813SOL    HW215339   6.185   1.514   7.014
 4814SOL     OW15340   6.725   4.255   1.827
 4814SOL    HW115341   6.722   4.354   1.844
 4814SOL    HW215342   6.752   4.239   1.733
 4815SOL     OW15343   5.708   5.055   2.503
 4815SOL    HW115344   5.654   5.001   2.438
 4815SOL    HW215345   5.651   5.128   2.542
 4816SOL     OW15346   1.646   6.490   2.134
 4816SOL    HW115347   1.736   6.532   2.148
 4816SOL    HW215348   1.588   6.552   2.081
 4817SOL     OW15349   3.564   1.267   1.479
 4817SOL    HW115350   3.482   1.213   1.459
 4817SOL    HW215351   3.541   1.342   1.541
 4818SOL     OW15352   2.532   0.157   4.906
 4818SOL    HW115353   2.603   0.113   4.852
 4818SOL    HW215354   2.485   0.226   4.850
 4819SOL     OW15355   2.630   1.745   1.312
 4819SOL    HW115356   2.638   1.845   1.318
 4819SOL    HW215357   2.534   1.720   1.311
 4820SOL     OW15358   0.209   3.818   2.134
 4820SOL    HW115359   0.235   3.877   2.210
 4820SOL    HW215360   0.231   3.723   2.158
 4821SOL     OW15361   6.631   5.607   1.865
 4821SOL    HW115362   6.635   5.644   1.772
 4821SOL    HW215363   6.637   5.682   1.931
 4822SOL     OW15364   1.703   3.730   4.033
 4822SOL    HW115365   1.788   3.782   4.033
 4822SOL    HW215366   1.633   3.778   3.980
 4823SOL     OW15367   1.100   6.948   4.555
 4823SOL    HW115368   1.046   6.972   4.475
 4823SOL    HW215369   1.189   6.994   4.551
 4824SOL     OW15370   5.428   2.563   2.979
 4824SOL    HW115371   5.480   2.530   2.900
 4824SOL    HW215372   5.344   2.607   2.947
 4825SOL     OW15373   1.618   3.290   4.409
 4825SOL    HW115374   1.533   3.340   4.394
 4825SOL    HW215375   1.633   3.226   4.334
 4826SOL     OW15376   0.100   6.281   0.217
 4826SOL    HW115377   0.163   6.213   0.177
 4826SOL    HW215378   0.152   6.350   0.266
 4827SOL     OW15379   4.663   1.189   1.000
 4827SOL    HW115380   4.603   1.134   1.057
 4827SOL    HW215381   4.747   1.211   1.050
 4828SOL     OW15382   5.661   3.441   1.551
 4828SOL    HW115383   5.759   3.452   1.562
 4828SOL    HW215384   5.621   3.527   1.518
 4829SOL     OW15385   3.343   0.409   6.441
 4829SOL    HW115386   3.442   0.395   6.441
 4829SOL    HW215387   3.297   0.321   6.430
 4830SOL     OW15388   4.968   6.022   3.476
 4830SOL    HW115389   4.875   5.996   3.502
 4830SOL    HW215390   5.026   6.023   3.558
 4831SOL     OW15391   6.519   5.019   5.181
 4831SOL    HW115392   6.603   5.006   5.233
 4831SOL    HW215393   6.499   5.117   5.174
 4832SOL     OW15394   3.485   2.967   5.723
 4832SOL    HW115395   3.499   2.888   5.782
 4832SOL    HW215396   3.443   2.937   5.637
 4833SOL     OW15397   4.678   1.360   3.248
 4833SOL    HW115398   4.664   1.422   3.325
 4833SOL    HW215399   4.712   1.272   3.281
 4834SOL     OW15400   4.056   0.881   0.928
 4834SOL    HW115401   4.006   0.870   1.014
 4834SOL    HW215402   4.010   0.830   0.856
 4835SOL     OW15403   2.104   0.071   6.545
 4835SOL    HW115404   2.049   0.102   6.623
 4835SOL    HW215405   2.138   0.150   6.495
 4836SOL     OW15406   4.892   1.629   4.152
 4836SOL    HW115407   4.818   1.672   4.101
 4836SOL    HW215408   4.930   1.693   4.218
 4837SOL     OW15409   2.926   3.237   1.269
 4837SOL    HW115410   2.996   3.233   1.198
 4837SOL    HW215411   2.918   3.148   1.314
 4838SOL     OW15412   3.701   4.862   2.243
 4838SOL    HW115413   3.684   4.846   2.145
 4838SOL    HW215414   3.790   4.907   2.253
 4839SOL     OW15415   0.229   4.976   5.134
 4839SOL    HW115416   0.189   5.067   5.138
 4839SOL    HW215417   0.157   4.909   5.116
 4840SOL     OW15418   5.573   6.613   0.264
 4840SOL    HW115419   5.473   6.610   0.274
 4840SOL    HW215420   5.610   6.521   0.274
 4841SOL     OW15421   3.345   5.932   1.743
 4841SOL    HW115422   3.420   5.994   1.766
 4841SOL    HW215423   3.331   5.932   1.644
 4842SOL     OW15424   3.709   5.282   2.112
 4842SOL    HW115425   3.749   5.283   2.020
 4842SOL    HW215426   3.761   5.345   2.171
 4843SOL     OW15427   6.947   3.628   0.009
 4843SOL    HW115428   6.951   3.539   0.052
 4843SOL    HW215429   6.894   3.622   6.955
 4844SOL     OW15430   6.744   4.031   6.955
 4844SOL    HW115431   6.736   4.072   0.014
 4844SOL    HW215432   6.683   3.952   6.949
 4845SOL     OW15433   6.244   5.725   4.369
 4845SOL    HW115434   6.241   5.628   4.346
 4845SOL    HW215435   6.289   5.737   4.458
 4846SOL     OW15436   0.666   3.236   0.808
 4846SOL    HW115437   0.685   3.334   0.802
 4846SOL    HW215438   0.709   3.189   0.730
 4847SOL     OW15439   3.500   1.991   5.638
 4847SOL    HW115440   3.501   2.042   5.552
 4847SOL    HW215441   3.412   1.943   5.647
 4848SOL     OW15442   1.728   1.630   3.494
 4848SOL    HW115443   1.803   1.611   3.430
 4848SOL    HW215444   1.751   1.592   3.583
 4849SOL     OW15445   1.682   6.823   6.802
 4849SOL    HW115446   1.771   6.815   6.847
 4849SOL    HW215447   1.688   6.890   6.728
 4850SOL     OW15448   3.452   0.852   2.209
 4850SOL    HW115449   3.539   0.860   2.257
 4850SOL    HW215450   3.385   0.912   2.253
 4851SOL     OW15451   4.387   6.431   5.698
 4851SOL    HW115452   4.475   6.403   5.659
 4851SOL    HW215453   4.402   6.503   5.766
 4852SOL     OW15454   1.665   0.524   6.951
 4852SOL    HW115455   1.687   0.479   6.865
 4852SOL    HW215456   1.643   0.620   6.934
 4853SOL     OW15457   3.541   1.568   2.451
 4853SOL    HW115458   3.562   1.501   2.523
 4853SOL    HW215459   3.468   1.629   2.483
 4854SOL     OW15460   4.783   5.899   2.322
 4854SOL    HW115461   4.839   5.845   2.259
 4854SOL    HW215462   4.838   5.928   2.399
 4855SOL     OW15463   5.705   1.750   2.320
 4855SOL    HW115464   5.690   1.785   2.228
 4855SOL    HW215465   5.698   1.826   2.386
 4856SOL     OW15466   2.843   4.753   3.547
 4856SOL    HW115467   2.772   4.708   3.600
 4856SOL    HW215468   2.815   4.761   3.451
 4857SOL     OW15469   1.137   1.634   5.541
 4857SOL    HW115470   1.230   1.634   5.579
 4857SOL    HW215471   1.138   1.591   5.451
 4858SOL     OW15472   1.945   1.627   3.982
 4858SOL    HW115473   1.980   1.548   3.932
 4858SOL    HW215474   2.015   1.699   3.983
 4859SOL     OW15475   1.371   5.648   4.527
 4859SOL    HW115476   1.419   5.736   4.521
 4859SOL    HW215477   1.302   5.653   4.599
 4860SOL     OW15478   4.092   5.195   2.049
 4860SOL    HW115479   4.004   5.168   2.011
 4860SOL    HW215480   4.114   5.136   2.127
 4861SOL     OW15481   5.153   5.588   6.872
 4861SOL    HW115482   5.110   5.605   6.783
 4861SOL    HW215483   5.166   5.489   6.883
 4862SOL     OW15484   2.080   5.414   3.836
 4862SOL    HW115485   2.064   5.346   3.764
 4862SOL    HW215486   1.993   5.441   3.877
 4863SOL     OW15487   5.832   4.559   0.770
 4863SOL    HW115488   5.816   4.579   0.867
 4863SOL    HW215489   5.846   4.461   0.757
 4864SOL     OW15490   3.392   1.232   3.684
 4864SOL    HW115491   3.477   1.181   3.691
 4864SOL    HW215492   3.381   1.290   3.765
 4865SOL     OW15493   2.355   0.396   5.235
 4865SOL    HW115494   2.297   0.315   5.230
 4865SOL    HW215495   2.416   0.398   5.156
 4866SOL     OW15496   6.359   3.828   1.075
 4866SOL    HW115497   6.452   3.849   1.045
 4866SOL    HW215498   6.361   3.746   1.132
 4867SOL     OW15499   4.476   5.367   2.306
 4867SOL    HW115500   4.423   5.415   2.236
 4867SOL    HW215501   4.488   5.426   2.385
 4868SOL     OW15502   6.777   4.816   2.204
 4868SOL    HW115503   6.821   4.840   2.117
 4868SOL    HW215504   6.685   4.782   2.186
 4869SOL     OW15505   1.392   1.708   0.861
 4869SOL    HW115506   1.376   1.625   0.808
 4869SOL    HW215507   1.403   1.684   0.957
 4870SOL     OW15508   0.744   6.359   2.084
 4870SOL    HW115509   0.768   6.339   1.989
 4870SOL    HW215510   0.703   6.450   2.090
 4871SOL     OW15511   1.172   0.592   4.782
 4871SOL    HW115512   1.260   0.545   4.779
 4871SOL    HW215513   1.102   0.536   4.738
 4872SOL     OW15514   6.612   6.823   3.088
 4872SOL    HW115515   6.544   6.815   3.014
 4872SOL    HW215516   6.566   6.814   3.176
 4873SOL     OW15517   6.713   5.312   4.695
 4873SOL    HW115518   6.712   5.323   4.596
 4873SOL    HW215519   6.680   5.395   4.738
 4874SOL     OW15520   4.976   2.228   2.754
 4874SOL    HW115521   4.922   2.160   2.802
 4874SOL    HW215522   4.918   2.278   2.690
 4875SOL     OW15523   5.199   0.178   6.895
 4875SOL    HW115524   5.171   0.112   6.964
 4875SOL    HW215525   5.249   0.253   6.940
 4876SOL     OW15526   0.253   1.366   3.643
 4876SOL    HW115527   0.181   1.299   3.626
 4876SOL    HW215528   0.337   1.318   3.668
 4877SOL     OW15529   0.278   2.305   5.221
 4877SOL    HW115530   0.249   2.259   5.304
 4877SOL    HW215531   0.279   2.404   5.236
 4878SOL     OW15532   6.906   1.895   1.986
 4878SOL    HW115533   6.944   1.807   2.013
 4878SOL    HW215534   6.807   1.890   1.987
 4879SOL     OW15535   4.745   1.775   2.101
 4879SOL    HW115536   4.771   1.822   2.186
 4879SOL    HW215537   4.705   1.686   2.123
 4880SOL     OW15538   6.455   3.795   0.369
 4880SOL    HW115539   6.468   3.706   0.413
 4880SOL    HW215540   6.370   3.794   0.317
 4881SOL     OW15541   1.887   2.002   0.882
 4881SOL    HW115542   1.801   1.959   0.855
 4881SOL    HW215543   1.924   2.054   0.805
 4882SOL     OW15544   4.278   2.205   5.318
 4882SOL    HW115545   4.302   2.113   5.285
 4882SOL    HW215546   4.361   2.252   5.347
 4883SOL     OW15547   5.239   3.927   1.635
 4883SOL    HW115548   5.165   3.930   1.568
 4883SOL    HW215549   5.201   3.920   1.727
 4884SOL     OW15550   2.991   5.495   0.573
 4884SOL    HW115551   3.079   5.449   0.576
 4884SOL    HW215552   2.973   5.528   0.481
 4885SOL     OW15553   2.479   4.363   1.760
 4885SOL    HW115554   2.437   4.341   1.848
 4885SOL    HW215555   2.415   4.419   1.706
 4886SOL     OW15556   2.786   6.851   1.405
 4886SOL    HW115557   2.747   6.814   1.489
 4886SOL    HW215558   2.733   6.931   1.376
 4887SOL     OW15559   1.085   6.437   1.573
 4887SOL    HW115560   1.064   6.431   1.475
 4887SOL    HW215561   1.065   6.530   1.605
 4888SOL     OW15562   2.577   6.873   2.823
 4888SOL    HW115563   2.520   6.848   2.745
 4888SOL    HW215564   2.590   6.972   2.825
 4889SOL     OW15565   6.648   1.970   5.086
 4889SOL    HW115566   6.704   2.051   5.065
 4889SOL    HW215567   6.553   1.988   5.063
 4890SOL     OW15568   0.895   2.223   5.434
 4890SOL    HW115569   0.965   2.180   5.489
 4890SOL    HW215570   0.818   2.160   5.422
 4891SOL     OW15571   2.535   5.146   6.654
 4891SOL    HW115572   2.532   5.215   6.582
 4891SOL    HW215573   2.442   5.124   6.683
 4892SOL     OW15574   5.349   6.127   2.181
 4892SOL    HW115575   5.256   6.141   2.216
 4892SOL    HW215576   5.393   6.215   2.166
 4893SOL     OW15577   0.039   3.246   2.285
 4893SOL    HW115578   7.000   3.223   2.218
 4893SOL    HW215579   0.115   3.182   2.278
 4894SOL     OW15580   3.184   7.000   2.377
 4894SOL    HW115581   3.242   6.919   2.384
 4894SOL    HW215582   3.203   0.029   2.455
 4895SOL     OW15583   0.795   4.988   3.456
 4895SOL    HW115584   0.848   5.041   3.522
 4895SOL    HW215585   0.724   4.936   3.504
 4896SOL     OW15586   2.537   4.780   2.795
 4896SOL    HW115587   2.449   4.733   2.784
 4896SOL    HW215588   2.523   4.866   2.844
 4897SOL     OW15589   1.564   6.007   5.312
 4897SOL    HW115590   1.616   6.058   5.243
 4897SOL    HW215591   1.619   5.995   5.394
 4898SOL     OW15592   3.988   1.069   5.152
 4898SOL    HW115593   4.051   1.001   5.112
 4898SOL    HW215594   3.913   1.022   5.198
 4899SOL     OW15595   5.919   5.047   2.748
 4899SOL    HW115596   5.863   5.015   2.672
 4899SOL    HW215597   5.916   4.980   2.822
 4900SOL     OW15598   4.598   6.224   5.813
 4900SOL    HW115599   4.625   6.276   5.733
 4900SOL    HW215600   4.636   6.131   5.807
 4901SOL     OW15601   1.815   1.843   4.949
 4901SOL    HW115602   1.834   1.807   5.040
 4901SOL    HW215603   1.792   1.767   4.887
 4902SOL     OW15604   1.775   0.527   6.312
 4902SOL    HW115605   1.678   0.508   6.295
 4902SOL    HW215606   1.787   0.563   6.405
 4903SOL     OW15607   4.528   5.618   1.018
 4903SOL    HW115608   4.515   5.565   0.934
 4903SOL    HW215609   4.493   5.711   1.005
 4904SOL     OW15610   2.056   0.792   5.303
 4904SOL    HW115611   2.102   0.724   5.245
 4904SOL    HW215612   1.971   0.753   5.338
 4905SOL     OW15613   2.490   0.265   3.363
 4905SOL    HW115614   2.391   0.269   3.346
 4905SOL    HW215615   2.510   0.185   3.419
 4906SOL     OW15616   4.719   2.829   5.337
 4906SOL    HW115617   4.803   2.883   5.338
 4906SOL    HW215618   4.741   2.733   5.351
 4907SOL     OW15619   4.858   1.617   0.868
 4907SOL    HW115620   4.786   1.549   0.882
 4907SOL    HW215621   4.899   1.603   0.778
 4908SOL     OW15622   4.853   0.263   0.557
 4908SOL    HW115623   4.792   0.305   0.623
 4908SOL    HW215624   4.903   0.187   0.600
 4909SOL     OW15625   6.770   4.494   4.015
 4909SOL    HW115626   6.831   4.565   4.050
 4909SOL    HW215627   6.682   4.499   4.062
 4910SOL     OW15628   5.946   0.969   4.122
 4910SOL    HW115629   6.032   1.013   4.149
 4910SOL    HW215630   5.871   1.006   4.178
 4911SOL     OW15631   1.731   3.158   3.222
 4911SOL    HW115632   1.776   3.243   3.196
 4911SOL    HW215633   1.633   3.165   3.204
 4912SOL     OW15634   5.338   2.208   5.342
 4912SOL    HW115635   5.365   2.211   5.245
 4912SOL    HW215636   5.249   2.163   5.350
 4913SOL     OW15637   5.530   3.296   5.990
 4913SOL    HW115638   5.541   3.388   6.026
 4913SOL    HW215639   5.436   3.265   6.006
 4914SOL     OW15640   4.573   0.210   5.761
 4914SOL    HW115641   4.603   0.247   5.673
 4914SOL    HW215642   4.524   0.280   5.812
 4915SOL     OW15643   3.074   6.195   5.432
 4915SOL    HW115644   3.018   6.273   5.405
 4915SOL    HW215645   3.027   6.143   5.504
 4916SOL     OW15646   6.877   0.644   4.137
 4916SOL    HW115647   6.947   0.588   4.093
 4916SOL    HW215648   6.908   0.740   4.139
 4917SOL     OW15649   4.160   5.718   1.109
 4917SOL    HW115650   4.076   5.663   1.115
 4917SOL    HW215651   4.140   5.803   1.060
 4918SOL     OW15652   6.441   5.729   2.097
 4918SOL    HW115653   6.408   5.670   2.024
 4918SOL    HW215654   6.519   5.782   2.064
 4919SOL     OW15655   3.377   2.838   2.134
 4919SOL    HW115656   3.463   2.832   2.185
 4919SOL    HW215657   3.336   2.928   2.148
 4920SOL     OW15658   5.435   0.423   5.237
 4920SOL    HW115659   5.531   0.429   5.262
 4920SOL    HW215660   5.424   0.366   5.156
 4921SOL     OW15661   1.441   5.191   0.398
 4921SOL    HW115662   1.483   5.247   0.469
 4921SOL    HW215663   1.446   5.240   0.310
 4922SOL     OW15664   3.374   2.102   5.196
 4922SOL    HW115665   3.318   2.041   5.253
 4922SOL    HW215666   3.318   2.178   5.164
 4923SOL     OW15667   2.681   2.015   2.956
 4923SOL    HW115668   2.731   2.095   2.989
 4923SOL    HW215669   2.724   1.981   2.872
 4924SOL     OW15670   2.205   2.013   5.127
 4924SOL    HW115671   2.230   1.963   5.044
 4924SOL    HW215672   2.288   2.054   5.167
 4925SOL     OW15673   4.310   0.373   2.806
 4925SOL    HW115674   4.377   0.323   2.862
 4925SOL    HW215675   4.254   0.307   2.755
 4926SOL     OW15676   5.655   1.901   1.473
 4926SOL    HW115677   5.628   1.929   1.381
 4926SOL    HW215678   5.574   1.897   1.531
 4927SOL     OW15679   3.039   2.953   6.028
 4927SOL    HW115680   3.070   3.004   5.947
 4927SOL    HW215681   2.939   2.958   6.034
 4928SOL     OW15682   1.206   0.831   0.041
 4928SOL    HW115683   1.202   0.817   6.974
 4928SOL    HW215684   1.147   0.907   0.067
 4929SOL     OW15685   6.942   6.812   3.509
 4929SOL    HW115686   6.962   6.902   3.549
 4929SOL    HW215687   6.857   6.777   3.548
 4930SOL     OW15688   6.492   6.897   2.148
 4930SOL    HW115689   6.549   6.878   2.228
 4930SOL    HW215690   6.398   6.916   2.177
 4931SOL     OW15691   6.084   6.119   1.795
 4931SOL    HW115692   6.103   6.178   1.716
 4931SOL    HW215693   6.149   6.044   1.797
 4932SOL     OW15694   3.488   3.750   3.626
 4932SOL    HW115695   3.509   3.685   3.553
 4932SOL    HW215696   3.417   3.712   3.685
 4933SOL     OW15697   2.492   6.384   3.776
 4933SOL    HW115698   2.403   6.431   3.776
 4933SOL    HW215699   2.505   6.340   3.864
 4934SOL     OW15700   3.612   6.141   3.083
 4934SOL    HW115701   3.704   6.122   3.049
 4934SOL    HW215702   3.545   6.098   3.023
 4935SOL     OW15703   1.752   2.250   0.134
 4935SOL    HW115704   1.818   2.189   0.177
 4935SOL    HW215705   1.664   2.204   0.127
 4936SOL     OW15706   2.422   4.579   0.828
 4936SOL    HW115707   2.430   4.677   0.806
 4936SOL    HW215708   2.389   4.569   0.922
 4937SOL     OW15709   5.459   3.239   5.085
 4937SOL    HW115710   5.446   3.183   5.003
 4937SOL    HW215711   5.526   3.194   5.145
 4938SOL     OW15712   3.283   5.539   5.555
 4938SOL    HW115713   3.331   5.544   5.467
 4938SOL    HW215714   3.347   5.507   5.626
 4939SOL     OW15715   5.185   2.494   5.140
 4939SOL    HW115716   5.203   2.509   5.238
 4939SOL    HW215717   5.094   2.456   5.129
 4940SOL     OW15718   1.386   0.570   4.509
 4940SOL    HW115719   1.365   0.657   4.466
 4940SOL    HW215720   1.433   0.586   4.596
 4941SOL     OW15721   3.950   1.713   6.996
 4941SOL    HW115722   4.020   1.753   6.937
 4941SOL    HW215723   3.897   1.786   0.007
 4942SOL     OW15724   5.021   3.564   5.230
 4942SOL    HW115725   4.992   3.476   5.268
 4942SOL    HW215726   4.955   3.593   5.161
 4943SOL     OW15727   4.630   2.246   0.031
 4943SOL    HW115728   4.606   2.340   0.055
 4943SOL    HW215729   4.609   2.231   6.965
 4944SOL     OW15730   2.304   4.278   2.891
 4944SOL    HW115731   2.302   4.297   2.793
 4944SOL    HW215732   2.211   4.268   2.925
 4945SOL     OW15733   1.398   0.065   3.788
 4945SOL    HW115734   1.493   0.093   3.806
 4945SOL    HW215735   1.336   0.124   3.840
 4946SOL     OW15736   0.989   2.991   1.445
 4946SOL    HW115737   0.890   2.996   1.433
 4946SOL    HW215738   1.022   3.076   1.486
 4947SOL     OW15739   1.070   0.059   0.606
 4947SOL    HW115740   1.080   6.994   0.632
 4947SOL    HW215741   1.063   0.115   0.689
 4948SOL     OW15742   2.768   0.689   2.575
 4948SOL    HW115743   2.715   0.608   2.548
 4948SOL    HW215744   2.801   0.676   2.669
 4949SOL     OW15745   4.501   0.650   5.701
 4949SOL    HW115746   4.419   0.648   5.645
 4949SOL    HW215747   4.494   0.582   5.774
 4950SOL     OW15748   2.983   6.277   4.249
 4950SOL    HW115749   3.062   6.306   4.304
 4950SOL    HW215750   2.993   6.180   4.225
 4951SOL     OW15751   4.638   1.722   4.454
 4951SOL    HW115752   4.722   1.723   4.508
 4951SOL    HW215753   4.608   1.628   4.440
 4952SOL     OW15754   0.163   6.093   4.683
 4952SOL    HW115755   0.104   6.170   4.708
 4952SOL    HW215756   0.108   6.010   4.676
 4953SOL     OW15757   2.372   5.238   1.085
 4953SOL    HW115758   2.458   5.189   1.099
 4953SOL    HW215759   2.311   5.221   1.163
 4954SOL     OW15760   4.567   4.648   0.341
 4954SOL    HW115761   4.580   4.746   0.326
 4954SOL    HW215762   4.648   4.598   0.312
 4955SOL     OW15763   1.656   6.149   0.009
 4955SOL    HW115764   1.755   6.139   0.017
 4955SOL    HW215765   1.611   6.062   0.033
 4956SOL     OW15766   4.146   6.954   5.985
 4956SOL    HW115767   4.224   7.005   5.948
 4956SOL    HW215768   4.146   6.861   5.950
 4957SOL     OW15769   7.016   1.213   4.266
 4957SOL    HW115770   0.071   1.162   4.271
 4957SOL    HW215771   0.004   1.307   4.239
 4958SOL     OW15772   0.787   6.527   6.109
 4958SOL    HW115773   0.767   6.595   6.038
 4958SOL    HW215774   0.837   6.450   6.069
 4959SOL     OW15775   1.297   0.573   6.752
 4959SOL    HW115776   1.213   0.530   6.718
 4959SOL    HW215777   1.336   0.518   6.826
 4960SOL     OW15778   3.778   6.800   4.427
 4960SOL    HW115779   3.712   6.791   4.353
 4960SOL    HW215780   3.792   6.896   4.448
 4961SOL     OW15781   5.859   0.405   4.597
 4961SOL    HW115782   5.797   0.356   4.536
 4961SOL    HW215783   5.944   0.425   4.549
 4962SOL     OW15784   5.727   2.737   2.024
 4962SOL    HW115785   5.652   2.720   2.087
 4962SOL    HW215786   5.723   2.831   1.991
 4963SOL     OW15787   0.480   5.699   1.573
 4963SOL    HW115788   0.481   5.768   1.646
 4963SOL    HW215789   0.503   5.610   1.612
 4964SOL     OW15790   3.536   5.768   3.498
 4964SOL    HW115791   3.553   5.835   3.426
 4964SOL    HW215792   3.544   5.675   3.460
 4965SOL     OW15793   0.414   0.005   4.804
 4965SOL    HW115794   0.342   6.970   4.823
 4965SOL    HW215795   0.378   0.097   4.818
 4966SOL     OW15796   3.050   5.972   4.485
 4966SOL    HW115797   2.970   6.021   4.519
 4966SOL    HW215798   3.023   5.881   4.453
 4967SOL     OW15799   4.135   2.694   6.460
 4967SOL    HW115800   4.039   2.670   6.475
 4967SOL    HW215801   4.170   2.741   6.541
 4968SOL     OW15802   4.866   3.256   3.488
 4968SOL    HW115803   4.797   3.193   3.452
 4968SOL    HW215804   4.957   3.224   3.463
 4969SOL     OW15805   1.635   1.110   1.884
 4969SOL    HW115806   1.644   1.044   1.809
 4969SOL    HW215807   1.544   1.152   1.881
 4970SOL     OW15808   1.290   2.147   4.914
 4970SOL    HW115809   1.314   2.148   5.011
 4970SOL    HW215810   1.267   2.053   4.887
 4971SOL     OW15811   6.378   6.123   2.949
 4971SOL    HW115812   6.297   6.153   3.000
 4971SOL    HW215813   6.459   6.136   3.005
 4972SOL     OW15814   2.467   3.695   0.787
 4972SOL    HW115815   2.413   3.613   0.805
 4972SOL    HW215816   2.528   3.713   0.864
 4973SOL     OW15817   5.859   6.308   2.034
 4973SOL    HW115818   5.951   6.281   2.006
 4973SOL    HW215819   5.849   6.294   2.133
 4974SOL     OW15820   5.542   5.789   2.476
 4974SOL    HW115821   5.566   5.711   2.534
 4974SOL    HW215822   5.464   5.837   2.515
 4975SOL     OW15823   5.861   5.793   1.057
 4975SOL    HW115824   5.857   5.737   0.975
 4975SOL    HW215825   5.775   5.784   1.108
 4976SOL     OW15826   3.272   0.589   4.606
 4976SOL    HW115827   3.322   0.582   4.519
 4976SOL    HW215828   3.184   0.633   4.590
 4977SOL     OW15829   4.644   3.780   0.861
 4977SOL    HW115830   4.700   3.753   0.940
 4977SOL    HW215831   4.551   3.800   0.892
 4978SOL     OW15832   5.949   4.139   5.715
 4978SOL    HW115833   5.853   4.117   5.731
 4978SOL    HW215834   5.969   4.136   5.617
 4979SOL     OW15835   0.392   1.597   4.793
 4979SOL    HW115836   0.292   1.588   4.788
 4979SOL    HW215837   0.430   1.594   4.701
 4980SOL     OW15838   3.738   5.522   2.515
 4980SOL    HW115839   3.749   5.621   2.514
 4980SOL    HW215840   3.666   5.497   2.581
 4981SOL     OW15841   4.608   0.041   6.110
 4981SOL    HW115842   4.512   0.066   6.113
 4981SOL    HW215843   4.658   0.110   6.057
 4982SOL     OW15844   1.843   1.731   6.769
 4982SOL    HW115845   1.878   1.825   6.772
 4982SOL    HW215846   1.802   1.714   6.679
 4983SOL     OW15847   5.462   3.011   3.992
 4983SOL    HW115848   5.389   2.967   4.043
 4983SOL    HW215849   5.533   2.944   3.971
 4984SOL     OW15850   5.163   3.556   4.743
 4984SOL    HW115851   5.245   3.505   4.769
 4984SOL    HW215852   5.087   3.492   4.731
 4985SOL     OW15853   5.605   5.343   3.620
 4985SOL    HW115854   5.513   5.351   3.580
 4985SOL    HW215855   5.672   5.379   3.555
 4986SOL     OW15856   6.058   4.371   2.735
 4986SOL    HW115857   6.026   4.293   2.788
 4986SOL    HW215858   6.157   4.380   2.746
 4987SOL     OW15859   0.287   3.117   0.981
 4987SOL    HW115860   0.338   3.188   1.031
 4987SOL    HW215861   0.352   3.050   0.944
 4988SOL     OW15862   0.147   1.853   4.276
 4988SOL    HW115863   0.230   1.797   4.283
 4988SOL    HW215864   0.170   1.942   4.237
 4989SOL     OW15865   5.895   1.556   0.993
 4989SOL    HW115866   5.992   1.556   1.017
 4989SOL    HW215867   5.841   1.596   1.067
 4990SOL     OW15868   0.902   2.680   5.460
 4990SOL    HW115869   0.903   2.730   5.374
 4990SOL    HW215870   0.818   2.703   5.511
 4991SOL     OW15871   0.691   3.541   3.967
 4991SOL    HW115872   0.633   3.532   3.887
 4991SOL    HW215873   0.666   3.623   4.018
 4992SOL     OW15874   3.400   0.521   4.848
 4992SOL    HW115875   3.336   0.516   4.772
 4992SOL    HW215876   3.448   0.609   4.845
 4993SOL     OW15877   3.057   5.639   3.826
 4993SOL    HW115878   2.989   5.587   3.774
 4993SOL    HW215879   3.143   5.640   3.775
 4994SOL     OW15880   1.040   6.605   2.638
 4994SOL    HW115881   0.957   6.652   2.669
 4994SOL    HW215882   1.017   6.546   2.560
 4995SOL     OW15883   6.658   3.225   6.266
 4995SOL    HW115884   6.714   3.294   6.310
 4995SOL    HW215885   6.675   3.136   6.309
 4996SOL     OW15886   0.210   1.868   1.734
 4996SOL    HW115887   0.276   1.921   1.787
 4996SOL    HW215888   0.210   1.773   1.765
 4997SOL     OW15889   6.599   2.008   3.060
 4997SOL    HW115890   6.507   1.998   3.023
 4997SOL    HW215891   6.650   2.074   3.005
 4998SOL     OW15892   1.689   4.904   5.065
 4998SOL    HW115893   1.741   4.842   5.006
 4998SOL    HW215894   1.718   4.890   5.160
 4999SOL     OW15895   4.780   5.167   1.133
 4999SOL    HW115896   4.843   5.245   1.125
 4999SOL    HW215897   4.807   5.095   1.069
 5000SOL     OW15898   0.938   0.362   5.055
 5000SOL    HW115899   0.986   0.444   5.088
 5000SOL    HW215900   0.903   0.379   4.963
 5001SOL     OW15901   2.133   3.940   6.243
 5001SOL    HW115902   2.123   3.999   6.323
 5001SOL    HW215903   2.082   3.979   6.166
 5002SOL     OW15904   2.095   1.685   2.685
 5002SOL    HW115905   2.023   1.617   2.678
 5002SOL    HW215906   2.181   1.640   2.711
 5003SOL     OW15907   0.188   6.692   2.793
 5003SOL    HW115908   0.253   6.618   2.774
 5003SOL    HW215909   0.200   6.723   2.887
 5004SOL     OW15910   2.342   5.631   6.155
 5004SOL    HW115911   2.433   5.650   6.191
 5004SOL    HW215912   2.349   5.569   6.077
 5005SOL     OW15913   3.784   2.608   0.458
 5005SOL    HW115914   3.729   2.677   0.411
 5005SOL    HW215915   3.836   2.555   0.391
 5006SOL     OW15916   5.509   6.764   5.239
 5006SOL    HW115917   5.578   6.731   5.174
 5006SOL    HW215918   5.461   6.842   5.199
 5007SOL     OW15919   4.092   0.895   6.163
 5007SOL    HW115920   4.075   0.945   6.247
 5007SOL    HW215921   4.031   0.816   6.158
 5008SOL     OW15922   6.271   1.325   3.274
 5008SOL    HW115923   6.273   1.287   3.181
 5008SOL    HW215924   6.363   1.354   3.300
 5009SOL     OW15925   0.892   5.819   1.570
 5009SOL    HW115926   0.914   5.911   1.538
 5009SOL    HW215927   0.967   5.757   1.550
 5010SOL     OW15928   3.875   4.026   4.143
 5010SOL    HW115929   3.948   3.988   4.200
 5010SOL    HW215930   3.881   3.988   4.051
 5011SOL     OW15931   1.603   3.390   1.987
 5011SOL    HW115932   1.611   3.292   1.967
 5011SOL    HW215933   1.693   3.427   2.009
 5012SOL     OW15934   6.591   2.954   5.852
 5012SOL    HW115935   6.575   3.050   5.875
 5012SOL    HW215936   6.689   2.937   5.844
 5013SOL     OW15937   4.301   0.811   6.533
 5013SOL    HW115938   4.388   0.850   6.503
 5013SOL    HW215939   4.319   0.726   6.584
 5014SOL     OW15940   6.040   5.769   0.619
 5014SOL    HW115941   5.942   5.778   0.600
 5014SOL    HW215942   6.066   5.835   0.689
 5015SOL     OW15943   4.373   2.025   3.495
 5015SOL    HW115944   4.320   2.101   3.534
 5015SOL    HW215945   4.330   1.995   3.410
 5016SOL     OW15946   1.769   0.475   2.811
 5016SOL    HW115947   1.819   0.389   2.801
 5016SOL    HW215948   1.683   0.459   2.859
 5017SOL     OW15949   2.597   1.867   0.440
 5017SOL    HW115950   2.580   1.846   0.537
 5017SOL    HW215951   2.510   1.865   0.391
 5018SOL     OW15952   0.090   4.359   2.489
 5018SOL    HW115953   0.099   4.302   2.571
 5018SOL    HW215954   0.029   4.436   2.508
 5019SOL     OW15955   2.761   3.891   0.449
 5019SOL    HW115956   2.755   3.856   0.543
 5019SOL    HW215957   2.670   3.895   0.409
 5020SOL     OW15958   5.354   5.520   6.173
 5020SOL    HW115959   5.340   5.594   6.108
 5020SOL    HW215960   5.429   5.543   6.235
 5021SOL     OW15961   1.737   4.875   5.801
 5021SOL    HW115962   1.727   4.775   5.806
 5021SOL    HW215963   1.814   4.898   5.742
 5022SOL     OW15964   1.898   6.299   0.603
 5022SOL    HW115965   1.977   6.239   0.604
 5022SOL    HW215966   1.905   6.363   0.526
 5023SOL     OW15967   6.389   3.148   0.773
 5023SOL    HW115968   6.344   3.195   0.697
 5023SOL    HW215969   6.325   3.082   0.814
 5024SOL     OW15970   6.857   3.938   3.688
 5024SOL    HW115971   6.891   3.971   3.600
 5024SOL    HW215972   6.860   3.838   3.688
 5025SOL     OW15973   4.919   1.428   2.862
 5025SOL    HW115974   4.867   1.441   2.946
 5025SOL    HW215975   4.943   1.331   2.851
 5026SOL     OW15976   5.904   5.520   5.041
 5026SOL    HW115977   5.933   5.552   5.131
 5026SOL    HW215978   5.958   5.440   5.016
 5027SOL     OW15979   0.520   6.473   3.117
 5027SOL    HW115980   0.491   6.418   3.195
 5027SOL    HW215981   0.490   6.431   3.032
 5028SOL     OW15982   0.436   6.419   1.868
 5028SOL    HW115983   0.464   6.324   1.860
 5028SOL    HW215984   0.500   6.468   1.928
 5029SOL     OW15985   6.756   2.523   1.829
 5029SOL    HW115986   6.754   2.610   1.878
 5029SOL    HW215987   6.836   2.521   1.769
 5030SOL     OW15988   6.541   0.236   6.829
 5030SOL    HW115989   6.616   0.213   6.768
 5030SOL    HW215990   6.495   0.152   6.858
 5031SOL     OW15991   5.907   1.361   3.908
 5031SOL    HW115992   5.833   1.393   3.967
 5031SOL    HW215993   5.876   1.358   3.813
 5032SOL     OW15994   1.747   5.358   0.825
 5032SOL    HW115995   1.842   5.344   0.796
 5032SOL    HW215996   1.726   5.297   0.901
 5033SOL     OW15997   2.818   4.411   5.549
 5033SOL    HW115998   2.893   4.345   5.556
 5033SOL    HW215999   2.768   4.395   5.464
 5034SOL     OW16000   6.361   2.309   2.598
 5034SOL    HW116001   6.376   2.279   2.692
 5034SOL    HW216002   6.302   2.390   2.599
 5035SOL     OW16003   4.423   5.136   0.689
 5035SOL    HW116004   4.397   5.102   0.780
 5035SOL    HW216005   4.374   5.221   0.671
 5036SOL     OW16006   1.174   6.262   0.143
 5036SOL    HW116007   1.183   6.358   0.170
 5036SOL    HW216008   1.160   6.205   0.223
 5037SOL     OW16009   4.117   1.619   3.454
 5037SOL    HW116010   4.057   1.685   3.409
 5037SOL    HW216011   4.207   1.621   3.411
 5038SOL     OW16012   1.316   6.001   5.705
 5038SOL    HW116013   1.327   5.934   5.778
 5038SOL    HW216014   1.399   6.057   5.698
 5039SOL     OW16015   2.448   2.859   5.369
 5039SOL    HW116016   2.399   2.903   5.444
 5039SOL    HW216017   2.485   2.929   5.307
 5040SOL     OW16018   2.830   3.391   6.764
 5040SOL    HW116019   2.764   3.418   6.694
 5040SOL    HW216020   2.786   3.334   6.832
 5041SOL     OW16021   0.900   3.673   1.349
 5041SOL    HW116022   0.820   3.701   1.402
 5041SOL    HW216023   0.974   3.738   1.364
 5042SOL     OW16024   6.078   3.942   6.743
 5042SOL    HW116025   5.980   3.957   6.737
 5042SOL    HW216026   6.100   3.849   6.713
 5043SOL     OW16027   3.427   1.180   4.094
 5043SOL    HW116028   3.389   1.236   4.021
 5043SOL    HW216029   3.509   1.224   4.131
 5044SOL     OW16030   6.249   6.040   3.617
 5044SOL    HW116031   6.162   6.034   3.667
 5044SOL    HW216032   6.230   6.050   3.520
 5045SOL     OW16033   6.227   3.715   0.241
 5045SOL    HW116034   6.164   3.743   0.169
 5045SOL    HW216035   6.175   3.699   0.326
 5046SOL     OW16036   3.660   2.986   4.973
 5046SOL    HW116037   3.747   3.008   5.019
 5046SOL    HW216038   3.590   2.968   5.042
 5047SOL     OW16039   5.902   0.773   2.674
 5047SOL    HW116040   5.877   0.728   2.760
 5047SOL    HW216041   5.999   0.758   2.656
 5048SOL     OW16042   6.887   2.280   1.956
 5048SOL    HW116043   6.855   2.325   2.040
 5048SOL    HW216044   6.811   2.228   1.916
 5049SOL     OW16045   0.859   1.617   1.974
 5049SOL    HW116046   0.778   1.578   1.931
 5049SOL    HW216047   0.879   1.706   1.933
 5050SOL     OW16048   0.478   2.344   1.722
 5050SOL    HW116049   0.528   2.277   1.666
 5050SOL    HW216050   0.380   2.326   1.716
 5051SOL     OW16051   2.485   3.924   0.992
 5051SOL    HW116052   2.552   3.851   1.008
 5051SOL    HW216053   2.502   3.964   0.902
 5052SOL     OW16054   4.205   4.880   1.167
 5052SOL    HW116055   4.168   4.788   1.151
 5052SOL    HW216056   4.283   4.874   1.229
 5053SOL     OW16057   2.324   4.098   1.578
 5053SOL    HW116058   2.288   4.191   1.583
 5053SOL    HW216059   2.285   4.043   1.652
 5054SOL     OW16060   3.520   6.203   5.092
 5054SOL    HW116061   3.507   6.279   5.029
 5054SOL    HW216062   3.463   6.126   5.063
 5055SOL     OW16063   0.913   2.081   4.761
 5055SOL    HW116064   0.928   2.033   4.675
 5055SOL    HW216065   0.978   2.157   4.770
 5056SOL     OW16066   0.000   3.767   6.067
 5056SOL    HW116067   0.050   3.699   6.122
 5056SOL    HW216068   6.965   3.720   6.009
 5057SOL     OW16069   1.014   5.783   3.712
 5057SOL    HW116070   0.931   5.767   3.659
 5057SOL    HW216071   1.001   5.751   3.805
 5058SOL     OW16072   4.140   4.154   6.922
 5058SOL    HW116073   4.197   4.196   6.992
 5058SOL    HW216074   4.056   4.119   6.964
 5059SOL     OW16075   3.627   2.121   4.863
 5059SOL    HW116076   3.589   2.076   4.943
 5059SOL    HW216077   3.588   2.212   4.853
 5060SOL     OW16078   0.319   3.631   4.936
 5060SOL    HW116079   0.309   3.725   4.905
 5060SOL    HW216080   0.319   3.629   5.036
 5061SOL     OW16081   3.365   3.667   4.447
 5061SOL    HW116082   3.460   3.682   4.420
 5061SOL    HW216083   3.349   3.569   4.463
 5062SOL     OW16084   4.587   1.212   2.742
 5062SOL    HW116085   4.614   1.115   2.743
 5062SOL    HW216086   4.580   1.244   2.647
 5063SOL     OW16087   1.540   6.359   2.342
 5063SOL    HW116088   1.570   6.264   2.346
 5063SOL    HW216089   1.594   6.409   2.274
 5064SOL     OW16090   4.506   5.434   0.789
 5064SOL    HW116091   4.510   5.374   0.869
 5064SOL    HW216092   4.582   5.413   0.727
 5065SOL     OW16093   2.106   0.089   3.235
 5065SOL    HW116094   2.054   0.070   3.152
 5065SOL    HW216095   2.193   0.040   3.233
 5066SOL     OW16096   1.903   4.863   1.847
 5066SOL    HW116097   1.873   4.791   1.784
 5066SOL    HW216098   1.898   4.830   1.941
 5067SOL     OW16099   3.953   2.133   1.544
 5067SOL    HW116100   3.986   2.171   1.458
 5067SOL    HW216101   3.859   2.164   1.561
 5068SOL     OW16102   4.112   5.748   0.782
 5068SOL    HW116103   4.211   5.733   0.772
 5068SOL    HW216104   4.064   5.663   0.762
 5069SOL     OW16105   2.893   4.137   6.352
 5069SOL    HW116106   2.944   4.073   6.295
 5069SOL    HW216107   2.954   4.179   6.419
 5070SOL     OW16108   5.732   3.457   4.335
 5070SOL    HW116109   5.789   3.471   4.416
 5070SOL    HW216110   5.662   3.528   4.331
 5071SOL     OW16111   4.083   1.109   3.710
 5071SOL    HW116112   4.075   1.096   3.612
 5071SOL    HW216113   4.153   1.178   3.729
 5072SOL     OW16114   1.119   0.804   0.842
 5072SOL    HW116115   1.135   0.865   0.765
 5072SOL    HW216116   1.199   0.804   0.902
 5073SOL     OW16117   2.620   6.553   2.521
 5073SOL    HW116118   2.560   6.476   2.540
 5073SOL    HW216119   2.690   6.526   2.455
 5074SOL     OW16120   3.641   1.875   1.524
 5074SOL    HW116121   3.717   1.813   1.507
 5074SOL    HW216122   3.597   1.851   1.611
 5075SOL     OW16123   1.587   2.852   6.971
 5075SOL    HW116124   1.650   2.868   0.016
 5075SOL    HW216125   1.577   2.754   6.955
 5076SOL     OW16126   5.241   1.233   0.181
 5076SOL    HW116127   5.292   1.302   0.233
 5076SOL    HW216128   5.300   1.155   0.162
 5077SOL     OW16129   1.578   4.115   4.634
 5077SOL    HW116130   1.517   4.036   4.627
 5077SOL    HW216131   1.599   4.148   4.542
 5078SOL     OW16132   0.519   1.231   3.682
 5078SOL    HW116133   0.585   1.156   3.685
 5078SOL    HW216134   0.565   1.316   3.708
 5079SOL     OW16135   1.771   2.055   5.904
 5079SOL    HW116136   1.753   2.071   6.001
 5079SOL    HW216137   1.685   2.051   5.854
 5080SOL     OW16138   6.011   5.456   5.975
 5080SOL    HW116139   6.087   5.410   5.929
 5080SOL    HW216140   6.046   5.535   6.026
 5081SOL     OW16141   3.758   6.078   5.201
 5081SOL    HW116142   3.702   5.996   5.212
 5081SOL    HW216143   3.708   6.144   5.145
 5082SOL     OW16144   4.846   6.474   0.576
 5082SOL    HW116145   4.764   6.508   0.531
 5082SOL    HW216146   4.841   6.374   0.583
 5083SOL     OW16147   2.765   0.948   2.515
 5083SOL    HW116148   2.772   0.850   2.533
 5083SOL    HW216149   2.850   0.993   2.546
 5084SOL     OW16150   0.801   5.277   5.234
 5084SOL    HW116151   0.900   5.262   5.237
 5084SOL    HW216152   0.779   5.367   5.271
 5085SOL     OW16153   1.317   3.807   5.774
 5085SOL    HW116154   1.238   3.852   5.814
 5085SOL    HW216155   1.396   3.868   5.778
 5086SOL     OW16156   1.190   4.738   2.794
 5086SOL    HW116157   1.218   4.734   2.698
 5086SOL    HW216158   1.090   4.749   2.798
 5087SOL     OW16159   6.685   5.366   2.371
 5087SOL    HW116160   6.657   5.371   2.467
 5087SOL    HW216161   6.610   5.398   2.313
 5088SOL     OW16162   4.428   6.160   2.248
 5088SOL    HW116163   4.509   6.134   2.197
 5088SOL    HW216164   4.453   6.224   2.321
 5089SOL     OW16165   5.317   3.794   4.774
 5089SOL    HW116166   5.331   3.863   4.703
 5089SOL    HW216167   5.243   3.733   4.746
 5090SOL     OW16168   1.631   6.780   3.725
 5090SOL    HW116169   1.533   6.778   3.745
 5090SOL    HW216170   1.682   6.753   3.808
 5091SOL     OW16171   6.714   0.280   0.563
 5091SOL    HW116172   6.634   0.338   0.579
 5091SOL    HW216173   6.783   0.331   0.511
 5092SOL     OW16174   3.625   3.698   4.284
 5092SOL    HW116175   3.674   3.631   4.227
 5092SOL    HW216176   3.683   3.725   4.361
 5093SOL     OW16177   2.259   1.433   2.384
 5093SOL    HW116178   2.250   1.372   2.305
 5093SOL    HW216179   2.288   1.380   2.463
 5094SOL     OW16180   2.415   5.374   6.912
 5094SOL    HW116181   2.446   5.279   6.904
 5094SOL    HW216182   2.319   5.380   6.886
 5095SOL     OW16183   0.475   1.177   3.376
 5095SOL    HW116184   0.420   1.131   3.446
 5095SOL    HW216185   0.554   1.220   3.418
 5096SOL     OW16186   5.041   3.788   6.170
 5096SOL    HW116187   5.004   3.725   6.102
 5096SOL    HW216188   4.968   3.818   6.231
 5097SOL     OW16189   6.236   6.546   6.572
 5097SOL    HW116190   6.324   6.566   6.530
 5097SOL    HW216191   6.183   6.631   6.581
 5098SOL     OW16192   3.950   2.148   1.885
 5098SOL    HW116193   3.884   2.180   1.952
 5098SOL    HW216194   3.936   2.196   1.798
 5099SOL     OW16195   0.520   6.010   1.945
 5099SOL    HW116196   0.469   5.949   1.884
 5099SOL    HW216197   0.590   6.058   1.892
 5100SOL     OW16198   4.680   4.710   2.631
 5100SOL    HW116199   4.603   4.650   2.608
 5100SOL    HW216200   4.648   4.804   2.639
 5101SOL     OW16201   4.022   0.236   5.785
 5101SOL    HW116202   3.937   0.288   5.773
 5101SOL    HW216203   4.006   0.140   5.763
 5102SOL     OW16204   4.529   5.677   3.883
 5102SOL    HW116205   4.485   5.738   3.817
 5102SOL    HW216206   4.472   5.596   3.896
 5103SOL     OW16207   0.392   0.714   5.017
 5103SOL    HW116208   0.455   0.764   4.958
 5103SOL    HW216209   0.307   0.766   5.026
 5104SOL     OW16210   3.384   6.268   1.982
 5104SOL    HW116211   3.482   6.263   2.004
 5104SOL    HW216212   3.333   6.294   2.064
 5105SOL     OW16213   3.108   3.343   0.041
 5105SOL    HW116214   3.077   3.267   0.098
 5105SOL    HW216215   3.118   3.313   6.978
 5106SOL     OW16216   4.038   2.366   0.934
 5106SOL    HW116217   3.981   2.308   0.993
 5106SOL    HW216218   4.042   2.326   0.842
 5107SOL     OW16219   5.725   2.844   1.241
 5107SOL    HW116220   5.697   2.932   1.202
 5107SOL    HW216221   5.763   2.860   1.333
 5108SOL     OW16222   4.756   4.260   5.911
 5108SOL    HW116223   4.760   4.307   5.823
 5108SOL    HW216224   4.683   4.300   5.966
 5109SOL     OW16225   1.813   3.231   1.381
 5109SOL    HW116226   1.898   3.262   1.425
 5109SOL    HW216227   1.833   3.153   1.323
 5110SOL     OW16228   6.518   6.525   6.375
 5110SOL    HW116229   6.575   6.590   6.325
 5110SOL    HW216230   6.508   6.441   6.321
 5111SOL     OW16231   1.168   6.371   4.675
 5111SOL    HW116232   1.134   6.305   4.742
 5111SOL    HW216233   1.150   6.464   4.708
 5112SOL     OW16234   0.592   6.982   2.658
 5112SOL    HW116235   0.675   7.025   2.694
 5112SOL    HW216236   0.514   0.012   2.671
 5113SOL     OW16237   2.044   5.530   0.443
 5113SOL    HW116238   1.974   5.553   0.375
 5113SOL    HW216239   2.068   5.433   0.435
 5114SOL     OW16240   3.551   0.208   0.765
 5114SOL    HW116241   3.632   0.203   0.825
 5114SOL    HW216242   3.548   0.299   0.723
 5115SOL     OW16243   2.087   3.915   1.448
 5115SOL    HW116244   2.050   3.828   1.415
 5115SOL    HW216245   2.114   3.905   1.544
 5116SOL     OW16246   2.687   6.347   6.909
 5116SOL    HW116247   2.763   6.400   6.869
 5116SOL    HW216248   2.625   6.409   6.957
 5117SOL     OW16249   0.645   3.386   4.260
 5117SOL    HW116250   0.630   3.356   4.166
 5117SOL    HW216251   0.575   3.347   4.319
 5118SOL     OW16252   5.885   0.149   0.687
 5118SOL    HW116253   5.793   0.141   0.648
 5118SOL    HW216254   5.908   0.066   0.738
 5119SOL     OW16255   5.221   1.835   0.487
 5119SOL    HW116256   5.264   1.814   0.575
 5119SOL    HW216257   5.127   1.864   0.502
 5120SOL     OW16258   5.130   0.657   5.161
 5120SOL    HW116259   5.146   0.732   5.097
 5120SOL    HW216260   5.061   0.685   5.228
 5121SOL     OW16261   3.125   3.940   6.740
 5121SOL    HW116262   3.156   3.928   6.646
 5121SOL    HW216263   3.138   3.855   6.790
 5122SOL     OW16264   3.990   5.493   3.174
 5122SOL    HW116265   3.915   5.508   3.239
 5122SOL    HW216266   4.046   5.575   3.167
 5123SOL     OW16267   5.011   2.162   2.246
 5123SOL    HW116268   5.060   2.153   2.159
 5123SOL    HW216269   5.007   2.259   2.271
 5124SOL     OW16270   1.813   6.352   3.528
 5124SOL    HW116271   1.779   6.445   3.511
 5124SOL    HW216272   1.789   6.324   3.621
 5125SOL     OW16273   0.363   1.573   4.064
 5125SOL    HW116274   0.457   1.541   4.050
 5125SOL    HW216275   0.324   1.602   3.977
 5126SOL     OW16276   1.088   6.587   0.541
 5126SOL    HW116277   1.180   6.570   0.576
 5126SOL    HW216278   1.033   6.504   0.552
 5127SOL     OW16279   1.931   6.088   0.152
 5127SOL    HW116280   1.945   6.001   0.104
 5127SOL    HW216281   1.997   6.095   0.227
 5128SOL     OW16282   0.254   5.871   1.496
 5128SOL    HW116283   0.325   5.803   1.515
 5128SOL    HW216284   0.292   5.963   1.509
 5129SOL     OW16285   4.566   6.226   1.510
 5129SOL    HW116286   4.623   6.167   1.567
 5129SOL    HW216287   4.480   6.246   1.557
 5130SOL     OW16288   6.638   4.857   2.691
 5130SOL    HW116289   6.647   4.886   2.596
 5130SOL    HW216290   6.596   4.766   2.694
 5131SOL     OW16291   1.129   3.005   3.299
 5131SOL    HW116292   1.220   2.995   3.339
 5131SOL    HW216293   1.118   3.099   3.265
 5132SOL     OW16294   3.233   3.856   6.118
 5132SOL    HW116295   3.211   3.895   6.029
 5132SOL    HW216296   3.265   3.762   6.106
 5133SOL     OW16297   3.363   5.665   0.079
 5133SOL    HW116298   3.297   5.590   0.080
 5133SOL    HW216299   3.402   5.675   7.020
 5134SOL     OW16300   0.892   3.077   2.015
 5134SOL    HW116301   0.924   3.172   2.006
 5134SOL    HW216302   0.809   3.064   1.959
 5135SOL     OW16303   6.988   2.254   5.557
 5135SOL    HW116304   6.907   2.238   5.501
 5135SOL    HW216305   6.974   2.215   5.648
 5136SOL     OW16306   5.128   0.689   4.635
 5136SOL    HW116307   5.204   0.680   4.571
 5136SOL    HW216308   5.119   0.786   4.661
 5137SOL     OW16309   5.834   3.350   6.450
 5137SOL    HW116310   5.857   3.339   6.354
 5137SOL    HW216311   5.833   3.260   6.494
 5138SOL     OW16312   4.002   2.964   6.625
 5138SOL    HW116313   3.974   3.057   6.601
 5138SOL    HW216314   3.921   2.905   6.624
 5139SOL     OW16315   1.721   6.527   4.203
 5139SOL    HW116316   1.632   6.517   4.247
 5139SOL    HW216317   1.771   6.441   4.208
 5140SOL     OW16318   2.669   1.553   0.696
 5140SOL    HW116319   2.593   1.489   0.703
 5140SOL    HW216320   2.667   1.616   0.774
 5141SOL     OW16321   5.721   3.722   1.175
 5141SOL    HW116322   5.815   3.746   1.152
 5141SOL    HW216323   5.659   3.793   1.140
 5142SOL     OW16324   6.213   2.582   4.428
 5142SOL    HW116325   6.180   2.652   4.492
 5142SOL    HW216326   6.210   2.618   4.335
 5143SOL     OW16327   1.275   4.742   4.376
 5143SOL    HW116328   1.258   4.647   4.401
 5143SOL    HW216329   1.325   4.788   4.449
 5144SOL     OW16330   1.701   6.587   6.073
 5144SOL    HW116331   1.642   6.593   6.153
 5144SOL    HW216332   1.681   6.662   6.011
 5145SOL     OW16333   2.399   5.229   6.311
 5145SOL    HW116334   2.400   5.219   6.212
 5145SOL    HW216335   2.465   5.298   6.339
 5146SOL     OW16336   4.334   3.927   6.884
 5146SOL    HW116337   4.272   3.849   6.876
 5146SOL    HW216338   4.281   4.012   6.887
 5147SOL     OW16339   0.251   4.289   1.368
 5147SOL    HW116340   0.177   4.336   1.417
 5147SOL    HW216341   0.335   4.294   1.423
 5148SOL     OW16342   0.691   6.254   0.921
 5148SOL    HW116343   0.676   6.353   0.930
 5148SOL    HW216344   0.604   6.207   0.910
 5149SOL     OW16345   6.207   0.382   3.523
 5149SOL    HW116346   6.236   0.475   3.545
 5149SOL    HW216347   6.107   0.376   3.525
 5150SOL     OW16348   2.158   6.073   4.462
 5150SOL    HW116349   2.090   6.075   4.388
 5150SOL    HW216350   2.186   5.979   4.479
 5151SOL     OW16351   5.322   1.205   6.736
 5151SOL    HW116352   5.344   1.271   6.664
 5151SOL    HW216353   5.275   1.251   6.811
 5152SOL     OW16354   2.299   4.853   0.339
 5152SOL    HW116355   2.392   4.880   0.364
 5152SOL    HW216356   2.277   4.765   0.382
 5153SOL     OW16357   2.044   1.960   0.511
 5153SOL    HW116358   2.143   1.950   0.515
 5153SOL    HW216359   2.013   1.951   0.416
 5154SOL     OW16360   1.994   3.486   6.028
 5154SOL    HW116361   2.027   3.502   6.121
 5154SOL    HW216362   1.910   3.432   6.032
 5155SOL     OW16363   4.049   6.043   2.060
 5155SOL    HW116364   4.135   6.047   2.008
 5155SOL    HW216365   4.026   5.947   2.079
 5156SOL     OW16366   6.455   2.521   6.619
 5156SOL    HW116367   6.386   2.544   6.551
 5156SOL    HW216368   6.541   2.567   6.597
 5157SOL     OW16369   4.827   2.936   3.899
 5157SOL    HW116370   4.813   3.004   3.827
 5157SOL    HW216371   4.771   2.855   3.880
 5158SOL     OW16372   3.014   2.113   1.306
 5158SOL    HW116373   3.024   2.086   1.402
 5158SOL    HW216374   2.957   2.194   1.300
 5159SOL     OW16375   1.117   3.884   4.771
 5159SOL    HW116376   1.162   3.798   4.796
 5159SOL    HW216377   1.169   3.961   4.808
 5160SOL     OW16378   1.587   3.758   4.458
 5160SOL    HW116379   1.595   3.672   4.408
 5160SOL    HW216380   1.499   3.761   4.506
 5161SOL     OW16381   1.304   4.567   5.480
 5161SOL    HW116382   1.221   4.543   5.530
 5161SOL    HW216383   1.280   4.613   5.394
 5162SOL     OW16384   7.028   4.958   4.298
 5162SOL    HW116385   0.036   4.892   4.362
 5162SOL    HW216386   0.065   5.028   4.277
 5163SOL     OW16387   4.635   5.002   1.284
 5163SOL    HW116388   4.686   5.053   1.215
 5163SOL    HW216389   4.615   5.062   1.362
 5164SOL     OW16390   5.738   2.287   5.408
 5164SOL    HW116391   5.736   2.188   5.390
 5164SOL    HW216392   5.661   2.331   5.363
 5165SOL     OW16393   5.945   4.757   5.100
 5165SOL    HW116394   5.957   4.663   5.067
 5165SOL    HW216395   6.011   4.775   5.173
 5166SOL     OW16396   1.643   5.273   1.882
 5166SOL    HW116397   1.723   5.275   1.941
 5166SOL    HW216398   1.611   5.178   1.873
 5167SOL     OW16399   6.442   6.942   5.311
 5167SOL    HW116400   6.494   6.857   5.298
 5167SOL    HW216401   6.371   6.948   5.241
 5168SOL     OW16402   4.474   2.536   3.250
 5168SOL    HW116403   4.552   2.588   3.285
 5168SOL    HW216404   4.494   2.504   3.157
 5169SOL     OW16405   3.252   3.680   6.438
 5169SOL    HW116406   3.273   3.778   6.434
 5169SOL    HW216407   3.325   3.633   6.486
 5170SOL     OW16408   6.960   4.717   5.593
 5170SOL    HW116409   0.001   4.669   5.543
 5170SOL    HW216410   6.877   4.661   5.594
 5171SOL     OW16411   2.615   4.844   4.474
 5171SOL    HW116412   2.577   4.755   4.500
 5171SOL    HW216413   2.599   4.910   4.548
 5172SOL     OW16414   0.406   3.438   1.896
 5172SOL    HW116415   0.329   3.429   1.959
 5172SOL    HW216416   0.391   3.519   1.838
 5173SOL     OW16417   5.757   3.887   6.719
 5173SOL    HW116418   5.792   3.943   6.643
 5173SOL    HW216419   5.756   3.942   6.803
 5174SOL     OW16420   1.954   4.803   4.999
 5174SOL    HW116421   2.027   4.860   4.960
 5174SOL    HW216422   1.989   4.757   5.080
 5175SOL     OW16423   1.812   3.922   0.042
 5175SOL    HW116424   1.720   3.955   0.062
 5175SOL    HW216425   1.812   3.875   6.985
 5176SOL     OW16426   3.935   3.265   0.292
 5176SOL    HW116427   3.981   3.214   0.218
 5176SOL    HW216428   3.837   3.270   0.272
 5177SOL     OW16429   4.672   0.311   5.530
 5177SOL    HW116430   4.631   0.239   5.473
 5177SOL    HW216431   4.697   0.388   5.472
 5178SOL     OW16432   2.312   2.459   1.558
 5178SOL    HW116433   2.338   2.545   1.603
 5178SOL    HW216434   2.217   2.437   1.582
 5179SOL     OW16435   4.767   6.496   5.249
 5179SOL    HW116436   4.783   6.560   5.325
 5179SOL    HW216437   4.816   6.411   5.267
 5180SOL     OW16438   3.411   2.397   6.703
 5180SOL    HW116439   3.346   2.435   6.769
 5180SOL    HW216440   3.361   2.340   6.636
 5181SOL     OW16441   3.568   0.754   2.736
 5181SOL    HW116442   3.532   0.839   2.699
 5181SOL    HW216443   3.513   0.725   2.814
 5182SOL     OW16444   5.995   5.068   1.420
 5182SOL    HW116445   6.080   5.049   1.470
 5182SOL    HW216446   5.984   5.002   1.346
 5183SOL     OW16447   4.452   6.935   1.860
 5183SOL    HW116448   4.534   6.990   1.844
 5183SOL    HW216449   4.454   6.854   1.802
 5184SOL     OW16450   1.069   1.060   3.729
 5184SOL    HW116451   1.147   1.116   3.701
 5184SOL    HW216452   1.001   1.058   3.655
 5185SOL     OW16453   4.161   6.760   2.652
 5185SOL    HW116454   4.190   6.685   2.592
 5185SOL    HW216455   4.180   6.847   2.607
 5186SOL     OW16456   6.312   3.709   0.809
 5186SOL    HW116457   6.376   3.671   0.876
 5186SOL    HW216458   6.309   3.808   0.819
 5187SOL     OW16459   7.003   1.560   3.337
 5187SOL    HW116460   6.941   1.482   3.336
 5187SOL    HW216461   6.956   1.641   3.303
 5188SOL     OW16462   0.337   5.050   7.019
 5188SOL    HW116463   0.292   4.996   6.947
 5188SOL    HW216464   0.402   4.992   0.036
 5189SOL     OW16465   4.638   4.932   0.156
 5189SOL    HW116466   4.571   5.001   0.183
 5189SOL    HW216467   4.683   4.962   0.071
 5190SOL     OW16468   0.826   1.778   3.811
 5190SOL    HW116469   0.732   1.806   3.795
 5190SOL    HW216470   0.852   1.707   3.745
 5191SOL     OW16471   3.035   1.293   1.836
 5191SOL    HW116472   3.035   1.227   1.911
 5191SOL    HW216473   3.090   1.257   1.760
 5192SOL     OW16474   4.973   5.577   2.662
 5192SOL    HW116475   5.072   5.584   2.645
 5192SOL    HW216476   4.951   5.483   2.687
 5193SOL     OW16477   4.594   4.365   3.881
 5193SOL    HW116478   4.502   4.371   3.841
 5193SOL    HW216479   4.656   4.322   3.815
 5194SOL     OW16480   4.981   0.741   5.884
 5194SOL    HW116481   5.027   0.826   5.909
 5194SOL    HW216482   4.899   0.761   5.830
 5195SOL     OW16483   6.609   6.905   4.456
 5195SOL    HW116484   6.606   6.980   4.522
 5195SOL    HW216485   6.521   6.900   4.408
 5196SOL     OW16486   0.760   4.363   1.918
 5196SOL    HW116487   0.852   4.335   1.945
 5196SOL    HW216488   0.721   4.294   1.856
 5197SOL     OW16489   1.727   6.162   4.547
 5197SOL    HW116490   1.645   6.120   4.587
 5197SOL    HW216491   1.725   6.150   4.447
 5198SOL     OW16492   2.712   6.565   4.999
 5198SOL    HW116493   2.662   6.622   4.933
 5198SOL    HW216494   2.739   6.479   4.954
 5199SOL     OW16495   2.009   5.450   1.522
 5199SOL    HW116496   1.941   5.413   1.459
 5199SOL    HW216497   2.095   5.466   1.473
 5200SOL     OW16498   1.238   1.897   4.817
 5200SOL    HW116499   1.310   1.859   4.874
 5200SOL    HW216500   1.149   1.867   4.852
 5201SOL     OW16501   5.301   4.765   4.398
 5201SOL    HW116502   5.291   4.694   4.467
 5201SOL    HW216503   5.385   4.750   4.346
 5202SOL     OW16504   5.002   3.034   6.965
 5202SOL    HW116505   5.090   3.073   6.993
 5202SOL    HW216506   4.927   3.085   7.008
 5203SOL     OW16507   1.378   0.211   6.801
 5203SOL    HW116508   1.342   0.131   6.849
 5203SOL    HW216509   1.390   0.286   6.865
 5204SOL     OW16510   3.522   6.955   6.665
 5204SOL    HW116511   3.494   6.889   6.735
 5204SOL    HW216512   3.440   6.995   6.623
 5205SOL     OW16513   6.788   5.989   1.049
 5205SOL    HW116514   6.829   5.977   0.958
 5205SOL    HW216515   6.861   5.995   1.117
 5206SOL     OW16516   0.710   4.299   4.737
 5206SOL    HW116517   0.628   4.263   4.692
 5206SOL    HW216518   0.683   4.373   4.799
 5207SOL     OW16519   0.410   6.733   4.352
 5207SOL    HW116520   0.400   6.813   4.411
 5207SOL    HW216521   0.411   6.650   4.407
 5208SOL     OW16522   5.074   2.269   0.298
 5208SOL    HW116523   4.992   2.224   0.263
 5208SOL    HW216524   5.086   2.357   0.252
 5209SOL     OW16525   4.618   0.382   3.208
 5209SOL    HW116526   4.604   0.460   3.269
 5209SOL    HW216527   4.626   0.298   3.262
 5210SOL     OW16528   5.278   4.545   1.334
 5210SOL    HW116529   5.214   4.518   1.262
 5210SOL    HW216530   5.343   4.470   1.350
 5211SOL     OW16531   5.046   1.934   3.897
 5211SOL    HW116532   5.135   1.887   3.901
 5211SOL    HW216533   5.038   1.997   3.975
 5212SOL     OW16534   1.344   2.249   0.741
 5212SOL    HW116535   1.284   2.309   0.795
 5212SOL    HW216536   1.297   2.163   0.723
 5213SOL     OW16537   4.084   3.364   2.374
 5213SOL    HW116538   4.166   3.331   2.421
 5213SOL    HW216539   4.014   3.292   2.376
 5214SOL     OW16540   5.638   4.480   6.399
 5214SOL    HW116541   5.593   4.395   6.425
 5214SOL    HW216542   5.629   4.547   6.472
 5215SOL     OW16543   6.987   2.968   4.758
 5215SOL    HW116544   6.927   2.888   4.752
 5215SOL    HW216545   0.029   2.958   4.691
 5216SOL     OW16546   5.700   4.732   1.257
 5216SOL    HW116547   5.649   4.774   1.182
 5216SOL    HW216548   5.651   4.749   1.343
 5217SOL     OW16549   3.752   5.544   4.120
 5217SOL    HW116550   3.671   5.587   4.160
 5217SOL    HW216551   3.820   5.614   4.100
 5218SOL     OW16552   0.451   0.625   0.657
 5218SOL    HW116553   0.514   0.607   0.733
 5218SOL    HW216554   0.503   0.635   0.573
 5219SOL     OW16555   2.392   2.118   5.307
 5219SOL    HW116556   2.476   2.171   5.319
 5219SOL    HW216557   2.318   2.160   5.358
 5220SOL     OW16558   2.364   5.471   3.154
 5220SOL    HW116559   2.444   5.530   3.137
 5220SOL    HW216560   2.368   5.436   3.248
 5221SOL     OW16561   6.699   0.450   1.318
 5221SOL    HW116562   6.741   0.392   1.249
 5221SOL    HW216563   6.767   0.512   1.357
 5222SOL     OW16564   4.431   4.892   1.563
 5222SOL    HW116565   4.333   4.874   1.552
 5222SOL    HW216566   4.483   4.809   1.539
 5223SOL     OW16567   0.255   3.184   0.429
 5223SOL    HW116568   0.245   3.155   0.524
 5223SOL    HW216569   0.170   3.226   0.398
 5224SOL     OW16570   1.050   1.697   4.219
 5224SOL    HW116571   1.081   1.782   4.261
 5224SOL    HW216572   1.041   1.709   4.120
 5225SOL     OW16573   6.733   1.111   4.690
 5225SOL    HW116574   6.814   1.099   4.747
 5225SOL    HW216575   6.661   1.049   4.721
 5226SOL     OW16576   0.424   5.783   3.577
 5226SOL    HW116577   0.376   5.795   3.490
 5226SOL    HW216578   0.495   5.853   3.587
 5227SOL     OW16579   6.832   3.475   5.862
 5227SOL    HW116580   6.775   3.505   5.938
 5227SOL    HW216581   6.776   3.423   5.797
 5228SOL     OW16582   1.331   3.020   5.916
 5228SOL    HW116583   1.286   3.061   5.838
 5228SOL    HW216584   1.406   3.080   5.946
 5229SOL     OW16585   3.725   0.068   6.832
 5229SOL    HW116586   3.661   0.006   6.788
 5229SOL    HW216587   3.807   0.078   6.776
 5230SOL     OW16588   6.863   0.214   1.921
 5230SOL    HW116589   6.790   0.148   1.905
 5230SOL    HW216590   6.882   0.264   1.837
 5231SOL     OW16591   5.809   1.642   3.202
 5231SOL    HW116592   5.840   1.736   3.218
 5231SOL    HW216593   5.770   1.635   3.111
 5232SOL     OW16594   1.727   3.857   5.913
 5232SOL    HW116595   1.690   3.852   6.006
 5232SOL    HW216596   1.820   3.821   5.913
 5233SOL     OW16597   3.025   0.623   2.679
 5233SOL    HW116598   2.974   0.589   2.600
 5233SOL    HW216599   3.036   0.722   2.673
 5234SOL     OW16600   1.589   2.441   0.840
 5234SOL    HW116601   1.531   2.394   0.774
 5234SOL    HW216602   1.654   2.500   0.792
 5235SOL     OW16603   2.460   1.386   1.112
 5235SOL    HW116604   2.396   1.451   1.152
 5235SOL    HW216605   2.554   1.418   1.128
 5236SOL     OW16606   3.492   5.237   2.529
 5236SOL    HW116607   3.535   5.215   2.441
 5236SOL    HW216608   3.393   5.225   2.521
 5237SOL     OW16609   1.764   2.364   4.348
 5237SOL    HW116610   1.816   2.368   4.262
 5237SOL    HW216611   1.796   2.436   4.409
 5238SOL     OW16612   1.189   4.910   3.028
 5238SOL    HW116613   1.207   4.840   2.958
 5238SOL    HW216614   1.101   4.891   3.072
 5239SOL     OW16615   2.957   3.809   1.484
 5239SOL    HW116616   2.992   3.887   1.432
 5239SOL    HW216617   2.904   3.842   1.562
 5240SOL     OW16618   2.756   2.939   6.089
 5240SOL    HW116619   2.658   2.952   6.100
 5240SOL    HW216620   2.788   2.870   6.153
 5241SOL     OW16621   1.234   5.870   2.058
 5241SOL    HW116622   1.214   5.948   1.999
 5241SOL    HW216623   1.205   5.891   2.151
 5242SOL     OW16624   4.838   0.959   0.881
 5242SOL    HW116625   4.832   0.947   0.980
 5242SOL    HW216626   4.927   0.927   0.849
 5243SOL     OW16627   1.910   6.105   1.777
 5243SOL    HW116628   1.968   6.136   1.852
 5243SOL    HW216629   1.918   6.168   1.700
 5244SOL     OW16630   4.871   3.409   0.777
 5244SOL    HW116631   4.804   3.439   0.710
 5244SOL    HW216632   4.952   3.374   0.731
 5245SOL     OW16633   4.235   4.137   0.321
 5245SOL    HW116634   4.286   4.222   0.306
 5245SOL    HW216635   4.299   4.060   0.316
 5246SOL     OW16636   6.735   2.745   1.980
 5246SOL    HW116637   6.713   2.842   1.979
 5246SOL    HW216638   6.769   2.719   2.070
 5247SOL     OW16639   3.557   1.475   5.557
 5247SOL    HW116640   3.605   1.545   5.504
 5247SOL    HW216641   3.610   1.452   5.638
 5248SOL     OW16642   7.021   1.861   2.597
 5248SOL    HW116643   6.952   1.801   2.559
 5248SOL    HW216644   0.020   1.926   2.527
 5249SOL     OW16645   1.212   4.770   0.290
 5249SOL    HW116646   1.132   4.726   0.249
 5249SOL    HW216647   1.212   4.867   0.266
 5250SOL     OW16648   2.032   5.804   0.046
 5250SOL    HW116649   2.125   5.804   0.084
 5250SOL    HW216650   1.980   5.729   0.086
 5251SOL     OW16651   1.288   4.106   1.538
 5251SOL    HW116652   1.227   4.091   1.616
 5251SOL    HW216653   1.242   4.161   1.469
 5252SOL     OW16654   3.284   6.569   2.167
 5252SOL    HW116655   3.286   6.632   2.089
 5252SOL    HW216656   3.221   6.494   2.149
 5253SOL     OW16657   5.583   4.758   4.945
 5253SOL    HW116658   5.593   4.663   4.974
 5253SOL    HW216659   5.633   4.817   5.008
 5254SOL     OW16660   5.732   0.185   2.840
 5254SOL    HW116661   5.726   0.188   2.939
 5254SOL    HW216662   5.729   0.278   2.803
 5255SOL     OW16663   5.608   1.852   4.728
 5255SOL    HW116664   5.627   1.914   4.651
 5255SOL    HW216665   5.668   1.772   4.721
 5256SOL     OW16666   4.663   0.805   3.195
 5256SOL    HW116667   4.573   0.798   3.152
 5256SOL    HW216668   4.654   0.854   3.281
 5257SOL     OW16669   4.164   0.441   6.689
 5257SOL    HW116670   4.179   0.434   6.787
 5257SOL    HW216671   4.238   0.495   6.647
 5258SOL     OW16672   5.297   1.436   2.547
 5258SOL    HW116673   5.204   1.450   2.581
 5258SOL    HW216674   5.360   1.494   2.598
 5259SOL     OW16675   4.929   5.574   2.998
 5259SOL    HW116676   4.946   5.560   3.096
 5259SOL    HW216677   4.960   5.494   2.947
 5260SOL     OW16678   2.815   5.844   0.169
 5260SOL    HW116679   2.908   5.869   0.142
 5260SOL    HW216680   2.788   5.898   0.249
 5261SOL     OW16681   6.776   4.693   0.846
 5261SOL    HW116682   6.707   4.621   0.846
 5261SOL    HW216683   6.765   4.750   0.927
 5262SOL     OW16684   2.146   0.410   2.891
 5262SOL    HW116685   2.228   0.389   2.838
 5262SOL    HW216686   2.067   0.364   2.849
 5263SOL     OW16687   1.635   0.757   3.512
 5263SOL    HW116688   1.606   0.829   3.449
 5263SOL    HW216689   1.572   0.680   3.505
 5264SOL     OW16690   6.659   2.107   1.830
 5264SOL    HW116691   6.615   2.047   1.897
 5264SOL    HW216692   6.723   2.053   1.775
 5265SOL     OW16693   5.488   2.628   4.469
 5265SOL    HW116694   5.394   2.662   4.479
 5265SOL    HW216695   5.496   2.578   4.383
 5266SOL     OW16696   2.394   6.500   0.780
 5266SOL    HW116697   2.399   6.422   0.843
 5266SOL    HW216698   2.405   6.585   0.832
 5267SOL     OW16699   4.582   2.621   4.368
 5267SOL    HW116700   4.498   2.631   4.421
 5267SOL    HW216701   4.640   2.702   4.380
 5268SOL     OW16702   5.449   0.963   6.852
 5268SOL    HW116703   5.398   1.031   6.800
 5268SOL    HW216704   5.415   0.871   6.830
 5269SOL     OW16705   0.433   6.542   2.274
 5269SOL    HW116706   0.388   6.463   2.316
 5269SOL    HW216707   0.525   6.552   2.312
 5270SOL     OW16708   6.296   2.060   0.359
 5270SOL    HW116709   6.268   2.156   0.350
 5270SOL    HW216710   6.284   2.030   0.453
 5271SOL     OW16711   6.135   5.313   4.718
 5271SOL    HW116712   6.203   5.384   4.738
 5271SOL    HW216713   6.177   5.223   4.724
 5272SOL     OW16714   3.896   6.700   0.661
 5272SOL    HW116715   3.922   6.689   0.565
 5272SOL    HW216716   3.830   6.628   0.685
 5273SOL     OW16717   0.962   3.410   2.732
 5273SOL    HW116718   1.059   3.408   2.755
 5273SOL    HW216719   0.916   3.331   2.773
 5274SOL     OW16720   4.762   6.766   2.373
 5274SOL    HW116721   4.786   6.714   2.291
 5274SOL    HW216722   4.798   6.720   2.454
 5275SOL     OW16723   2.916   0.292   0.816
 5275SOL    HW116724   2.914   0.389   0.840
 5275SOL    HW216725   2.834   0.248   0.850
 5276SOL     OW16726   2.139   6.457   1.701
 5276SOL    HW116727   2.154   6.413   1.613
 5276SOL    HW216728   2.146   6.556   1.690
 5277SOL     OW16729   2.570   1.154   2.483
 5277SOL    HW116730   2.524   1.138   2.396
 5277SOL    HW216731   2.636   1.080   2.500
 5278SOL     OW16732   4.072   5.033   2.723
 5278SOL    HW116733   3.986   5.037   2.673
 5278SOL    HW216734   4.120   5.121   2.714
 5279SOL     OW16735   2.790   5.600   1.270
 5279SOL    HW116736   2.880   5.603   1.226
 5279SOL    HW216737   2.758   5.506   1.274
 5280SOL     OW16738   3.156   6.300   5.101
 5280SOL    HW116739   3.163   6.208   5.138
 5280SOL    HW216740   3.144   6.365   5.176
 5281SOL     OW16741   0.353   1.504   2.454
 5281SOL    HW116742   0.426   1.573   2.451
 5281SOL    HW216743   0.322   1.485   2.361
 5282SOL     OW16744   2.557   2.094   3.343
 5282SOL    HW116745   2.653   2.122   3.335
 5282SOL    HW216746   2.500   2.175   3.362
 5283SOL     OW16747   5.182   5.664   0.838
 5283SOL    HW116748   5.197   5.740   0.901
 5283SOL    HW216749   5.114   5.602   0.876
 5284SOL     OW16750   5.398   4.240   3.175
 5284SOL    HW116751   5.495   4.263   3.180
 5284SOL    HW216752   5.386   4.143   3.196
 5285SOL     OW16753   3.344   4.916   4.009
 5285SOL    HW116754   3.310   4.908   4.102
 5285SOL    HW216755   3.381   5.008   3.995
 5286SOL     OW16756   2.121   4.357   0.990
 5286SOL    HW116757   2.092   4.367   0.895
 5286SOL    HW216758   2.129   4.260   1.012
 5287SOL     OW16759   2.582   1.134   0.472
 5287SOL    HW116760   2.497   1.169   0.510
 5287SOL    HW216761   2.565   1.095   0.381
 5288SOL     OW16762   3.051   0.363   1.215
 5288SOL    HW116763   2.967   0.311   1.200
 5288SOL    HW216764   3.119   0.337   1.146
 5289SOL     OW16765   0.896   5.144   1.066
 5289SOL    HW116766   0.971   5.112   1.008
 5289SOL    HW216767   0.810   5.135   1.016
 5290SOL     OW16768   3.710   5.922   0.026
 5290SOL    HW116769   3.750   5.987   6.993
 5290SOL    HW216770   3.778   5.853   0.051
 5291SOL     OW16771   1.957   4.934   5.633
 5291SOL    HW116772   1.958   4.861   5.565
 5291SOL    HW216773   2.051   4.957   5.659
 5292SOL     OW16774   5.147   3.096   6.369
 5292SOL    HW116775   5.241   3.126   6.352
 5292SOL    HW216776   5.106   3.156   6.438
 5293SOL     OW16777   0.847   0.258   4.259
 5293SOL    HW116778   0.785   0.327   4.294
 5293SOL    HW216779   0.925   0.302   4.215
 5294SOL     OW16780   5.933   3.291   6.173
 5294SOL    HW116781   5.979   3.208   6.204
 5294SOL    HW216782   5.866   3.267   6.102
 5295SOL     OW16783   5.917   1.014   3.122
 5295SOL    HW116784   5.902   0.923   3.162
 5295SOL    HW216785   5.829   1.049   3.087
 5296SOL     OW16786   1.593   4.301   0.447
 5296SOL    HW116787   1.567   4.364   0.520
 5296SOL    HW216788   1.625   4.353   0.368
 5297SOL     OW16789   2.082   1.063   1.107
 5297SOL    HW116790   2.143   1.137   1.135
 5297SOL    HW216791   1.989   1.082   1.139
 5298SOL     OW16792   6.662   4.886   1.025
 5298SOL    HW116793   6.638   4.983   1.024
 5298SOL    HW216794   6.729   4.869   1.098
 5299SOL     OW16795   3.060   0.816   1.669
 5299SOL    HW116796   2.972   0.810   1.716
 5299SOL    HW216797   3.051   0.875   1.589
 5300SOL     OW16798   0.236   6.428   3.917
 5300SOL    HW116799   0.208   6.361   3.986
 5300SOL    HW216800   0.326   6.464   3.941
 5301SOL     OW16801   4.321   1.579   6.697
 5301SOL    HW116802   4.374   1.517   6.754
 5301SOL    HW216803   4.320   1.545   6.603
 5302SOL     OW16804   6.334   4.448   2.792
 5302SOL    HW116805   6.417   4.483   2.750
 5302SOL    HW216806   6.358   4.387   2.868
 5303SOL     OW16807   6.411   4.606   3.792
 5303SOL    HW116808   6.368   4.630   3.705
 5303SOL    HW216809   6.378   4.516   3.821
 5304SOL     OW16810   4.730   1.922   5.475
 5304SOL    HW116811   4.730   1.896   5.572
 5304SOL    HW216812   4.683   1.851   5.422
 5305SOL     OW16813   2.456   0.887   3.353
 5305SOL    HW116814   2.484   0.823   3.423
 5305SOL    HW216815   2.379   0.941   3.386
 5306SOL     OW16816   2.907   6.189   6.412
 5306SOL    HW116817   2.955   6.264   6.456
 5306SOL    HW216818   2.955   6.165   6.327
 5307SOL     OW16819   4.767   7.029   6.604
 5307SOL    HW116820   4.866   7.022   6.600
 5307SOL    HW216821   4.729   7.024   6.511
 5308SOL     OW16822   6.810   1.345   3.289
 5308SOL    HW116823   6.850   1.258   3.260
 5308SOL    HW216824   6.734   1.327   3.352
 5309SOL     OW16825   3.926   3.848   3.862
 5309SOL    HW116826   3.837   3.803   3.866
 5309SOL    HW216827   3.997   3.781   3.841
 5310SOL     OW16828   5.216   2.044   1.625
 5310SOL    HW116829   5.186   1.971   1.687
 5310SOL    HW216830   5.237   2.005   1.536
 5311SOL     OW16831   1.901   5.376   6.831
 5311SOL    HW116832   1.812   5.413   6.858
 5311SOL    HW216833   1.892   5.279   6.809
 5312SOL     OW16834   0.837   4.129   3.037
 5312SOL    HW116835   0.870   4.078   2.957
 5312SOL    HW216836   0.861   4.079   3.120
 5313SOL     OW16837   1.106   5.979   6.510
 5313SOL    HW116838   1.080   6.028   6.427
 5313SOL    HW216839   1.088   6.037   6.590
 5314SOL     OW16840   3.999   5.395   0.099
 5314SOL    HW116841   4.024   5.431   0.009
 5314SOL    HW216842   4.081   5.389   0.156
 5315SOL     OW16843   5.983   3.248   1.970
 5315SOL    HW116844   5.899   3.258   2.023
 5315SOL    HW216845   6.025   3.337   1.956
 5316SOL     OW16846   0.112   4.616   4.260
 5316SOL    HW116847   0.116   4.516   4.262
 5316SOL    HW216848   0.166   4.652   4.336
 5317SOL     OW16849   5.178   0.179   2.526
 5317SOL    HW116850   5.158   0.082   2.523
 5317SOL    HW216851   5.193   0.213   2.433
 5318SOL     OW16852   0.289   2.784   4.265
 5318SOL    HW116853   0.291   2.685   4.278
 5318SOL    HW216854   0.213   2.823   4.316
 5319SOL     OW16855   5.032   0.469   0.477
 5319SOL    HW116856   4.977   0.392   0.511
 5319SOL    HW216857   5.096   0.498   0.548
 5320SOL     OW16858   5.814   3.979   6.456
 5320SOL    HW116859   5.849   3.901   6.404
 5320SOL    HW216860   5.793   4.054   6.395
 5321SOL     OW16861   1.621   5.500   5.567
 5321SOL    HW116862   1.642   5.534   5.659
 5321SOL    HW216863   1.581   5.409   5.574
 5322SOL     OW16864   3.351   5.463   6.496
 5322SOL    HW116865   3.340   5.395   6.423
 5322SOL    HW216866   3.438   5.447   6.543
 5323SOL     OW16867   4.453   2.035   0.421
 5323SOL    HW116868   4.464   2.039   0.321
 5323SOL    HW216869   4.358   2.017   0.444
 5324SOL     OW16870   4.134   3.001   1.599
 5324SOL    HW116871   4.212   2.970   1.544
 5324SOL    HW216872   4.103   2.926   1.658
 5325SOL     OW16873   5.428   6.553   2.562
 5325SOL    HW116874   5.399   6.631   2.618
 5325SOL    HW216875   5.527   6.559   2.545
 5326SOL     OW16876   6.837   5.961   1.506
 5326SOL    HW116877   6.914   6.024   1.498
 5326SOL    HW216878   6.843   5.892   1.434
 5327SOL     OW16879   6.430   0.001   4.136
 5327SOL    HW116880   6.427   0.047   4.224
 5327SOL    HW216881   6.506   6.967   4.135
 5328SOL     OW16882   3.701   4.027   0.329
 5328SOL    HW116883   3.685   4.086   0.408
 5328SOL    HW216884   3.795   3.993   0.331
 5329SOL     OW16885   0.469   4.431   0.718
 5329SOL    HW116886   0.441   4.524   0.696
 5329SOL    HW216887   0.439   4.369   0.646
 5330SOL     OW16888   3.868   4.007   1.067
 5330SOL    HW116889   3.891   4.053   1.152
 5330SOL    HW216890   3.926   4.043   0.993
 5331SOL     OW16891   4.681   2.349   0.333
 5331SOL    HW116892   4.756   2.306   0.282
 5331SOL    HW216893   4.692   2.449   0.329
 5332SOL     OW16894   5.887   4.299   0.427
 5332SOL    HW116895   5.957   4.335   0.366
 5332SOL    HW216896   5.862   4.206   0.398
 5333SOL     OW16897   1.817   1.050   3.400
 5333SOL    HW116898   1.910   1.019   3.419
 5333SOL    HW216899   1.809   1.148   3.421
 5334SOL     OW16900   4.415   4.596   2.905
 5334SOL    HW116901   4.511   4.568   2.911
 5334SOL    HW216902   4.399   4.641   2.817
 5335SOL     OW16903   0.066   4.773   1.451
 5335SOL    HW116904   0.083   4.735   1.542
 5335SOL    HW216905   0.139   4.838   1.429
 5336SOL     OW16906   1.832   2.064   4.057
 5336SOL    HW116907   1.768   2.130   4.098
 5336SOL    HW216908   1.787   1.975   4.050
 5337SOL     OW16909   0.019   4.611   1.242
 5337SOL    HW116910   6.991   4.532   1.257
 5337SOL    HW216911   0.042   4.653   1.329
 5338SOL     OW16912   6.798   3.565   0.818
 5338SOL    HW116913   6.846   3.621   0.751
 5338SOL    HW216914   6.778   3.475   0.778
 5339SOL     OW16915   5.906   2.722   2.660
 5339SOL    HW116916   5.956   2.683   2.582
 5339SOL    HW216917   5.843   2.654   2.696
 5340SOL     OW16918   5.382   2.709   2.600
 5340SOL    HW116919   5.456   2.773   2.578
 5340SOL    HW216920   5.359   2.656   2.519
 5341SOL     OW16921   4.626   5.383   3.579
 5341SOL    HW116922   4.545   5.435   3.554
 5341SOL    HW216923   4.691   5.383   3.503
 5342SOL     OW16924   5.954   0.045   4.634
 5342SOL    HW116925   5.964   0.106   4.555
 5342SOL    HW216926   5.884   7.008   4.615
 5343SOL     OW16927   4.084   3.677   5.511
 5343SOL    HW116928   4.122   3.769   5.521
 5343SOL    HW216929   4.107   3.641   5.420
 5344SOL     OW16930   0.701   1.963   6.019
 5344SOL    HW116931   0.724   1.868   6.000
 5344SOL    HW216932   0.605   1.980   5.996
 5345SOL     OW16933   5.626   2.004   6.881
 5345SOL    HW116934   5.544   1.953   6.857
 5345SOL    HW216935   5.706   1.945   6.871
 5346SOL     OW16936   2.979   5.180   3.911
 5346SOL    HW116937   3.011   5.220   3.997
 5346SOL    HW216938   3.025   5.093   3.896
 5347SOL     OW16939   6.567   2.059   4.296
 5347SOL    HW116940   6.595   2.111   4.216
 5347SOL    HW216941   6.639   1.995   4.322
 5348SOL     OW16942   5.398   1.964   3.721
 5348SOL    HW116943   5.349   1.950   3.635
 5348SOL    HW216944   5.490   1.999   3.702
 5349SOL     OW16945   0.389   3.384   2.457
 5349SOL    HW116946   0.423   3.353   2.546
 5349SOL    HW216947   0.443   3.340   2.384
 5350SOL     OW16948   2.099   6.499   6.326
 5350SOL    HW116949   2.000   6.507   6.309
 5350SOL    HW216950   2.125   6.403   6.329
 5351SOL     OW16951   0.509   5.210   1.952
 5351SOL    HW116952   0.449   5.155   1.893
 5351SOL    HW216953   0.482   5.197   2.047
 5352SOL     OW16954   1.935   3.797   4.299
 5352SOL    HW116955   1.905   3.722   4.240
 5352SOL    HW216956   1.902   3.781   4.392
 5353SOL     OW16957   4.479   6.033   3.114
 5353SOL    HW116958   4.415   6.091   3.165
 5353SOL    HW216959   4.427   5.965   3.062
 5354SOL     OW16960   3.546   5.565   0.762
 5354SOL    HW116961   3.479   5.605   0.700
 5354SOL    HW216962   3.595   5.491   0.716
 5355SOL     OW16963   5.007   4.995   5.386
 5355SOL    HW116964   5.093   5.045   5.378
 5355SOL    HW216965   5.013   4.908   5.336
 5356SOL     OW16966   0.208   5.016   1.484
 5356SOL    HW116967   0.116   5.039   1.515
 5356SOL    HW216968   0.268   5.095   1.495
 5357SOL     OW16969   4.810   4.545   2.162
 5357SOL    HW116970   4.758   4.613   2.213
 5357SOL    HW216971   4.842   4.586   2.076
 5358SOL     OW16972   4.548   1.913   0.674
 5358SOL    HW116973   4.643   1.914   0.705
 5358SOL    HW216974   4.544   1.942   0.578
 5359SOL     OW16975   1.599   2.102   6.501
 5359SOL    HW116976   1.624   2.129   6.408
 5359SOL    HW216977   1.605   2.182   6.561
 5360SOL     OW16978   4.951   4.765   3.168
 5360SOL    HW116979   4.853   4.750   3.181
 5360SOL    HW216980   5.003   4.692   3.214
 5361SOL     OW16981   2.677   5.910   2.617
 5361SOL    HW116982   2.687   6.004   2.585
 5361SOL    HW216983   2.749   5.854   2.576
 5362SOL     OW16984   5.915   0.504   1.509
 5362SOL    HW116985   5.947   0.454   1.428
 5362SOL    HW216986   5.826   0.544   1.490
 5363SOL     OW16987   5.414   5.391   4.980
 5363SOL    HW116988   5.505   5.433   4.970
 5363SOL    HW216989   5.425   5.296   5.009
 5364SOL     OW16990   4.651   1.031   2.203
 5364SOL    HW116991   4.662   0.939   2.240
 5364SOL    HW216992   4.567   1.072   2.240
 5365SOL     OW16993   3.203   3.014   4.465
 5365SOL    HW116994   3.143   3.088   4.436
 5365SOL    HW216995   3.260   2.986   4.387
 5366SOL     OW16996   6.233   6.540   1.994
 5366SOL    HW116997   6.231   6.441   2.011
 5366SOL    HW216998   6.299   6.559   1.921
 5367SOL     OW16999   6.423   5.935   1.492
 5367SOL    HW117000   6.414   5.995   1.412
 5367SOL    HW217001   6.442   5.842   1.461
 5368SOL     OW17002   6.807   5.831   3.694
 5368SOL    HW117003   6.877   5.862   3.758
 5368SOL    HW217004   6.740   5.775   3.743
 5369SOL     OW17005   2.864   6.316   2.109
 5369SOL    HW117006   2.768   6.339   2.091
 5369SOL    HW217007   2.871   6.218   2.129
 5370SOL     OW17008   2.740   3.875   1.672
 5370SOL    HW117009   2.671   3.909   1.609
 5370SOL    HW217010   2.745   3.775   1.667
 5371SOL     OW17011   6.466   5.321   4.995
 5371SOL    HW117012   6.423   5.338   4.906
 5371SOL    HW217013   6.399   5.337   5.068
 5372SOL     OW17014   0.884   0.220   2.485
 5372SOL    HW117015   0.813   0.277   2.528
 5372SOL    HW217016   0.930   0.272   2.413
 5373SOL     OW17017   3.321   0.653   6.824
 5373SOL    HW117018   3.364   0.741   6.803
 5373SOL    HW217019   3.364   0.613   6.905
 5374SOL     OW17020   3.040   4.892   1.790
 5374SOL    HW117021   2.952   4.884   1.839
 5374SOL    HW217022   3.114   4.862   1.850
 5375SOL     OW17023   1.285   5.536   5.094
 5375SOL    HW117024   1.232   5.484   5.027
 5375SOL    HW217025   1.360   5.480   5.129
 5376SOL     OW17026   0.138   1.559   6.482
 5376SOL    HW117027   0.070   1.520   6.545
 5376SOL    HW217028   0.199   1.620   6.533
 5377SOL     OW17029   2.325   0.490   3.088
 5377SOL    HW117030   2.269   0.449   3.016
 5377SOL    HW217031   2.365   0.575   3.055
 5378SOL     OW17032   5.903   1.153   2.265
 5378SOL    HW117033   5.876   1.109   2.351
 5378SOL    HW217034   5.973   1.098   2.220
 5379SOL     OW17035   1.230   3.143   6.235
 5379SOL    HW117036   1.328   3.163   6.233
 5379SOL    HW217037   1.187   3.194   6.309
 5380SOL     OW17038   4.514   7.001   1.054
 5380SOL    HW117039   4.457   6.952   0.988
 5380SOL    HW217040   4.603   7.019   1.013
 5381SOL     OW17041   4.500   6.334   3.442
 5381SOL    HW117042   4.430   6.301   3.505
 5381SOL    HW217043   4.479   6.428   3.414
 5382SOL     OW17044   3.956   1.879   1.572
 5382SOL    HW117045   3.902   1.850   1.652
 5382SOL    HW217046   3.965   1.979   1.574
 5383SOL     OW17047   2.132   2.759   4.140
 5383SOL    HW117048   2.034   2.751   4.123
 5383SOL    HW217049   2.147   2.815   4.221
 5384SOL     OW17050   5.424   5.833   5.333
 5384SOL    HW117051   5.410   5.742   5.293
 5384SOL    HW217052   5.357   5.848   5.407
 5385SOL     OW17053   4.894   2.632   5.606
 5385SOL    HW117054   4.926   2.712   5.556
 5385SOL    HW217055   4.896   2.650   5.704
 5386SOL     OW17056   6.406   4.350   3.995
 5386SOL    HW117057   6.460   4.421   4.040
 5386SOL    HW217058   6.366   4.290   4.065
 5387SOL     OW17059   1.869   1.742   2.401
 5387SOL    HW117060   1.861   1.664   2.462
 5387SOL    HW217061   1.940   1.724   2.333
 5388SOL     OW17062   0.759   6.990   1.876
 5388SOL    HW117063   0.807   6.934   1.943
 5388SOL    HW217064   0.677   6.942   1.846
 5389SOL     OW17065   4.165   1.921   3.786
 5389SOL    HW117066   4.248   1.887   3.830
 5389SOL    HW217067   4.101   1.846   3.771
 5390SOL     OW17068   6.745   3.146   3.834
 5390SOL    HW117069   6.774   3.051   3.840
 5390SOL    HW217070   6.646   3.151   3.825
 5391SOL     OW17071   2.281   2.689   0.760
 5391SOL    HW117072   2.346   2.710   0.687
 5391SOL    HW217073   2.332   2.661   0.842
 5392SOL     OW17074   6.047   2.185   3.737
 5392SOL    HW117075   6.083   2.163   3.827
 5392SOL    HW217076   6.035   2.101   3.684
 5393SOL     OW17077   3.690   1.674   5.426
 5393SOL    HW117078   3.659   1.758   5.470
 5393SOL    HW217079   3.691   1.685   5.327
 5394SOL     OW17080   1.374   0.767   1.291
 5394SOL    HW117081   1.299   0.780   1.356
 5394SOL    HW217082   1.347   0.804   1.202
 5395SOL     OW17083   5.772   1.660   1.238
 5395SOL    HW117084   5.867   1.689   1.252
 5395SOL    HW217085   5.729   1.642   1.326
 5396SOL     OW17086   5.771   5.419   3.432
 5396SOL    HW117087   5.714   5.377   3.362
 5396SOL    HW217088   5.850   5.361   3.451
 5397SOL     OW17089   0.052   1.443   2.911
 5397SOL    HW117090   6.985   1.425   2.917
 5397SOL    HW217091   0.070   1.505   2.835
 5398SOL     OW17092   4.908   1.957   3.348
 5398SOL    HW117093   4.900   2.056   3.361
 5398SOL    HW217094   4.999   1.935   3.314
 5399SOL     OW17095   2.882   0.497   5.955
 5399SOL    HW117096   2.805   0.464   5.900
 5399SOL    HW217097   2.894   0.595   5.941
 5400SOL     OW17098   3.736   3.146   1.708
 5400SOL    HW117099   3.738   3.060   1.759
 5400SOL    HW217100   3.828   3.186   1.708
 5401SOL     OW17101   6.056   4.293   1.608
 5401SOL    HW117102   6.032   4.299   1.704
 5401SOL    HW217103   6.009   4.214   1.567
 5402SOL     OW17104   1.525   6.962   0.891
 5402SOL    HW117105   1.437   6.943   0.933
 5402SOL    HW217106   1.540   0.030   0.887
 5403SOL     OW17107   5.208   3.232   0.388
 5403SOL    HW117108   5.249   3.307   0.336
 5403SOL    HW217109   5.193   3.154   0.327
 5404SOL     OW17110   6.679   1.087   0.875
 5404SOL    HW117111   6.635   0.999   0.896
 5404SOL    HW217112   6.624   1.137   0.809
 5405SOL     OW17113   5.030   6.385   6.791
 5405SOL    HW117114   4.932   6.400   6.801
 5405SOL    HW217115   5.050   6.287   6.792
 5406SOL     OW17116   2.882   0.207   3.427
 5406SOL    HW117117   2.895   0.291   3.374
 5406SOL    HW217118   2.949   0.138   3.399
 5407SOL     OW17119   1.788   0.103   2.328
 5407SOL    HW117120   1.700   0.138   2.296
 5407SOL    HW217121   1.848   0.087   2.250
 5408SOL     OW17122   3.629   2.095   4.409
 5408SOL    HW117123   3.727   2.112   4.421
 5408SOL    HW217124   3.579   2.125   4.490
 5409SOL     OW17125   1.153   2.833   0.644
 5409SOL    HW117126   1.082   2.859   0.579
 5409SOL    HW217127   1.182   2.913   0.696
 5410SOL     OW17128   0.847   2.650   0.529
 5410SOL    HW117129   0.784   2.604   0.467
 5410SOL    HW217130   0.899   2.720   0.480
 5411SOL     OW17131   3.509   4.795   6.841
 5411SOL    HW117132   3.450   4.731   6.791
 5411SOL    HW217133   3.560   4.745   6.911
 5412SOL     OW17134   6.997   2.512   5.839
 5412SOL    HW117135   7.012   2.578   5.913
 5412SOL    HW217136   6.902   2.515   5.811
 5413SOL     OW17137   0.204   6.660   4.170
 5413SOL    HW117138   0.270   6.701   4.234
 5413SOL    HW217139   0.198   6.562   4.186
 5414SOL     OW17140   6.119   3.780   5.364
 5414SOL    HW117141   6.127   3.705   5.430
 5414SOL    HW217142   6.062   3.750   5.287
 5415SOL     OW17143   3.832   0.305   0.471
 5415SOL    HW117144   3.922   0.332   0.506
 5415SOL    HW217145   3.813   0.357   0.387
 5416SOL     OW17146   3.065   5.386   6.165
 5416SOL    HW117147   3.079   5.419   6.072
 5416SOL    HW217148   3.100   5.453   6.230
 5417SOL     OW17149   4.706   5.983   3.583
 5417SOL    HW117150   4.616   5.940   3.587
 5417SOL    HW217151   4.734   6.011   3.674
 5418SOL     OW17152   6.228   3.780   4.734
 5418SOL    HW117153   6.220   3.832   4.820
 5418SOL    HW217154   6.208   3.840   4.657
 5419SOL     OW17155   4.327   6.976   6.644
 5419SOL    HW117156   4.287   0.036   6.642
 5419SOL    HW217157   4.417   6.980   6.688
 5420SOL     OW17158   0.977   1.013   1.622
 5420SOL    HW117159   0.933   0.983   1.707
 5420SOL    HW217160   0.910   1.061   1.566
 5421SOL     OW17161   3.625   5.152   2.328
 5421SOL    HW117162   3.640   5.221   2.258
 5421SOL    HW217163   3.653   5.063   2.294
 5422SOL     OW17164   2.658   5.860   4.278
 5422SOL    HW117165   2.718   5.884   4.202
 5422SOL    HW217166   2.712   5.848   4.362
 5423SOL     OW17167   5.779   6.185   2.274
 5423SOL    HW117168   5.707   6.127   2.313
 5423SOL    HW217169   5.867   6.138   2.281
 5424SOL     OW17170   4.443   3.942   5.887
 5424SOL    HW117171   4.499   4.011   5.841
 5424SOL    HW217172   4.502   3.873   5.929
 5425SOL     OW17173   0.667   3.178   5.499
 5425SOL    HW117174   0.643   3.269   5.532
 5425SOL    HW217175   0.707   3.124   5.573
 5426SOL     OW17176   5.469   5.246   2.148
 5426SOL    HW117177   5.444   5.284   2.059
 5426SOL    HW217178   5.542   5.179   2.137
 5427SOL     OW17179   4.877   2.631   6.114
 5427SOL    HW117180   4.864   2.656   6.018
 5427SOL    HW217181   4.890   2.714   6.168
 5428SOL     OW17182   6.783   5.299   3.374
 5428SOL    HW117183   6.868   5.290   3.323
 5428SOL    HW217184   6.711   5.332   3.314
 5429SOL     OW17185   2.901   7.030   4.075
 5429SOL    HW117186   2.923   6.969   3.999
 5429SOL    HW217187   2.947   6.998   4.158
 5430SOL     OW17188   2.985   3.980   6.150
 5430SOL    HW117189   2.953   4.014   6.061
 5430SOL    HW217190   3.065   3.923   6.137
 5431SOL     OW17191   3.544   4.869   6.132
 5431SOL    HW117192   3.506   4.880   6.223
 5431SOL    HW217193   3.579   4.776   6.122
 5432SOL     OW17194   5.072   4.939   0.129
 5432SOL    HW117195   5.011   4.878   0.178
 5432SOL    HW217196   5.118   4.889   0.056
 5433SOL     OW17197   1.742   7.004   1.071
 5433SOL    HW117198   1.667   0.017   1.120
 5433SOL    HW217199   1.705   6.937   1.006
 5434SOL     OW17200   5.315   0.647   4.431
 5434SOL    HW117201   5.413   0.666   4.439
 5434SOL    HW217202   5.300   0.576   4.362
 5435SOL     OW17203   6.602   3.963   0.848
 5435SOL    HW117204   6.557   3.957   0.759
 5435SOL    HW217205   6.665   3.886   0.858
 5436SOL     OW17206   1.275   4.275   3.033
 5436SOL    HW117207   1.177   4.282   3.052
 5436SOL    HW217208   1.320   4.361   3.059
 5437SOL     OW17209   3.830   5.698   1.457
 5437SOL    HW117210   3.779   5.694   1.543
 5437SOL    HW217211   3.905   5.764   1.466
 5438SOL     OW17212   4.890   4.939   2.870
 5438SOL    HW117213   4.904   4.866   2.803
 5438SOL    HW217214   4.800   4.931   2.911
 5439SOL     OW17215   1.407   5.154   1.410
 5439SOL    HW117216   1.504   5.132   1.427
 5439SOL    HW217217   1.356   5.146   1.496
 5440SOL     OW17218   5.846   5.846   3.514
 5440SOL    HW117219   5.903   5.877   3.438
 5440SOL    HW217220   5.819   5.924   3.569
 5441SOL     OW17221   4.968   2.943   3.443
 5441SOL    HW117222   4.976   2.885   3.524
 5441SOL    HW217223   5.031   3.020   3.450
 5442SOL     OW17224   4.562   6.736   5.017
 5442SOL    HW117225   4.568   6.836   5.009
 5442SOL    HW217226   4.651   6.699   5.043
 5443SOL     OW17227   4.307   0.570   4.699
 5443SOL    HW117228   4.406   0.566   4.685
 5443SOL    HW217229   4.266   0.626   4.628
 5444SOL     OW17230   6.471   0.969   4.862
 5444SOL    HW117231   6.390   1.026   4.846
 5444SOL    HW217232   6.490   0.965   4.960
 5445SOL     OW17233   5.781   5.184   5.710
 5445SOL    HW117234   5.755   5.182   5.806
 5445SOL    HW217235   5.772   5.092   5.671
 5446SOL     OW17236   0.612   4.873   6.005
 5446SOL    HW117237   0.613   4.879   5.906
 5446SOL    HW217238   0.649   4.784   6.033
 5447SOL     OW17239   1.254   1.251   6.960
 5447SOL    HW117240   1.267   1.217   0.022
 5447SOL    HW217241   1.219   1.344   6.963
 5448SOL     OW17242   4.435   5.567   3.458
 5448SOL    HW117243   4.339   5.548   3.480
 5448SOL    HW217244   4.449   5.559   3.359
 5449SOL     OW17245   2.737   2.023   1.688
 5449SOL    HW117246   2.776   1.972   1.765
 5449SOL    HW217247   2.808   2.079   1.645
 5450SOL     OW17248   4.037   5.564   1.792
 5450SOL    HW117249   3.957   5.503   1.788
 5450SOL    HW217250   4.097   5.545   1.715
 5451SOL     OW17251   0.467   0.043   3.238
 5451SOL    HW117252   0.512   0.131   3.222
 5451SOL    HW217253   0.464   7.023   3.152
 5452SOL     OW17254   1.900   4.766   2.132
 5452SOL    HW117255   1.993   4.728   2.125
 5452SOL    HW217256   1.897   4.832   2.207
 5453SOL     OW17257   5.633   4.383   3.243
 5453SOL    HW117258   5.664   4.478   3.241
 5453SOL    HW217259   5.614   4.357   3.338
 5454SOL     OW17260   5.315   5.346   3.537
 5454SOL    HW117261   5.296   5.395   3.622
 5454SOL    HW217262   5.287   5.403   3.460
 5455SOL     OW17263   0.972   1.998   3.250
 5455SOL    HW117264   0.886   2.046   3.235
 5455SOL    HW217265   1.045   2.063   3.268
 5456SOL     OW17266   5.972   1.081   0.254
 5456SOL    HW117267   5.939   1.068   0.348
 5456SOL    HW217268   5.987   0.992   0.211
 5457SOL     OW17269   5.953   2.709   0.086
 5457SOL    HW117270   6.035   2.706   0.029
 5457SOL    HW217271   5.951   2.630   0.146
 5458SOL     OW17272   6.382   4.828   1.038
 5458SOL    HW117273   6.480   4.841   1.028
 5458SOL    HW217274   6.334   4.912   1.014
 5459SOL     OW17275   2.112   3.797   5.438
 5459SOL    HW117276   2.180   3.757   5.500
 5459SOL    HW217277   2.020   3.769   5.466
 5460SOL     OW17278   1.715   0.224   0.214
 5460SOL    HW117279   1.699   0.187   0.122
 5460SOL    HW217280   1.763   0.155   0.269
 5461SOL     OW17281   6.535   1.272   5.894
 5461SOL    HW117282   6.524   1.358   5.844
 5461SOL    HW217283   6.632   1.258   5.915
 5462SOL     OW17284   5.450   5.577   6.979
 5462SOL    HW117285   5.392   5.600   6.900
 5462SOL    HW217286   5.545   5.593   6.955
 5463SOL     OW17287   0.212   3.013   6.716
 5463SOL    HW117288   0.209   3.038   6.619
 5463SOL    HW217289   0.279   3.070   6.763
 5464SOL     OW17290   7.013   6.052   5.093
 5464SOL    HW117291   0.046   6.128   5.097
 5464SOL    HW217292   6.925   6.085   5.057
 5465SOL     OW17293   6.603   6.158   3.430
 5465SOL    HW117294   6.648   6.163   3.342
 5465SOL    HW217295   6.543   6.238   3.442
 5466SOL     OW17296   5.834   2.754   5.746
 5466SOL    HW117297   5.876   2.701   5.819
 5466SOL    HW217298   5.806   2.693   5.672
 5467SOL     OW17299   5.582   3.646   4.074
 5467SOL    HW117300   5.681   3.636   4.073
 5467SOL    HW217301   5.549   3.642   4.169
 5468SOL     OW17302   0.221   1.119   1.885
 5468SOL    HW117303   0.127   1.133   1.916
 5468SOL    HW217304   0.252   1.200   1.834
 5469SOL     OW17305   2.377   0.775   5.337
 5469SOL    HW117306   2.382   0.795   5.435
 5469SOL    HW217307   2.284   0.749   5.312
 5470SOL     OW17308   3.813   5.259   4.097
 5470SOL    HW117309   3.754   5.205   4.037
 5470SOL    HW217310   3.784   5.355   4.095
 5471SOL     OW17311   5.024   0.263   3.151
 5471SOL    HW117312   4.939   0.229   3.109
 5471SOL    HW217313   5.009   0.355   3.187
 5472SOL     OW17314   2.589   1.859   6.526
 5472SOL    HW117315   2.646   1.895   6.452
 5472SOL    HW217316   2.646   1.806   6.589
 5473SOL     OW17317   2.756   4.377   1.451
 5473SOL    HW117318   2.742   4.474   1.432
 5473SOL    HW217319   2.749   4.360   1.549
 5474SOL     OW17320   0.279   5.377   3.755
 5474SOL    HW117321   0.320   5.319   3.825
 5474SOL    HW217322   0.303   5.473   3.772
 5475SOL     OW17323   0.155   2.475   5.650
 5475SOL    HW117324   0.161   2.386   5.605
 5475SOL    HW217325   0.093   2.469   5.728
 5476SOL     OW17326   2.444   6.393   6.524
 5476SOL    HW117327   2.496   6.379   6.440
 5476SOL    HW217328   2.404   6.485   6.524
 5477SOL     OW17329   2.093   5.651   4.316
 5477SOL    HW117330   2.145   5.568   4.337
 5477SOL    HW217331   2.102   5.715   4.392
 5478SOL     OW17332   5.412   4.757   6.318
 5478SOL    HW117333   5.385   4.675   6.268
 5478SOL    HW217334   5.330   4.808   6.343
 5479SOL     OW17335   3.392   2.058   4.614
 5479SOL    HW117336   3.381   2.063   4.713
 5479SOL    HW217337   3.391   1.962   4.585
 5480SOL     OW17338   6.159   3.994   4.910
 5480SOL    HW117339   6.095   3.948   4.972
 5480SOL    HW217340   6.120   4.081   4.881
 5481SOL     OW17341   4.679   0.974   6.618
 5481SOL    HW117342   4.610   0.940   6.682
 5481SOL    HW217343   4.706   1.067   6.644
 5482SOL     OW17344   4.339   3.428   1.652
 5482SOL    HW117345   4.422   3.477   1.676
 5482SOL    HW217346   4.346   3.332   1.681
 5483SOL     OW17347   6.747   3.824   5.886
 5483SOL    HW117348   6.709   3.831   5.794
 5483SOL    HW217349   6.793   3.910   5.909
 5484SOL     OW17350   6.640   6.443   3.921
 5484SOL    HW117351   6.591   6.367   3.878
 5484SOL    HW217352   6.681   6.412   4.007
 5485SOL     OW17353   3.916   7.015   5.704
 5485SOL    HW117354   3.993   6.954   5.722
 5485SOL    HW217355   3.888   7.007   5.608
 5486SOL     OW17356   1.063   0.812   3.186
 5486SOL    HW117357   1.113   0.726   3.196
 5486SOL    HW217358   1.083   0.852   3.097
 5487SOL     OW17359   6.479   5.059   0.352
 5487SOL    HW117360   6.384   5.090   0.359
 5487SOL    HW217361   6.498   4.994   0.426
 5488SOL     OW17362   4.927   2.435   6.278
 5488SOL    HW117363   4.847   2.387   6.314
 5488SOL    HW217364   4.901   2.483   6.194
 5489SOL     OW17365   1.723   4.816   2.598
 5489SOL    HW117366   1.632   4.827   2.559
 5489SOL    HW217367   1.716   4.810   2.698
 5490SOL     OW17368   3.059   0.928   0.459
 5490SOL    HW117369   3.142   0.893   0.503
 5490SOL    HW217370   3.046   0.880   0.372
 5491SOL     OW17371   1.899   4.925   0.441
 5491SOL    HW117372   1.925   4.842   0.390
 5491SOL    HW217373   1.946   4.926   0.529
 5492SOL     OW17374   0.843   2.639   6.495
 5492SOL    HW117375   0.931   2.614   6.457
 5492SOL    HW217376   0.849   2.643   6.595
 5493SOL     OW17377   3.703   3.123   5.960
 5493SOL    HW117378   3.790   3.161   5.993
 5493SOL    HW217379   3.652   3.193   5.911
 5494SOL     OW17380   6.371   3.628   1.255
 5494SOL    HW117381   6.452   3.625   1.313
 5494SOL    HW217382   6.327   3.538   1.255
 5495SOL     OW17383   4.019   3.637   2.353
 5495SOL    HW117384   4.023   3.540   2.330
 5495SOL    HW217385   4.060   3.652   2.443
 5496SOL     OW17386   3.228   6.038   2.089
 5496SOL    HW117387   3.310   6.045   2.033
 5496SOL    HW217388   3.178   6.125   2.086
 5497SOL     OW17389   0.507   1.338   3.018
 5497SOL    HW117390   0.469   1.343   2.926
 5497SOL    HW217391   0.434   1.351   3.085
 5498SOL     OW17392   4.386   1.545   5.620
 5498SOL    HW117393   4.381   1.515   5.715
 5498SOL    HW217394   4.471   1.513   5.579
 5499SOL     OW17395   6.796   1.688   3.094
 5499SOL    HW117396   6.774   1.761   3.158
 5499SOL    HW217397   6.831   1.728   3.009
 5500SOL     OW17398   2.360   5.429   0.746
 5500SOL    HW117399   2.432   5.410   0.813
 5500SOL    HW217400   2.388   5.506   0.688
 5501SOL     OW17401   2.565   0.394   2.184
 5501SOL    HW117402   2.604   0.486   2.172
 5501SOL    HW217403   2.567   0.370   2.281
 5502SOL     OW17404   6.317   4.110   5.950
 5502SOL    HW117405   6.354   4.018   5.943
 5502SOL    HW217406   6.339   4.162   5.868
 5503SOL     OW17407   1.025   4.306   3.189
 5503SOL    HW117408   0.953   4.267   3.132
 5503SOL    HW217409   1.006   4.286   3.285
 5504SOL     OW17410   3.251   1.762   4.741
 5504SOL    HW117411   3.170   1.819   4.731
 5504SOL    HW217412   3.233   1.690   4.808
 5505SOL     OW17413   2.797   5.539   5.390
 5505SOL    HW117414   2.741   5.593   5.328
 5505SOL    HW217415   2.738   5.487   5.452
 5506SOL     OW17416   6.402   0.638   4.961
 5506SOL    HW117417   6.359   0.694   5.033
 5506SOL    HW217418   6.382   0.678   4.872
 5507SOL     OW17419   2.844   6.844   3.880
 5507SOL    HW117420   2.753   6.875   3.854
 5507SOL    HW217421   2.878   6.778   3.813
 5508SOL     OW17422   2.248   0.476   6.249
 5508SOL    HW117423   2.235   0.556   6.309
 5508SOL    HW217424   2.342   0.477   6.213
 5509SOL     OW17425   6.001   6.593   0.279
 5509SOL    HW117426   6.052   6.530   0.221
 5509SOL    HW217427   6.025   6.687   0.255
 5510SOL     OW17428   4.469   0.434   6.406
 5510SOL    HW117429   4.506   0.496   6.337
 5510SOL    HW217430   4.425   0.356   6.360
 5511SOL     OW17431   0.434   0.588   2.546
 5511SOL    HW117432   0.453   0.670   2.601
 5511SOL    HW217433   0.339   0.560   2.561
 5512SOL     OW17434   0.573   1.777   6.883
 5512SOL    HW117435   0.536   1.688   6.910
 5512SOL    HW217436   0.642   1.764   6.812
 5513SOL     OW17437   4.557   4.521   4.735
 5513SOL    HW117438   4.646   4.481   4.753
 5513SOL    HW217439   4.499   4.512   4.816
 5514SOL     OW17440   5.601   4.926   2.848
 5514SOL    HW117441   5.606   4.866   2.928
 5514SOL    HW217442   5.623   5.020   2.874
 5515SOL     OW17443   6.637   2.519   2.382
 5515SOL    HW117444   6.638   2.476   2.472
 5515SOL    HW217445   6.658   2.450   2.312
 5516SOL     OW17446   1.390   2.696   6.758
 5516SOL    HW117447   1.427   2.628   6.821
 5516SOL    HW217448   1.386   2.785   6.804
 5517SOL     OW17449   3.029   1.934   1.112
 5517SOL    HW117450   3.082   1.964   1.033
 5517SOL    HW217451   3.043   1.998   1.188
 5518SOL     OW17452   5.466   5.044   6.159
 5518SOL    HW117453   5.408   4.973   6.120
 5518SOL    HW217454   5.413   5.129   6.170
 5519SOL     OW17455   5.549   3.420   3.891
 5519SOL    HW117456   5.600   3.349   3.939
 5519SOL    HW217457   5.591   3.509   3.909
 5520SOL     OW17458   1.641   3.498   2.779
 5520SOL    HW117459   1.656   3.401   2.797
 5520SOL    HW217460   1.568   3.509   2.712
 5521SOL     OW17461   5.195   6.536   2.091
 5521SOL    HW117462   5.146   6.456   2.125
 5521SOL    HW217463   5.251   6.574   2.165
 5522SOL     OW17464   2.579   3.359   1.704
 5522SOL    HW117465   2.494   3.385   1.750
 5522SOL    HW217466   2.656   3.370   1.767
 5523SOL     OW17467   3.210   0.025   2.677
 5523SOL    HW117468   3.307   0.024   2.652
 5523SOL    HW217469   3.183   0.119   2.699
 5524SOL     OW17470   1.063   5.340   5.208
 5524SOL    HW117471   1.093   5.324   5.114
 5524SOL    HW217472   1.143   5.348   5.268
 5525SOL     OW17473   6.601   5.118   6.968
 5525SOL    HW117474   6.616   5.150   0.030
 5525SOL    HW217475   6.557   5.028   6.971
 5526SOL     OW17476   5.975   3.421   3.328
 5526SOL    HW117477   5.924   3.364   3.263
 5526SOL    HW217478   5.913   3.456   3.397
 5527SOL     OW17479   1.079   2.761   1.566
 5527SOL    HW117480   1.036   2.845   1.532
 5527SOL    HW217481   1.010   2.690   1.574
 5528SOL     OW17482   0.192   2.537   5.032
 5528SOL    HW117483   0.190   2.636   5.023
 5528SOL    HW217484   0.283   2.502   5.009
 5529SOL     OW17485   2.225   0.861   4.899
 5529SOL    HW117486   2.126   0.868   4.902
 5529SOL    HW217487   2.265   0.947   4.930
 5530SOL     OW17488   0.235   2.421   0.508
 5530SOL    HW117489   0.268   2.331   0.536
 5530SOL    HW217490   0.148   2.410   0.459
 5531SOL     OW17491   3.994   3.265   4.841
 5531SOL    HW117492   3.976   3.212   4.758
 5531SOL    HW217493   3.977   3.208   4.922
 5532SOL     OW17494   1.623   1.202   0.232
 5532SOL    HW117495   1.641   1.119   0.285
 5532SOL    HW217496   1.710   1.239   0.199
 5533SOL     OW17497   3.211   0.653   2.940
 5533SOL    HW117498   3.229   0.751   2.940
 5533SOL    HW217499   3.120   0.635   2.903
 5534SOL     OW17500   1.236   3.580   6.638
 5534SOL    HW117501   1.261   3.494   6.591
 5534SOL    HW217502   1.287   3.655   6.596
 5535SOL     OW17503   6.472   2.960   3.192
 5535SOL    HW117504   6.426   3.030   3.138
 5535SOL    HW217505   6.476   2.989   3.288
 5536SOL     OW17506   2.397   0.681   4.444
 5536SOL    HW117507   2.472   0.739   4.478
 5536SOL    HW217508   2.309   0.723   4.468
 5537SOL     OW17509   3.742   0.270   5.143
 5537SOL    HW117510   3.655   0.291   5.099
 5537SOL    HW217511   3.783   0.190   5.098
 5538SOL     OW17512   3.961   0.949   5.642
 5538SOL    HW117513   3.949   0.857   5.604
 5538SOL    HW217514   4.023   0.945   5.720
 5539SOL     OW17515   0.846   1.325   1.661
 5539SOL    HW117516   0.785   1.319   1.740
 5539SOL    HW217517   0.836   1.243   1.605
 5540SOL     OW17518   5.004   2.959   1.098
 5540SOL    HW117519   5.101   2.943   1.079
 5540SOL    HW217520   4.966   3.020   1.029
 5541SOL     OW17521   5.605   3.624   5.601
 5541SOL    HW117522   5.565   3.562   5.669
 5541SOL    HW217523   5.533   3.659   5.541
 5542SOL     OW17524   5.358   4.978   6.620
 5542SOL    HW117525   5.336   4.881   6.611
 5542SOL    HW217526   5.371   5.018   6.529
 5543SOL     OW17527   2.285   5.923   6.593
 5543SOL    HW117528   2.232   5.856   6.645
 5543SOL    HW217529   2.281   5.900   6.496
 5544SOL     OW17530   5.284   5.269   6.109
 5544SOL    HW117531   5.295   5.364   6.138
 5544SOL    HW217532   5.234   5.267   6.022
 5545SOL     OW17533   4.051   1.424   2.836
 5545SOL    HW117534   4.083   1.488   2.906
 5545SOL    HW217535   3.979   1.468   2.782
 5546SOL     OW17536   0.897   6.183   4.643
 5546SOL    HW117537   0.802   6.193   4.613
 5546SOL    HW217538   0.905   6.210   4.739
 5547SOL     OW17539   3.986   1.723   5.642
 5547SOL    HW117540   3.909   1.787   5.651
 5547SOL    HW217541   3.953   1.630   5.661
 5548SOL     OW17542   6.786   4.115   5.568
 5548SOL    HW117543   6.740   4.060   5.638
 5548SOL    HW217544   6.832   4.192   5.612
 5549SOL     OW17545   3.987   3.158   1.403
 5549SOL    HW117546   4.004   3.098   1.481
 5549SOL    HW217547   4.075   3.191   1.367
 5550SOL     OW17548   2.360   4.386   3.216
 5550SOL    HW117549   2.321   4.468   3.175
 5550SOL    HW217550   2.436   4.411   3.275
 5551SOL     OW17551   1.407   5.524   2.660
 5551SOL    HW117552   1.336   5.475   2.609
 5551SOL    HW217553   1.390   5.622   2.655
 5552SOL     OW17554   6.405   6.845   5.930
 5552SOL    HW117555   6.320   6.898   5.934
 5552SOL    HW217556   6.457   6.859   6.014
 5553SOL     OW17557   4.492   0.215   6.889
 5553SOL    HW117558   4.523   0.190   6.981
 5553SOL    HW217559   4.451   0.306   6.891
 5554SOL     OW17560   4.707   3.183   1.682
 5554SOL    HW117561   4.731   3.275   1.712
 5554SOL    HW217562   4.673   3.130   1.760
 5555SOL     OW17563   0.833   3.967   2.361
 5555SOL    HW117564   0.908   3.906   2.387
 5555SOL    HW217565   0.850   4.058   2.397
 5556SOL     OW17566   6.384   1.163   4.122
 5556SOL    HW117567   6.314   1.116   4.177
 5556SOL    HW217568   6.473   1.152   4.166
 5557SOL     OW17569   3.485   5.715   2.018
 5557SOL    HW117570   3.408   5.715   2.082
 5557SOL    HW217571   3.500   5.808   1.984
 5558SOL     OW17572   3.806   3.922   0.600
 5558SOL    HW117573   3.852   4.010   0.587
 5558SOL    HW217574   3.747   3.928   0.680
 5559SOL     OW17575   1.168   0.274   2.736
 5559SOL    HW117576   1.075   0.266   2.773
 5559SOL    HW217577   1.163   0.303   2.641
 5560SOL     OW17578   0.215   5.735   2.081
 5560SOL    HW117579   0.263   5.673   2.019
 5560SOL    HW217580   0.241   5.829   2.060
 5561SOL     OW17581   2.728   0.294   5.048
 5561SOL    HW117582   2.783   0.230   5.102
 5561SOL    HW217583   2.653   0.246   5.003
 5562SOL     OW17584   4.339   4.256   0.079
 5562SOL    HW117585   4.422   4.223   0.123
 5562SOL    HW217586   4.352   4.349   0.047
 5563SOL     OW17587   2.940   5.406   2.906
 5563SOL    HW117588   2.979   5.497   2.889
 5563SOL    HW217589   2.942   5.387   3.004
 5564SOL     OW17590   4.969   6.788   6.802
 5564SOL    HW117591   4.928   6.843   6.875
 5564SOL    HW217592   5.056   6.829   6.774
 5565SOL     OW17593   4.244   3.030   6.710
 5565SOL    HW117594   4.250   3.098   6.784
 5565SOL    HW217595   4.149   2.999   6.702
 5566SOL     OW17596   2.233   4.548   0.369
 5566SOL    HW117597   2.236   4.471   0.305
 5566SOL    HW217598   2.316   4.547   0.425
 5567SOL     OW17599   0.885   3.838   1.962
 5567SOL    HW117600   0.838   3.911   2.012
 5567SOL    HW217601   0.896   3.759   2.022
 5568SOL     OW17602   4.559   0.586   3.401
 5568SOL    HW117603   4.607   0.674   3.402
 5568SOL    HW217604   4.492   0.584   3.475
 5569SOL     OW17605   2.133   1.896   3.138
 5569SOL    HW117606   2.101   1.918   3.046
 5569SOL    HW217607   2.220   1.942   3.156
 5570SOL     OW17608   6.454   3.337   3.250
 5570SOL    HW117609   6.387   3.274   3.211
 5570SOL    HW217610   6.525   3.356   3.182
 5571SOL     OW17611   6.706   5.308   1.939
 5571SOL    HW117612   6.726   5.288   2.035
 5571SOL    HW217613   6.705   5.408   1.926
 5572SOL     OW17614   1.905   3.915   4.769
 5572SOL    HW117615   1.812   3.882   4.787
 5572SOL    HW217616   1.910   4.013   4.788
 5573SOL     OW17617   1.509   5.402   5.282
 5573SOL    HW117618   1.560   5.379   5.365
 5573SOL    HW217619   1.532   5.338   5.210
 5574SOL     OW17620   0.418   3.162   0.142
 5574SOL    HW117621   0.337   3.107   0.164
 5574SOL    HW217622   0.500   3.107   0.155
 5575SOL     OW17623   7.027   0.100   0.637
 5575SOL    HW117624   6.985   0.133   0.721
 5575SOL    HW217625   6.957   0.082   0.568
 5576SOL     OW17626   1.480   3.945   2.682
 5576SOL    HW117627   1.571   3.947   2.723
 5576SOL    HW217628   1.425   4.022   2.717
 5577SOL     OW17629   2.208   2.690   0.213
 5577SOL    HW117630   2.301   2.719   0.187
 5577SOL    HW217631   2.176   2.747   0.288
 5578SOL     OW17632   3.572   4.093   2.126
 5578SOL    HW117633   3.569   4.149   2.043
 5578SOL    HW217634   3.486   4.105   2.176
 5579SOL     OW17635   0.751   3.885   1.485
 5579SOL    HW117636   0.667   3.830   1.476
 5579SOL    HW217637   0.762   3.943   1.404
 5580SOL     OW17638   4.154   2.047   6.035
 5580SOL    HW117639   4.120   2.052   5.940
 5580SOL    HW217640   4.095   1.986   6.088
 5581SOL     OW17641   1.556   0.916   1.440
 5581SOL    HW117642   1.489   0.847   1.412
 5581SOL    HW217643   1.544   0.936   1.537
 5582SOL     OW17644   2.786   3.993   6.810
 5582SOL    HW117645   2.799   3.990   6.909
 5582SOL    HW217646   2.875   4.002   6.765
 5583SOL     OW17647   3.969   0.930   2.815
 5583SOL    HW117648   3.983   1.018   2.860
 5583SOL    HW217649   3.955   0.944   2.717
 5584SOL     OW17650   6.252   3.563   4.503
 5584SOL    HW117651   6.242   3.649   4.552
 5584SOL    HW217652   6.339   3.520   4.526
 5585SOL     OW17653   5.102   5.439   3.252
 5585SOL    HW117654   5.052   5.409   3.333
 5585SOL    HW217655   5.094   5.371   3.180
 5586SOL     OW17656   0.275   3.903   5.824
 5586SOL    HW117657   0.198   3.841   5.836
 5586SOL    HW217658   0.318   3.920   5.912
 5587SOL     OW17659   4.396   0.316   0.960
 5587SOL    HW117660   4.372   0.343   1.053
 5587SOL    HW217661   4.314   0.283   0.913
 5588SOL     OW17662   2.289   6.112   2.870
 5588SOL    HW117663   2.345   6.080   2.794
 5588SOL    HW217664   2.347   6.126   2.950
 5589SOL     OW17665   6.168   4.298   6.565
 5589SOL    HW117666   6.193   4.213   6.518
 5589SOL    HW217667   6.105   4.277   6.640
 5590SOL     OW17668   6.671   6.720   3.557
 5590SOL    HW117669   6.633   6.654   3.492
 5590SOL    HW217670   6.640   6.697   3.649
 5591SOL     OW17671   6.979   2.222   1.622
 5591SOL    HW117672   6.982   2.137   1.674
 5591SOL    HW217673   6.984   2.202   1.524
 5592SOL     OW17674   2.285   5.806   4.178
 5592SOL    HW117675   2.365   5.763   4.136
 5592SOL    HW217676   2.220   5.736   4.208
 5593SOL     OW17677   6.746   3.033   6.649
 5593SOL    HW117678   6.770   3.125   6.620
 5593SOL    HW217679   6.756   3.025   6.748
 5594SOL     OW17680   5.086   0.863   4.997
 5594SOL    HW117681   5.154   0.928   5.032
 5594SOL    HW217682   5.021   0.912   4.939
 5595SOL     OW17683   0.938   1.471   4.699
 5595SOL    HW117684   0.875   1.547   4.717
 5595SOL    HW217685   0.950   1.460   4.601
 5596SOL     OW17686   4.077   6.401   2.907
 5596SOL    HW117687   4.061   6.399   3.006
 5596SOL    HW217688   4.147   6.469   2.886
 5597SOL     OW17689   5.025   2.423   4.116
 5597SOL    HW117690   5.082   2.379   4.047
 5597SOL    HW217691   5.026   2.522   4.103
 5598SOL     OW17692   5.542   3.606   4.831
 5598SOL    HW117693   5.467   3.662   4.797
 5598SOL    HW217694   5.539   3.516   4.787
 5599SOL     OW17695   1.189   1.293   4.292
 5599SOL    HW117696   1.125   1.217   4.293
 5599SOL    HW217697   1.178   1.345   4.208
 5600SOL     OW17698   0.831   1.052   1.864
 5600SOL    HW117699   0.860   1.110   1.940
 5600SOL    HW217700   0.738   1.075   1.837
 5601SOL     OW17701   2.541   0.718   5.771
 5601SOL    HW117702   2.499   0.638   5.814
 5601SOL    HW217703   2.536   0.796   5.833
 5602SOL     OW17704   6.490   1.681   0.423
 5602SOL    HW117705   6.396   1.692   0.392
 5602SOL    HW217706   6.550   1.742   0.372
 5603SOL     OW17707   5.825   2.265   6.563
 5603SOL    HW117708   5.819   2.209   6.480
 5603SOL    HW217709   5.746   2.326   6.568
 5604SOL     OW17710   6.494   2.410   5.010
 5604SOL    HW117711   6.429   2.336   5.026
 5604SOL    HW217712   6.584   2.385   5.045
 5605SOL     OW17713   0.777   0.418   4.847
 5605SOL    HW117714   0.754   0.473   4.767
 5605SOL    HW217715   0.696   0.366   4.876
 5606SOL     OW17716   4.797   6.843   0.727
 5606SOL    HW117717   4.761   6.824   0.636
 5606SOL    HW217718   4.830   6.758   0.768
 5607SOL     OW17719   5.594   0.138   2.545
 5607SOL    HW117720   5.586   0.147   2.644
 5607SOL    HW217721   5.613   0.227   2.505
 5608SOL     OW17722   4.910   0.251   5.291
 5608SOL    HW117723   4.864   0.325   5.340
 5608SOL    HW217724   4.999   0.283   5.258
 5609SOL     OW17725   2.641   5.141   1.108
 5609SOL    HW117726   2.680   5.196   1.182
 5609SOL    HW217727   2.710   5.078   1.072
 5610SOL     OW17728   4.499   6.563   0.914
 5610SOL    HW117729   4.460   6.500   0.847
 5610SOL    HW217730   4.586   6.527   0.948
 5611SOL     OW17731   0.835   5.617   2.628
 5611SOL    HW117732   0.864   5.527   2.660
 5611SOL    HW217733   0.783   5.608   2.543
 5612SOL     OW17734   3.757   1.631   6.822
 5612SOL    HW117735   3.743   1.694   6.745
 5612SOL    HW217736   3.827   1.669   6.884
 5613SOL     OW17737   5.530   3.738   3.670
 5613SOL    HW117738   5.528   3.652   3.618
 5613SOL    HW217739   5.624   3.768   3.681
 5614SOL     OW17740   4.760   2.810   4.444
 5614SOL    HW117741   4.805   2.862   4.372
 5614SOL    HW217742   4.747   2.867   4.524
 5615SOL     OW17743   0.544   1.336   4.860
 5615SOL    HW117744   0.477   1.405   4.834
 5615SOL    HW217745   0.599   1.311   4.780
 5616SOL     OW17746   2.258   1.657   4.800
 5616SOL    HW117747   2.208   1.632   4.883
 5616SOL    HW217748   2.201   1.638   4.720
 5617SOL     OW17749   2.751   0.087   6.565
 5617SOL    HW117750   2.761   0.146   6.645
 5617SOL    HW217751   2.832   0.030   6.556
 5618SOL     OW17752   6.687   4.149   4.123
 5618SOL    HW117753   6.781   4.179   4.106
 5618SOL    HW217754   6.625   4.201   4.065
 5619SOL     OW17755   2.929   3.694   5.989
 5619SOL    HW117756   2.978   3.661   6.070
 5619SOL    HW217757   2.848   3.745   6.018
 5620SOL     OW17758   3.722   3.191   0.678
 5620SOL    HW117759   3.806   3.243   0.661
 5620SOL    HW217760   3.742   3.114   0.738
 5621SOL     OW17761   0.948   2.646   5.842
 5621SOL    HW117762   0.961   2.604   5.752
 5621SOL    HW217763   0.975   2.743   5.837
 5622SOL     OW17764   4.792   0.208   5.981
 5622SOL    HW117765   4.766   0.182   5.888
 5622SOL    HW217766   4.852   0.288   5.977
 5623SOL     OW17767   2.028   5.822   6.136
 5623SOL    HW117768   1.948   5.880   6.150
 5623SOL    HW217769   2.100   5.848   6.200
 5624SOL     OW17770   1.054   4.583   3.259
 5624SOL    HW117771   1.054   4.512   3.189
 5624SOL    HW217772   0.983   4.562   3.327
 5625SOL     OW17773   6.248   1.763   4.373
 5625SOL    HW117774   6.247   1.862   4.363
 5625SOL    HW217775   6.339   1.733   4.403
 5626SOL     OW17776   2.751   6.394   4.728
 5626SOL    HW117777   2.740   6.329   4.653
 5626SOL    HW217778   2.758   6.487   4.692
 5627SOL     OW17779   1.212   5.782   6.936
 5627SOL    HW117780   1.232   5.684   6.933
 5627SOL    HW217781   1.120   5.798   6.900
 5628SOL     OW17782   1.458   2.674   6.114
 5628SOL    HW117783   1.510   2.707   6.192
 5628SOL    HW217784   1.375   2.729   6.103
 5629SOL     OW17785   3.217   3.788   2.161
 5629SOL    HW117786   3.144   3.816   2.224
 5629SOL    HW217787   3.200   3.827   2.071
 5630SOL     OW17788   1.831   5.248   0.449
 5630SOL    HW117789   1.893   5.314   0.406
 5630SOL    HW217790   1.877   5.159   0.455
 5631SOL     OW17791   4.592   1.856   6.949
 5631SOL    HW117792   4.625   1.790   6.881
 5631SOL    HW217793   4.555   1.936   6.902
 5632SOL     OW17794   3.815   2.524   5.625
 5632SOL    HW117795   3.846   2.601   5.682
 5632SOL    HW217796   3.794   2.558   5.533
 5633SOL     OW17797   5.893   2.979   4.200
 5633SOL    HW117798   5.843   3.064   4.185
 5633SOL    HW217799   5.830   2.909   4.235
 5634SOL     OW17800   2.283   5.887   5.415
 5634SOL    HW117801   2.370   5.846   5.386
 5634SOL    HW217802   2.207   5.831   5.382
 5635SOL     OW17803   2.224   3.724   5.178
 5635SOL    HW117804   2.308   3.777   5.166
 5635SOL    HW217805   2.187   3.741   5.270
 5636SOL     OW17806   3.197   6.916   3.001
 5636SOL    HW117807   3.242   7.002   2.977
 5636SOL    HW217808   3.101   6.919   2.973
 5637SOL     OW17809   5.259   6.517   3.517
 5637SOL    HW117810   5.174   6.514   3.464
 5637SOL    HW217811   5.237   6.525   3.614
 5638SOL     OW17812   5.248   3.996   0.988
 5638SOL    HW117813   5.220   3.907   0.954
 5638SOL    HW217814   5.262   3.992   1.087
 5639SOL     OW17815   0.665   0.424   0.013
 5639SOL    HW117816   0.699   0.334   7.018
 5639SOL    HW217817   0.666   0.485   6.966
 5640SOL     OW17818   2.758   1.092   3.915
 5640SOL    HW117819   2.687   1.046   3.969
 5640SOL    HW217820   2.848   1.070   3.952
 5641SOL     OW17821   0.588   5.107   5.183
 5641SOL    HW117822   0.657   5.172   5.214
 5641SOL    HW217823   0.539   5.071   5.262
 5642SOL     OW17824   2.225   6.834   6.884
 5642SOL    HW117825   2.287   6.886   6.943
 5642SOL    HW217826   2.254   6.845   6.789
 5643SOL     OW17827   4.574   1.249   4.746
 5643SOL    HW117828   4.514   1.227   4.669
 5643SOL    HW217829   4.611   1.341   4.734
 5644SOL     OW17830   3.187   0.173   5.394
 5644SOL    HW117831   3.156   0.207   5.483
 5644SOL    HW217832   3.172   0.244   5.324
 5645SOL     OW17833   6.651   4.119   3.726
 5645SOL    HW117834   6.720   4.056   3.689
 5645SOL    HW217835   6.576   4.128   3.660
 5646SOL     OW17836   1.772   5.105   2.984
 5646SOL    HW117837   1.820   5.152   2.910
 5646SOL    HW217838   1.756   5.169   3.059
 5647SOL     OW17839   4.935   6.450   1.302
 5647SOL    HW117840   4.852   6.454   1.248
 5647SOL    HW217841   5.013   6.431   1.243
 5648SOL     OW17842   1.704   5.844   3.049
 5648SOL    HW117843   1.736   5.938   3.036
 5648SOL    HW217844   1.775   5.791   3.096
 5649SOL     OW17845   1.136   6.483   3.986
 5649SOL    HW117846   1.079   6.410   3.947
 5649SOL    HW217847   1.224   6.444   4.014
 5650SOL     OW17848   1.339   4.597   1.087
 5650SOL    HW117849   1.366   4.674   1.029
 5650SOL    HW217850   1.303   4.632   1.174
 5651SOL     OW17851   1.622   0.779   0.305
 5651SOL    HW117852   1.555   0.854   0.305
 5651SOL    HW217853   1.589   0.706   0.246
 5652SOL     OW17854   0.064   5.533   1.568
 5652SOL    HW117855   0.030   5.616   1.612
 5652SOL    HW217856   0.106   5.556   1.480
 5653SOL     OW17857   0.640   5.852   0.103
 5653SOL    HW117858   0.677   5.768   0.144
 5653SOL    HW217859   0.622   5.837   0.006
 5654SOL     OW17860   1.303   5.267   4.281
 5654SOL    HW117861   1.373   5.205   4.315
 5654SOL    HW217862   1.335   5.362   4.290
 5655SOL     OW17863   6.985   2.540   3.273
 5655SOL    HW117864   0.044   2.503   3.258
 5655SOL    HW217865   6.917   2.467   3.267
 5656SOL     OW17866   6.842   4.062   5.945
 5656SOL    HW117867   6.781   4.140   5.931
 5656SOL    HW217868   6.933   4.084   5.911
 5657SOL     OW17869   4.656   4.353   4.979
 5657SOL    HW117870   4.720   4.357   4.902
 5657SOL    HW217871   4.611   4.264   4.979
 5658SOL     OW17872   3.292   3.196   6.119
 5658SOL    HW117873   3.211   3.252   6.137
 5658SOL    HW217874   3.295   3.120   6.183
 5659SOL     OW17875   3.688   3.664   6.217
 5659SOL    HW117876   3.594   3.631   6.220
 5659SOL    HW217877   3.712   3.685   6.122
 5660SOL     OW17878   4.749   0.306   6.585
 5660SOL    HW117879   4.671   0.312   6.648
 5660SOL    HW217880   4.735   0.229   6.523
 5661SOL     OW17881   1.241   5.218   5.728
 5661SOL    HW117882   1.151   5.231   5.687
 5661SOL    HW217883   1.258   5.120   5.742
 5662SOL     OW17884   2.357   7.011   2.262
 5662SOL    HW117885   2.434   6.981   2.205
 5662SOL    HW217886   2.382   7.003   2.358
 5663SOL     OW17887   1.338   2.414   0.525
 5663SOL    HW117888   1.358   2.509   0.547
 5663SOL    HW217889   1.330   2.361   0.610
 5664SOL     OW17890   5.735   4.064   4.857
 5664SOL    HW117891   5.758   3.969   4.836
 5664SOL    HW217892   5.666   4.096   4.793
 5665SOL     OW17893   1.279   5.530   6.947
 5665SOL    HW117894   1.214   5.456   6.965
 5665SOL    HW217895   1.301   5.532   6.849
 5666SOL     OW17896   6.007   0.685   3.583
 5666SOL    HW117897   5.996   0.779   3.550
 5666SOL    HW217898   6.098   0.675   3.625
 5667SOL     OW17899   1.951   5.196   4.765
 5667SOL    HW117900   1.936   5.268   4.696
 5667SOL    HW217901   1.894   5.117   4.743
 5668SOL     OW17902   6.226   2.574   3.089
 5668SOL    HW117903   6.275   2.635   3.150
 5668SOL    HW217904   6.128   2.575   3.111
 5669SOL     OW17905   6.600   5.247   0.209
 5669SOL    HW117906   6.576   5.161   0.256
 5669SOL    HW217907   6.663   5.299   0.267
 5670SOL     OW17908   1.749   3.040   3.453
 5670SOL    HW117909   1.829   3.069   3.506
 5670SOL    HW217910   1.744   3.092   3.368
 5671SOL     OW17911   6.350   5.741   5.193
 5671SOL    HW117912   6.262   5.767   5.154
 5671SOL    HW217913   6.344   5.647   5.228
 5672SOL     OW17914   4.859   3.847   5.228
 5672SOL    HW117915   4.811   3.773   5.181
 5672SOL    HW217916   4.882   3.918   5.161
 5673SOL     OW17917   1.073   6.852   1.440
 5673SOL    HW117918   1.109   6.836   1.348
 5673SOL    HW217919   1.098   6.944   1.471
 5674SOL     OW17920   2.401   5.042   4.588
 5674SOL    HW117921   2.327   4.982   4.558
 5674SOL    HW217922   2.366   5.108   4.654
 5675SOL     OW17923   3.718   1.787   0.191
 5675SOL    HW117924   3.774   1.758   0.269
 5675SOL    HW217925   3.655   1.713   0.166
 5676SOL     OW17926   2.831   1.852   1.864
 5676SOL    HW117927   2.803   1.760   1.837
 5676SOL    HW217928   2.893   1.846   1.943
 5677SOL     OW17929   6.696   0.578   0.177
 5677SOL    HW117930   6.748   0.613   0.100
 5677SOL    HW217931   6.645   0.496   0.149
 5678SOL     OW17932   3.832   1.296   1.942
 5678SOL    HW117933   3.804   1.200   1.938
 5678SOL    HW217934   3.823   1.337   1.851
 5679SOL     OW17935   5.879   2.070   4.993
 5679SOL    HW117936   5.933   2.153   5.011
 5679SOL    HW217937   5.941   1.995   4.970
 5680SOL     OW17938   1.880   4.986   6.031
 5680SOL    HW117939   1.844   4.947   5.946
 5680SOL    HW217940   1.913   4.911   6.089
 5681SOL     OW17941   0.141   4.179   2.698
 5681SOL    HW117942   0.071   4.110   2.679
 5681SOL    HW217943   0.231   4.142   2.675
 5682SOL     OW17944   2.550   5.755   3.373
 5682SOL    HW117945   2.461   5.751   3.419
 5682SOL    HW217946   2.608   5.681   3.407
 5683SOL     OW17947   4.216   2.554   6.211
 5683SOL    HW117948   4.193   2.559   6.308
 5683SOL    HW217949   4.268   2.470   6.194
 5684SOL     OW17950   2.319   3.770   6.310
 5684SOL    HW117951   2.241   3.822   6.276
 5684SOL    HW217952   2.377   3.741   6.233
 5685SOL     OW17953   1.637   2.230   3.395
 5685SOL    HW117954   1.691   2.262   3.472
 5685SOL    HW217955   1.677   2.263   3.310
 5686SOL     OW17956   3.259   0.850   5.026
 5686SOL    HW117957   3.297   0.942   5.013
 5686SOL    HW217958   3.185   0.834   4.961
 5687SOL     OW17959   0.237   6.284   6.212
 5687SOL    HW117960   0.175   6.206   6.209
 5687SOL    HW217961   0.321   6.258   6.260
 5688SOL     OW17962   2.150   2.901   3.529
 5688SOL    HW117963   2.113   2.971   3.590
 5688SOL    HW217964   2.075   2.860   3.476
 5689SOL     OW17965   2.358   0.146   1.842
 5689SOL    HW117966   2.338   0.048   1.845
 5689SOL    HW217967   2.336   0.188   1.930
 5690SOL     OW17968   1.121   4.934   6.637
 5690SOL    HW117969   1.179   4.971   6.709
 5690SOL    HW217970   1.079   4.849   6.668
 5691SOL     OW17971   3.697   1.182   2.662
 5691SOL    HW117972   3.651   1.247   2.601
 5691SOL    HW217973   3.776   1.142   2.615
 5692SOL     OW17974   4.464   4.663   0.902
 5692SOL    HW117975   4.476   4.723   0.982
 5692SOL    HW217976   4.542   4.673   0.841
 5693SOL     OW17977   4.303   0.356   1.233
 5693SOL    HW117978   4.241   0.279   1.221
 5693SOL    HW217979   4.293   0.394   1.325
 5694SOL     OW17980   0.462   6.828   2.190
 5694SOL    HW117981   0.448   6.743   2.242
 5694SOL    HW217982   0.376   6.879   2.186
 5695SOL     OW17983   1.069   0.675   2.761
 5695SOL    HW117984   0.994   0.667   2.695
 5695SOL    HW217985   1.055   0.756   2.818
 5696SOL     OW17986   1.758   0.477   3.965
 5696SOL    HW117987   1.684   0.410   3.972
 5696SOL    HW217988   1.846   0.432   3.983
 5697SOL     OW17989   6.101   2.167   1.975
 5697SOL    HW117990   6.104   2.116   1.889
 5697SOL    HW217991   6.100   2.103   2.052
 5698SOL     OW17992   1.743   3.499   3.888
 5698SOL    HW117993   1.840   3.504   3.867
 5698SOL    HW217994   1.718   3.576   3.948
 5699SOL     OW17995   1.785   2.284   2.599
 5699SOL    HW117996   1.864   2.285   2.538
 5699SOL    HW217997   1.807   2.232   2.682
 5700SOL     OW17998   6.718   0.350   2.593
 5700SOL    HW117999   6.632   0.318   2.634
 5700SOL    HW218000   6.791   0.284   2.612
 5701SOL     OW18001   6.968   1.077   0.956
 5701SOL    HW118002   6.871   1.054   0.941
 5701SOL    HW218003   6.997   1.146   0.891
 5702SOL     OW18004   1.558   6.455   4.397
 5702SOL    HW118005   1.485   6.391   4.375
 5702SOL    HW218006   1.550   6.483   4.493
 5703SOL     OW18007   6.898   4.487   6.666
 5703SOL    HW118008   6.918   4.398   6.624
 5703SOL    HW218009   6.929   4.485   6.761
 5704SOL     OW18010   5.087   4.215   3.786
 5704SOL    HW118011   5.104   4.177   3.877
 5704SOL    HW218012   5.131   4.304   3.778
 5705SOL     OW18013   6.166   5.720   6.863
 5705SOL    HW118014   6.081   5.748   6.906
 5705SOL    HW218015   6.159   5.624   6.835
 5706SOL     OW18016   5.394   2.878   1.235
 5706SOL    HW118017   5.376   2.934   1.316
 5706SOL    HW218018   5.483   2.902   1.196
 5707SOL     OW18019   5.430   0.287   1.433
 5707SOL    HW118020   5.476   0.273   1.521
 5707SOL    HW218021   5.403   0.384   1.425
 5708SOL     OW18022   4.905   6.224   2.805
 5708SOL    HW118023   4.921   6.154   2.875
 5708SOL    HW218024   4.868   6.306   2.848
 5709SOL     OW18025   7.013   0.899   2.263
 5709SOL    HW118026   0.038   0.876   2.183
 5709SOL    HW218027   6.938   0.834   2.271
 5710SOL     OW18028   2.926   2.516   1.142
 5710SOL    HW118029   2.995   2.463   1.093
 5710SOL    HW218030   2.871   2.568   1.076
 5711SOL     OW18031   4.986   0.886   1.675
 5711SOL    HW118032   4.926   0.860   1.750
 5711SOL    HW218033   4.935   0.941   1.609
 5712SOL     OW18034   6.269   6.247   0.754
 5712SOL    HW118035   6.268   6.186   0.833
 5712SOL    HW218036   6.180   6.294   0.747
 5713SOL     OW18037   2.764   5.081   0.600
 5713SOL    HW118038   2.729   5.117   0.686
 5713SOL    HW218039   2.731   4.988   0.587
 5714SOL     OW18040   6.606   6.536   1.496
 5714SOL    HW118041   6.590   6.453   1.549
 5714SOL    HW218042   6.613   6.513   1.399
 5715SOL     OW18043   0.573   6.987   1.090
 5715SOL    HW118044   0.600   6.923   1.018
 5715SOL    HW218045   0.652   7.009   1.147
 5716SOL     OW18046   0.640   5.298   6.536
 5716SOL    HW118047   0.696   5.237   6.592
 5716SOL    HW218048   0.669   5.393   6.551
 5717SOL     OW18049   2.234   5.036   2.333
 5717SOL    HW118050   2.301   5.052   2.406
 5717SOL    HW218051   2.259   5.089   2.252
 5718SOL     OW18052   0.727   3.063   0.611
 5718SOL    HW118053   0.664   3.128   0.568
 5718SOL    HW218054   0.716   2.973   0.569
 5719SOL     OW18055   2.832   3.665   1.190
 5719SOL    HW118056   2.880   3.607   1.124
 5719SOL    HW218057   2.865   3.644   1.282
 5720SOL     OW18058   1.942   6.504   5.130
 5720SOL    HW118059   1.976   6.556   5.208
 5720SOL    HW218060   1.946   6.406   5.150
 5721SOL     OW18061   5.642   4.127   0.995
 5721SOL    HW118062   5.703   4.202   0.971
 5721SOL    HW218063   5.617   4.075   0.913
 5722SOL     OW18064   0.200   1.836   4.882
 5722SOL    HW118065   0.248   1.771   4.823
 5722SOL    HW218066   0.126   1.879   4.831
 5723SOL     OW18067   3.680   3.383   6.887
 5723SOL    HW118068   3.708   3.446   6.815
 5723SOL    HW218069   3.690   3.427   6.976
 5724SOL     OW18070   6.387   2.343   3.113
 5724SOL    HW118071   6.480   2.381   3.107
 5724SOL    HW218072   6.321   2.414   3.090
 5725SOL     OW18073   5.961   5.361   3.180
 5725SOL    HW118074   5.880   5.410   3.212
 5725SOL    HW218075   6.041   5.394   3.230
 5726SOL     OW18076   5.770   4.594   3.786
 5726SOL    HW118077   5.719   4.575   3.870
 5726SOL    HW218078   5.789   4.508   3.739
 5727SOL     OW18079   0.328   2.410   4.549
 5727SOL    HW118080   0.338   2.311   4.555
 5727SOL    HW218081   0.406   2.454   4.594
 5728SOL     OW18082   4.790   5.884   5.189
 5728SOL    HW118083   4.823   5.797   5.226
 5728SOL    HW218084   4.750   5.938   5.263
 5729SOL     OW18085   1.281   1.991   6.200
 5729SOL    HW118086   1.291   2.089   6.212
 5729SOL    HW218087   1.229   1.953   6.276
 5730SOL     OW18088   6.666   4.259   5.930
 5730SOL    HW118089   6.582   4.264   5.985
 5730SOL    HW218090   6.666   4.333   5.863
 5731SOL     OW18091   6.392   0.055   1.567
 5731SOL    HW118092   6.300   0.091   1.546
 5731SOL    HW218093   6.461   0.114   1.526
 5732SOL     OW18094   1.364   6.363   4.102
 5732SOL    HW118095   1.461   6.341   4.097
 5732SOL    HW218096   1.330   6.345   4.194
 5733SOL     OW18097   4.307   6.485   5.230
 5733SOL    HW118098   4.331   6.581   5.243
 5733SOL    HW218099   4.390   6.430   5.219
 5734SOL     OW18100   1.417   6.575   4.964
 5734SOL    HW118101   1.406   6.671   4.990
 5734SOL    HW218102   1.336   6.545   4.913
 5735SOL     OW18103   2.776   1.460   2.203
 5735SOL    HW118104   2.681   1.481   2.228
 5735SOL    HW218105   2.795   1.496   2.112
 5736SOL     OW18106   0.750   4.611   6.545
 5736SOL    HW118107   0.745   4.512   6.544
 5736SOL    HW218108   0.674   4.649   6.598
 5737SOL     OW18109   5.829   6.127   6.796
 5737SOL    HW118110   5.773   6.182   6.857
 5737SOL    HW218111   5.923   6.160   6.798
 5738SOL     OW18112   1.925   3.395   6.789
 5738SOL    HW118113   1.893   3.454   6.863
 5738SOL    HW218114   1.892   3.302   6.804
 5739SOL     OW18115   1.858   0.975   6.790
 5739SOL    HW118116   1.828   0.880   6.784
 5739SOL    HW218117   1.787   1.034   6.752
 5740SOL     OW18118   4.389   6.026   0.169
 5740SOL    HW118119   4.299   6.060   0.143
 5740SOL    HW218120   4.410   6.051   0.263
 5741SOL     OW18121   6.681   6.009   4.348
 5741SOL    HW118122   6.658   5.919   4.385
 5741SOL    HW218123   6.771   6.006   4.305
 5742SOL     OW18124   6.053   6.722   2.453
 5742SOL    HW118125   6.002   6.805   2.428
 5742SOL    HW218126   6.060   6.716   2.552
 5743SOL     OW18127   2.393   6.919   5.173
 5743SOL    HW118128   2.467   6.852   5.178
 5743SOL    HW218129   2.432   7.011   5.178
 5744SOL     OW18130   4.946   1.707   0.299
 5744SOL    HW118131   5.020   1.664   0.248
 5744SOL    HW218132   4.858   1.673   0.265
 5745SOL     OW18133   1.762   1.611   4.478
 5745SOL    HW118134   1.798   1.637   4.388
 5745SOL    HW218135   1.667   1.640   4.485
 5746SOL     OW18136   5.440   1.491   6.926
 5746SOL    HW118137   5.353   1.442   6.933
 5746SOL    HW218138   5.443   1.563   6.996
 5747SOL     OW18139   0.418   5.197   2.212
 5747SOL    HW118140   0.510   5.217   2.245
 5747SOL    HW218141   0.363   5.162   2.288
 5748SOL     OW18142   2.441   4.826   1.902
 5748SOL    HW118143   2.499   4.745   1.910
 5748SOL    HW218144   2.350   4.799   1.868
 5749SOL     OW18145   2.089   1.510   3.775
 5749SOL    HW118146   2.106   1.590   3.718
 5749SOL    HW218147   2.174   1.458   3.787
 5750SOL     OW18148   5.939   4.831   4.631
 5750SOL    HW118149   5.971   4.768   4.561
 5750SOL    HW218150   5.840   4.845   4.621
 5751SOL     OW18151   2.207   3.306   5.104
 5751SOL    HW118152   2.191   3.265   5.195
 5751SOL    HW218153   2.252   3.239   5.046
 5752SOL     OW18154   6.700   6.805   6.045
 5752SOL    HW118155   6.643   6.761   5.976
 5752SOL    HW218156   6.796   6.778   6.031
 5753SOL     OW18157   3.501   2.996   6.767
 5753SOL    HW118158   3.564   3.022   6.840
 5753SOL    HW218159   3.530   2.909   6.727
 5754SOL     OW18160   5.927   5.468   1.980
 5754SOL    HW118161   5.852   5.472   2.046
 5754SOL    HW218162   5.985   5.389   2.000
 5755SOL     OW18163   3.362   3.526   6.944
 5755SOL    HW118164   3.387   3.489   6.854
 5755SOL    HW218165   3.290   3.470   6.984
 5756SOL     OW18166   6.513   5.321   3.559
 5756SOL    HW118167   6.528   5.363   3.649
 5756SOL    HW218168   6.552   5.229   3.558
 5757SOL     OW18169   6.403   5.621   1.453
 5757SOL    HW118170   6.371   5.627   1.359
 5757SOL    HW218171   6.357   5.546   1.500
 5758SOL     OW18172   2.375   2.202   4.862
 5758SOL    HW118173   2.382   2.103   4.874
 5758SOL    HW218174   2.466   2.241   4.852
 5759SOL     OW18175   5.084   2.110   6.201
 5759SOL    HW118176   5.168   2.164   6.201
 5759SOL    HW218177   5.049   2.103   6.107
 5760SOL     OW18178   1.578   5.330   2.387
 5760SOL    HW118179   1.500   5.393   2.392
 5760SOL    HW218180   1.611   5.326   2.293
 5761SOL     OW18181   4.863   6.976   4.795
 5761SOL    HW118182   4.910   0.030   4.774
 5761SOL    HW218183   4.850   6.923   4.711
 5762SOL     OW18184   5.479   6.651   1.114
 5762SOL    HW118185   5.570   6.692   1.120
 5762SOL    HW218186   5.440   6.669   1.024
 5763SOL     OW18187   1.325   0.483   0.417
 5763SOL    HW118188   1.422   0.461   0.402
 5763SOL    HW218189   1.273   0.398   0.425
 5764SOL     OW18190   5.842   4.391   5.542
 5764SOL    HW118191   5.818   4.378   5.639
 5764SOL    HW218192   5.924   4.338   5.521
 5765SOL     OW18193   6.700   4.280   6.843
 5765SOL    HW118194   6.653   4.289   6.756
 5765SOL    HW218195   6.714   4.183   6.864
 5766SOL     OW18196   3.048   1.793   2.012
 5766SOL    HW118197   3.075   1.697   2.006
 5766SOL    HW218198   3.117   1.843   2.065
 5767SOL     OW18199   0.451   6.120   0.824
 5767SOL    HW118200   0.358   6.091   0.847
 5767SOL    HW218201   0.506   6.040   0.799
 5768SOL     OW18202   6.817   0.971   2.721
 5768SOL    HW118203   6.747   0.900   2.730
 5768SOL    HW218204   6.785   1.054   2.767
 5769SOL     OW18205   2.925   6.276   3.803
 5769SOL    HW118206   2.915   6.341   3.727
 5769SOL    HW218207   3.001   6.215   3.784
 5770SOL     OW18208   6.722   6.740   1.070
 5770SOL    HW118209   6.748   6.808   1.138
 5770SOL    HW218210   6.804   6.695   1.034
 5771SOL     OW18211   1.361   0.585   1.024
 5771SOL    HW118212   1.278   0.617   1.070
 5771SOL    HW218213   1.378   0.640   0.942
 5772SOL     OW18214   5.875   3.389   0.162
 5772SOL    HW118215   5.842   3.376   0.255
 5772SOL    HW218216   5.868   3.303   0.111
 5773SOL     OW18217   5.509   6.446   3.772
 5773SOL    HW118218   5.589   6.387   3.777
 5773SOL    HW218219   5.518   6.508   3.694
 5774SOL     OW18220   2.283   4.767   3.574
 5774SOL    HW118221   2.240   4.692   3.625
 5774SOL    HW218222   2.293   4.847   3.635
 5775SOL     OW18223   6.654   6.857   6.522
 5775SOL    HW118224   6.689   6.947   6.549
 5775SOL    HW218225   6.612   6.864   6.431
 5776SOL     OW18226   5.342   0.621   6.180
 5776SOL    HW118227   5.288   0.660   6.104
 5776SOL    HW218228   5.413   0.561   6.143
 5777SOL     OW18229   6.578   1.626   4.174
 5777SOL    HW118230   6.517   1.606   4.251
 5777SOL    HW218231   6.574   1.550   4.109
 5778SOL     OW18232   1.238   6.311   2.974
 5778SOL    HW118233   1.214   6.287   3.068
 5778SOL    HW218234   1.269   6.406   2.970
 5779SOL     OW18235   3.920   1.214   1.127
 5779SOL    HW118236   3.986   1.198   1.200
 5779SOL    HW218237   3.829   1.186   1.157
 5780SOL     OW18238   0.245   3.995   1.343
 5780SOL    HW118239   0.271   4.090   1.363
 5780SOL    HW218240   0.200   3.955   1.422
 5781SOL     OW18241   2.125   4.489   5.226
 5781SOL    HW118242   2.213   4.443   5.219
 5781SOL    HW218243   2.140   4.588   5.224
 5782SOL     OW18244   2.024   0.921   1.517
 5782SOL    HW118245   1.959   0.907   1.443
 5782SOL    HW218246   1.977   0.958   1.597
 5783SOL     OW18247   1.512   0.341   1.085
 5783SOL    HW118248   1.467   0.420   1.044
 5783SOL    HW218249   1.599   0.324   1.039
 5784SOL     OW18250   0.868   6.002   0.019
 5784SOL    HW118251   0.792   5.957   0.066
 5784SOL    HW218252   0.917   5.935   6.995
 5785SOL     OW18253   1.791   1.657   0.229
 5785SOL    HW118254   1.742   1.582   0.273
 5785SOL    HW218255   1.887   1.632   0.217
 5786SOL     OW18256   1.646   3.130   1.745
 5786SOL    HW118257   1.679   3.042   1.708
 5786SOL    HW218258   1.628   3.193   1.669
 5787SOL     OW18259   6.110   2.390   4.974
 5787SOL    HW118260   6.109   2.396   4.874
 5787SOL    HW218261   6.165   2.311   5.002
 5788SOL     OW18262   3.253   1.036   2.321
 5788SOL    HW118263   3.276   1.133   2.311
 5788SOL    HW218264   3.197   1.024   2.403
 5789SOL     OW18265   4.560   4.172   0.212
 5789SOL    HW118266   4.592   4.141   0.302
 5789SOL    HW218267   4.614   4.250   0.182
 5790SOL     OW18268   5.569   5.555   4.719
 5790SOL    HW118269   5.633   5.550   4.796
 5790SOL    HW218270   5.620   5.564   4.633
 5791SOL     OW18271   3.627   1.265   2.954
 5791SOL    HW118272   3.702   1.274   3.020
 5791SOL    HW218273   3.652   1.198   2.884
 5792SOL     OW18274   4.824   3.991   2.676
 5792SOL    HW118275   4.780   3.941   2.601
 5792SOL    HW218276   4.911   4.027   2.645
 5793SOL     OW18277   5.419   2.137   5.083
 5793SOL    HW118278   5.488   2.117   5.013
 5793SOL    HW218279   5.330   2.106   5.051
 5794SOL     OW18280   3.152   6.379   6.257
 5794SOL    HW118281   3.133   6.358   6.161
 5794SOL    HW218282   3.225   6.448   6.262
 5795SOL     OW18283   1.038   4.895   2.051
 5795SOL    HW118284   0.950   4.858   2.022
 5795SOL    HW218285   1.026   4.988   2.085
 5796SOL     OW18286   4.229   1.684   6.376
 5796SOL    HW118287   4.310   1.731   6.411
 5796SOL    HW218288   4.152   1.701   6.437
 5797SOL     OW18289   5.394   2.591   0.288
 5797SOL    HW118290   5.402   2.543   0.376
 5797SOL    HW218291   5.303   2.577   0.250
 5798SOL     OW18292   1.752   4.160   5.212
 5798SOL    HW118293   1.761   4.076   5.159
 5798SOL    HW218294   1.843   4.192   5.240
 5799SOL     OW18295   1.119   6.291   3.203
 5799SOL    HW118296   1.137   6.221   3.271
 5799SOL    HW218297   1.089   6.375   3.249
 5800SOL     OW18298   0.610   6.798   0.903
 5800SOL    HW118299   0.561   6.857   0.839
 5800SOL    HW218300   0.574   6.705   0.897
 5801SOL     OW18301   2.283   2.526   2.429
 5801SOL    HW118302   2.211   2.591   2.408
 5801SOL    HW218303   2.253   2.434   2.404
 5802SOL     OW18304   0.152   1.413   2.004
 5802SOL    HW118305   0.097   1.336   2.036
 5802SOL    HW218306   0.243   1.410   2.045
 5803SOL     OW18307   1.043   5.151   4.222
 5803SOL    HW118308   1.135   5.190   4.227
 5803SOL    HW218309   1.050   5.055   4.194
 5804SOL     OW18310   5.918   0.279   3.497
 5804SOL    HW118311   5.946   0.279   3.593
 5804SOL    HW218312   5.823   0.309   3.490
 5805SOL     OW18313   2.167   3.178   0.966
 5805SOL    HW118314   2.219   3.262   0.978
 5805SOL    HW218315   2.202   3.108   1.027
 5806SOL     OW18316   0.465   3.393   3.050
 5806SOL    HW118317   0.440   3.340   3.130
 5806SOL    HW218318   0.510   3.334   2.983
 5807SOL     OW18319   1.079   6.823   0.673
 5807SOL    HW118320   1.028   6.804   0.757
 5807SOL    HW218321   1.076   6.742   0.614
 5808SOL     OW18322   5.653   0.666   4.894
 5808SOL    HW118323   5.743   0.682   4.935
 5808SOL    HW218324   5.582   0.682   4.962
 5809SOL     OW18325   0.648   2.354   5.877
 5809SOL    HW118326   0.673   2.442   5.915
 5809SOL    HW218327   0.595   2.302   5.944
 5810SOL     OW18328   3.798   0.031   5.436
 5810SOL    HW118329   3.715   0.084   5.417
 5810SOL    HW218330   3.842   0.006   5.350
 5811SOL     OW18331   2.778   3.450   5.653
 5811SOL    HW118332   2.844   3.506   5.703
 5811SOL    HW218333   2.815   3.357   5.642
 5812SOL     OW18334   5.770   2.989   0.639
 5812SOL    HW118335   5.774   3.002   0.738
 5812SOL    HW218336   5.777   2.892   0.618
 5813SOL     OW18337   4.166   6.619   1.766
 5813SOL    HW118338   4.260   6.654   1.763
 5813SOL    HW218339   4.127   6.623   1.674
 5814SOL     OW18340   5.250   1.821   1.860
 5814SOL    HW118341   5.164   1.785   1.899
 5814SOL    HW218342   5.308   1.855   1.934
 5815SOL     OW18343   6.422   1.633   3.685
 5815SOL    HW118344   6.383   1.546   3.717
 5815SOL    HW218345   6.351   1.684   3.636
 5816SOL     OW18346   6.840   3.994   2.942
 5816SOL    HW118347   6.814   4.082   2.981
 5816SOL    HW218348   6.820   3.921   3.008
 5817SOL     OW18349   5.481   4.777   3.349
 5817SOL    HW118350   5.516   4.782   3.443
 5817SOL    HW218351   5.416   4.853   3.334
 5818SOL     OW18352   2.085   0.432   5.598
 5818SOL    HW118353   2.080   0.416   5.499
 5818SOL    HW218354   2.149   0.506   5.617
 5819SOL     OW18355   4.335   5.236   0.024
 5819SOL    HW118356   4.277   5.158   0.048
 5819SOL    HW218357   4.278   5.308   7.014
 5820SOL     OW18358   5.999   4.965   2.413
 5820SOL    HW118359   5.961   4.953   2.322
 5820SOL    HW218360   5.934   4.931   2.481
 5821SOL     OW18361   6.368   0.792   1.284
 5821SOL    HW118362   6.301   0.718   1.293
 5821SOL    HW218363   6.322   0.876   1.255
 5822SOL     OW18364   1.946   3.218   2.621
 5822SOL    HW118365   1.855   3.192   2.590
 5822SOL    HW218366   1.999   3.252   2.543
 5823SOL     OW18367   1.868   6.527   3.768
 5823SOL    HW118368   1.942   6.483   3.819
 5823SOL    HW218369   1.787   6.469   3.771
 5824SOL     OW18370   0.766   0.357   1.629
 5824SOL    HW118371   0.671   0.328   1.620
 5824SOL    HW218372   0.820   0.281   1.665
 5825SOL     OW18373   6.228   0.350   4.416
 5825SOL    HW118374   6.253   0.383   4.325
 5825SOL    HW218375   6.214   0.428   4.477
 5826SOL     OW18376   0.515   6.738   4.868
 5826SOL    HW118377   0.439   6.762   4.929
 5826SOL    HW218378   0.507   6.791   4.783
 5827SOL     OW18379   1.987   4.711   5.473
 5827SOL    HW118380   2.052   4.643   5.508
 5827SOL    HW218381   1.912   4.665   5.426
 5828SOL     OW18382   4.258   0.066   4.753
 5828SOL    HW118383   4.339   0.113   4.788
 5828SOL    HW218384   4.209   0.023   4.829
 5829SOL     OW18385   2.533   1.100   3.527
 5829SOL    HW118386   2.595   1.127   3.601
 5829SOL    HW218387   2.552   1.005   3.501
 5830SOL     OW18388   4.096   5.520   5.143
 5830SOL    HW118389   4.187   5.549   5.174
 5830SOL    HW218390   4.068   5.439   5.194
 5831SOL     OW18391   1.693   1.402   5.242
 5831SOL    HW118392   1.790   1.386   5.261
 5831SOL    HW218393   1.680   1.498   5.217
 5832SOL     OW18394   3.180   5.063   0.917
 5832SOL    HW118395   3.088   5.100   0.901
 5832SOL    HW218396   3.191   4.978   0.866
 5833SOL     OW18397   4.429   3.512   6.157
 5833SOL    HW118398   4.420   3.571   6.076
 5833SOL    HW218399   4.354   3.531   6.221
 5834SOL     OW18400   5.812   3.691   6.961
 5834SOL    HW118401   5.857   3.606   6.937
 5834SOL    HW218402   5.795   3.745   6.878
 5835SOL     OW18403   5.157   1.014   2.723
 5835SOL    HW118404   5.109   0.988   2.638
 5835SOL    HW218405   5.237   1.069   2.700
 5836SOL     OW18406   4.178   6.976   2.487
 5836SOL    HW118407   4.087   7.007   2.462
 5836SOL    HW218408   4.231   6.956   2.405
 5837SOL     OW18409   3.428   3.981   6.810
 5837SOL    HW118410   3.371   4.059   6.783
 5837SOL    HW218411   3.419   3.966   6.909
 5838SOL     OW18412   3.193   1.645   0.847
 5838SOL    HW118413   3.227   1.613   0.935
 5838SOL    HW218414   3.176   1.743   0.852
 5839SOL     OW18415   1.335   1.905   1.206
 5839SOL    HW118416   1.314   1.932   1.112
 5839SOL    HW218417   1.251   1.905   1.260
 5840SOL     OW18418   0.854   3.653   2.648
 5840SOL    HW118419   0.763   3.680   2.679
 5840SOL    HW218420   0.876   3.562   2.685
 5841SOL     OW18421   5.663   1.825   0.507
 5841SOL    HW118422   5.603   1.885   0.561
 5841SOL    HW218423   5.609   1.780   0.436
 5842SOL     OW18424   3.316   1.714   0.595
 5842SOL    HW118425   3.252   1.696   0.670
 5842SOL    HW218426   3.278   1.786   0.536
 5843SOL     OW18427   1.777   3.005   1.054
 5843SOL    HW118428   1.813   3.064   0.982
 5843SOL    HW218429   1.678   3.014   1.058
 5844SOL     OW18430   0.777   0.713   4.987
 5844SOL    HW118431   0.776   0.613   4.984
 5844SOL    HW218432   0.870   0.747   4.977
 5845SOL     OW18433   1.139   5.924   1.733
 5845SOL    HW118434   1.142   6.023   1.723
 5845SOL    HW218435   1.218   5.883   1.687
 5846SOL     OW18436   6.316   3.903   5.601
 5846SOL    HW118437   6.257   3.884   5.680
 5846SOL    HW218438   6.293   3.992   5.563
 5847SOL     OW18439   2.931   3.278   0.637
 5847SOL    HW118440   3.026   3.250   0.653
 5847SOL    HW218441   2.899   3.332   0.714
 5848SOL     OW18442   2.174   5.875   3.401
 5848SOL    HW118443   2.244   5.842   3.465
 5848SOL    HW218444   2.191   5.838   3.310
 5849SOL     OW18445   2.688   6.042   5.708
 5849SOL    HW118446   2.773   6.009   5.669
 5849SOL    HW218447   2.626   6.071   5.635
 5850SOL     OW18448   0.857   1.708   1.373
 5850SOL    HW118449   0.774   1.751   1.409
 5850SOL    HW218450   0.886   1.635   1.434
 5851SOL     OW18451   5.650   2.904   4.770
 5851SOL    HW118452   5.632   2.900   4.671
 5851SOL    HW218453   5.738   2.950   4.785
 5852SOL     OW18454   5.361   5.207   3.020
 5852SOL    HW118455   5.289   5.143   2.995
 5852SOL    HW218456   5.363   5.283   2.955
 5853SOL     OW18457   3.745   4.687   5.442
 5853SOL    HW118458   3.795   4.771   5.461
 5853SOL    HW218459   3.647   4.703   5.456
 5854SOL     OW18460   2.730   4.925   5.963
 5854SOL    HW118461   2.659   4.876   6.014
 5854SOL    HW218462   2.807   4.863   5.947
 5855SOL     OW18463   1.992   2.534   3.894
 5855SOL    HW118464   2.057   2.526   3.819
 5855SOL    HW218465   2.027   2.485   3.974
 5856SOL     OW18466   1.449   0.165   3.055
 5856SOL    HW118467   1.488   0.174   2.963
 5856SOL    HW218468   1.403   0.076   3.063
 5857SOL     OW18469   0.059   4.368   6.259
 5857SOL    HW118470   0.059   4.282   6.311
 5857SOL    HW218471   7.003   4.378   6.212
 5858SOL     OW18472   1.864   0.798   3.287
 5858SOL    HW118473   1.814   0.880   3.316
 5858SOL    HW218474   1.913   0.818   3.202
 5859SOL     OW18475   6.051   7.008   2.212
 5859SOL    HW118476   6.001   7.003   2.299
 5859SOL    HW218477   6.101   6.924   2.197
 5860SOL     OW18478   0.243   3.114   4.048
 5860SOL    HW118479   0.187   3.043   4.006
 5860SOL    HW218480   0.339   3.085   4.047
 5861SOL     OW18481   4.767   0.931   5.108
 5861SOL    HW118482   4.821   0.960   5.187
 5861SOL    HW218483   4.753   1.009   5.047
 5862SOL     OW18484   6.662   5.079   3.522
 5862SOL    HW118485   6.699   5.157   3.471
 5862SOL    HW218486   6.737   5.019   3.550
 5863SOL     OW18487   3.796   0.272   5.598
 5863SOL    HW118488   3.731   0.308   5.532
 5863SOL    HW218489   3.811   0.174   5.580
 5864SOL     OW18490   2.888   3.486   2.607
 5864SOL    HW118491   2.849   3.425   2.537
 5864SOL    HW218492   2.912   3.573   2.565
 5865SOL     OW18493   5.852   1.194   5.246
 5865SOL    HW118494   5.781   1.265   5.254
 5865SOL    HW218495   5.927   1.229   5.190
 5866SOL     OW18496   3.928   3.012   2.586
 5866SOL    HW118497   3.969   2.988   2.674
 5866SOL    HW218498   3.838   2.969   2.579
 5867SOL     OW18499   2.358   2.393   1.828
 5867SOL    HW118500   2.308   2.377   1.743
 5867SOL    HW218501   2.399   2.307   1.860
 5868SOL     OW18502   0.672   1.490   6.126
 5868SOL    HW118503   0.593   1.547   6.150
 5868SOL    HW218504   0.641   1.398   6.102
 5869SOL     OW18505   1.358   4.900   4.618
 5869SOL    HW118506   1.398   4.975   4.567
 5869SOL    HW218507   1.401   4.893   4.708
 5870SOL     OW18508   4.364   4.797   4.926
 5870SOL    HW118509   4.287   4.840   4.971
 5870SOL    HW218510   4.352   4.697   4.928
 5871SOL     OW18511   3.479   3.476   3.116
 5871SOL    HW118512   3.434   3.462   3.028
 5871SOL    HW218513   3.559   3.534   3.104
 5872SOL     OW18514   3.608   6.502   2.450
 5872SOL    HW118515   3.560   6.439   2.511
 5872SOL    HW218516   3.588   6.477   2.355
 5873SOL     OW18517   3.884   4.908   2.543
 5873SOL    HW118518   3.879   4.997   2.497
 5873SOL    HW218519   3.956   4.853   2.502
 5874SOL     OW18520   2.418   4.680   5.729
 5874SOL    HW118521   2.332   4.640   5.762
 5874SOL    HW218522   2.483   4.607   5.708
 5875SOL     OW18523   3.460   1.088   0.277
 5875SOL    HW118524   3.469   1.055   0.371
 5875SOL    HW218525   3.364   1.088   0.250
 5876SOL     OW18526   3.674   3.367   2.368
 5876SOL    HW118527   3.690   3.395   2.274
 5876SOL    HW218528   3.761   3.343   2.412
 5877SOL     OW18529   5.986   5.337   1.333
 5877SOL    HW118530   5.942   5.362   1.419
 5877SOL    HW218531   6.005   5.239   1.333
 5878SOL     OW18532   2.294   4.636   2.766
 5878SOL    HW118533   2.244   4.552   2.744
 5878SOL    HW218534   2.229   4.711   2.778
 5879SOL     OW18535   0.367   4.151   0.091
 5879SOL    HW118536   0.345   4.142   0.188
 5879SOL    HW218537   0.462   4.178   0.080
 5880SOL     OW18538   2.448   6.367   1.661
 5880SOL    HW118539   2.386   6.292   1.639
 5880SOL    HW218540   2.497   6.395   1.578
 5881SOL     OW18541   0.582   4.862   3.526
 5881SOL    HW118542   0.511   4.931   3.510
 5881SOL    HW218543   0.556   4.805   3.604
 5882SOL     OW18544   5.061   0.507   1.127
 5882SOL    HW118545   5.076   0.466   1.217
 5882SOL    HW218546   5.037   0.436   1.061
 5883SOL     OW18547   6.521   2.879   6.786
 5883SOL    HW118548   6.579   2.908   6.862
 5883SOL    HW218549   6.432   2.924   6.793
 5884SOL     OW18550   0.855   1.255   2.906
 5884SOL    HW118551   0.833   1.272   3.002
 5884SOL    HW218552   0.941   1.301   2.883
 5885SOL     OW18553   6.175   6.190   1.513
 5885SOL    HW118554   6.083   6.169   1.479
 5885SOL    HW218555   6.242   6.172   1.441
 5886SOL     OW18556   0.644   2.160   5.405
 5886SOL    HW118557   0.611   2.192   5.494
 5886SOL    HW218558   0.633   2.232   5.337
 5887SOL     OW18559   3.113   1.074   4.242
 5887SOL    HW118560   3.126   1.132   4.322
 5887SOL    HW218561   3.192   1.015   4.231
 5888SOL     OW18562   2.076   6.302   3.562
 5888SOL    HW118563   2.117   6.392   3.555
 5888SOL    HW218564   1.977   6.309   3.547
 5889SOL     OW18565   2.403   0.432   0.977
 5889SOL    HW118566   2.411   0.528   1.005
 5889SOL    HW218567   2.474   0.411   0.910
 5890SOL     OW18568   2.131   6.122   5.396
 5890SOL    HW118569   2.189   6.043   5.414
 5890SOL    HW218570   2.071   6.138   5.475
 5891SOL     OW18571   3.742   2.782   0.018
 5891SOL    HW118572   3.704   2.701   7.005
 5891SOL    HW218573   3.721   2.779   0.116
 5892SOL     OW18574   0.649   6.670   1.206
 5892SOL    HW118575   0.681   6.745   1.264
 5892SOL    HW218576   0.568   6.701   1.155
 5893SOL     OW18577   1.406   2.374   3.614
 5893SOL    HW118578   1.456   2.437   3.673
 5893SOL    HW218579   1.468   2.305   3.578
 5894SOL     OW18580   1.299   3.840   3.442
 5894SOL    HW118581   1.214   3.892   3.436
 5894SOL    HW218582   1.374   3.901   3.467
 5895SOL     OW18583   5.110   3.053   4.862
 5895SOL    HW118584   5.113   3.061   4.962
 5895SOL    HW218585   5.025   3.093   4.828
 5896SOL     OW18586   3.759   2.218   6.783
 5896SOL    HW118587   3.724   2.283   6.715
 5896SOL    HW218588   3.855   2.240   6.803
 5897SOL     OW18589   3.995   1.314   0.600
 5897SOL    HW118590   3.983   1.293   0.697
 5897SOL    HW218591   4.039   1.403   0.590
 5898SOL     OW18592   1.974   0.099   2.116
 5898SOL    HW118593   1.971   0.011   2.068
 5898SOL    HW218594   1.984   0.172   2.049
 5899SOL     OW18595   5.674   0.059   4.815
 5899SOL    HW118596   5.601   0.108   4.768
 5899SOL    HW218597   5.720   7.028   4.751
 5900SOL     OW18598   5.124   5.005   2.975
 5900SOL    HW118599   5.148   4.909   2.991
 5900SOL    HW218600   5.042   5.010   2.918
 5901SOL     OW18601   2.276   6.365   6.780
 5901SOL    HW118602   2.344   6.424   6.735
 5901SOL    HW218603   2.191   6.415   6.792
 5902SOL     OW18604   0.214   2.735   0.322
 5902SOL    HW118605   0.262   2.767   0.404
 5902SOL    HW218606   0.115   2.742   0.338
 5903SOL     OW18607   6.055   4.435   0.264
 5903SOL    HW118608   6.150   4.411   0.244
 5903SOL    HW218609   6.024   4.505   0.200
 5904SOL     OW18610   0.236   3.552   2.296
 5904SOL    HW118611   0.281   3.479   2.349
 5904SOL    HW218612   0.242   3.638   2.347
 5905SOL     OW18613   6.841   6.253   2.591
 5905SOL    HW118614   6.802   6.223   2.678
 5905SOL    HW218615   6.938   6.273   2.603
 5906SOL     OW18616   5.829   1.093   3.729
 5906SOL    HW118617   5.779   1.179   3.721
 5906SOL    HW218618   5.859   1.062   3.639
 5907SOL     OW18619   0.618   6.465   1.402
 5907SOL    HW118620   0.550   6.496   1.468
 5907SOL    HW218621   0.668   6.544   1.366
 5908SOL     OW18622   0.447   2.508   4.941
 5908SOL    HW118623   0.481   2.596   4.908
 5908SOL    HW218624   0.519   2.439   4.934
 5909SOL     OW18625   0.776   5.970   0.564
 5909SOL    HW118626   0.873   5.989   0.579
 5909SOL    HW218627   0.735   6.046   0.512
 5910SOL     OW18628   1.627   2.038   3.129
 5910SOL    HW118629   1.710   2.005   3.172
 5910SOL    HW218630   1.649   2.112   3.065
 5911SOL     OW18631   6.392   5.501   6.957
 5911SOL    HW118632   6.433   5.413   6.980
 5911SOL    HW218633   6.460   5.558   6.911
 5912SOL     OW18634   6.654   1.740   5.281
 5912SOL    HW118635   6.602   1.797   5.217
 5912SOL    HW218636   6.611   1.650   5.287
 5913SOL     OW18637   5.279   3.077   0.596
 5913SOL    HW118638   5.275   3.141   0.672
 5913SOL    HW218639   5.278   3.128   0.510
 5914SOL     OW18640   1.245   6.622   6.316
 5914SOL    HW118641   1.260   6.545   6.378
 5914SOL    HW218642   1.152   6.655   6.327
 5915SOL     OW18643   3.708   6.826   0.333
 5915SOL    HW118644   3.702   6.925   0.345
 5915SOL    HW218645   3.617   6.789   0.316
 5916SOL     OW18646   1.356   6.831   1.766
 5916SOL    HW118647   1.368   6.930   1.772
 5916SOL    HW218648   1.266   6.807   1.804
 5917SOL     OW18649   3.062   4.472   6.541
 5917SOL    HW118650   2.967   4.451   6.518
 5917SOL    HW218651   3.105   4.392   6.582
 5918SOL     OW18652   2.915   6.212   6.062
 5918SOL    HW118653   2.937   6.259   5.976
 5918SOL    HW218654   2.829   6.163   6.052
 5919SOL     OW18655   3.554   3.230   3.456
 5919SOL    HW118656   3.474   3.216   3.515
 5919SOL    HW218657   3.526   3.220   3.360
 5920SOL     OW18658   6.032   0.230   6.044
 5920SOL    HW118659   5.962   0.233   5.973
 5920SOL    HW218660   6.029   0.142   6.090
 5921SOL     OW18661   3.585   5.032   6.452
 5921SOL    HW118662   3.485   5.031   6.443
 5921SOL    HW218663   3.624   4.956   6.399
 5922SOL     OW18664   6.276   3.674   3.053
 5922SOL    HW118665   6.362   3.689   3.103
 5922SOL    HW218666   6.206   3.737   3.089
 5923SOL     OW18667   6.244   1.182   1.557
 5923SOL    HW118668   6.289   1.093   1.560
 5923SOL    HW218669   6.145   1.170   1.546
 5924SOL     OW18670   5.290   0.233   2.761
 5924SOL    HW118671   5.341   0.319   2.751
 5924SOL    HW218672   5.253   0.206   2.672
 5925SOL     OW18673   4.423   5.374   1.250
 5925SOL    HW118674   4.367   5.456   1.258
 5925SOL    HW218675   4.463   5.353   1.340
 5926SOL     OW18676   4.078   4.754   3.208
 5926SOL    HW118677   4.091   4.783   3.302
 5926SOL    HW218678   3.988   4.784   3.176
 5927SOL     OW18679   1.586   3.744   1.703
 5927SOL    HW118680   1.569   3.827   1.651
 5927SOL    HW218681   1.676   3.749   1.746
 5928SOL     OW18682   4.210   0.717   1.231
 5928SOL    HW118683   4.192   0.793   1.168
 5928SOL    HW218684   4.262   0.750   1.310
 5929SOL     OW18685   0.080   0.275   5.666
 5929SOL    HW118686   0.153   0.338   5.692
 5929SOL    HW218687   0.119   0.189   5.633
 5930SOL     OW18688   1.245   3.402   1.716
 5930SOL    HW118689   1.207   3.494   1.721
 5930SOL    HW218690   1.339   3.406   1.681
 5931SOL     OW18691   5.419   6.188   3.039
 5931SOL    HW118692   5.436   6.115   3.105
 5931SOL    HW218693   5.322   6.210   3.037
 5932SOL     OW18694   3.162   0.053   6.452
 5932SOL    HW118695   3.182   0.120   6.523
 5932SOL    HW218696   3.101   7.014   6.489
 5933SOL     OW18697   6.815   5.271   4.412
 5933SOL    HW118698   6.903   5.309   4.384
 5933SOL    HW218699   6.784   5.205   4.343
 5934SOL     OW18700   3.476   3.888   5.797
 5934SOL    HW118701   3.416   3.826   5.847
 5934SOL    HW218702   3.423   3.963   5.759
 5935SOL     OW18703   0.349   6.033   4.862
 5935SOL    HW118704   0.441   6.060   4.835
 5935SOL    HW218705   0.285   6.052   4.788
 5936SOL     OW18706   3.858   3.273   3.360
 5936SOL    HW118707   3.898   3.224   3.283
 5936SOL    HW218708   3.804   3.211   3.415
 5937SOL     OW18709   0.567   2.526   2.169
 5937SOL    HW118710   0.618   2.581   2.235
 5937SOL    HW218711   0.506   2.586   2.116
 5938SOL     OW18712   5.918   5.363   5.350
 5938SOL    HW118713   5.934   5.459   5.327
 5938SOL    HW218714   5.839   5.357   5.412
 5939SOL     OW18715   3.793   0.020   4.525
 5939SOL    HW118716   3.782   0.075   4.442
 5939SOL    HW218717   3.756   0.070   4.604
 5940SOL     OW18718   5.017   5.247   3.081
 5940SOL    HW118719   5.072   5.164   3.074
 5940SOL    HW218720   4.933   5.237   3.029
 5941SOL     OW18721   6.352   2.020   2.091
 5941SOL    HW118722   6.385   2.107   2.129
 5941SOL    HW218723   6.303   1.969   2.161
 5942SOL     OW18724   6.428   3.296   6.376
 5942SOL    HW118725   6.511   3.275   6.324
 5942SOL    HW218726   6.396   3.214   6.423
 5943SOL     OW18727   4.104   3.366   0.485
 5943SOL    HW118728   4.150   3.450   0.457
 5943SOL    HW218729   4.032   3.343   0.420
 5944SOL     OW18730   0.354   3.302   6.625
 5944SOL    HW118731   0.430   3.364   6.644
 5944SOL    HW218732   0.284   3.312   6.696
 5945SOL     OW18733   0.887   6.100   5.188
 5945SOL    HW118734   0.868   6.196   5.207
 5945SOL    HW218735   0.961   6.068   5.247
 5946SOL     OW18736   4.065   4.557   6.734
 5946SOL    HW118737   4.082   4.464   6.703
 5946SOL    HW218738   4.118   4.574   6.817
 5947SOL     OW18739   3.156   3.248   4.689
 5947SOL    HW118740   3.216   3.168   4.679
 5947SOL    HW218741   3.081   3.241   4.623
 5948SOL     OW18742   5.200   4.013   2.267
 5948SOL    HW118743   5.166   3.958   2.190
 5948SOL    HW218744   5.154   4.101   2.268
 5949SOL     OW18745   5.784   5.399   1.588
 5949SOL    HW118746   5.780   5.479   1.649
 5949SOL    HW218747   5.797   5.316   1.642
 5950SOL     OW18748   5.459   2.259   5.611
 5950SOL    HW118749   5.448   2.240   5.514
 5950SOL    HW218750   5.406   2.340   5.636
 5951SOL     OW18751   0.926   4.948   5.160
 5951SOL    HW118752   0.905   4.899   5.076
 5951SOL    HW218753   0.916   5.046   5.144
 5952SOL     OW18754   4.162   4.893   1.890
 5952SOL    HW118755   4.196   4.976   1.846
 5952SOL    HW218756   4.065   4.903   1.912
 5953SOL     OW18757   6.252   2.684   5.038
 5953SOL    HW118758   6.314   2.762   5.040
 5953SOL    HW218759   6.182   2.695   5.109
 5954SOL     OW18760   0.361   5.517   4.958
 5954SOL    HW118761   0.372   5.430   5.006
 5954SOL    HW218762   0.423   5.585   4.998
 5955SOL     OW18763   5.244   4.813   1.266
 5955SOL    HW118764   5.153   4.850   1.287
 5955SOL    HW218765   5.253   4.722   1.307
 5956SOL     OW18766   4.969   2.663   4.534
 5956SOL    HW118767   4.901   2.696   4.469
 5956SOL    HW218768   4.944   2.692   4.627
 5957SOL     OW18769   1.375   0.932   2.645
 5957SOL    HW118770   1.415   0.854   2.692
 5957SOL    HW218771   1.280   0.910   2.621
 5958SOL     OW18772   3.455   7.022   3.039
 5958SOL    HW118773   3.495   6.931   3.040
 5958SOL    HW218774   3.498   0.046   3.110
 5959SOL     OW18775   5.264   2.018   4.732
 5959SOL    HW118776   5.186   2.023   4.794
 5959SOL    HW218777   5.253   2.085   4.658
 5960SOL     OW18778   3.358   6.580   5.316
 5960SOL    HW118779   3.259   6.569   5.324
 5960SOL    HW218780   3.403   6.496   5.348
 5961SOL     OW18781   4.085   1.901   2.583
 5961SOL    HW118782   4.175   1.908   2.626
 5961SOL    HW218783   4.063   1.804   2.568
 5962SOL     OW18784   5.296   6.495   6.841
 5962SOL    HW118785   5.209   6.471   6.797
 5962SOL    HW218786   5.369   6.493   6.773
 5963SOL     OW18787   3.883   4.811   6.817
 5963SOL    HW118788   3.954   4.745   6.791
 5963SOL    HW218789   3.799   4.762   6.840
 5964SOL     OW18790   1.840   0.045   2.596
 5964SOL    HW118791   1.822   0.065   2.499
 5964SOL    HW218792   1.916   7.012   2.603
 5965SOL     OW18793   1.968   0.063   6.802
 5965SOL    HW118794   1.984   6.996   6.807
 5965SOL    HW218795   1.879   0.084   6.842
 5966SOL     OW18796   1.720   0.253   5.786
 5966SOL    HW118797   1.735   0.207   5.873
 5966SOL    HW218798   1.778   0.211   5.716
 5967SOL     OW18799   2.112   2.213   4.845
 5967SOL    HW118800   2.206   2.228   4.877
 5967SOL    HW218801   2.090   2.115   4.851
 5968SOL     OW18802   5.644   2.426   0.159
 5968SOL    HW118803   5.585   2.385   0.229
 5968SOL    HW218804   5.669   2.519   0.186
 5969SOL     OW18805   5.382   0.957   6.439
 5969SOL    HW118806   5.451   0.886   6.451
 5969SOL    HW218807   5.322   0.960   6.519
 5970SOL     OW18808   0.544   3.619   0.953
 5970SOL    HW118809   0.593   3.643   1.036
 5970SOL    HW218810   0.458   3.575   0.976
 5971SOL     OW18811   6.149   0.023   2.568
 5971SOL    HW118812   6.095   0.106   2.578
 5971SOL    HW218813   6.089   6.974   2.568
 5972SOL     OW18814   4.857   5.207   0.505
 5972SOL    HW118815   4.951   5.172   0.499
 5972SOL    HW218816   4.804   5.148   0.567
 5973SOL     OW18817   1.766   3.141   2.907
 5973SOL    HW118818   1.787   3.138   2.809
 5973SOL    HW218819   1.708   3.062   2.930
 5974SOL     OW18820   4.099   0.725   0.002
 5974SOL    HW118821   4.043   0.805   7.015
 5974SOL    HW218822   4.047   0.642   7.013
 5975SOL     OW18823   5.119   4.919   0.477
 5975SOL    HW118824   5.152   4.975   0.552
 5975SOL    HW218825   5.124   4.970   0.392
 5976SOL     OW18826   3.766   3.750   5.975
 5976SOL    HW118827   3.680   3.751   5.924
 5976SOL    HW218828   3.836   3.702   5.921
 5977SOL     OW18829   0.478   5.245   0.213
 5977SOL    HW118830   0.419   5.325   0.200
 5977SOL    HW218831   0.454   5.175   0.146
 5978SOL     OW18832   3.534   5.628   6.881
 5978SOL    HW118833   3.552   5.543   6.931
 5978SOL    HW218834   3.616   5.685   6.883
 5979SOL     OW18835   6.277   0.809   1.972
 5979SOL    HW118836   6.185   0.773   1.990
 5979SOL    HW218837   6.315   0.764   1.892
 5980SOL     OW18838   3.286   2.817   1.810
 5980SOL    HW118839   3.328   2.851   1.726
 5980SOL    HW218840   3.208   2.759   1.787
 5981SOL     OW18841   4.692   2.619   0.354
 5981SOL    HW118842   4.775   2.611   0.409
 5981SOL    HW218843   4.617   2.651   0.411
 5982SOL     OW18844   5.910   2.048   2.432
 5982SOL    HW118845   5.940   1.952   2.429
 5982SOL    HW218846   5.817   2.052   2.469
 5983SOL     OW18847   0.220   0.778   4.412
 5983SOL    HW118848   0.127   0.743   4.427
 5983SOL    HW218849   0.269   0.781   4.499
 5984SOL     OW18850   6.128   6.404   3.579
 5984SOL    HW118851   6.114   6.486   3.634
 5984SOL    HW218852   6.089   6.416   3.488
 5985SOL     OW18853   6.295   1.968   3.567
 5985SOL    HW118854   6.313   2.065   3.584
 5985SOL    HW218855   6.196   1.953   3.561
 5986SOL     OW18856   4.262   3.821   5.210
 5986SOL    HW118857   4.233   3.895   5.269
 5986SOL    HW218858   4.215   3.828   5.122
 5987SOL     OW18859   6.824   0.680   4.443
 5987SOL    HW118860   6.840   0.648   4.349
 5987SOL    HW218861   6.729   0.662   4.469
 5988SOL     OW18862   2.982   1.453   0.009
 5988SOL    HW118863   2.967   1.417   6.948
 5988SOL    HW218864   2.971   1.552   0.008
 5989SOL     OW18865   1.118   6.112   6.742
 5989SOL    HW118866   1.067   6.152   6.818
 5989SOL    HW218867   1.208   6.156   6.735
 5990SOL     OW18868   4.121   4.415   0.926
 5990SOL    HW118869   4.177   4.333   0.935
 5990SOL    HW218870   4.072   4.431   1.011
 5991SOL     OW18871   4.625   5.832   0.742
 5991SOL    HW118872   4.632   5.825   0.642
 5991SOL    HW218873   4.639   5.928   0.769
 5992SOL     OW18874   3.297   0.355   2.015
 5992SOL    HW118875   3.210   0.342   1.968
 5992SOL    HW218876   3.322   0.452   2.014
 5993SOL     OW18877   6.143   3.402   0.187
 5993SOL    HW118878   6.046   3.393   0.211
 5993SOL    HW218879   6.165   3.498   0.172
 5994SOL     OW18880   0.027   3.263   1.468
 5994SOL    HW118881   0.027   3.363   1.466
 5994SOL    HW218882   0.029   3.232   1.563
 5995SOL     OW18883   4.580   3.291   1.198
 5995SOL    HW118884   4.570   3.381   1.156
 5995SOL    HW218885   4.560   3.220   1.130
 5996SOL     OW18886   2.595   5.638   1.088
 5996SOL    HW118887   2.627   5.645   0.994
 5996SOL    HW218888   2.673   5.623   1.149
 5997SOL     OW18889   6.858   6.919   3.082
 5997SOL    HW118890   6.764   6.883   3.078
 5997SOL    HW218891   6.901   6.889   3.167
 5998SOL     OW18892   5.716   0.967   2.047
 5998SOL    HW118893   5.732   1.065   2.059
 5998SOL    HW218894   5.765   0.935   1.965
 5999SOL     OW18895   4.120   3.375   1.153
 5999SOL    HW118896   4.130   3.460   1.204
 5999SOL    HW218897   4.137   3.297   1.214
 6000SOL     OW18898   0.428   5.679   0.320
 6000SOL    HW118899   0.517   5.638   0.301
 6000SOL    HW218900   0.421   5.767   0.274
 6001SOL     OW18901   5.236   6.234   5.990
 6001SOL    HW118902   5.307   6.199   5.929
 6001SOL    HW218903   5.189   6.311   5.946
 6002SOL     OW18904   6.908   6.924   4.727
 6002SOL    HW118905   6.923   6.831   4.759
 6002SOL    HW218906   6.812   6.950   4.744
 6003SOL     OW18907   6.576   2.805   4.444
 6003SOL    HW118908   6.639   2.788   4.369
 6003SOL    HW218909   6.566   2.904   4.457
 6004SOL     OW18910   5.732   2.730   3.426
 6004SOL    HW118911   5.721   2.633   3.447
 6004SOL    HW218912   5.689   2.751   3.338
 6005SOL     OW18913   4.884   4.142   5.084
 6005SOL    HW118914   4.856   4.237   5.094
 6005SOL    HW218915   4.974   4.138   5.040
 6006SOL     OW18916   3.602   0.375   5.414
 6006SOL    HW118917   3.606   0.315   5.334
 6006SOL    HW218918   3.553   0.459   5.390
 6007SOL     OW18919   0.451   4.157   6.312
 6007SOL    HW118920   0.403   4.103   6.381
 6007SOL    HW218921   0.410   4.248   6.306
 6008SOL     OW18922   2.274   4.124   5.484
 6008SOL    HW118923   2.326   4.051   5.528
 6008SOL    HW218924   2.219   4.086   5.410
 6009SOL     OW18925   4.662   5.652   2.998
 6009SOL    HW118926   4.752   5.609   2.992
 6009SOL    HW218927   4.672   5.751   2.989
 6010SOL     OW18928   0.196   4.498   4.620
 6010SOL    HW118929   0.252   4.521   4.540
 6010SOL    HW218930   0.118   4.560   4.625
 6011SOL     OW18931   4.757   1.745   2.892
 6011SOL    HW118932   4.739   1.650   2.869
 6011SOL    HW218933   4.740   1.760   2.990
 6012SOL     OW18934   6.201   0.195   6.689
 6012SOL    HW118935   6.108   0.223   6.714
 6012SOL    HW218936   6.254   0.276   6.663
 6013SOL     OW18937   5.030   0.972   2.463
 6013SOL    HW118938   5.039   1.049   2.401
 6013SOL    HW218939   4.935   0.940   2.464
 6014SOL     OW18940   2.987   3.213   4.475
 6014SOL    HW118941   2.916   3.144   4.462
 6014SOL    HW218942   2.973   3.287   4.409
 6015SOL     OW18943   6.494   2.370   4.709
 6015SOL    HW118944   6.467   2.461   4.680
 6015SOL    HW218945   6.540   2.323   4.634
 6016SOL     OW18946   4.766   1.254   5.240
 6016SOL    HW118947   4.804   1.185   5.302
 6016SOL    HW218948   4.794   1.345   5.270
 6017SOL     OW18949   6.627   3.615   5.027
 6017SOL    HW118950   6.582   3.621   4.938
 6017SOL    HW218951   6.561   3.635   5.100
 6018SOL     OW18952   3.425   1.168   4.654
 6018SOL    HW118953   3.425   1.260   4.616
 6018SOL    HW218954   3.517   1.144   4.683
 6019SOL     OW18955   0.981   3.801   5.801
 6019SOL    HW118956   1.030   3.741   5.738
 6019SOL    HW218957   0.987   3.895   5.769
 6020SOL     OW18958   1.145   5.130   0.566
 6020SOL    HW118959   1.219   5.064   0.579
 6020SOL    HW218960   1.164   5.212   0.621
 6021SOL     OW18961   4.089   0.343   2.585
 6021SOL    HW118962   4.144   0.341   2.502
 6021SOL    HW218963   4.104   0.429   2.634
 6022SOL     OW18964   6.378   1.330   2.809
 6022SOL    HW118965   6.338   1.240   2.793
 6022SOL    HW218966   6.426   1.331   2.896
 6023SOL     OW18967   5.072   0.410   1.453
 6023SOL    HW118968   5.032   0.500   1.468
 6023SOL    HW218969   5.172   0.418   1.450
 6024SOL     OW18970   0.223   4.839   1.202
 6024SOL    HW118971   0.194   4.908   1.135
 6024SOL    HW218972   0.146   4.779   1.224
 6025SOL     OW18973   3.025   1.679   3.831
 6025SOL    HW118974   3.054   1.769   3.865
 6025SOL    HW218975   2.927   1.681   3.811
 6026SOL     OW18976   6.824   4.155   4.350
 6026SOL    HW118977   6.792   4.095   4.423
 6026SOL    HW218978   6.772   4.137   4.266
 6027SOL     OW18979   5.847   3.617   6.483
 6027SOL    HW118980   5.907   3.639   6.561
 6027SOL    HW218981   5.829   3.519   6.482
 6028SOL     OW18982   5.470   4.710   0.567
 6028SOL    HW118983   5.516   4.756   0.491
 6028SOL    HW218984   5.509   4.741   0.654
 6029SOL     OW18985   2.519   0.168   3.756
 6029SOL    HW118986   2.469   0.213   3.831
 6029SOL    HW218987   2.588   0.231   3.720
 6030SOL     OW18988   5.020   3.739   4.968
 6030SOL    HW118989   5.064   3.695   4.889
 6030SOL    HW218990   4.939   3.686   4.995
 6031SOL     OW18991   1.147   5.579   4.218
 6031SOL    HW118992   1.099   5.558   4.303
 6031SOL    HW218993   1.243   5.552   4.226
 6032SOL     OW18994   3.321   6.173   4.137
 6032SOL    HW118995   3.352   6.167   4.042
 6032SOL    HW218996   3.291   6.266   4.157
 6033SOL     OW18997   2.259   2.631   2.722
 6033SOL    HW118998   2.185   2.578   2.763
 6033SOL    HW218999   2.292   2.585   2.640
 6034SOL     OW19000   1.218   0.102   6.400
 6034SOL    HW119001   1.166   0.145   6.327
 6034SOL    HW219002   1.303   0.065   6.364
 6035SOL     OW19003   0.676   0.849   2.640
 6035SOL    HW119004   0.598   0.869   2.581
 6035SOL    HW219005   0.734   0.779   2.596
 6036SOL     OW19006   6.211   4.792   1.353
 6036SOL    HW119007   6.232   4.782   1.256
 6036SOL    HW219008   6.112   4.794   1.366
 6037SOL     OW19009   3.983   1.542   0.819
 6037SOL    HW119010   3.964   1.521   0.916
 6037SOL    HW219011   4.068   1.497   0.792
 6038SOL     OW19012   0.644   2.492   6.636
 6038SOL    HW119013   0.723   2.507   6.578
 6038SOL    HW219014   0.668   2.430   6.711
 6039SOL     OW19015   4.016   3.452   4.037
 6039SOL    HW119016   3.956   3.411   3.969
 6039SOL    HW219017   4.078   3.382   4.074
 6040SOL     OW19018   1.606   1.585   0.010
 6040SOL    HW119019   1.570   1.492   0.004
 6040SOL    HW219020   1.664   1.593   0.091
 6041SOL     OW19021   3.244   2.698   5.644
 6041SOL    HW119022   3.283   2.606   5.654
 6041SOL    HW219023   3.147   2.690   5.622
 6042SOL     OW19024   3.800   6.305   3.432
 6042SOL    HW119025   3.853   6.268   3.508
 6042SOL    HW219026   3.862   6.335   3.360
 6043SOL     OW19027   1.852   0.569   3.435
 6043SOL    HW119028   1.886   0.647   3.383
 6043SOL    HW219029   1.780   0.599   3.497
 6044SOL     OW19030   1.919   1.686   1.913
 6044SOL    HW119031   1.898   1.758   1.979
 6044SOL    HW219032   1.963   1.609   1.960
 6045SOL     OW19033   5.143   3.382   3.686
 6045SOL    HW119034   5.141   3.419   3.593
 6045SOL    HW219035   5.233   3.342   3.703
 6046SOL     OW19036   3.350   2.495   1.594
 6046SOL    HW119037   3.432   2.508   1.650
 6046SOL    HW219038   3.270   2.529   1.643
 6047SOL     OW19039   5.647   2.272   0.732
 6047SOL    HW119040   5.553   2.264   0.700
 6047SOL    HW219041   5.647   2.279   0.832
 6048SOL     OW19042   5.739   5.099   4.889
 6048SOL    HW119043   5.644   5.107   4.859
 6048SOL    HW219044   5.746   5.027   4.958
 6049SOL     OW19045   5.312   4.523   6.190
 6049SOL    HW119046   5.289   4.438   6.238
 6049SOL    HW219047   5.242   4.542   6.121
 6050SOL     OW19048   3.095   5.689   0.766
 6050SOL    HW119049   3.073   5.608   0.711
 6050SOL    HW219050   3.165   5.665   0.834
 6051SOL     OW19051   0.652   1.332   2.283
 6051SOL    HW119052   0.679   1.392   2.358
 6051SOL    HW219053   0.590   1.262   2.317
 6052SOL     OW19054   5.640   0.438   1.178
 6052SOL    HW119055   5.646   0.538   1.181
 6052SOL    HW219056   5.558   0.408   1.227
 6053SOL     OW19057   4.583   1.245   6.034
 6053SOL    HW119058   4.673   1.203   6.034
 6053SOL    HW219059   4.583   1.324   6.095
 6054SOL     OW19060   3.894   5.313   0.544
 6054SOL    HW119061   3.843   5.310   0.630
 6054SOL    HW219062   3.924   5.407   0.527
 6055SOL     OW19063   3.310   4.991   6.427
 6055SOL    HW119064   3.251   4.946   6.360
 6055SOL    HW219065   3.274   4.977   6.519
 6056SOL     OW19066   5.876   2.986   4.940
 6056SOL    HW119067   5.940   3.034   5.000
 6056SOL    HW219068   5.785   2.987   4.980
 6057SOL     OW19069   4.909   0.599   2.390
 6057SOL    HW119070   4.907   0.525   2.457
 6057SOL    HW219071   4.911   0.687   2.438
 6058SOL     OW19072   6.004   3.663   0.812
 6058SOL    HW119073   6.003   3.669   0.912
 6058SOL    HW219074   6.099   3.658   0.781
 6059SOL     OW19075   5.404   4.239   5.558
 6059SOL    HW119076   5.414   4.315   5.494
 6059SOL    HW219077   5.343   4.265   5.632
 6060SOL     OW19078   3.408   3.249   0.280
 6060SOL    HW119079   3.365   3.201   0.357
 6060SOL    HW219080   3.432   3.182   0.209
 6061SOL     OW19081   3.972   4.779   0.230
 6061SOL    HW119082   3.962   4.777   0.330
 6061SOL    HW219083   4.059   4.736   0.205
 6062SOL     OW19084   2.580   1.687   0.122
 6062SOL    HW119085   2.525   1.744   0.183
 6062SOL    HW219086   2.658   1.739   0.088
 6063SOL     OW19087   4.029   4.306   5.377
 6063SOL    HW119088   3.966   4.365   5.327
 6063SOL    HW219089   3.978   4.242   5.435
 6064SOL     OW19090   0.260   0.434   0.216
 6064SOL    HW119091   0.337   0.397   0.268
 6064SOL    HW219092   0.280   0.429   0.118
 6065SOL     OW19093   1.283   5.399   1.749
 6065SOL    HW119094   1.327   5.475   1.797
 6065SOL    HW219095   1.226   5.434   1.675
 6066SOL     OW19096   5.166   0.878   3.532
 6066SOL    HW119097   5.157   0.954   3.467
 6066SOL    HW219098   5.143   0.792   3.487
 6067SOL     OW19099   5.991   0.164   5.672
 6067SOL    HW119100   6.021   0.255   5.703
 6067SOL    HW219101   6.059   0.126   5.609
 6068SOL     OW19102   5.085   1.643   4.831
 6068SOL    HW119103   5.171   1.695   4.840
 6068SOL    HW219104   5.098   1.551   4.867
 6069SOL     OW19105   6.849   2.837   5.877
 6069SOL    HW119106   6.885   2.821   5.969
 6069SOL    HW219107   6.805   2.754   5.843
 6070SOL     OW19108   3.704   2.191   1.644
 6070SOL    HW119109   3.713   2.272   1.702
 6070SOL    HW219110   3.654   2.120   1.693
 6071SOL     OW19111   7.009   6.180   4.131
 6071SOL    HW119112   0.038   6.137   4.064
 6071SOL    HW219113   6.993   6.118   4.207
 6072SOL     OW19114   0.216   1.959   0.598
 6072SOL    HW119115   0.175   1.872   0.625
 6072SOL    HW219116   0.164   1.998   0.522
 6073SOL     OW19117   4.914   3.351   1.104
 6073SOL    HW119118   4.921   3.276   1.038
 6073SOL    HW219119   4.821   3.354   1.141
 6074SOL     OW19120   1.567   6.543   2.525
 6074SOL    HW119121   1.481   6.565   2.570
 6074SOL    HW219122   1.554   6.463   2.466
 6075SOL     OW19123   4.856   6.972   6.166
 6075SOL    HW119124   4.758   6.976   6.149
 6075SOL    HW219125   4.888   0.028   6.201
 6076SOL     OW19126   2.655   5.120   4.152
 6076SOL    HW119127   2.596   5.155   4.224
 6076SOL    HW219128   2.680   5.195   4.090
 6077SOL     OW19129   5.224   6.485   1.133
 6077SOL    HW119130   5.322   6.505   1.145
 6077SOL    HW219131   5.210   6.441   1.045
 6078SOL     OW19132   3.857   4.289   0.734
 6078SOL    HW119133   3.899   4.375   0.763
 6078SOL    HW219134   3.868   4.278   0.635
 6079SOL     OW19135   4.999   4.538   6.290
 6079SOL    HW119136   4.987   4.599   6.211
 6079SOL    HW219137   4.917   4.482   6.302
 6080SOL     OW19138   1.024   5.084   1.446
 6080SOL    HW119139   0.950   5.017   1.435
 6080SOL    HW219140   0.991   5.162   1.500
 6081SOL     OW19141   0.873   3.569   5.299
 6081SOL    HW119142   0.886   3.661   5.263
 6081SOL    HW219143   0.778   3.541   5.288
 6082SOL     OW19144   3.608   0.305   2.093
 6082SOL    HW119145   3.511   0.292   2.113
 6082SOL    HW219146   3.651   0.216   2.080
 6083SOL     OW19147   5.701   0.054   0.392
 6083SOL    HW119148   5.663   0.094   0.475
 6083SOL    HW219149   5.686   6.987   0.393
 6084SOL     OW19150   0.960   6.285   1.897
 6084SOL    HW119151   0.879   6.252   1.848
 6084SOL    HW219152   1.035   6.300   1.833
 6085SOL     OW19153   6.202   5.973   6.421
 6085SOL    HW119154   6.214   6.060   6.469
 6085SOL    HW219155   6.291   5.928   6.411
 6086SOL     OW19156   3.848   2.686   6.297
 6086SOL    HW119157   3.773   2.751   6.315
 6086SOL    HW219158   3.908   2.724   6.227
 6087SOL     OW19159   5.076   6.294   0.404
 6087SOL    HW119160   5.038   6.371   0.352
 6087SOL    HW219161   5.004   6.227   0.422
 6088SOL     OW19162   5.371   6.418   5.316
 6088SOL    HW119163   5.356   6.320   5.328
 6088SOL    HW219164   5.440   6.450   5.382
 6089SOL     OW19165   6.648   1.986   2.264
 6089SOL    HW119166   6.743   1.982   2.296
 6089SOL    HW219167   6.592   2.034   2.332
 6090SOL     OW19168   3.031   5.131   4.681
 6090SOL    HW119169   3.029   5.031   4.681
 6090SOL    HW219170   2.991   5.166   4.596
 6091SOL     OW19171   2.810   0.999   1.361
 6091SOL    HW119172   2.718   0.967   1.336
 6091SOL    HW219173   2.822   1.094   1.332
 6092SOL     OW19174   4.028   0.253   2.198
 6092SOL    HW119175   4.100   0.229   2.133
 6092SOL    HW219176   4.013   0.176   2.261
 6093SOL     OW19177   2.097   1.497   2.016
 6093SOL    HW119178   2.181   1.488   1.964
 6093SOL    HW219179   2.104   1.575   2.078
 6094SOL     OW19180   0.880   6.770   4.330
 6094SOL    HW119181   0.843   6.746   4.420
 6094SOL    HW219182   0.961   6.715   4.311
 6095SOL     OW19183   4.481   5.548   6.856
 6095SOL    HW119184   4.426   5.575   6.935
 6095SOL    HW219185   4.553   5.485   6.885
 6096SOL     OW19186   5.682   6.564   2.476
 6096SOL    HW119187   5.748   6.523   2.412
 6096SOL    HW219188   5.724   6.572   2.566
 6097SOL     OW19189   1.560   5.687   1.759
 6097SOL    HW119190   1.628   5.654   1.694
 6097SOL    HW219191   1.569   5.636   1.845
 6098SOL     OW19192   6.565   0.798   5.990
 6098SOL    HW119193   6.499   0.871   6.007
 6098SOL    HW219194   6.573   0.741   6.072
 6099SOL     OW19195   4.920   6.090   6.058
 6099SOL    HW119196   4.968   6.118   5.975
 6099SOL    HW219197   4.897   6.171   6.112
 6100SOL     OW19198   0.540   5.713   2.234
 6100SOL    HW119199   0.456   5.691   2.283
 6100SOL    HW219200   0.558   5.642   2.166
 6101SOL     OW19201   6.316   2.494   1.849
 6101SOL    HW119202   6.381   2.420   1.833
 6101SOL    HW219203   6.365   2.576   1.879
 6102SOL     OW19204   4.425   6.291   2.521
 6102SOL    HW119205   4.448   6.214   2.580
 6102SOL    HW219206   4.348   6.341   2.561
 6103SOL     OW19207   6.504   1.431   0.956
 6103SOL    HW119208   6.563   1.395   1.028
 6103SOL    HW219209   6.516   1.377   0.873
 6104SOL     OW19210   6.057   1.332   5.140
 6104SOL    HW119211   6.098   1.329   5.049
 6104SOL    HW219212   6.126   1.308   5.208
 6105SOL     OW19213   2.681   5.060   5.730
 6105SOL    HW119214   2.775   5.062   5.695
 6105SOL    HW219215   2.683   5.055   5.830
 6106SOL     OW19216   0.873   3.969   0.839
 6106SOL    HW119217   0.782   4.003   0.818
 6106SOL    HW219218   0.895   3.892   0.779
 6107SOL     OW19219   4.880   5.348   4.348
 6107SOL    HW119220   4.863   5.430   4.403
 6107SOL    HW219221   4.942   5.370   4.273
 6108SOL     OW19222   1.211   1.568   2.195
 6108SOL    HW119223   1.267   1.564   2.277
 6108SOL    HW219224   1.123   1.610   2.217
 6109SOL     OW19225   5.485   0.670   3.954
 6109SOL    HW119226   5.506   0.701   4.047
 6109SOL    HW219227   5.444   0.745   3.902
 6110SOL     OW19228   1.103   2.933   6.380
 6110SOL    HW119229   1.146   3.005   6.326
 6110SOL    HW219230   1.170   2.861   6.399
 6111SOL     OW19231   1.404   3.544   2.320
 6111SOL    HW119232   1.305   3.553   2.322
 6111SOL    HW219233   1.445   3.628   2.284
 6112SOL     OW19234   3.646   0.965   2.391
 6112SOL    HW119235   3.717   0.902   2.358
 6112SOL    HW219236   3.598   0.923   2.468
 6113SOL     OW19237   2.551   4.059   6.666
 6113SOL    HW119238   2.615   4.023   6.734
 6113SOL    HW219239   2.600   4.089   6.585
 6114SOL     OW19240   4.741   2.262   2.261
 6114SOL    HW119241   4.735   2.340   2.198
 6114SOL    HW219242   4.765   2.180   2.209
 6115SOL     OW19243   0.441   1.620   5.100
 6115SOL    HW119244   0.438   1.660   5.008
 6115SOL    HW219245   0.532   1.633   5.140
 6116SOL     OW19246   3.868   2.249   5.249
 6116SOL    HW119247   3.826   2.167   5.209
 6116SOL    HW219248   3.834   2.262   5.342
 6117SOL     OW19249   1.178   1.233   2.980
 6117SOL    HW119250   1.174   1.324   3.021
 6117SOL    HW219251   1.195   1.165   3.051
 6118SOL     OW19252   5.795   1.439   1.540
 6118SOL    HW119253   5.887   1.443   1.500
 6118SOL    HW219254   5.803   1.445   1.640
 6119SOL     OW19255   0.218   2.935   0.132
 6119SOL    HW119256   0.180   2.890   0.051
 6119SOL    HW219257   0.225   2.869   0.207
 6120SOL     OW19258   1.822   6.926   5.397
 6120SOL    HW119259   1.890   6.858   5.427
 6120SOL    HW219260   1.765   6.953   5.475
 6121SOL     OW19261   0.714   4.233   5.724
 6121SOL    HW119262   0.690   4.189   5.637
 6121SOL    HW219263   0.633   4.236   5.783
 6122SOL     OW19264   5.354   6.014   6.455
 6122SOL    HW119265   5.393   5.968   6.535
 6122SOL    HW219266   5.254   6.013   6.462
 6123SOL     OW19267   5.301   0.861   5.674
 6123SOL    HW119268   5.340   0.948   5.645
 6123SOL    HW219269   5.225   0.836   5.614
 6124SOL     OW19270   1.668   6.994   5.201
 6124SOL    HW119271   1.730   6.943   5.260
 6124SOL    HW219272   1.627   0.038   5.252
 6125SOL     OW19273   2.853   3.741   0.261
 6125SOL    HW119274   2.802   3.797   0.326
 6125SOL    HW219275   2.943   3.781   0.246
 6126SOL     OW19276   0.732   2.275   4.862
 6126SOL    HW119277   0.804   2.225   4.815
 6126SOL    HW219278   0.771   2.329   4.936
 6127SOL     OW19279   3.944   0.865   1.425
 6127SOL    HW119280   3.849   0.896   1.416
 6127SOL    HW219281   3.949   0.791   1.492
 6128SOL     OW19282   5.696   5.592   0.918
 6128SOL    HW119283   5.642   5.611   0.836
 6128SOL    HW219284   5.753   5.511   0.903
 6129SOL     OW19285   2.121   4.661   3.393
 6129SOL    HW119286   2.204   4.679   3.446
 6129SOL    HW219287   2.137   4.583   3.332
 6130SOL     OW19288   5.799   2.490   2.804
 6130SOL    HW119289   5.701   2.504   2.785
 6130SOL    HW219290   5.824   2.397   2.777
 6131SOL     OW19291   0.631   2.006   2.017
 6131SOL    HW119292   0.546   2.011   1.964
 6131SOL    HW219293   0.659   2.099   2.044
 6132SOL     OW19294   3.436   1.885   6.428
 6132SOL    HW119295   3.336   1.885   6.425
 6132SOL    HW219296   3.471   1.826   6.355
 6133SOL     OW19297   0.980   2.373   3.530
 6133SOL    HW119298   1.066   2.379   3.480
 6133SOL    HW219299   0.949   2.465   3.555
 6134SOL     OW19300   4.964   6.563   6.985
 6134SOL    HW119301   4.990   6.470   6.959
 6134SOL    HW219302   4.980   6.625   6.909
 6135SOL     OW19303   6.277   6.987   6.954
 6135SOL    HW119304   6.374   6.985   6.929
 6135SOL    HW219305   6.249   0.051   6.969
 6136SOL     OW19306   1.255   2.731   1.317
 6136SOL    HW119307   1.250   2.813   1.259
 6136SOL    HW219308   1.212   2.750   1.405
 6137SOL     OW19309   0.781   4.317   2.851
 6137SOL    HW119310   0.712   4.300   2.780
 6137SOL    HW219311   0.796   4.233   2.903
 6138SOL     OW19312   3.657   0.555   2.260
 6138SOL    HW119313   3.634   0.529   2.354
 6138SOL    HW219314   3.634   0.479   2.198
 6139SOL     OW19315   0.760   6.742   5.628
 6139SOL    HW119316   0.704   6.673   5.582
 6139SOL    HW219317   0.753   6.829   5.580
 6140SOL     OW19318   0.774   0.620   3.016
 6140SOL    HW119319   0.723   0.697   2.978
 6140SOL    HW219320   0.790   0.636   3.114
 6141SOL     OW19321   0.705   0.182   6.244
 6141SOL    HW119322   0.790   0.137   6.216
 6141SOL    HW219323   0.629   0.118   6.235
 6142SOL     OW19324   0.637   0.533   6.362
 6142SOL    HW119325   0.602   0.523   6.269
 6142SOL    HW219326   0.588   0.468   6.422
 6143SOL     OW19327   0.330   4.015   0.709
 6143SOL    HW119328   0.380   4.074   0.645
 6143SOL    HW219329   0.380   3.930   0.723
 6144SOL     OW19330   4.689   4.480   3.446
 6144SOL    HW119331   4.594   4.502   3.425
 6144SOL    HW219332   4.720   4.406   3.386
 6145SOL     OW19333   5.831   4.410   4.029
 6145SOL    HW119334   5.877   4.498   4.018
 6145SOL    HW219335   5.843   4.376   4.122
 6146SOL     OW19336   3.800   0.398   4.137
 6146SOL    HW119337   3.871   0.359   4.078
 6146SOL    HW219338   3.843   0.458   4.205
 6147SOL     OW19339   1.830   2.736   4.740
 6147SOL    HW119340   1.759   2.795   4.702
 6147SOL    HW219341   1.813   2.723   4.838
 6148SOL     OW19342   4.145   5.181   6.760
 6148SOL    HW119343   4.117   5.190   6.664
 6148SOL    HW219344   4.064   5.166   6.816
 6149SOL     OW19345   2.135   0.165   2.338
 6149SOL    HW119346   2.219   0.125   2.303
 6149SOL    HW219347   2.059   0.145   2.276
 6150SOL     OW19348   6.463   4.061   6.700
 6150SOL    HW119349   6.408   4.065   6.784
 6150SOL    HW219350   6.476   3.966   6.673
 6151SOL     OW19351   5.251   5.491   4.417
 6151SOL    HW119352   5.297   5.570   4.377
 6151SOL    HW219353   5.185   5.523   4.486
 6152SOL     OW19354   1.211   5.340   4.561
 6152SOL    HW119355   1.233   5.355   4.465
 6152SOL    HW219356   1.200   5.428   4.607
 6153SOL     OW19357   4.566   5.293   1.007
 6153SOL    HW119358   4.653   5.251   1.035
 6153SOL    HW219359   4.539   5.362   1.074
 6154SOL     OW19360   5.314   3.585   3.142
 6154SOL    HW119361   5.292   3.648   3.216
 6154SOL    HW219362   5.262   3.608   3.060
 6155SOL     OW19363   2.793   0.818   3.065
 6155SOL    HW119364   2.816   0.854   2.974
 6155SOL    HW219365   2.836   0.874   3.135
 6156SOL     OW19366   5.405   3.692   1.701
 6156SOL    HW119367   5.353   3.775   1.680
 6156SOL    HW219368   5.369   3.615   1.649
 6157SOL     OW19369   0.698   2.323   3.486
 6157SOL    HW119370   0.695   2.238   3.538
 6157SOL    HW219371   0.789   2.364   3.494
 6158SOL     OW19372   3.382   2.081   6.616
 6158SOL    HW119373   3.415   1.989   6.591
 6158SOL    HW219374   3.346   2.079   6.709
 6159SOL     OW19375   5.437   3.548   0.591
 6159SOL    HW119376   5.465   3.582   0.681
 6159SOL    HW219377   5.500   3.477   0.561
 6160SOL     OW19378   6.501   0.095   6.444
 6160SOL    HW119379   6.474   0.097   6.348
 6160SOL    HW219380   6.432   0.046   6.497
 6161SOL     OW19381   5.315   2.372   6.463
 6161SOL    HW119382   5.346   2.360   6.369
 6161SOL    HW219383   5.336   2.290   6.516
 6162SOL     OW19384   5.977   6.683   3.216
 6162SOL    HW119385   5.893   6.706   3.264
 6162SOL    HW219386   6.031   6.766   3.202
 6163SOL     OW19387   5.351   5.563   2.257
 6163SOL    HW119388   5.349   5.663   2.259
 6163SOL    HW219389   5.439   5.531   2.291
 6164SOL     OW19390   4.030   3.886   4.337
 6164SOL    HW119391   4.020   3.807   4.277
 6164SOL    HW219392   4.076   3.858   4.421
 6165SOL     OW19393   3.974   2.351   6.416
 6165SOL    HW119394   3.951   2.341   6.319
 6165SOL    HW219395   4.057   2.298   6.435
 6166SOL     OW19396   6.933   2.080   6.948
 6166SOL    HW119397   6.887   2.150   7.002
 6166SOL    HW219398   6.905   2.088   6.852
 6167SOL     OW19399   1.687   4.227   3.079
 6167SOL    HW119400   1.676   4.219   2.980
 6167SOL    HW219401   1.749   4.155   3.112
 6168SOL     OW19402   6.730   2.385   3.329
 6168SOL    HW119403   6.665   2.459   3.346
 6168SOL    HW219404   6.774   2.359   3.415
 6169SOL     OW19405   1.042   0.949   6.040
 6169SOL    HW119406   1.115   1.016   6.027
 6169SOL    HW219407   1.078   0.857   6.022
 6170SOL     OW19408   3.570   4.300   6.161
 6170SOL    HW119409   3.670   4.305   6.152
 6170SOL    HW219410   3.535   4.222   6.109
 6171SOL     OW19411   1.457   3.508   2.596
 6171SOL    HW119412   1.375   3.487   2.649
 6171SOL    HW219413   1.437   3.498   2.499
 6172SOL     OW19414   0.380   0.585   2.264
 6172SOL    HW119415   0.344   0.560   2.354
 6172SOL    HW219416   0.405   0.502   2.214
 6173SOL     OW19417   0.614   5.117   2.622
 6173SOL    HW119418   0.565   5.194   2.664
 6173SOL    HW219419   0.548   5.046   2.597
 6174SOL     OW19420   5.829   4.570   2.771
 6174SOL    HW119421   5.764   4.557   2.845
 6174SOL    HW219422   5.903   4.503   2.779
 6175SOL     OW19423   5.649   6.825   2.368
 6175SOL    HW119424   5.642   6.733   2.407
 6175SOL    HW219425   5.562   6.874   2.381
 6176SOL     OW19426   6.376   3.982   6.960
 6176SOL    HW119427   6.467   3.942   6.953
 6176SOL    HW219428   6.308   3.909   6.968
 6177SOL     OW19429   5.304   1.578   1.023
 6177SOL    HW119430   5.390   1.623   1.046
 6177SOL    HW219431   5.230   1.618   1.077
 6178SOL     OW19432   4.785   5.304   1.774
 6178SOL    HW119433   4.778   5.292   1.675
 6178SOL    HW219434   4.713   5.252   1.820
 6179SOL     OW19435   0.041   3.587   4.872
 6179SOL    HW119436   0.138   3.593   4.891
 6179SOL    HW219437   0.017   3.494   4.846
 6180SOL     OW19438   3.447   6.772   6.860
 6180SOL    HW119439   3.373   6.705   6.856
 6180SOL    HW219440   3.484   6.774   6.953
 6181SOL     OW19441   4.550   6.574   0.408
 6181SOL    HW119442   4.552   6.527   0.320
 6181SOL    HW219443   4.461   6.561   0.451
 6182SOL     OW19444   5.178   5.771   5.762
 6182SOL    HW119445   5.219   5.695   5.712
 6182SOL    HW219446   5.248   5.817   5.816
 6183SOL     OW19447   2.187   0.341   3.296
 6183SOL    HW119448   2.216   0.400   3.221
 6183SOL    HW219449   2.170   0.248   3.261
 6184SOL     OW19450   1.945   6.933   6.172
 6184SOL    HW119451   1.895   7.016   6.193
 6184SOL    HW219452   1.917   6.860   6.235
 6185SOL     OW19453   1.062   3.542   0.242
 6185SOL    HW119454   1.159   3.560   0.256
 6185SOL    HW219455   1.033   3.576   0.153
 6186SOL     OW19456   5.667   6.868   3.934
 6186SOL    HW119457   5.579   6.916   3.940
 6186SOL    HW219458   5.678   6.811   4.015
 6187SOL     OW19459   5.071   4.347   4.174
 6187SOL    HW119460   5.170   4.349   4.191
 6187SOL    HW219461   5.032   4.437   4.192
 6188SOL     OW19462   2.475   5.667   1.371
 6188SOL    HW119463   2.552   5.663   1.434
 6188SOL    HW219464   2.508   5.660   1.277
 6189SOL     OW19465   4.843   4.697   3.908
 6189SOL    HW119466   4.811   4.784   3.871
 6189SOL    HW219467   4.826   4.624   3.842
 6190SOL     OW19468   5.741   3.733   6.248
 6190SOL    HW119469   5.808   3.773   6.186
 6190SOL    HW219470   5.789   3.695   6.327
 6191SOL     OW19471   5.719   2.703   0.908
 6191SOL    HW119472   5.800   2.647   0.924
 6191SOL    HW219473   5.643   2.671   0.965
 6192SOL     OW19474   3.427   3.714   0.503
 6192SOL    HW119475   3.482   3.664   0.570
 6192SOL    HW219476   3.486   3.749   0.430
 6193SOL     OW19477   3.846   0.755   2.364
 6193SOL    HW119478   3.939   0.734   2.332
 6193SOL    HW219479   3.795   0.670   2.374
 6194SOL     OW19480   2.053   0.103   0.408
 6194SOL    HW119481   1.986   0.072   0.340
 6194SOL    HW219482   2.142   0.064   0.386
 6195SOL     OW19483   4.004   5.676   5.650
 6195SOL    HW119484   3.979   5.580   5.665
 6195SOL    HW219485   3.927   5.735   5.674
 6196SOL     OW19486   0.082   2.542   6.985
 6196SOL    HW119487   0.120   2.628   6.952
 6196SOL    HW219488   0.142   2.503   0.023
 6197SOL     OW19489   4.377   3.721   0.514
 6197SOL    HW119490   4.467   3.756   0.485
 6197SOL    HW219491   4.348   3.771   0.596
 6198SOL     OW19492   3.624   5.720   2.876
 6198SOL    HW119493   3.599   5.725   2.780
 6198SOL    HW219494   3.609   5.627   2.910
 6199SOL     OW19495   0.319   6.927   0.982
 6199SOL    HW119496   0.342   6.926   0.885
 6199SOL    HW219497   0.403   6.927   1.036
 6200SOL     OW19498   2.582   1.561   6.571
 6200SOL    HW119499   2.604   1.463   6.572
 6200SOL    HW219500   2.665   1.613   6.553
 6201SOL     OW19501   2.384   5.123   5.711
 6201SOL    HW119502   2.471   5.081   5.738
 6201SOL    HW219503   2.309   5.062   5.736
 6202SOL     OW19504   3.826   1.627   1.446
 6202SOL    HW119505   3.805   1.572   1.526
 6202SOL    HW219506   3.921   1.613   1.419
 6203SOL     OW19507   5.399   0.284   3.410
 6203SOL    HW119508   5.481   0.280   3.467
 6203SOL    HW219509   5.404   0.364   3.350
 6204SOL     OW19510   0.413   5.070   4.921
 6204SOL    HW119511   0.350   5.011   4.871
 6204SOL    HW219512   0.417   5.041   5.017
 6205SOL     OW19513   5.615   6.251   0.045
 6205SOL    HW119514   5.672   6.273   0.124
 6205SOL    HW219515   5.637   6.313   7.002
 6206SOL     OW19516   6.830   0.514   2.382
 6206SOL    HW119517   6.810   0.456   2.303
 6206SOL    HW219518   6.790   0.473   2.464
 6207SOL     OW19519   1.558   3.424   4.772
 6207SOL    HW119520   1.635   3.451   4.715
 6207SOL    HW219521   1.590   3.404   4.865
 6208SOL     OW19522   6.190   6.980   6.027
 6208SOL    HW119523   6.147   6.972   6.117
 6208SOL    HW219524   6.123   6.957   5.956
 6209SOL     OW19525   4.074   6.010   7.026
 6209SOL    HW119526   4.092   6.095   6.977
 6209SOL    HW219527   4.086   5.933   6.963
 6210SOL     OW19528   5.448   4.578   3.174
 6210SOL    HW119529   5.455   4.482   3.200
 6210SOL    HW219530   5.462   4.635   3.255
 6211SOL     OW19531   2.904   0.102   5.914
 6211SOL    HW119532   2.915   0.196   5.883
 6211SOL    HW219533   2.987   0.050   5.893
 6212SOL     OW19534   0.634   5.349   2.937
 6212SOL    HW119535   0.679   5.370   3.024
 6212SOL    HW219536   0.629   5.250   2.925
 6213SOL     OW19537   5.567   6.768   6.671
 6213SOL    HW119538   5.640   6.762   6.603
 6213SOL    HW219539   5.580   6.696   6.740
 6214SOL     OW19540   6.492   5.151   3.091
 6214SOL    HW119541   6.412   5.150   3.031
 6214SOL    HW219542   6.542   5.065   3.080
 6215SOL     OW19543   3.498   1.594   0.134
 6215SOL    HW119544   3.474   1.575   0.039
 6215SOL    HW219545   3.435   1.661   0.172
 6216SOL     OW19546   6.276   1.843   1.874
 6216SOL    HW119547   6.297   1.894   1.957
 6216SOL    HW219548   6.271   1.906   1.796
 6217SOL     OW19549   5.245   2.585   1.841
 6217SOL    HW119550   5.333   2.628   1.822
 6217SOL    HW219551   5.184   2.652   1.884
 6218SOL     OW19552   3.756   4.926   3.905
 6218SOL    HW119553   3.692   4.863   3.861
 6218SOL    HW219554   3.757   4.908   4.004
 6219SOL     OW19555   0.753   1.650   4.774
 6219SOL    HW119556   0.756   1.736   4.826
 6219SOL    HW219557   0.722   1.577   4.835
 6220SOL     OW19558   1.965   4.443   5.746
 6220SOL    HW119559   2.045   4.407   5.698
 6220SOL    HW219560   1.892   4.458   5.680
 6221SOL     OW19561   5.229   5.205   5.604
 6221SOL    HW119562   5.155   5.188   5.670
 6221SOL    HW219563   5.315   5.169   5.641
 6222SOL     OW19564   0.810   6.733   1.445
 6222SOL    HW119565   0.909   6.750   1.443
 6222SOL    HW219566   0.780   6.722   1.539
 6223SOL     OW19567   6.498   3.194   4.663
 6223SOL    HW119568   6.464   3.139   4.587
 6223SOL    HW219569   6.591   3.167   4.685
 6224SOL     OW19570   1.659   1.776   5.789
 6224SOL    HW119571   1.756   1.771   5.811
 6224SOL    HW219572   1.642   1.858   5.734
 6225SOL     OW19573   2.910   3.452   1.422
 6225SOL    HW119574   2.995   3.502   1.404
 6225SOL    HW219575   2.910   3.367   1.370
 6226SOL     OW19576   5.821   1.808   3.752
 6226SOL    HW119577   5.921   1.797   3.747
 6226SOL    HW219578   5.793   1.811   3.848
 6227SOL     OW19579   3.383   4.637   6.312
 6227SOL    HW119580   3.376   4.548   6.268
 6227SOL    HW219581   3.293   4.682   6.311
 6228SOL     OW19582   0.320   2.181   2.628
 6228SOL    HW119583   0.377   2.130   2.693
 6228SOL    HW219584   0.332   2.279   2.643
 6229SOL     OW19585   1.371   2.066   2.932
 6229SOL    HW119586   1.428   2.120   2.994
 6229SOL    HW219587   1.428   2.030   2.858
 6230SOL     OW19588   1.399   1.527   4.619
 6230SOL    HW119589   1.420   1.610   4.568
 6230SOL    HW219590   1.331   1.548   4.690
 6231SOL     OW19591   0.014   5.180   1.564
 6231SOL    HW119592   0.013   5.245   1.640
 6231SOL    HW219593   7.002   5.220   1.484
 6232SOL     OW19594   6.734   1.676   0.108
 6232SOL    HW119595   6.709   1.581   0.124
 6232SOL    HW219596   6.728   1.727   0.194
 6233SOL     OW19597   5.622   1.349   0.063
 6233SOL    HW119598   5.628   1.260   0.018
 6233SOL    HW219599   5.545   1.401   0.025
 6234SOL     OW19600   0.726   1.312   5.448
 6234SOL    HW119601   0.666   1.269   5.381
 6234SOL    HW219602   0.675   1.380   5.500
 6235SOL     OW19603   1.304   0.368   2.994
 6235SOL    HW119604   1.352   0.285   3.022
 6235SOL    HW219605   1.273   0.359   2.899
 6236SOL     OW19606   1.009   5.193   0.328
 6236SOL    HW119607   0.999   5.293   0.319
 6236SOL    HW219608   1.048   5.171   0.417
 6237SOL     OW19609   4.396   6.305   0.460
 6237SOL    HW119610   4.304   6.315   0.423
 6237SOL    HW219611   4.425   6.209   0.455
 6238SOL     OW19612   4.637   5.026   3.180
 6238SOL    HW119613   4.648   4.926   3.188
 6238SOL    HW219614   4.596   5.061   3.264
 6239SOL     OW19615   2.509   6.646   1.765
 6239SOL    HW119616   2.564   6.660   1.847
 6239SOL    HW219617   2.466   6.555   1.770
 6240SOL     OW19618   2.493   1.841   0.707
 6240SOL    HW119619   2.510   1.915   0.772
 6240SOL    HW219620   2.501   1.753   0.755
 6241SOL     OW19621   2.398   1.330   2.601
 6241SOL    HW119622   2.467   1.281   2.546
 6241SOL    HW219623   2.435   1.348   2.692
 6242SOL     OW19624   5.546   1.281   3.472
 6242SOL    HW119625   5.619   1.301   3.538
 6242SOL    HW219626   5.501   1.195   3.497
 6243SOL     OW19627   6.027   6.826   2.715
 6243SOL    HW119628   6.081   6.780   2.786
 6243SOL    HW219629   5.959   6.886   2.758
 6244SOL     OW19630   1.538   2.295   1.652
 6244SOL    HW119631   1.494   2.352   1.583
 6244SOL    HW219632   1.600   2.230   1.608
 6245SOL     OW19633   3.086   4.522   1.696
 6245SOL    HW119634   3.160   4.588   1.713
 6245SOL    HW219635   3.019   4.527   1.770
 6246SOL     OW19636   2.967   2.893   6.509
 6246SOL    HW119637   2.989   2.830   6.435
 6246SOL    HW219638   2.971   2.843   6.596
 6247SOL     OW19639   0.601   6.384   3.637
 6247SOL    HW119640   0.550   6.426   3.563
 6247SOL    HW219641   0.650   6.454   3.688
 6248SOL     OW19642   1.503   3.964   1.563
 6248SOL    HW119643   1.528   3.916   1.479
 6248SOL    HW219644   1.434   4.033   1.543
 6249SOL     OW19645   0.898   4.483   0.580
 6249SOL    HW119646   0.913   4.386   0.601
 6249SOL    HW219647   0.953   4.540   0.640
 6250SOL     OW19648   6.313   5.924   0.557
 6250SOL    HW119649   6.239   5.991   0.549
 6250SOL    HW219650   6.282   5.837   0.518
 6251SOL     OW19651   3.629   6.982   0.653
 6251SOL    HW119652   3.637   0.044   0.689
 6251SOL    HW219653   3.706   6.927   0.686
 6252SOL     OW19654   1.910   6.396   4.785
 6252SOL    HW119655   1.948   6.361   4.699
 6252SOL    HW219656   1.981   6.397   4.855
 6253SOL     OW19657   2.301   4.359   2.601
 6253SOL    HW119658   2.394   4.397   2.600
 6253SOL    HW219659   2.242   4.414   2.542
 6254SOL     OW19660   5.104   1.196   6.583
 6254SOL    HW119661   5.185   1.181   6.640
 6254SOL    HW219662   5.022   1.191   6.640
 6255SOL     OW19663   1.811   0.854   1.327
 6255SOL    HW119664   1.726   0.883   1.372
 6255SOL    HW219665   1.800   0.760   1.293
 6256SOL     OW19666   4.404   4.979   2.783
 6256SOL    HW119667   4.376   5.070   2.815
 6256SOL    HW219668   4.324   4.918   2.783
 6257SOL     OW19669   6.005   2.235   0.947
 6257SOL    HW119670   6.010   2.198   1.040
 6257SOL    HW219671   5.941   2.180   0.893
 6258SOL     OW19672   4.705   0.352   3.555
 6258SOL    HW119673   4.740   0.302   3.476
 6258SOL    HW219674   4.724   0.449   3.545
 6259SOL     OW19675   2.802   1.355   0.965
 6259SOL    HW119676   2.794   1.430   1.031
 6259SOL    HW219677   2.878   1.375   0.902
 6260SOL     OW19678   3.445   4.181   0.163
 6260SOL    HW119679   3.543   4.164   0.151
 6260SOL    HW219680   3.423   4.272   0.129
 6261SOL     OW19681   3.051   6.416   6.505
 6261SOL    HW119682   3.114   6.483   6.544
 6261SOL    HW219683   3.082   6.390   6.414
 6262SOL     OW19684   2.194   4.230   0.481
 6262SOL    HW119685   2.229   4.166   0.549
 6262SOL    HW219686   2.263   4.245   0.410
 6263SOL     OW19687   0.425   6.823   6.081
 6263SOL    HW119688   0.355   6.801   6.149
 6263SOL    HW219689   0.485   6.744   6.067
 6264SOL     OW19690   1.406   6.372   0.841
 6264SOL    HW119691   1.479   6.363   0.909
 6264SOL    HW219692   1.416   6.300   0.772
 6265SOL     OW19693   3.350   4.041   1.290
 6265SOL    HW119694   3.287   4.082   1.224
 6265SOL    HW219695   3.422   4.106   1.312
 6266SOL     OW19696   4.475   0.798   4.441
 6266SOL    HW119697   4.530   0.727   4.485
 6266SOL    HW219698   4.532   0.879   4.425
 6267SOL     OW19699   2.970   0.201   0.223
 6267SOL    HW119700   3.064   0.213   0.255
 6267SOL    HW219701   2.908   0.206   0.301
 6268SOL     OW19702   2.880   6.204   2.846
 6268SOL    HW119703   2.832   6.213   2.934
 6268SOL    HW219704   2.864   6.286   2.791
 6269SOL     OW19705   6.705   6.026   2.509
 6269SOL    HW119706   6.765   5.948   2.528
 6269SOL    HW219707   6.749   6.110   2.540
 6270SOL     OW19708   2.026   0.188   5.707
 6270SOL    HW119709   2.108   0.133   5.724
 6270SOL    HW219710   2.054   0.278   5.675
 6271SOL     OW19711   6.413   2.617   6.165
 6271SOL    HW119712   6.392   2.629   6.068
 6271SOL    HW219713   6.503   2.575   6.174
 6272SOL     OW19714   0.409   3.157   4.897
 6272SOL    HW119715   0.391   3.141   4.800
 6272SOL    HW219716   0.418   3.069   4.944
 6273SOL     OW19717   1.175   1.052   1.976
 6273SOL    HW119718   1.109   1.127   1.975
 6273SOL    HW219719   1.241   1.066   1.902
 6274SOL     OW19720   2.311   5.863   5.880
 6274SOL    HW119721   2.355   5.842   5.968
 6274SOL    HW219722   2.349   5.803   5.809
 6275SOL     OW19723   2.767   6.397   5.422
 6275SOL    HW119724   2.804   6.384   5.330
 6275SOL    HW219725   2.684   6.453   5.416
 6276SOL     OW19726   1.498   4.845   3.414
 6276SOL    HW119727   1.500   4.941   3.444
 6276SOL    HW219728   1.584   4.801   3.436
 6277SOL     OW19729   5.010   2.596   2.640
 6277SOL    HW119730   4.911   2.605   2.653
 6277SOL    HW219731   5.027   2.540   2.559
 6278SOL     OW19732   4.670   0.689   5.169
 6278SOL    HW119733   4.690   0.624   5.096
 6278SOL    HW219734   4.716   0.775   5.150
 6279SOL     OW19735   3.872   1.181   6.813
 6279SOL    HW119736   3.896   1.101   6.758
 6279SOL    HW219737   3.949   1.205   6.873
 6280SOL     OW19738   0.470   2.871   5.376
 6280SOL    HW119739   0.547   2.814   5.404
 6280SOL    HW219740   0.391   2.850   5.434
 6281SOL     OW19741   2.534   6.605   5.408
 6281SOL    HW119742   2.515   6.645   5.498
 6281SOL    HW219743   2.455   6.553   5.377
 6282SOL     OW19744   1.627   0.235   4.874
 6282SOL    HW119745   1.575   0.267   4.795
 6282SOL    HW219746   1.634   0.135   4.872
 6283SOL     OW19747   6.221   2.625   4.755
 6283SOL    HW119748   6.163   2.706   4.740
 6283SOL    HW219749   6.248   2.620   4.851
 6284SOL     OW19750   2.131   5.430   4.777
 6284SOL    HW119751   2.180   5.472   4.853
 6284SOL    HW219752   2.154   5.333   4.771
 6285SOL     OW19753   1.385   2.879   3.703
 6285SOL    HW119754   1.469   2.852   3.751
 6285SOL    HW219755   1.390   2.976   3.681
 6286SOL     OW19756   6.599   1.899   3.811
 6286SOL    HW119757   6.659   1.955   3.867
 6286SOL    HW219758   6.650   1.821   3.775
 6287SOL     OW19759   4.365   4.651   2.291
 6287SOL    HW119760   4.266   4.640   2.301
 6287SOL    HW219761   4.394   4.613   2.203
 6288SOL     OW19762   5.803   3.982   2.015
 6288SOL    HW119763   5.740   4.020   1.948
 6288SOL    HW219764   5.896   3.982   1.978
 6289SOL     OW19765   1.402   3.085   2.630
 6289SOL    HW119766   1.498   3.073   2.604
 6289SOL    HW219767   1.359   3.150   2.567
 6290SOL     OW19768   5.496   3.606   4.331
 6290SOL    HW119769   5.516   3.638   4.423
 6290SOL    HW219770   5.420   3.541   4.334
 6291SOL     OW19771   3.834   2.948   4.079
 6291SOL    HW119772   3.816   2.982   3.987
 6291SOL    HW219773   3.753   2.901   4.114
 6292SOL     OW19774   0.450   3.240   3.266
 6292SOL    HW119775   0.398   3.302   3.324
 6292SOL    HW219776   0.406   3.150   3.265
 6293SOL     OW19777   4.274   6.714   0.307
 6293SOL    HW119778   4.261   6.811   0.327
 6293SOL    HW219779   4.238   6.695   0.215
 6294SOL     OW19780   3.930   5.001   3.514
 6294SOL    HW119781   3.895   5.039   3.600
 6294SOL    HW219782   4.022   4.965   3.529
 6295SOL     OW19783   5.202   5.542   5.625
 6295SOL    HW119784   5.141   5.469   5.657
 6295SOL    HW219785   5.296   5.518   5.646
 6296SOL     OW19786   6.640   6.871   4.098
 6296SOL    HW119787   6.688   6.813   4.164
 6296SOL    HW219788   6.684   6.862   4.008
 6297SOL     OW19789   4.750   0.016   5.215
 6297SOL    HW119790   4.814   0.093   5.221
 6297SOL    HW219791   4.681   0.025   5.287
 6298SOL     OW19792   1.587   3.425   5.859
 6298SOL    HW119793   1.534   3.489   5.914
 6298SOL    HW219794   1.525   3.370   5.802
 6299SOL     OW19795   5.995   2.184   7.000
 6299SOL    HW119796   5.914   2.223   6.955
 6299SOL    HW219797   6.067   2.253   7.004
 6300SOL     OW19798   5.461   0.713   5.080
 6300SOL    HW119799   5.365   0.686   5.079
 6300SOL    HW219800   5.509   0.662   5.152
 6301SOL     OW19801   2.685   0.191   0.914
 6301SOL    HW119802   2.611   0.123   0.907
 6301SOL    HW219803   2.655   0.277   0.873
 6302SOL     OW19804   1.314   1.944   4.132
 6302SOL    HW119805   1.371   1.965   4.211
 6302SOL    HW219806   1.222   1.981   4.146
 6303SOL     OW19807   2.841   0.797   5.117
 6303SOL    HW119808   2.744   0.811   5.134
 6303SOL    HW219809   2.855   0.714   5.064
 6304SOL     OW19810   2.535   0.993   1.314
 6304SOL    HW119811   2.443   0.955   1.304
 6304SOL    HW219812   2.530   1.093   1.313
 6305SOL     OW19813   6.365   6.546   0.867
 6305SOL    HW119814   6.344   6.636   0.907
 6305SOL    HW219815   6.445   6.553   0.808
 6306SOL     OW19816   0.186   3.937   4.407
 6306SOL    HW119817   0.158   3.950   4.312
 6306SOL    HW219818   0.282   3.908   4.410
 6307SOL     OW19819   3.935   4.434   6.012
 6307SOL    HW119820   3.964   4.443   5.917
 6307SOL    HW219821   3.974   4.508   6.067
 6308SOL     OW19822   1.391   1.793   5.012
 6308SOL    HW119823   1.368   1.715   5.071
 6308SOL    HW219824   1.396   1.876   5.068
 6309SOL     OW19825   4.855   3.966   4.444
 6309SOL    HW119826   4.900   3.950   4.532
 6309SOL    HW219827   4.826   4.062   4.438
 6310SOL     OW19828   1.927   5.061   4.450
 6310SOL    HW119829   1.883   5.057   4.540
 6310SOL    HW219830   1.875   5.006   4.385
 6311SOL     OW19831   6.270   0.853   5.516
 6311SOL    HW119832   6.368   0.872   5.521
 6311SOL    HW219833   6.219   0.929   5.557
 6312SOL     OW19834   5.077   5.276   5.932
 6312SOL    HW119835   5.075   5.196   5.873
 6312SOL    HW219836   4.986   5.316   5.937
 6313SOL     OW19837   1.834   5.644   3.193
 6313SOL    HW119838   1.863   5.684   3.280
 6313SOL    HW219839   1.914   5.625   3.136
 6314SOL     OW19840   3.529   6.871   1.973
 6314SOL    HW119841   3.448   6.814   1.957
 6314SOL    HW219842   3.533   6.943   1.903
 6315SOL     OW19843   3.760   2.450   6.612
 6315SOL    HW119844   3.832   2.415   6.552
 6315SOL    HW219845   3.680   2.475   6.558
 6316SOL     OW19846   4.571   2.436   6.176
 6316SOL    HW119847   4.536   2.516   6.225
 6316SOL    HW219848   4.496   2.370   6.164
 6317SOL     OW19849   5.486   6.343   3.444
 6317SOL    HW119850   5.494   6.252   3.486
 6317SOL    HW219851   5.406   6.390   3.482
 6318SOL     OW19852   2.768   2.288   5.218
 6318SOL    HW119853   2.753   2.201   5.172
 6318SOL    HW219854   2.864   2.295   5.247
 6319SOL     OW19855   0.213   2.958   3.704
 6319SOL    HW119856   0.143   2.887   3.710
 6319SOL    HW219857   0.297   2.920   3.665
 6320SOL     OW19858   5.590   4.526   3.974
 6320SOL    HW119859   5.499   4.508   3.939
 6320SOL    HW219860   5.636   4.439   3.995
 6321SOL     OW19861   3.336   5.253   1.564
 6321SOL    HW119862   3.267   5.202   1.615
 6321SOL    HW219863   3.300   5.343   1.539
 6322SOL     OW19864   1.761   2.056   6.249
 6322SOL    HW119865   1.851   2.091   6.221
 6322SOL    HW219866   1.771   2.003   6.333
 6323SOL     OW19867   3.302   2.603   1.134
 6323SOL    HW119868   3.292   2.561   1.044
 6323SOL    HW219869   3.400   2.614   1.155
 6324SOL     OW19870   4.685   0.910   6.145
 6324SOL    HW119871   4.769   0.961   6.130
 6324SOL    HW219872   4.647   0.881   6.057
 6325SOL     OW19873   1.463   1.896   1.530
 6325SOL    HW119874   1.504   1.963   1.468
 6325SOL    HW219875   1.477   1.804   1.493
 6326SOL     OW19876   5.227   6.299   1.365
 6326SOL    HW119877   5.204   6.363   1.292
 6326SOL    HW219878   5.323   6.311   1.391
 6327SOL     OW19879   6.940   0.338   5.284
 6327SOL    HW119880   6.895   0.301   5.365
 6327SOL    HW219881   7.025   0.384   5.311
 6328SOL     OW19882   2.453   3.670   6.942
 6328SOL    HW119883   2.537   3.678   6.995
 6328SOL    HW219884   2.433   3.574   6.924
 6329SOL     OW19885   1.205   2.425   3.423
 6329SOL    HW119886   1.262   2.394   3.499
 6329SOL    HW219887   1.207   2.525   3.420
 6330SOL     OW19888   4.828   0.929   1.159
 6330SOL    HW119889   4.909   0.979   1.190
 6330SOL    HW219890   4.823   0.841   1.205
 6331SOL     OW19891   6.496   2.546   0.742
 6331SOL    HW119892   6.472   2.570   0.837
 6331SOL    HW219893   6.415   2.551   0.685
 6332SOL     OW19894   6.435   4.735   2.419
 6332SOL    HW119895   6.490   4.819   2.416
 6332SOL    HW219896   6.338   4.758   2.410
 6333SOL     OW19897   3.869   5.139   3.787
 6333SOL    HW119898   3.968   5.138   3.774
 6333SOL    HW219899   3.838   5.049   3.817
 6334SOL     OW19900   1.652   6.996   2.776
 6334SOL    HW119901   1.607   0.049   2.803
 6334SOL    HW219902   1.722   7.016   2.707
 6335SOL     OW19903   5.585   1.598   0.800
 6335SOL    HW119904   5.656   1.599   0.728
 6335SOL    HW219905   5.496   1.579   0.758
 6336SOL     OW19906   7.016   2.452   5.216
 6336SOL    HW119907   0.062   2.435   5.155
 6336SOL    HW219908   6.956   2.372   5.217
 6337SOL     OW19909   4.811   3.390   6.255
 6337SOL    HW119910   4.777   3.483   6.274
 6337SOL    HW219911   4.734   3.328   6.245
 6338SOL     OW19912   2.648   2.127   2.409
 6338SOL    HW119913   2.721   2.174   2.358
 6338SOL    HW219914   2.571   2.110   2.348
 6339SOL     OW19915   0.295   2.376   3.785
 6339SOL    HW119916   0.316   2.391   3.688
 6339SOL    HW219917   0.380   2.366   3.836
 6340SOL     OW19918   2.848   5.828   3.348
 6340SOL    HW119919   2.752   5.812   3.325
 6340SOL    HW219920   2.884   5.749   3.399
 6341SOL     OW19921   6.847   4.912   3.644
 6341SOL    HW119922   6.942   4.915   3.678
 6341SOL    HW219923   6.796   4.842   3.695
 6342SOL     OW19924   2.467   1.678   1.848
 6342SOL    HW119925   2.491   1.738   1.772
 6342SOL    HW219926   2.415   1.729   1.916
 6343SOL     OW19927   4.812   2.727   6.830
 6343SOL    HW119928   4.776   2.639   6.798
 6343SOL    HW219929   4.854   2.714   6.920
 6344SOL     OW19930   6.493   3.529   5.967
 6344SOL    HW119931   6.496   3.537   5.867
 6344SOL    HW219932   6.410   3.479   5.993
 6345SOL     OW19933   4.326   0.931   1.984
 6345SOL    HW119934   4.319   1.027   2.012
 6345SOL    HW219935   4.240   0.884   2.002
 6346SOL     OW19936   6.501   3.602   3.743
 6346SOL    HW119937   6.455   3.660   3.675
 6346SOL    HW219938   6.588   3.644   3.769
 6347SOL     OW19939   3.136   0.818   1.935
 6347SOL    HW119940   3.060   0.814   2.001
 6347SOL    HW219941   3.102   0.793   1.845
 6348SOL     OW19942   0.985   3.821   5.283
 6348SOL    HW119943   0.954   3.832   5.188
 6348SOL    HW219944   0.954   3.899   5.337
 6349SOL     OW19945   2.433   0.807   1.808
 6349SOL    HW119946   2.462   0.716   1.837
 6349SOL    HW219947   2.499   0.843   1.742
 6350SOL     OW19948   2.073   4.950   3.411
 6350SOL    HW119949   1.995   4.988   3.460
 6350SOL    HW219950   2.076   4.851   3.424
 6351SOL     OW19951   6.424   2.702   2.001
 6351SOL    HW119952   6.514   2.660   1.985
 6351SOL    HW219953   6.397   2.687   2.096
 6352SOL     OW19954   1.880   5.478   4.218
 6352SOL    HW119955   1.854   5.451   4.125
 6352SOL    HW219956   1.970   5.522   4.215
 6353SOL     OW19957   6.643   0.640   6.504
 6353SOL    HW119958   6.633   0.541   6.499
 6353SOL    HW219959   6.555   0.682   6.525
 6354SOL     OW19960   1.233   6.955   2.371
 6354SOL    HW119961   1.137   6.944   2.396
 6354SOL    HW219962   1.291   6.924   2.446
 6355SOL     OW19963   0.846   4.512   5.261
 6355SOL    HW119964   0.827   4.444   5.332
 6355SOL    HW219965   0.940   4.499   5.228
 6356SOL     OW19966   5.132   4.937   1.906
 6356SOL    HW119967   5.100   5.022   1.948
 6356SOL    HW219968   5.232   4.936   1.906
 6357SOL     OW19969   4.926   2.700   1.004
 6357SOL    HW119970   4.935   2.777   1.066
 6357SOL    HW219971   4.965   2.618   1.046
 6358SOL     OW19972   0.523   2.098   4.816
 6358SOL    HW119973   0.571   2.011   4.805
 6358SOL    HW219974   0.590   2.172   4.820
 6359SOL     OW19975   6.332   0.299   5.494
 6359SOL    HW119976   6.411   0.292   5.433
 6359SOL    HW219977   6.349   0.368   5.564
 6360SOL     OW19978   2.349   4.715   4.196
 6360SOL    HW119979   2.417   4.663   4.247
 6360SOL    HW219980   2.304   4.655   4.129
 6361SOL     OW19981   5.822   6.728   6.828
 6361SOL    HW119982   5.837   6.688   6.738
 6361SOL    HW219983   5.865   6.818   6.832
 6362SOL     OW19984   5.816   4.845   6.903
 6362SOL    HW119985   5.755   4.769   6.927
 6362SOL    HW219986   5.864   4.824   6.818
 6363SOL     OW19987   2.339   5.042   3.392
 6363SOL    HW119988   2.272   4.990   3.445
 6363SOL    HW219989   2.295   5.079   3.310
 6364SOL     OW19990   2.989   1.427   5.899
 6364SOL    HW119991   2.941   1.399   5.815
 6364SOL    HW219992   3.054   1.499   5.877
 6365SOL     OW19993   4.569   7.017   4.566
 6365SOL    HW119994   4.633   6.963   4.622
 6365SOL    HW219995   4.611   0.073   4.543
 6366SOL     OW19996   0.407   6.412   5.523
 6366SOL    HW119997   0.337   6.451   5.462
 6366SOL    HW219998   0.438   6.325   5.485
 6367SOL     OW19999   4.508   0.394   4.050
 6367SOL    HW120000   4.592   0.341   4.059
 6367SOL    HW220001   4.442   0.364   4.119
 6368SOL     OW20002   2.894   0.271   4.026
 6368SOL    HW120003   2.928   0.307   4.113
 6368SOL    HW220004   2.913   0.173   4.020
 6369SOL     OW20005   3.386   4.908   4.650
 6369SOL    HW120006   3.345   4.817   4.642
 6369SOL    HW220007   3.387   4.952   4.560
 6370SOL     OW20008   1.380   2.585   2.735
 6370SOL    HW120009   1.308   2.654   2.737
 6370SOL    HW220010   1.348   2.503   2.687
 6371SOL     OW20011   4.973   3.442   3.890
 6371SOL    HW120012   5.035   3.428   3.813
 6371SOL    HW220013   4.989   3.371   3.959
 6372SOL     OW20014   2.788   6.902   1.761
 6372SOL    HW120015   2.870   6.939   1.717
 6372SOL    HW220016   2.709   6.959   1.737
 6373SOL     OW20017   5.806   4.703   4.325
 6373SOL    HW120018   5.771   4.610   4.330
 6373SOL    HW220019   5.825   4.727   4.230
 6374SOL     OW20020   3.114   3.886   3.700
 6374SOL    HW120021   3.075   3.940   3.775
 6374SOL    HW220022   3.154   3.947   3.632
 6375SOL     OW20023   0.972   1.336   3.478
 6375SOL    HW120024   0.952   1.241   3.500
 6375SOL    HW220025   1.047   1.340   3.412
 6376SOL     OW20026   6.235   1.912   5.317
 6376SOL    HW120027   6.177   1.991   5.295
 6376SOL    HW220028   6.278   1.926   5.406
 6377SOL     OW20029   6.769   1.182   6.169
 6377SOL    HW120030   6.694   1.131   6.212
 6377SOL    HW220031   6.821   1.231   6.239
 6378SOL     OW20032   5.505   5.029   3.483
 6378SOL    HW120033   5.459   5.061   3.400
 6378SOL    HW220034   5.445   5.046   3.561
 6379SOL     OW20035   2.402   4.974   4.903
 6379SOL    HW120036   2.310   4.944   4.878
 6379SOL    HW220037   2.426   4.937   4.992
 6380SOL     OW20038   1.140   1.438   5.322
 6380SOL    HW120039   1.043   1.437   5.301
 6380SOL    HW220040   1.175   1.344   5.321
 6381SOL     OW20041   3.608   2.849   2.800
 6381SOL    HW120042   3.634   2.812   2.711
 6381SOL    HW220043   3.687   2.893   2.842
 6382SOL     OW20044   1.346   2.560   0.137
 6382SOL    HW120045   1.379   2.625   0.206
 6382SOL    HW220046   1.325   2.473   0.182
 6383SOL     OW20047   1.856   2.386   3.236
 6383SOL    HW120048   1.893   2.317   3.175
 6383SOL    HW220049   1.930   2.425   3.292
 6384SOL     OW20050   5.870   4.632   1.697
 6384SOL    HW120051   5.921   4.680   1.626
 6384SOL    HW220052   5.790   4.587   1.657
 6385SOL     OW20053   6.201   4.901   4.227
 6385SOL    HW120054   6.148   4.977   4.190
 6385SOL    HW220055   6.298   4.919   4.214
 6386SOL     OW20056   2.487   4.282   0.325
 6386SOL    HW120057   2.534   4.367   0.303
 6386SOL    HW220058   2.511   4.255   0.418
 6387SOL     OW20059   0.845   2.212   6.102
 6387SOL    HW120060   0.798   2.286   6.151
 6387SOL    HW220061   0.781   2.137   6.087
 6388SOL     OW20062   4.444   4.616   1.596
 6388SOL    HW120063   4.380   4.618   1.520
 6388SOL    HW220064   4.405   4.560   1.670
 6389SOL     OW20065   0.952   5.895   1.919
 6389SOL    HW120066   0.983   5.965   1.983
 6389SOL    HW220067   1.009   5.896   1.837
 6390SOL     OW20068   0.666   2.599   3.555
 6390SOL    HW120069   0.763   2.616   3.538
 6390SOL    HW220070   0.631   2.534   3.488
 6391SOL     OW20071   2.832   0.547   6.449
 6391SOL    HW120072   2.894   0.612   6.406
 6391SOL    HW220073   2.842   0.551   6.548
 6392SOL     OW20074   2.422   6.754   3.836
 6392SOL    HW120075   2.350   6.723   3.898
 6392SOL    HW220076   2.500   6.692   3.841
 6393SOL     OW20077   5.735   6.531   1.936
 6393SOL    HW120078   5.731   6.528   1.836
 6393SOL    HW220079   5.788   6.453   1.970
 6394SOL     OW20080   2.741   4.823   0.676
 6394SOL    HW120081   2.701   4.790   0.591
 6394SOL    HW220082   2.723   4.758   0.750
 6395SOL     OW20083   5.721   2.070   1.918
 6395SOL    HW120084   5.686   2.127   1.844
 6395SOL    HW220085   5.796   2.014   1.884
 6396SOL     OW20086   5.763   2.790   6.147
 6396SOL    HW120087   5.861   2.804   6.132
 6396SOL    HW220088   5.748   2.757   6.240
 6397SOL     OW20089   6.433   1.958   6.994
 6397SOL    HW120090   6.387   1.875   7.025
 6397SOL    HW220091   6.445   1.955   6.895
 6398SOL     OW20092   3.586   0.868   0.813
 6398SOL    HW120093   3.582   0.965   0.788
 6398SOL    HW220094   3.659   0.823   0.762
 6399SOL     OW20095   1.951   5.467   6.299
 6399SOL    HW120096   2.040   5.449   6.257
 6399SOL    HW220097   1.957   5.455   6.398
 6400SOL     OW20098   2.115   5.561   3.102
 6400SOL    HW120099   2.125   5.654   3.068
 6400SOL    HW220100   2.205   5.518   3.110
 6401SOL     OW20101   6.834   4.482   3.247
 6401SOL    HW120102   6.878   4.495   3.158
 6401SOL    HW220103   6.850   4.563   3.304
 6402SOL     OW20104   2.734   0.560   3.164
 6402SOL    HW120105   2.674   0.516   3.097
 6402SOL    HW220106   2.759   0.652   3.132
 6403SOL     OW20107   0.804   5.822   6.236
 6403SOL    HW120108   0.871   5.887   6.200
 6403SOL    HW220109   0.715   5.840   6.195
 6404SOL     OW20110   4.199   1.421   3.145
 6404SOL    HW120111   4.224   1.325   3.129
 6404SOL    HW220112   4.102   1.427   3.168
 6405SOL     OW20113   1.876   1.530   2.694
 6405SOL    HW120114   1.883   1.455   2.760
 6405SOL    HW220115   1.834   1.497   2.610
 6406SOL     OW20116   1.652   2.695   3.671
 6406SOL    HW120117   1.576   2.699   3.606
 6406SOL    HW220118   1.738   2.713   3.622
 6407SOL     OW20119   3.009   6.664   3.651
 6407SOL    HW120120   2.938   6.612   3.603
 6407SOL    HW220121   3.099   6.627   3.627
 6408SOL     OW20122   6.388   2.756   0.155
 6408SOL    HW120123   6.481   2.731   0.180
 6408SOL    HW220124   6.354   2.693   0.085
 6409SOL     OW20125   6.529   4.471   3.237
 6409SOL    HW120126   6.458   4.403   3.259
 6409SOL    HW220127   6.611   4.450   3.289
 6410SOL     OW20128   1.653   1.789   0.397
 6410SOL    HW120129   1.617   1.725   0.465
 6410SOL    HW220130   1.725   1.744   0.344
 6411SOL     OW20131   0.391   2.571   3.317
 6411SOL    HW120132   0.328   2.623   3.259
 6411SOL    HW220133   0.464   2.533   3.260
 6412SOL     OW20134   0.125   3.305   5.189
 6412SOL    HW120135   0.147   3.257   5.104
 6412SOL    HW220136   0.180   3.268   5.263
 6413SOL     OW20137   5.289   4.330   2.070
 6413SOL    HW120138   5.305   4.361   1.976
 6413SOL    HW220139   5.297   4.408   2.132
 6414SOL     OW20140   5.904   0.846   1.888
 6414SOL    HW120141   5.956   0.864   1.804
 6414SOL    HW220142   5.940   0.763   1.932
 6415SOL     OW20143   3.400   1.991   2.628
 6415SOL    HW120144   3.494   2.006   2.660
 6415SOL    HW220145   3.381   1.893   2.625
 6416SOL     OW20146   1.189   0.696   5.988
 6416SOL    HW120147   1.239   0.724   6.071
 6416SOL    HW220148   1.237   0.731   5.908
 6417SOL     OW20149   0.739   5.140   3.255
 6417SOL    HW120150   0.743   5.083   3.337
 6417SOL    HW220151   0.669   5.210   3.266
 6418SOL     OW20152   6.631   4.957   2.432
 6418SOL    HW120153   6.550   5.014   2.416
 6418SOL    HW220154   6.690   4.959   2.351
 6419SOL     OW20155   3.066   5.131   2.226
 6419SOL    HW120156   3.032   5.174   2.142
 6419SOL    HW220157   3.037   5.036   2.228
 6420SOL     OW20158   3.029   3.652   6.236
 6420SOL    HW120159   2.960   3.648   6.308
 6420SOL    HW220160   3.110   3.700   6.270
 6421SOL     OW20161   6.053   1.457   1.457
 6421SOL    HW120162   6.072   1.441   1.360
 6421SOL    HW220163   6.133   1.497   1.500
 6422SOL     OW20164   6.815   0.121   3.878
 6422SOL    HW120165   6.725   0.087   3.852
 6422SOL    HW220166   6.842   0.196   3.818
 6423SOL     OW20167   4.808   4.187   2.001
 6423SOL    HW120168   4.821   4.134   2.085
 6423SOL    HW220169   4.735   4.254   2.015
 6424SOL     OW20170   6.730   4.755   5.765
 6424SOL    HW120171   6.769   4.836   5.721
 6424SOL    HW220172   6.756   4.754   5.861
 6425SOL     OW20173   6.798   5.049   4.237
 6425SOL    HW120174   6.886   5.016   4.269
 6425SOL    HW220175   6.725   5.007   4.291
 6426SOL     OW20176   0.419   3.630   3.892
 6426SOL    HW120177   0.371   3.645   3.806
 6426SOL    HW220178   0.462   3.715   3.922
 6427SOL     OW20179   1.756   3.359   6.518
 6427SOL    HW120180   1.816   3.377   6.596
 6427SOL    HW220181   1.667   3.327   6.552
 6428SOL     OW20182   6.546   3.592   0.936
 6428SOL    HW120183   6.643   3.588   0.913
 6428SOL    HW220184   6.501   3.506   0.910
 6429SOL     OW20185   0.991   1.027   4.884
 6429SOL    HW120186   0.973   1.030   4.786
 6429SOL    HW220187   1.048   0.947   4.905
 6430SOL     OW20188   4.489   1.179   1.758
 6430SOL    HW120189   4.390   1.176   1.744
 6430SOL    HW220190   4.525   1.086   1.763
 6431SOL     OW20191   5.836   6.952   3.171
 6431SOL    HW120192   5.865   6.879   3.109
 6431SOL    HW220193   5.789   6.912   3.250
 6432SOL     OW20194   4.397   4.392   0.407
 6432SOL    HW120195   4.397   4.447   0.323
 6432SOL    HW220196   4.455   4.436   0.476
 6433SOL     OW20197   3.005   4.523   1.221
 6433SOL    HW120198   3.104   4.520   1.237
 6433SOL    HW220199   2.976   4.437   1.179
 6434SOL     OW20200   1.112   3.836   1.439
 6434SOL    HW120201   1.208   3.807   1.441
 6434SOL    HW220202   1.068   3.807   1.524
 6435SOL     OW20203   3.844   5.045   6.681
 6435SOL    HW120204   3.860   4.964   6.736
 6435SOL    HW220205   3.822   5.122   6.741
 6436SOL     OW20206   2.146   3.173   4.156
 6436SOL    HW120207   2.153   3.264   4.198
 6436SOL    HW220208   2.171   3.103   4.224
 6437SOL     OW20209   1.635   1.477   0.335
 6437SOL    HW120210   1.584   1.535   0.399
 6437SOL    HW220211   1.579   1.399   0.307
 6438SOL     OW20212   0.138   4.327   5.338
 6438SOL    HW120213   0.101   4.266   5.268
 6438SOL    HW220214   0.199   4.276   5.399
 6439SOL     OW20215   0.512   6.563   0.858
 6439SOL    HW120216   0.488   6.498   0.930
 6439SOL    HW220217   0.428   6.603   0.821
 6440SOL     OW20218   2.320   1.439   1.869
 6440SOL    HW120219   2.391   1.505   1.844
 6440SOL    HW220220   2.340   1.351   1.826
 6441SOL     OW20221   0.975   6.996   2.449
 6441SOL    HW120222   0.935   0.055   2.465
 6441SOL    HW220223   0.923   6.948   2.378
 6442SOL     OW20224   1.788   1.299   3.480
 6442SOL    HW120225   1.706   1.290   3.423
 6442SOL    HW220226   1.776   1.375   3.543
 6443SOL     OW20227   3.178   3.159   0.728
 6443SOL    HW120228   3.273   3.185   0.749
 6443SOL    HW220229   3.149   3.087   0.791
 6444SOL     OW20230   0.420   2.389   3.520
 6444SOL    HW120231   0.505   2.350   3.484
 6444SOL    HW220232   0.390   2.463   3.461
 6445SOL     OW20233   4.586   2.565   5.523
 6445SOL    HW120234   4.520   2.634   5.493
 6445SOL    HW220235   4.656   2.607   5.579
 6446SOL     OW20236   0.145   2.012   5.942
 6446SOL    HW120237   0.225   1.955   5.922
 6446SOL    HW220238   0.171   2.108   5.936
 6447SOL     OW20239   0.364   6.400   2.486
 6447SOL    HW120240   0.348   6.446   2.573
 6447SOL    HW220241   0.437   6.332   2.496
 6448SOL     OW20242   6.291   4.012   2.568
 6448SOL    HW120243   6.215   4.032   2.506
 6448SOL    HW220244   6.268   4.047   2.659
 6449SOL     OW20245   4.172   4.040   1.467
 6449SOL    HW120246   4.111   4.091   1.407
 6449SOL    HW220247   4.202   4.099   1.542
 6450SOL     OW20248   6.898   3.221   1.691
 6450SOL    HW120249   6.907   3.321   1.689
 6450SOL    HW220250   6.802   3.196   1.683
 6451SOL     OW20251   2.969   6.485   5.575
 6451SOL    HW120252   2.880   6.448   5.551
 6451SOL    HW220253   2.958   6.578   5.611
 6452SOL     OW20254   3.662   6.536   5.159
 6452SOL    HW120255   3.646   6.549   5.256
 6452SOL    HW220256   3.587   6.482   5.120
 6453SOL     OW20257   2.052   6.500   6.787
 6453SOL    HW120258   1.990   6.540   6.854
 6453SOL    HW220259   2.047   6.554   6.702
 6454SOL     OW20260   3.047   1.393   3.797
 6454SOL    HW120261   3.046   1.492   3.790
 6454SOL    HW220262   2.999   1.364   3.879
 6455SOL     OW20263   0.935   2.416   4.094
 6455SOL    HW120264   0.882   2.484   4.145
 6455SOL    HW220265   0.980   2.354   4.158
 6456SOL     OW20266   1.553   0.419   3.729
 6456SOL    HW120267   1.555   0.518   3.730
 6456SOL    HW220268   1.493   0.387   3.656
 6457SOL     OW20269   5.575   1.417   1.016
 6457SOL    HW120270   5.482   1.398   1.047
 6457SOL    HW220271   5.575   1.501   0.961
 6458SOL     OW20272   1.079   6.118   2.615
 6458SOL    HW120273   1.122   6.028   2.625
 6458SOL    HW220274   1.031   6.141   2.700
 6459SOL     OW20275   5.397   5.833   0.920
 6459SOL    HW120276   5.395   5.750   0.864
 6459SOL    HW220277   5.350   5.907   0.872
 6460SOL     OW20278   4.313   4.949   6.103
 6460SOL    HW120279   4.348   4.889   6.175
 6460SOL    HW220280   4.329   5.044   6.129
 6461SOL     OW20281   3.214   5.522   4.937
 6461SOL    HW120282   3.205   5.545   5.034
 6461SOL    HW220283   3.128   5.480   4.905
 6462SOL     OW20284   2.127   2.901   5.219
 6462SOL    HW120285   2.203   2.950   5.177
 6462SOL    HW220286   2.162   2.826   5.275
 6463SOL     OW20287   2.079   4.398   6.322
 6463SOL    HW120288   2.149   4.449   6.371
 6463SOL    HW220289   2.100   4.398   6.224
 6464SOL     OW20290   1.223   4.590   4.102
 6464SOL    HW120291   1.301   4.536   4.134
 6464SOL    HW220292   1.249   4.686   4.098
 6465SOL     OW20293   5.653   2.784   3.977
 6465SOL    HW120294   5.732   2.799   3.919
 6465SOL    HW220295   5.636   2.685   3.986
 6466SOL     OW20296   0.127   2.669   5.296
 6466SOL    HW120297   0.127   2.717   5.208
 6466SOL    HW220298   0.066   2.590   5.291
 6467SOL     OW20299   2.544   1.107   6.902
 6467SOL    HW120300   2.509   1.197   6.878
 6467SOL    HW220301   2.469   1.042   6.908
 6468SOL     OW20302   4.029   5.976   1.342
 6468SOL    HW120303   4.030   5.944   1.247
 6468SOL    HW220304   4.106   5.936   1.391
 6469SOL     OW20305   5.194   0.708   5.457
 6469SOL    HW120306   5.114   0.677   5.507
 6469SOL    HW220307   5.248   0.628   5.429
 6470SOL     OW20308   6.447   5.417   6.545
 6470SOL    HW120309   6.351   5.446   6.539
 6470SOL    HW220310   6.505   5.485   6.501
 6471SOL     OW20311   6.340   5.577   5.924
 6471SOL    HW120312   6.354   5.637   5.845
 6471SOL    HW220313   6.376   5.486   5.903
 6472SOL     OW20314   0.576   5.138   0.864
 6472SOL    HW120315   0.608   5.076   0.792
 6472SOL    HW220316   0.591   5.096   0.954
 6473SOL     OW20317   2.096   1.738   5.697
 6473SOL    HW120318   2.139   1.727   5.607
 6473SOL    HW220319   2.056   1.829   5.703
 6474SOL     OW20320   1.421   4.497   5.777
 6474SOL    HW120321   1.351   4.456   5.836
 6474SOL    HW220322   1.470   4.424   5.728
 6475SOL     OW20323   6.016   5.822   4.248
 6475SOL    HW120324   5.998   5.756   4.174
 6475SOL    HW220325   6.105   5.804   4.288
 6476SOL     OW20326   5.135   3.730   1.972
 6476SOL    HW120327   5.207   3.700   2.036
 6476SOL    HW220328   5.067   3.782   2.022
 6477SOL     OW20329   0.146   5.023   1.020
 6477SOL    HW120330   0.086   4.993   0.946
 6477SOL    HW220331   0.091   5.069   1.090
 6478SOL     OW20332   2.973   6.066   2.392
 6478SOL    HW120333   2.913   6.059   2.312
 6478SOL    HW220334   2.998   5.975   2.423
 6479SOL     OW20335   4.226   5.341   2.422
 6479SOL    HW120336   4.324   5.332   2.403
 6479SOL    HW220337   4.208   5.316   2.518
 6480SOL     OW20338   3.989   3.036   5.835
 6480SOL    HW120339   3.972   3.109   5.901
 6480SOL    HW220340   3.964   3.066   5.743
 6481SOL     OW20341   3.459   2.276   1.781
 6481SOL    HW120342   3.555   2.272   1.807
 6481SOL    HW220343   3.449   2.334   1.699
 6482SOL     OW20344   6.913   0.711   6.161
 6482SOL    HW120345   6.947   0.618   6.152
 6482SOL    HW220346   6.991   0.775   6.155
 6483SOL     OW20347   2.599   6.380   2.077
 6483SOL    HW120348   2.613   6.313   2.003
 6483SOL    HW220349   2.505   6.372   2.111
 6484SOL     OW20350   3.762   0.407   2.674
 6484SOL    HW120351   3.678   0.454   2.649
 6484SOL    HW220352   3.825   0.471   2.717
 6485SOL     OW20353   1.399   3.527   3.691
 6485SOL    HW120354   1.357   3.489   3.609
 6485SOL    HW220355   1.363   3.480   3.772
 6486SOL     OW20356   1.236   4.695   3.792
 6486SOL    HW120357   1.212   4.743   3.708
 6486SOL    HW220358   1.259   4.600   3.770
 6487SOL     OW20359   6.089   5.872   5.100
 6487SOL    HW120360   6.021   5.944   5.113
 6487SOL    HW220361   6.086   5.841   5.005
 6488SOL     OW20362   3.174   6.037   5.220
 6488SOL    HW120363   3.256   5.999   5.260
 6488SOL    HW220364   3.124   6.090   5.289
 6489SOL     OW20365   2.098   3.034   6.638
 6489SOL    HW120366   2.092   3.119   6.690
 6489SOL    HW220367   2.190   3.026   6.599
 6490SOL     OW20368   4.056   2.274   6.796
 6490SOL    HW120369   4.032   2.367   6.768
 6490SOL    HW220370   4.144   2.276   6.843
 6491SOL     OW20371   4.125   1.006   6.581
 6491SOL    HW120372   4.050   0.956   6.624
 6491SOL    HW220373   4.208   0.951   6.582
 6492SOL     OW20374   6.097   6.162   6.821
 6492SOL    HW120375   6.084   6.261   6.816
 6492SOL    HW220376   6.151   6.139   6.901
 6493SOL     OW20377   1.231   6.284   5.141
 6493SOL    HW120378   1.298   6.244   5.204
 6493SOL    HW220379   1.214   6.379   5.166
 6494SOL     OW20380   0.410   0.812   3.233
 6494SOL    HW120381   0.354   0.887   3.198
 6494SOL    HW220382   0.405   0.735   3.169
 6495SOL     OW20383   5.030   6.179   3.876
 6495SOL    HW120384   5.085   6.139   3.803
 6495SOL    HW220385   5.072   6.158   3.965
 6496SOL     OW20386   6.976   6.539   2.082
 6496SOL    HW120387   6.937   6.570   2.169
 6496SOL    HW220388   0.025   6.482   2.099
 6497SOL     OW20389   2.380   2.750   0.495
 6497SOL    HW120390   2.426   2.833   0.462
 6497SOL    HW220391   2.449   2.681   0.519
 6498SOL     OW20392   2.582   4.881   4.023
 6498SOL    HW120393   2.585   4.808   4.090
 6498SOL    HW220394   2.643   4.955   4.051
 6499SOL     OW20395   5.247   1.082   5.093
 6499SOL    HW120396   5.262   1.021   5.171
 6499SOL    HW220397   5.298   1.047   5.014
 6500SOL     OW20398   6.757   4.543   3.559
 6500SOL    HW120399   6.854   4.563   3.547
 6500SOL    HW220400   6.746   4.473   3.630
 6501SOL     OW20401   6.736   2.773   0.882
 6501SOL    HW120402   6.808   2.792   0.949
 6501SOL    HW220403   6.667   2.846   0.887
 6502SOL     OW20404   0.225   3.895   3.368
 6502SOL    HW120405   0.276   3.974   3.334
 6502SOL    HW220406   0.290   3.821   3.390
 6503SOL     OW20407   6.016   6.743   3.528
 6503SOL    HW120408   5.928   6.735   3.574
 6503SOL    HW220409   6.089   6.718   3.591
 6504SOL     OW20410   4.234   6.739   6.742
 6504SOL    HW120411   4.260   6.659   6.689
 6504SOL    HW220412   4.263   6.822   6.693
 6505SOL     OW20413   6.636   4.418   1.011
 6505SOL    HW120414   6.581   4.456   0.936
 6505SOL    HW220415   6.639   4.484   1.086
 6506SOL     OW20416   0.492   3.014   0.798
 6506SOL    HW120417   0.502   2.915   0.786
 6506SOL    HW220418   0.583   3.056   0.793
 6507SOL     OW20419   1.403   6.000   6.902
 6507SOL    HW120420   1.473   5.972   6.837
 6507SOL    HW220421   1.329   5.933   6.903
 6508SOL     OW20422   2.091   1.740   3.570
 6508SOL    HW120423   2.163   1.794   3.526
 6508SOL    HW220424   2.016   1.801   3.597
 6509SOL     OW20425   1.927   2.295   4.674
 6509SOL    HW120426   2.008   2.295   4.732
 6509SOL    HW220427   1.915   2.204   4.634
 6510SOL     OW20428   0.320   5.513   6.803
 6510SOL    HW120429   0.240   5.525   6.862
 6510SOL    HW220430   0.367   5.428   6.827
 6511SOL     OW20431   6.011   0.189   4.400
 6511SOL    HW120432   5.937   0.219   4.341
 6511SOL    HW220433   6.092   0.245   4.384
 6512SOL     OW20434   4.470   0.267   2.995
 6512SOL    HW120435   4.495   0.175   3.025
 6512SOL    HW220436   4.507   0.335   3.058
 6513SOL     OW20437   3.497   6.652   4.260
 6513SOL    HW120438   3.464   6.609   4.177
 6513SOL    HW220439   3.577   6.602   4.294
 6514SOL     OW20440   5.381   0.074   3.621
 6514SOL    HW120441   5.378   0.132   3.540
 6514SOL    HW220442   5.474   0.074   3.659
 6515SOL     OW20443   0.461   5.151   4.180
 6515SOL    HW120444   0.449   5.052   4.171
 6515SOL    HW220445   0.558   5.174   4.175
 6516SOL     OW20446   0.382   1.975   6.832
 6516SOL    HW120447   0.305   1.983   6.896
 6516SOL    HW220448   0.455   1.922   6.874
 6517SOL     OW20449   6.606   1.448   0.534
 6517SOL    HW120450   6.703   1.438   0.513
 6517SOL    HW220451   6.570   1.528   0.486
 6518SOL     OW20452   0.548   6.334   0.238
 6518SOL    HW120453   0.579   6.282   0.317
 6518SOL    HW220454   0.626   6.381   0.196
 6519SOL     OW20455   2.266   1.970   3.498
 6519SOL    HW120456   2.353   2.021   3.494
 6519SOL    HW220457   2.193   2.026   3.458
 6520SOL     OW20458   6.167   5.452   3.400
 6520SOL    HW120459   6.235   5.388   3.365
 6520SOL    HW220460   6.164   5.533   3.340
 6521SOL     OW20461   0.739   1.304   4.622
 6521SOL    HW120462   0.828   1.326   4.661
 6521SOL    HW220463   0.718   1.366   4.547
 6522SOL     OW20464   3.184   5.046   6.685
 6522SOL    HW120465   3.282   5.052   6.706
 6522SOL    HW220466   3.143   5.136   6.696
 6523SOL     OW20467   2.823   1.835   6.670
 6523SOL    HW120468   2.895   1.883   6.620
 6523SOL    HW220469   2.774   1.899   6.728
 6524SOL     OW20470   3.662   2.905   3.618
 6524SOL    HW120471   3.760   2.910   3.595
 6524SOL    HW220472   3.643   2.968   3.694
 6525SOL     OW20473   1.968   2.855   2.884
 6525SOL    HW120474   1.895   2.791   2.856
 6525SOL    HW220475   2.040   2.855   2.815
 6526SOL     OW20476   0.929   6.523   5.000
 6526SOL    HW120477   0.892   6.615   4.985
 6526SOL    HW220478   1.022   6.529   5.035
 6527SOL     OW20479   0.726   1.467   5.009
 6527SOL    HW120480   0.786   1.416   5.070
 6527SOL    HW220481   0.649   1.410   4.981
 6528SOL     OW20482   0.089   0.596   4.005
 6528SOL    HW120483   0.065   0.686   3.971
 6528SOL    HW220484   0.139   0.605   4.091
 6529SOL     OW20485   5.996   1.975   3.492
 6529SOL    HW120486   5.896   1.977   3.487
 6529SOL    HW220487   6.035   2.004   3.405
 6530SOL     OW20488   6.575   2.994   0.873
 6530SOL    HW120489   6.611   3.062   0.936
 6530SOL    HW220490   6.529   3.039   0.797
 6531SOL     OW20491   5.454   3.215   4.277
 6531SOL    HW120492   5.550   3.220   4.303
 6531SOL    HW220493   5.406   3.152   4.339
 6532SOL     OW20494   5.960   1.672   0.760
 6532SOL    HW120495   5.887   1.632   0.706
 6532SOL    HW220496   5.950   1.645   0.856
 6533SOL     OW20497   5.700   6.302   1.451
 6533SOL    HW120498   5.612   6.283   1.496
 6533SOL    HW220499   5.760   6.351   1.515
 6534SOL     OW20500   2.490   3.828   1.245
 6534SOL    HW120501   2.527   3.901   1.302
 6534SOL    HW220502   2.462   3.866   1.157
 6535SOL     OW20503   0.473   2.743   4.669
 6535SOL    HW120504   0.505   2.765   4.761
 6535SOL    HW220505   0.380   2.777   4.657
 6536SOL     OW20506   6.391   3.045   6.173
 6536SOL    HW120507   6.476   2.993   6.178
 6536SOL    HW220508   6.395   3.108   6.096
 6537SOL     OW20509   6.728   6.191   6.934
 6537SOL    HW120510   6.698   6.278   6.894
 6537SOL    HW220511   6.674   6.172   7.016
 6538SOL     OW20512   4.013   4.259   0.205
 6538SOL    HW120513   3.959   4.206   0.141
 6538SOL    HW220514   4.101   4.214   0.222
 6539SOL     OW20515   2.267   2.223   6.488
 6539SOL    HW120516   2.261   2.142   6.430
 6539SOL    HW220517   2.191   2.224   6.552
 6540SOL     OW20518   4.002   1.737   4.715
 6540SOL    HW120519   4.047   1.721   4.627
 6540SOL    HW220520   3.903   1.743   4.700
 6541SOL     OW20521   2.897   2.225   4.819
 6541SOL    HW120522   2.815   2.279   4.837
 6541SOL    HW220523   2.970   2.253   4.883
 6542SOL     OW20524   6.556   4.573   2.714
 6542SOL    HW120525   6.584   4.563   2.809
 6542SOL    HW220526   6.634   4.553   2.654
 6543SOL     OW20527   6.344   5.309   0.138
 6543SOL    HW120528   6.325   5.406   0.154
 6543SOL    HW220529   6.441   5.291   0.152
 6544SOL     OW20530   0.615   6.293   3.900
 6544SOL    HW120531   0.626   6.337   3.810
 6544SOL    HW220532   0.622   6.194   3.889
 6545SOL     OW20533   4.719   1.800   5.755
 6545SOL    HW120534   4.717   1.700   5.748
 6545SOL    HW220535   4.798   1.828   5.809
 6546SOL     OW20536   4.746   4.421   6.432
 6546SOL    HW120537   4.800   4.413   6.515
 6546SOL    HW220538   4.654   4.384   6.448
 6547SOL     OW20539   3.959   1.446   5.648
 6547SOL    HW120540   3.882   1.383   5.632
 6547SOL    HW220541   4.030   1.431   5.580
 6548SOL     OW20542   1.120   4.529   6.504
 6548SOL    HW120543   1.122   4.558   6.408
 6548SOL    HW220544   1.095   4.432   6.509
 6549SOL     OW20545   3.135   1.110   0.971
 6549SOL    HW120546   3.095   1.131   1.060
 6549SOL    HW220547   3.155   1.012   0.965
 6550SOL     OW20548   0.335   6.177   3.282
 6550SOL    HW120549   0.349   6.128   3.368
 6550SOL    HW220550   0.345   6.275   3.297
 6551SOL     OW20551   1.959   4.117   2.363
 6551SOL    HW120552   2.015   4.144   2.442
 6551SOL    HW220553   2.004   4.042   2.315
 6552SOL     OW20554   2.494   5.797   4.874
 6552SOL    HW120555   2.525   5.710   4.913
 6552SOL    HW220556   2.457   5.855   4.947
 6553SOL     OW20557   0.165   3.015   1.357
 6553SOL    HW120558   0.108   3.096   1.361
 6553SOL    HW220559   0.176   2.977   1.449
 6554SOL     OW20560   5.695   1.537   5.952
 6554SOL    HW120561   5.755   1.534   6.032
 6554SOL    HW220562   5.634   1.616   5.958
 6555SOL     OW20563   2.137   0.751   2.239
 6555SOL    HW120564   2.189   0.808   2.303
 6555SOL    HW220565   2.110   0.806   2.160
 6556SOL     OW20566   4.737   4.648   4.985
 6556SOL    HW120567   4.833   4.633   4.961
 6556SOL    HW220568   4.723   4.744   5.011
 6557SOL     OW20569   5.562   5.920   1.279
 6557SOL    HW120570   5.585   5.841   1.222
 6557SOL    HW220571   5.566   6.003   1.224
 6558SOL     OW20572   6.505   5.539   1.098
 6558SOL    HW120573   6.598   5.568   1.119
 6558SOL    HW220574   6.459   5.611   1.046
 6559SOL     OW20575   6.008   3.708   1.111
 6559SOL    HW120576   6.048   3.620   1.088
 6559SOL    HW220577   6.031   3.731   1.206
 6560SOL     OW20578   4.029   2.752   1.731
 6560SOL    HW120579   4.043   2.657   1.758
 6560SOL    HW220580   3.948   2.757   1.672
 6561SOL     OW20581   3.896   3.968   2.462
 6561SOL    HW120582   3.980   3.948   2.512
 6561SOL    HW220583   3.899   3.923   2.372
 6562SOL     OW20584   6.146   4.705   6.545
 6562SOL    HW120585   6.130   4.710   6.446
 6562SOL    HW220586   6.219   4.640   6.564
 6563SOL     OW20587   0.912   5.838   6.835
 6563SOL    HW120588   0.813   5.848   6.835
 6563SOL    HW220589   0.943   5.805   6.746
 6564SOL     OW20590   1.402   3.300   2.149
 6564SOL    HW120591   1.385   3.340   2.239
 6564SOL    HW220592   1.484   3.341   2.109
 6565SOL     OW20593   6.316   1.954   4.940
 6565SOL    HW120594   6.359   1.894   5.007
 6565SOL    HW220595   6.383   1.979   4.870
 6566SOL     OW20596   3.292   0.065   1.749
 6566SOL    HW120597   3.348   0.148   1.749
 6566SOL    HW220598   3.350   7.018   1.725
 6567SOL     OW20599   4.355   2.599   1.504
 6567SOL    HW120600   4.256   2.609   1.490
 6567SOL    HW220601   4.403   2.625   1.420
 6568SOL     OW20602   4.866   5.204   2.256
 6568SOL    HW120603   4.940   5.167   2.199
 6568SOL    HW220604   4.781   5.154   2.237
 6569SOL     OW20605   2.944   4.735   0.929
 6569SOL    HW120606   3.014   4.665   0.944
 6569SOL    HW220607   2.855   4.690   0.915
 6570SOL     OW20608   4.579   6.924   1.434
 6570SOL    HW120609   4.610   7.000   1.491
 6570SOL    HW220610   4.654   6.860   1.419
 6571SOL     OW20611   1.801   6.093   3.047
 6571SOL    HW120612   1.878   6.154   3.028
 6571SOL    HW220613   1.736   6.140   3.106
 6572SOL     OW20614   6.513   4.541   5.109
 6572SOL    HW120615   6.472   4.487   5.183
 6572SOL    HW220616   6.476   4.634   5.112
 6573SOL     OW20617   3.489   0.633   2.973
 6573SOL    HW120618   3.391   0.625   2.992
 6573SOL    HW220619   3.541   0.600   3.052
 6574SOL     OW20620   2.349   6.357   2.171
 6574SOL    HW120621   2.310   6.319   2.088
 6574SOL    HW220622   2.282   6.417   2.215
 6575SOL     OW20623   0.592   1.387   1.458
 6575SOL    HW120624   0.558   1.316   1.520
 6575SOL    HW220625   0.691   1.381   1.451
 6576SOL     OW20626   1.390   6.342   6.172
 6576SOL    HW120627   1.411   6.245   6.183
 6576SOL    HW220628   1.414   6.391   6.256
 6577SOL     OW20629   0.252   1.610   3.812
 6577SOL    HW120630   0.158   1.576   3.820
 6577SOL    HW220631   0.302   1.554   3.747
 6578SOL     OW20632   6.761   5.708   3.183
 6578SOL    HW120633   6.769   5.770   3.261
 6578SOL    HW220634   6.709   5.627   3.210
 6579SOL     OW20635   0.098   4.042   4.647
 6579SOL    HW120636   0.143   4.128   4.672
 6579SOL    HW220637   0.114   4.023   4.550
 6580SOL     OW20638   6.186   1.204   0.915
 6580SOL    HW120639   6.257   1.176   0.850
 6580SOL    HW220640   6.225   1.266   0.983
 6581SOL     OW20641   3.826   1.147   5.500
 6581SOL    HW120642   3.894   1.113   5.564
 6581SOL    HW220643   3.833   1.096   5.414
 6582SOL     OW20644   1.425   6.890   2.213
 6582SOL    HW120645   1.503   6.871   2.273
 6582SOL    HW220646   1.343   6.907   2.267
 6583SOL     OW20647   4.572   1.426   6.236
 6583SOL    HW120648   4.628   1.509   6.246
 6583SOL    HW220649   4.477   1.452   6.219
 6584SOL     OW20650   5.299   1.897   6.529
 6584SOL    HW120651   5.219   1.914   6.586
 6584SOL    HW220652   5.271   1.893   6.433
 6585SOL     OW20653   0.326   1.173   0.102
 6585SOL    HW120654   0.267   1.249   0.129
 6585SOL    HW220655   0.292   1.089   0.144
 6586SOL     OW20656   6.620   2.338   5.997
 6586SOL    HW120657   6.527   2.354   5.967
 6586SOL    HW220658   6.683   2.353   5.921
 6587SOL     OW20659   3.170   5.748   4.684
 6587SOL    HW120660   3.140   5.840   4.656
 6587SOL    HW220661   3.108   5.680   4.645
 6588SOL     OW20662   2.011   4.168   1.408
 6588SOL    HW120663   2.041   4.073   1.406
 6588SOL    HW220664   1.920   4.174   1.448
 6589SOL     OW20665   5.014   0.781   6.997
 6589SOL    HW120666   5.091   0.807   0.023
 6589SOL    HW220667   4.946   0.732   0.020
 6590SOL     OW20668   0.425   1.941   5.121
 6590SOL    HW120669   0.339   1.947   5.170
 6590SOL    HW220670   0.407   1.931   5.023
 6591SOL     OW20671   5.753   6.662   2.744
 6591SOL    HW120672   5.828   6.716   2.706
 6591SOL    HW220673   5.687   6.722   2.789
 6592SOL     OW20674   4.568   6.830   4.334
 6592SOL    HW120675   4.571   6.900   4.405
 6592SOL    HW220676   4.594   6.742   4.373
 6593SOL     OW20677   2.043   2.528   3.374
 6593SOL    HW120678   2.116   2.478   3.420
 6593SOL    HW220679   1.985   2.573   3.442
 6594SOL     OW20680   4.546   1.309   0.337
 6594SOL    HW120681   4.558   1.310   0.437
 6594SOL    HW220682   4.451   1.331   0.315
 6595SOL     OW20683   0.691   4.203   1.717
 6595SOL    HW120684   0.772   4.145   1.715
 6595SOL    HW220685   0.615   4.156   1.671
 6596SOL     OW20686   3.991   0.545   5.777
 6596SOL    HW120687   4.074   0.574   5.825
 6596SOL    HW220688   3.925   0.509   5.843
 6597SOL     OW20689   0.810   6.544   3.818
 6597SOL    HW120690   0.849   6.634   3.798
 6597SOL    HW220691   0.793   6.536   3.917
 6598SOL     OW20692   1.554   5.721   5.215
 6598SOL    HW120693   1.544   5.809   5.262
 6598SOL    HW220694   1.545   5.734   5.117
 6599SOL     OW20695   3.924   5.411   5.700
 6599SOL    HW120696   3.981   5.405   5.618
 6599SOL    HW220697   3.829   5.425   5.675
 6600SOL     OW20698   5.149   5.012   5.065
 6600SOL    HW120699   5.234   4.973   5.100
 6600SOL    HW220700   5.169   5.070   4.986
 6601SOL     OW20701   0.618   0.710   0.444
 6601SOL    HW120702   0.701   0.676   0.488
 6601SOL    HW220703   0.599   0.656   0.362
 6602SOL     OW20704   0.067   2.368   1.321
 6602SOL    HW120705   0.142   2.406   1.375
 6602SOL    HW220706   0.103   2.300   1.257
 6603SOL     OW20707   1.459   3.006   4.452
 6603SOL    HW120708   1.378   3.013   4.395
 6603SOL    HW220709   1.540   3.031   4.400
 6604SOL     OW20710   2.719   6.170   1.488
 6604SOL    HW120711   2.705   6.104   1.413
 6604SOL    HW220712   2.678   6.258   1.463
 6605SOL     OW20713   4.175   4.727   0.898
 6605SOL    HW120714   4.269   4.700   0.918
 6605SOL    HW220715   4.125   4.649   0.860
 6606SOL     OW20716   4.484   0.184   2.479
 6606SOL    HW120717   4.562   0.244   2.496
 6606SOL    HW220718   4.515   0.100   2.434
 6607SOL     OW20719   1.746   1.352   1.967
 6607SOL    HW120720   1.772   1.391   1.879
 6607SOL    HW220721   1.714   1.259   1.955
 6608SOL     OW20722   5.365   3.866   2.425
 6608SOL    HW120723   5.395   3.778   2.388
 6608SOL    HW220724   5.316   3.917   2.354
 6609SOL     OW20725   5.182   0.896   6.735
 6609SOL    HW120726   5.089   0.879   6.702
 6609SOL    HW220727   5.179   0.967   6.806
 6610SOL     OW20728   2.256   0.341   0.311
 6610SOL    HW120729   2.162   0.371   0.327
 6610SOL    HW220730   2.319   0.417   0.326
 6611SOL     OW20731   6.758   2.233   2.937
 6611SOL    HW120732   6.704   2.315   2.954
 6611SOL    HW220733   6.850   2.246   2.973
 6612SOL     OW20734   1.384   4.195   6.934
 6612SOL    HW120735   1.293   4.231   6.911
 6612SOL    HW220736   1.373   4.120   7.000
 6613SOL     OW20737   5.958   6.170   3.663
 6613SOL    HW120738   5.926   6.150   3.570
 6613SOL    HW220739   6.026   6.243   3.660
 6614SOL     OW20740   4.784   6.734   6.586
 6614SOL    HW120741   4.836   6.752   6.502
 6614SOL    HW220742   4.839   6.760   6.665
 6615SOL     OW20743   0.971   4.005   4.592
 6615SOL    HW120744   1.032   3.950   4.649
 6615SOL    HW220745   1.026   4.060   4.528
 6616SOL     OW20746   3.654   1.540   6.011
 6616SOL    HW120747   3.717   1.617   6.009
 6616SOL    HW220748   3.657   1.492   5.923
 6617SOL     OW20749   3.637   6.622   3.528
 6617SOL    HW120750   3.715   6.617   3.591
 6617SOL    HW220751   3.666   6.597   3.436
 6618SOL     OW20752   1.595   2.951   2.147
 6618SOL    HW120753   1.496   2.955   2.135
 6618SOL    HW220754   1.640   2.996   2.070
 6619SOL     OW20755   4.949   6.958   4.206
 6619SOL    HW120756   4.959   6.881   4.269
 6619SOL    HW220757   4.902   6.928   4.123
 6620SOL     OW20758   1.655   3.024   6.017
 6620SOL    HW120759   1.727   2.977   6.068
 6620SOL    HW220760   1.606   2.958   5.960
 6621SOL     OW20761   3.368   3.967   0.522
 6621SOL    HW120762   3.352   3.869   0.525
 6621SOL    HW220763   3.281   4.015   0.515
 6622SOL     OW20764   6.114   5.730   1.245
 6622SOL    HW120765   6.019   5.740   1.216
 6622SOL    HW220766   6.131   5.789   1.324
 6623SOL     OW20767   3.540   3.146   2.152
 6623SOL    HW120768   3.586   3.200   2.223
 6623SOL    HW220769   3.569   3.050   2.160
 6624SOL     OW20770   2.694   6.260   4.492
 6624SOL    HW120771   2.728   6.282   4.400
 6624SOL    HW220772   2.594   6.259   4.491
 6625SOL     OW20773   6.017   1.627   6.230
 6625SOL    HW120774   6.061   1.712   6.260
 6625SOL    HW220775   6.088   1.563   6.199
 6626SOL     OW20776   3.514   4.878   3.141
 6626SOL    HW120777   3.415   4.875   3.149
 6626SOL    HW220778   3.546   4.970   3.164
 6627SOL     OW20779   2.269   1.076   5.819
 6627SOL    HW120780   2.250   1.136   5.742
 6627SOL    HW220781   2.186   1.063   5.873
 6628SOL     OW20782   4.945   5.297   2.730
 6628SOL    HW120783   4.989   5.215   2.695
 6628SOL    HW220784   4.873   5.271   2.795
 6629SOL     OW20785   3.560   6.010   1.232
 6629SOL    HW120786   3.594   5.952   1.158
 6629SOL    HW220787   3.479   6.060   1.200
 6630SOL     OW20788   3.536   2.013   0.360
 6630SOL    HW120789   3.536   1.960   0.445
 6630SOL    HW220790   3.576   1.959   0.286
 6631SOL     OW20791   4.590   6.988   2.362
 6631SOL    HW120792   4.651   6.908   2.362
 6631SOL    HW220793   4.498   6.960   2.333
 6632SOL     OW20794   6.979   1.334   1.517
 6632SOL    HW120795   6.892   1.312   1.560
 6632SOL    HW220796   6.964   1.362   1.422
 6633SOL     OW20797   1.402   5.585   6.073
 6633SOL    HW120798   1.318   5.532   6.080
 6633SOL    HW220799   1.480   5.523   6.063
 6634SOL     OW20800   6.271   3.580   6.270
 6634SOL    HW120801   6.311   3.488   6.281
 6634SOL    HW220802   6.173   3.572   6.256
 6635SOL     OW20803   4.525   5.145   3.455
 6635SOL    HW120804   4.476   5.186   3.378
 6635SOL    HW220805   4.595   5.208   3.487
 6636SOL     OW20806   1.707   2.974   5.314
 6636SOL    HW120807   1.645   2.946   5.240
 6636SOL    HW220808   1.760   3.054   5.285
 6637SOL     OW20809   0.939   0.245   6.835
 6637SOL    HW120810   0.963   0.303   6.758
 6637SOL    HW220811   0.951   0.149   6.810
 6638SOL     OW20812   3.703   5.005   4.985
 6638SOL    HW120813   3.647   4.928   5.015
 6638SOL    HW220814   3.799   4.977   4.978
 6639SOL     OW20815   5.773   5.896   6.294
 6639SOL    HW120816   5.853   5.927   6.243
 6639SOL    HW220817   5.713   5.973   6.312
 6640SOL     OW20818   0.110   1.892   4.587
 6640SOL    HW120819   0.100   1.881   4.488
 6640SOL    HW220820   0.168   1.971   4.606
 6641SOL     OW20821   3.108   3.484   6.585
 6641SOL    HW120822   3.138   3.547   6.513
 6641SOL    HW220823   3.010   3.495   6.600
 6642SOL     OW20824   3.011   5.542   6.909
 6642SOL    HW120825   2.976   5.523   6.818
 6642SOL    HW220826   3.083   5.611   6.904
 6643SOL     OW20827   6.543   4.412   7.023
 6643SOL    HW120828   6.476   4.362   6.969
 6643SOL    HW220829   6.630   4.417   6.973
 6644SOL     OW20830   3.008   4.831   2.139
 6644SOL    HW120831   2.947   4.756   2.111
 6644SOL    HW220832   3.092   4.826   2.085
 6645SOL     OW20833   0.065   5.059   0.642
 6645SOL    HW120834   0.151   5.101   0.670
 6645SOL    HW220835   0.060   5.055   0.542
 6646SOL     OW20836   4.623   5.578   4.410
 6646SOL    HW120837   4.665   5.668   4.416
 6646SOL    HW220838   4.575   5.558   4.495
 6647SOL     OW20839   3.147   1.570   2.648
 6647SOL    HW120840   3.081   1.645   2.636
 6647SOL    HW220841   3.100   1.483   2.639
 6648SOL     OW20842   3.491   5.775   2.634
 6648SOL    HW120843   3.494   5.694   2.575
 6648SOL    HW220844   3.425   5.841   2.598
 6649SOL     OW20845   5.747   2.018   6.440
 6649SOL    HW120846   5.667   1.961   6.461
 6649SOL    HW220847   5.808   2.019   6.519
 6650SOL     OW20848   4.023   1.113   3.448
 6650SOL    HW120849   3.989   1.202   3.419
 6650SOL    HW220850   3.980   1.041   3.392
 6651SOL     OW20851   1.684   1.945   0.650
 6651SOL    HW120852   1.704   1.873   0.584
 6651SOL    HW220853   1.689   2.034   0.605
 6652SOL     OW20854   6.573   4.202   0.358
 6652SOL    HW120855   6.630   4.168   0.432
 6652SOL    HW220856   6.583   4.301   0.350
 6653SOL     OW20857   4.022   3.791   3.212
 6653SOL    HW120858   4.046   3.700   3.180
 6653SOL    HW220859   4.041   3.799   3.309
 6654SOL     OW20860   2.189   2.910   1.149
 6654SOL    HW120861   2.249   2.852   1.204
 6654SOL    HW220862   2.140   2.854   1.083
 6655SOL     OW20863   2.573   0.028   1.684
 6655SOL    HW120864   2.525   0.035   1.772
 6655SOL    HW220865   2.515   0.066   1.611
 6656SOL     OW20866   6.637   1.195   2.724
 6656SOL    HW120867   6.594   1.186   2.635
 6656SOL    HW220868   6.583   1.146   2.793
 6657SOL     OW20869   4.298   6.523   6.533
 6657SOL    HW120870   4.388   6.544   6.495
 6657SOL    HW220871   4.227   6.554   6.470
 6658SOL     OW20872   5.896   1.182   5.693
 6658SOL    HW120873   5.909   1.203   5.790
 6658SOL    HW220874   5.812   1.129   5.682
 6659SOL     OW20875   2.381   1.955   6.673
 6659SOL    HW120876   2.407   1.948   6.769
 6659SOL    HW220877   2.454   1.918   6.616
 6660SOL     OW20878   0.018   6.130   1.532
 6660SOL    HW120879   0.101   6.089   1.495
 6660SOL    HW220880   0.041   6.186   1.612
 6661SOL     OW20881   0.082   4.922   3.704
 6661SOL    HW120882   0.140   4.877   3.771
 6661SOL    HW220883   0.081   5.021   3.722
 6662SOL     OW20884   1.164   0.797   6.806
 6662SOL    HW120885   1.213   0.712   6.789
 6662SOL    HW220886   1.205   0.871   6.752
 6663SOL     OW20887   6.881   5.775   3.433
 6663SOL    HW120888   6.844   5.807   3.520
 6663SOL    HW220889   6.925   5.686   3.446
 6664SOL     OW20890   1.418   6.978   1.409
 6664SOL    HW120891   1.443   0.011   1.336
 6664SOL    HW220892   1.328   7.001   1.445
 6665SOL     OW20893   1.363   6.818   3.797
 6665SOL    HW120894   1.290   6.794   3.861
 6665SOL    HW220895   1.370   6.917   3.789
 6666SOL     OW20896   6.091   1.700   5.428
 6666SOL    HW120897   6.048   1.752   5.503
 6666SOL    HW220898   6.156   1.759   5.380
 6667SOL     OW20899   6.515   4.704   4.853
 6667SOL    HW120900   6.516   4.685   4.755
 6667SOL    HW220901   6.422   4.698   4.888
 6668SOL     OW20902   0.083   6.114   2.273
 6668SOL    HW120903   0.027   6.034   2.291
 6668SOL    HW220904   0.118   6.111   2.179
 6669SOL     OW20905   1.912   3.777   3.757
 6669SOL    HW120906   1.963   3.691   3.760
 6669SOL    HW220907   1.897   3.811   3.850
 6670SOL     OW20908   3.780   4.287   6.436
 6670SOL    HW120909   3.829   4.271   6.351
 6670SOL    HW220910   3.706   4.220   6.445
 6671SOL     OW20911   5.648   4.920   0.473
 6671SOL    HW120912   5.712   4.895   0.400
 6671SOL    HW220913   5.584   4.988   0.439
 6672SOL     OW20914   0.699   0.894   5.208
 6672SOL    HW120915   0.672   0.839   5.129
 6672SOL    HW220916   0.766   0.963   5.180
 6673SOL     OW20917   4.946   5.863   2.608
 6673SOL    HW120918   4.941   5.769   2.642
 6673SOL    HW220919   4.963   5.925   2.685
 6674SOL     OW20920   0.506   5.245   6.036
 6674SOL    HW120921   0.563   5.252   6.118
 6674SOL    HW220922   0.548   5.297   5.962
 6675SOL     OW20923   5.532   3.914   1.098
 6675SOL    HW120924   5.444   3.938   1.139
 6675SOL    HW220925   5.583   3.997   1.079
 6676SOL     OW20926   0.764   3.619   5.782
 6676SOL    HW120927   0.711   3.613   5.867
 6676SOL    HW220928   0.824   3.698   5.786
 6677SOL     OW20929   0.022   3.162   7.010
 6677SOL    HW120930   0.075   3.088   0.019
 6677SOL    HW220931   0.036   3.163   6.911
 6678SOL     OW20932   1.376   2.365   6.928
 6678SOL    HW120933   1.296   2.342   6.874
 6678SOL    HW220934   1.358   2.448   6.980
 6679SOL     OW20935   1.814   1.591   4.757
 6679SOL    HW120936   1.785   1.623   4.667
 6679SOL    HW220937   1.740   1.538   4.799
 6680SOL     OW20938   4.249   5.837   5.833
 6680SOL    HW120939   4.149   5.837   5.840
 6680SOL    HW220940   4.278   5.913   5.775
 6681SOL     OW20941   5.125   6.141   6.742
 6681SOL    HW120942   5.224   6.141   6.760
 6681SOL    HW220943   5.078   6.096   6.816
 6682SOL     OW20944   0.489   4.514   2.585
 6682SOL    HW120945   0.563   4.455   2.620
 6682SOL    HW220946   0.467   4.486   2.492
 6683SOL     OW20947   5.015   1.875   5.445
 6683SOL    HW120948   4.916   1.876   5.456
 6683SOL    HW220949   5.057   1.826   5.522
 6684SOL     OW20950   1.873   6.896   1.672
 6684SOL    HW120951   1.807   6.871   1.601
 6684SOL    HW220952   1.966   6.891   1.635
 6685SOL     OW20953   4.941   1.869   5.919
 6685SOL    HW120954   5.035   1.859   5.951
 6685SOL    HW220955   4.905   1.957   5.949
 6686SOL     OW20956   6.189   3.881   4.456
 6686SOL    HW120957   6.178   3.826   4.373
 6686SOL    HW220958   6.271   3.937   4.449
 6687SOL     OW20959   1.261   1.455   0.767
 6687SOL    HW120960   1.331   1.387   0.745
 6687SOL    HW220961   1.190   1.414   0.825
 6688SOL     OW20962   0.387   4.941   2.586
 6688SOL    HW120963   0.333   4.872   2.539
 6688SOL    HW220964   0.418   4.904   2.674
 6689SOL     OW20965   4.335   2.775   0.748
 6689SOL    HW120966   4.242   2.739   0.757
 6689SOL    HW220967   4.366   2.809   0.836
 6690SOL     OW20968   2.442   1.179   1.801
 6690SOL    HW120969   2.528   1.229   1.815
 6690SOL    HW220970   2.418   1.131   1.884
 6691SOL     OW20971   2.946   5.907   0.674
 6691SOL    HW120972   2.942   5.909   0.574
 6691SOL    HW220973   3.008   5.835   0.704
 6692SOL     OW20974   2.699   4.351   5.316
 6692SOL    HW120975   2.702   4.252   5.299
 6692SOL    HW220976   2.767   4.396   5.258
 6693SOL     OW20977   4.403   3.582   5.897
 6693SOL    HW120978   4.494   3.622   5.886
 6693SOL    HW220979   4.369   3.549   5.808
 6694SOL     OW20980   3.892   5.748   0.110
 6694SOL    HW120981   3.897   5.655   0.075
 6694SOL    HW220982   3.983   5.790   0.107
 6695SOL     OW20983   0.543   2.504   6.371
 6695SOL    HW120984   0.513   2.410   6.390
 6695SOL    HW220985   0.589   2.541   6.452
 6696SOL     OW20986   1.830   2.646   1.170
 6696SOL    HW120987   1.817   2.702   1.252
 6696SOL    HW220988   1.754   2.583   1.161
 6697SOL     OW20989   4.623   2.218   2.716
 6697SOL    HW120990   4.562   2.297   2.719
 6697SOL    HW220991   4.600   2.156   2.791
 6698SOL     OW20992   3.482   2.698   0.730
 6698SOL    HW120993   3.497   2.769   0.799
 6698SOL    HW220994   3.565   2.643   0.720
 6699SOL     OW20995   4.058   4.282   6.710
 6699SOL    HW120996   4.030   4.230   6.629
 6699SOL    HW220997   4.078   4.218   6.785
 6700SOL     OW20998   0.486   5.295   0.497
 6700SOL    HW120999   0.458   5.257   0.409
 6700SOL    HW221000   0.584   5.279   0.511
 6701SOL     OW21001   6.190   2.775   1.503
 6701SOL    HW121002   6.190   2.735   1.411
 6701SOL    HW221003   6.277   2.821   1.520
 6702SOL     OW21004   2.804   1.885   0.121
 6702SOL    HW121005   2.783   1.982   0.108
 6702SOL    HW221006   2.860   1.874   0.203
 6703SOL     OW21007   6.189   2.396   7.030
 6703SOL    HW121008   6.269   2.337   0.004
 6703SOL    HW221009   6.209   2.473   6.969
 6704SOL     OW21010   4.497   2.444   2.404
 6704SOL    HW121011   4.553   2.363   2.386
 6704SOL    HW221012   4.550   2.526   2.382
 6705SOL     OW21013   0.225   2.443   2.134
 6705SOL    HW121014   0.147   2.505   2.133
 6705SOL    HW221015   0.286   2.465   2.058
 6706SOL     OW21016   0.931   3.802   0.629
 6706SOL    HW121017   0.965   3.710   0.645
 6706SOL    HW221018   0.860   3.801   0.560
 6707SOL     OW21019   6.144   6.156   4.903
 6707SOL    HW121020   6.062   6.126   4.854
 6707SOL    HW221021   6.118   6.220   4.975
 6708SOL     OW21022   1.437   5.770   2.396
 6708SOL    HW121023   1.400   5.814   2.477
 6708SOL    HW221024   1.379   5.692   2.371
 6709SOL     OW21025   3.830   6.461   1.538
 6709SOL    HW121026   3.804   6.451   1.634
 6709SOL    HW221027   3.848   6.371   1.498
 6710SOL     OW21028   2.025   1.982   5.822
 6710SOL    HW121029   1.931   2.009   5.844
 6710SOL    HW221030   2.083   1.991   5.903
 6711SOL     OW21031   5.375   3.922   6.649
 6711SOL    HW121032   5.401   4.010   6.688
 6711SOL    HW221033   5.456   3.864   6.639
 6712SOL     OW21034   4.015   5.553   0.490
 6712SOL    HW121035   3.968   5.637   0.463
 6712SOL    HW221036   4.112   5.560   0.467
 6713SOL     OW21037   2.528   1.837   1.565
 6713SOL    HW121038   2.462   1.894   1.613
 6713SOL    HW221039   2.617   1.883   1.563
 6714SOL     OW21040   5.156   6.884   5.259
 6714SOL    HW121041   5.076   6.865   5.201
 6714SOL    HW221042   5.218   6.946   5.212
 6715SOL     OW21043   0.536   1.012   0.199
 6715SOL    HW121044   0.474   0.935   0.188
 6715SOL    HW221045   0.495   1.094   0.159
 6716SOL     OW21046   1.430   6.149   0.653
 6716SOL    HW121047   1.527   6.144   0.627
 6716SOL    HW221048   1.374   6.120   0.576
 6717SOL     OW21049   4.066   2.865   0.305
 6717SOL    HW121050   4.139   2.893   0.367
 6717SOL    HW221051   3.978   2.899   0.339
 6718SOL     OW21052   3.949   5.698   6.369
 6718SOL    HW121053   3.981   5.614   6.413
 6718SOL    HW221054   3.857   5.719   6.401
 6719SOL     OW21055   0.244   0.173   5.961
 6719SOL    HW121056   0.340   0.198   5.976
 6719SOL    HW221057   0.230   0.152   5.864
 6720SOL     OW21058   2.577   6.189   1.856
 6720SOL    HW121059   2.535   6.248   1.786
 6720SOL    HW221060   2.588   6.097   1.819
 6721SOL     OW21061   5.209   6.536   4.628
 6721SOL    HW121062   5.290   6.551   4.571
 6721SOL    HW221063   5.170   6.625   4.654
 6722SOL     OW21064   4.867   3.606   0.981
 6722SOL    HW121065   4.877   3.542   0.906
 6722SOL    HW221066   4.836   3.558   1.063
 6723SOL     OW21067   1.968   6.668   3.278
 6723SOL    HW121068   1.909   6.595   3.311
 6723SOL    HW221069   1.953   6.750   3.332
 6724SOL     OW21070   2.163   4.256   6.069
 6724SOL    HW121071   2.125   4.168   6.043
 6724SOL    HW221072   2.120   4.329   6.015
 6725SOL     OW21073   1.324   4.154   2.786
 6725SOL    HW121074   1.248   4.166   2.722
 6725SOL    HW221075   1.306   4.205   2.870
 6726SOL     OW21076   1.385   2.730   4.826
 6726SOL    HW121077   1.354   2.749   4.733
 6726SOL    HW221078   1.354   2.639   4.854
 6727SOL     OW21079   5.427   3.474   6.364
 6727SOL    HW121080   5.474   3.489   6.451
 6727SOL    HW221081   5.331   3.503   6.373
 6728SOL     OW21082   3.808   1.968   4.710
 6728SOL    HW121083   3.723   2.015   4.734
 6728SOL    HW221084   3.870   1.970   4.788
 6729SOL     OW21085   6.528   1.083   2.173
 6729SOL    HW121086   6.478   1.121   2.095
 6729SOL    HW221087   6.625   1.073   2.149
 6730SOL     OW21088   2.861   6.771   0.025
 6730SOL    HW121089   2.873   6.868   0.045
 6730SOL    HW221090   2.785   6.759   6.992
 6731SOL     OW21091   3.172   4.326   1.533
 6731SOL    HW121092   3.122   4.240   1.522
 6731SOL    HW221093   3.111   4.395   1.573
 6732SOL     OW21094   2.484   5.918   0.620
 6732SOL    HW121095   2.472   5.940   0.717
 6732SOL    HW221096   2.453   5.825   0.603
 6733SOL     OW21097   4.492   5.610   5.662
 6733SOL    HW121098   4.580   5.620   5.708
 6733SOL    HW221099   4.464   5.697   5.622
 6734SOL     OW21100   1.057   3.143   5.508
 6734SOL    HW121101   0.964   3.168   5.483
 6734SOL    HW221102   1.116   3.148   5.427
 6735SOL     OW21103   0.086   5.235   5.101
 6735SOL    HW121104   0.177   5.277   5.104
 6735SOL    HW221105   0.028   5.287   5.038
 6736SOL     OW21106   2.554   3.365   0.993
 6736SOL    HW121107   2.461   3.387   1.021
 6736SOL    HW221108   2.610   3.351   1.075
 6737SOL     OW21109   2.242   1.233   2.183
 6737SOL    HW121110   2.178   1.211   2.109
 6737SOL    HW221111   2.312   1.162   2.190
 6738SOL     OW21112   2.400   1.829   2.715
 6738SOL    HW121113   2.378   1.756   2.650
 6738SOL    HW221114   2.425   1.789   2.803
 6739SOL     OW21115   3.622   5.838   5.238
 6739SOL    HW121116   3.706   5.787   5.252
 6739SOL    HW221117   3.559   5.785   5.182
 6740SOL     OW21118   1.615   0.885   4.185
 6740SOL    HW121119   1.619   0.984   4.196
 6740SOL    HW221120   1.616   0.842   4.276
 6741SOL     OW21121   5.317   1.281   5.916
 6741SOL    HW121122   5.250   1.337   5.869
 6741SOL    HW221123   5.277   1.243   5.999
 6742SOL     OW21124   0.224   5.256   4.560
 6742SOL    HW121125   0.128   5.266   4.532
 6742SOL    HW221126   0.237   5.168   4.604
 6743SOL     OW21127   4.217   2.871   0.062
 6743SOL    HW121128   4.164   2.917   7.022
 6743SOL    HW221129   4.158   2.852   0.140
 6744SOL     OW21130   4.074   4.609   5.610
 6744SOL    HW121131   4.089   4.625   5.708
 6744SOL    HW221132   4.057   4.696   5.564
 6745SOL     OW21133   1.328   4.604   3.352
 6745SOL    HW121134   1.361   4.698   3.358
 6745SOL    HW221135   1.241   4.602   3.304
 6746SOL     OW21136   0.688   1.126   1.140
 6746SOL    HW121137   0.726   1.206   1.093
 6746SOL    HW221138   0.746   1.046   1.122
 6747SOL     OW21139   5.403   6.980   4.013
 6747SOL    HW121140   5.379   0.030   4.066
 6747SOL    HW221141   5.325   6.917   4.011
 6748SOL     OW21142   0.593   0.518   1.805
 6748SOL    HW121143   0.509   0.473   1.835
 6748SOL    HW221144   0.631   0.468   1.728
 6749SOL     OW21145   3.728   0.691   6.990
 6749SOL    HW121146   3.688   0.670   6.901
 6749SOL    HW221147   3.793   0.619   7.016
 6750SOL     OW21148   2.487   2.196   4.181
 6750SOL    HW121149   2.434   2.117   4.213
 6750SOL    HW221150   2.522   2.246   4.260
 6751SOL     OW21151   2.720   2.414   4.089
 6751SOL    HW121152   2.678   2.401   4.179
 6751SOL    HW221153   2.817   2.390   4.093
 6752SOL     OW21154   6.113   2.996   1.011
 6752SOL    HW121155   6.075   3.019   1.100
 6752SOL    HW221156   6.161   2.908   1.016
 6753SOL     OW21157   3.992   1.924   6.212
 6753SOL    HW121158   3.927   1.981   6.262
 6753SOL    HW221159   4.025   1.851   6.271
 6754SOL     OW21160   6.405   1.608   6.047
 6754SOL    HW121161   6.326   1.566   6.092
 6754SOL    HW221162   6.405   1.706   6.064
 6755SOL     OW21163   5.699   1.989   3.397
 6755SOL    HW121164   5.615   2.032   3.364
 6755SOL    HW221165   5.761   1.975   3.320
 6756SOL     OW21166   4.395   4.812   4.378
 6756SOL    HW121167   4.388   4.730   4.322
 6756SOL    HW221168   4.361   4.792   4.470
 6757SOL     OW21169   4.824   6.290   0.981
 6757SOL    HW121170   4.860   6.377   0.946
 6757SOL    HW221171   4.743   6.307   1.037
 6758SOL     OW21172   5.469   3.232   2.087
 6758SOL    HW121173   5.560   3.226   2.129
 6758SOL    HW221174   5.409   3.163   2.128
 6759SOL     OW21175   1.385   4.526   3.078
 6759SOL    HW121176   1.313   4.572   3.025
 6759SOL    HW221177   1.434   4.593   3.133
 6760SOL     OW21178   0.385   4.733   4.167
 6760SOL    HW121179   0.300   4.687   4.140
 6760SOL    HW221180   0.403   4.808   4.104
 6761SOL     OW21181   5.436   2.957   5.376
 6761SOL    HW121182   5.411   2.895   5.302
 6761SOL    HW221183   5.447   2.904   5.461
 6762SOL     OW21184   6.478   5.326   3.874
 6762SOL    HW121185   6.476   5.227   3.882
 6762SOL    HW221186   6.540   5.364   3.942
 6763SOL     OW21187   5.913   6.562   5.350
 6763SOL    HW121188   5.848   6.628   5.387
 6763SOL    HW221189   5.864   6.496   5.293
 6764SOL     OW21190   2.829   3.715   6.668
 6764SOL    HW121191   2.909   3.684   6.721
 6764SOL    HW221192   2.769   3.768   6.728
 6765SOL     OW21193   6.356   4.672   3.273
 6765SOL    HW121194   6.394   4.749   3.325
 6765SOL    HW221195   6.430   4.611   3.245
 6766SOL     OW21196   1.624   1.149   5.442
 6766SOL    HW121197   1.570   1.065   5.453
 6766SOL    HW221198   1.586   1.203   5.367
 6767SOL     OW21199   0.364   2.558   6.693
 6767SOL    HW121200   0.461   2.536   6.678
 6767SOL    HW221201   0.315   2.475   6.720
 6768SOL     OW21202   0.867   0.464   3.887
 6768SOL    HW121203   0.852   0.405   3.808
 6768SOL    HW221204   0.900   0.553   3.857
 6769SOL     OW21205   2.367   2.516   5.654
 6769SOL    HW121206   2.445   2.544   5.597
 6769SOL    HW221207   2.346   2.590   5.718
 6770SOL     OW21208   0.185   1.818   3.322
 6770SOL    HW121209   0.096   1.864   3.318
 6770SOL    HW221210   0.201   1.768   3.237
 6771SOL     OW21211   3.471   2.133   3.498
 6771SOL    HW121212   3.549   2.088   3.455
 6771SOL    HW221213   3.498   2.164   3.590
 6772SOL     OW21214   6.331   1.606   2.803
 6772SOL    HW121215   6.327   1.507   2.786
 6772SOL    HW221216   6.425   1.638   2.796
 6773SOL     OW21217   0.117   5.933   1.858
 6773SOL    HW121218   0.051   5.865   1.827
 6773SOL    HW221219   0.092   6.022   1.820
 6774SOL     OW21220   2.221   2.096   5.671
 6774SOL    HW121221   2.144   2.042   5.706
 6774SOL    HW221222   2.188   2.162   5.603
 6775SOL     OW21223   0.758   1.890   4.903
 6775SOL    HW121224   0.718   1.928   4.987
 6775SOL    HW221225   0.822   1.956   4.864
 6776SOL     OW21226   3.821   4.198   1.700
 6776SOL    HW121227   3.741   4.256   1.689
 6776SOL    HW221228   3.829   4.136   1.621
 6777SOL     OW21229   5.338   5.738   1.209
 6777SOL    HW121230   5.349   5.763   1.113
 6777SOL    HW221231   5.391   5.655   1.229
 6778SOL     OW21232   6.730   4.144   2.366
 6778SOL    HW121233   6.758   4.055   2.331
 6778SOL    HW221234   6.771   4.217   2.310
 6779SOL     OW21235   5.802   4.413   6.046
 6779SOL    HW121236   5.771   4.396   5.953
 6779SOL    HW221237   5.786   4.332   6.102
 6780SOL     OW21238   2.904   2.239   2.680
 6780SOL    HW121239   2.961   2.251   2.599
 6780SOL    HW221240   2.871   2.145   2.683
 6781SOL     OW21241   6.807   1.309   3.918
 6781SOL    HW121242   6.888   1.331   3.973
 6781SOL    HW221243   6.808   1.213   3.894
 6782SOL     OW21244   6.723   1.598   3.438
 6782SOL    HW121245   6.690   1.517   3.488
 6782SOL    HW221246   6.665   1.613   3.358
 6783SOL     OW21247   1.266   4.975   5.044
 6783SOL    HW121248   1.283   5.067   5.079
 6783SOL    HW221249   1.214   4.923   5.112
 6784SOL     OW21250   1.550   3.462   1.711
 6784SOL    HW121251   1.561   3.458   1.811
 6784SOL    HW221252   1.549   3.557   1.682
 6785SOL     OW21253   5.477   5.090   4.823
 6785SOL    HW121254   5.456   5.169   4.766
 6785SOL    HW221255   5.407   5.020   4.811
 6786SOL     OW21256   6.743   2.327   0.013
 6786SOL    HW121257   6.761   2.372   6.957
 6786SOL    HW221258   6.647   2.299   0.018
 6787SOL     OW21259   3.812   1.943   6.781
 6787SOL    HW121260   3.784   2.029   6.824
 6787SOL    HW221261   3.741   1.913   6.717
 6788SOL     OW21262   0.161   4.435   3.312
 6788SOL    HW121263   0.138   4.355   3.257
 6788SOL    HW221264   0.198   4.507   3.252
 6789SOL     OW21265   6.299   4.176   4.155
 6789SOL    HW121266   6.350   4.116   4.216
 6789SOL    HW221267   6.259   4.122   4.081
 6790SOL     OW21268   0.780   5.034   5.551
 6790SOL    HW121269   0.701   5.002   5.500
 6790SOL    HW221270   0.861   4.982   5.524
 6791SOL     OW21271   3.778   0.757   4.075
 6791SOL    HW121272   3.790   0.676   4.018
 6791SOL    HW221273   3.815   0.739   4.166
 6792SOL     OW21274   4.250   0.240   5.970
 6792SOL    HW121275   4.166   0.276   5.929
 6792SOL    HW221276   4.274   0.153   5.928
 6793SOL     OW21277   2.329   3.180   0.424
 6793SOL    HW121278   2.392   3.214   0.494
 6793SOL    HW221279   2.241   3.160   0.466
 6794SOL     OW21280   4.687   1.547   5.713
 6794SOL    HW121281   4.746   1.486   5.765
 6794SOL    HW221282   4.670   1.508   5.622
 6795SOL     OW21283   0.972   0.966   1.043
 6795SOL    HW121284   1.009   0.955   1.135
 6795SOL    HW221285   1.026   0.912   0.979
 6796SOL     OW21286   6.424   1.192   2.508
 6796SOL    HW121287   6.398   1.129   2.581
 6796SOL    HW221288   6.408   1.148   2.419
 6797SOL     OW21289   0.300   2.480   1.434
 6797SOL    HW121290   0.320   2.551   1.367
 6797SOL    HW221291   0.386   2.440   1.466
 6798SOL     OW21292   5.321   0.460   1.993
 6798SOL    HW121293   5.272   0.419   2.070
 6798SOL    HW221294   5.414   0.484   2.023
 6799SOL     OW21295   5.666   0.930   3.427
 6799SOL    HW121296   5.681   0.831   3.431
 6799SOL    HW221297   5.587   0.954   3.484
 6800SOL     OW21298   6.938   1.793   0.956
 6800SOL    HW121299   6.866   1.846   1.000
 6800SOL    HW221300   6.946   1.704   1.000
 6801SOL     OW21301   0.361   5.182   5.392
 6801SOL    HW121302   0.264   5.195   5.414
 6801SOL    HW221303   0.417   5.210   5.469
 6802SOL     OW21304   3.061   5.120   1.631
 6802SOL    HW121305   3.046   5.054   1.705
 6802SOL    HW221306   3.015   5.089   1.549
 6803SOL     OW21307   5.104   4.778   5.634
 6803SOL    HW121308   5.117   4.691   5.586
 6803SOL    HW221309   5.098   4.853   5.568
 6804SOL     OW21310   3.166   4.957   3.146
 6804SOL    HW121311   3.155   4.898   3.226
 6804SOL    HW221312   3.099   4.931   3.076
 6805SOL     OW21313   0.297   4.078   5.407
 6805SOL    HW121314   0.389   4.114   5.420
 6805SOL    HW221315   0.298   4.005   5.339
 6806SOL     OW21316   0.012   1.171   2.484
 6806SOL    HW121317   0.043   1.082   2.518
 6806SOL    HW221318   0.048   1.244   2.542
 6807SOL     OW21319   3.645   3.476   1.540
 6807SOL    HW121320   3.581   3.471   1.616
 6807SOL    HW221321   3.599   3.446   1.456
 6808SOL     OW21322   3.911   1.124   4.510
 6808SOL    HW121323   3.966   1.114   4.427
 6808SOL    HW221324   3.827   1.174   4.489
 6809SOL     OW21325   5.706   3.389   1.940
 6809SOL    HW121326   5.631   3.454   1.954
 6809SOL    HW221327   5.676   3.317   1.878
 6810SOL     OW21328   2.896   0.775   4.200
 6810SOL    HW121329   2.825   0.823   4.252
 6810SOL    HW221330   2.910   0.684   4.239
 6811SOL     OW21331   6.414   1.264   1.363
 6811SOL    HW121332   6.367   1.231   1.445
 6811SOL    HW221333   6.490   1.203   1.340
 6812SOL     OW21334   3.178   4.152   5.178
 6812SOL    HW121335   3.186   4.138   5.079
 6812SOL    HW221336   3.269   4.152   5.219
 6813SOL     OW21337   6.112   3.823   2.033
 6813SOL    HW121338   6.096   3.752   2.101
 6813SOL    HW221339   6.197   3.872   2.055
 6814SOL     OW21340   5.008   1.268   6.333
 6814SOL    HW121341   5.033   1.257   6.429
 6814SOL    HW221342   4.929   1.210   6.313
 6815SOL     OW21343   2.290   4.881   6.141
 6815SOL    HW121344   2.258   4.899   6.234
 6815SOL    HW221345   2.331   4.964   6.103
 6816SOL     OW21346   0.723   1.430   3.140
 6816SOL    HW121347   0.716   1.379   3.226
 6816SOL    HW221348   0.647   1.404   3.080
 6817SOL     OW21349   3.639   2.095   2.278
 6817SOL    HW121350   3.710   2.137   2.335
 6817SOL    HW221351   3.635   2.142   2.190
 6818SOL     OW21352   1.894   6.637   5.790
 6818SOL    HW121353   1.931   6.678   5.707
 6818SOL    HW221354   1.816   6.691   5.822
 6819SOL     OW21355   4.430   4.547   2.042
 6819SOL    HW121356   4.356   4.542   1.974
 6819SOL    HW221357   4.481   4.461   2.042
 6820SOL     OW21358   3.076   5.878   1.156
 6820SOL    HW121359   3.031   5.957   1.198
 6820SOL    HW221360   3.088   5.894   1.058
 6821SOL     OW21361   3.981   2.616   5.361
 6821SOL    HW121362   4.036   2.574   5.289
 6821SOL    HW221363   3.891   2.571   5.365
 6822SOL     OW21364   6.713   2.722   6.590
 6822SOL    HW121365   6.685   2.817   6.606
 6822SOL    HW221366   6.749   2.713   6.497
 6823SOL     OW21367   5.998   3.493   6.834
 6823SOL    HW121368   6.075   3.451   6.883
 6823SOL    HW221369   5.933   3.422   6.808
 6824SOL     OW21370   0.416   2.396   6.035
 6824SOL    HW121371   0.416   2.484   5.988
 6824SOL    HW221372   0.338   2.392   6.098
 6825SOL     OW21373   6.219   5.516   1.640
 6825SOL    HW121374   6.166   5.582   1.694
 6825SOL    HW221375   6.218   5.427   1.685
 6826SOL     OW21376   0.299   3.791   3.106
 6826SOL    HW121377   0.239   3.816   3.183
 6826SOL    HW221378   0.245   3.742   3.037
 6827SOL     OW21379   4.750   5.803   4.900
 6827SOL    HW121380   4.707   5.848   4.979
 6827SOL    HW221381   4.778   5.711   4.925
 6828SOL     OW21382   3.170   1.745   2.322
 6828SOL    HW121383   3.190   1.650   2.302
 6828SOL    HW221384   3.161   1.797   2.237
 6829SOL     OW21385   4.795   6.816   4.588
 6829SOL    HW121386   4.826   6.805   4.494
 6829SOL    HW221387   4.765   6.728   4.624
 6830SOL     OW21388   5.353   6.864   3.316
 6830SOL    HW121389   5.305   6.859   3.403
 6830SOL    HW221390   5.355   6.959   3.284
 6831SOL     OW21391   1.255   1.603   6.302
 6831SOL    HW121392   1.275   1.598   6.204
 6831SOL    HW221393   1.299   1.685   6.341
 6832SOL     OW21394   2.909   2.772   0.465
 6832SOL    HW121395   2.834   2.810   0.412
 6832SOL    HW221396   2.901   2.672   0.467
 6833SOL     OW21397   2.896   5.171   5.910
 6833SOL    HW121398   2.942   5.122   5.836
 6833SOL    HW221399   2.838   5.107   5.961
 6834SOL     OW21400   5.476   0.504   0.810
 6834SOL    HW121401   5.529   0.581   0.846
 6834SOL    HW221402   5.517   0.473   0.724
 6835SOL     OW21403   2.580   2.013   4.415
 6835SOL    HW121404   2.501   2.000   4.474
 6835SOL    HW221405   2.627   2.097   4.441
 6836SOL     OW21406   1.893   4.775   6.213
 6836SOL    HW121407   1.943   4.756   6.297
 6836SOL    HW221408   1.834   4.698   6.191
 6837SOL     OW21409   0.459   0.334   1.580
 6837SOL    HW121410   0.397   0.315   1.656
 6837SOL    HW221411   0.459   0.432   1.560
 6838SOL     OW21412   3.112   4.384   5.340
 6838SOL    HW121413   3.148   4.292   5.325
 6838SOL    HW221414   3.034   4.400   5.280
 6839SOL     OW21415   5.666   2.496   4.004
 6839SOL    HW121416   5.586   2.449   3.967
 6839SOL    HW221417   5.743   2.433   4.009
 6840SOL     OW21418   2.641   6.746   5.201
 6840SOL    HW121419   2.586   6.714   5.278
 6840SOL    HW221420   2.662   6.669   5.140
 6841SOL     OW21421   4.081   5.533   1.504
 6841SOL    HW121422   3.997   5.587   1.510
 6841SOL    HW221423   4.065   5.454   1.446
 6842SOL     OW21424   6.927   4.223   6.574
 6842SOL    HW121425   6.851   4.159   6.587
 6842SOL    HW221426   6.978   4.197   6.492
 6843SOL     OW21427   3.294   1.911   2.110
 6843SOL    HW121428   3.322   1.941   2.019
 6843SOL    HW221429   3.339   1.967   2.179
 6844SOL     OW21430   5.034   5.108   4.348
 6844SOL    HW121431   4.993   5.057   4.424
 6844SOL    HW221432   4.994   5.199   4.343
 6845SOL     OW21433   4.930   4.776   1.990
 6845SOL    HW121434   4.997   4.849   1.981
 6845SOL    HW221435   4.840   4.816   2.007
 6846SOL     OW21436   3.698   2.874   2.221
 6846SOL    HW121437   3.742   2.785   2.217
 6846SOL    HW221438   3.762   2.945   2.191
 6847SOL     OW21439   5.867   3.096   1.761
 6847SOL    HW121440   5.944   3.148   1.798
 6847SOL    HW221441   5.793   3.158   1.737
 6848SOL     OW21442   1.019   6.025   3.805
 6848SOL    HW121443   1.021   5.931   3.771
 6848SOL    HW221444   1.081   6.033   3.883
 6849SOL     OW21445   3.898   5.808   4.149
 6849SOL    HW121446   3.932   5.883   4.091
 6849SOL    HW221447   3.844   5.846   4.224
 6850SOL     OW21448   5.104   3.113   2.758
 6850SOL    HW121449   5.159   3.068   2.828
 6850SOL    HW221450   5.059   3.044   2.702
 6851SOL     OW21451   1.528   5.074   5.812
 6851SOL    HW121452   1.439   5.031   5.795
 6851SOL    HW221453   1.594   5.004   5.840
 6852SOL     OW21454   1.603   4.524   1.719
 6852SOL    HW121455   1.553   4.602   1.759
 6852SOL    HW221456   1.537   4.461   1.677
 6853SOL     OW21457   0.677   4.508   5.576
 6853SOL    HW121458   0.582   4.496   5.549
 6853SOL    HW221459   0.702   4.438   5.643
 6854SOL     OW21460   6.749   2.978   6.366
 6854SOL    HW121461   6.755   2.878   6.364
 6854SOL    HW221462   6.762   3.010   6.460
 6855SOL     OW21463   3.081   6.791   2.631
 6855SOL    HW121464   3.155   6.858   2.633
 6855SOL    HW221465   3.057   6.770   2.537
 6856SOL     OW21466   6.000   3.645   4.745
 6856SOL    HW121467   5.997   3.610   4.839
 6856SOL    HW221468   6.078   3.705   4.734
 6857SOL     OW21469   2.934   2.222   6.518
 6857SOL    HW121470   2.849   2.243   6.468
 6857SOL    HW221471   2.996   2.300   6.511
 6858SOL     OW21472   3.934   3.098   5.043
 6858SOL    HW121473   3.962   3.175   5.101
 6858SOL    HW221474   3.944   3.013   5.094
 6859SOL     OW21475   3.157   6.882   0.684
 6859SOL    HW121476   3.239   6.832   0.656
 6859SOL    HW221477   3.182   6.974   0.713
 6860SOL     OW21478   5.755   4.252   0.666
 6860SOL    HW121479   5.692   4.330   0.665
 6860SOL    HW221480   5.830   4.269   0.603
 6861SOL     OW21481   5.757   5.394   0.003
 6861SOL    HW121482   5.854   5.393   0.027
 6861SOL    HW221483   5.744   5.345   6.948
 6862SOL     OW21484   3.638   5.749   4.681
 6862SOL    HW121485   3.685   5.762   4.769
 6862SOL    HW221486   3.559   5.689   4.694
 6863SOL     OW21487   5.905   1.903   4.011
 6863SOL    HW121488   5.945   1.814   3.992
 6863SOL    HW221489   5.978   1.971   4.020
 6864SOL     OW21490   3.210   6.401   4.346
 6864SOL    HW121491   3.294   6.367   4.387
 6864SOL    HW221492   3.230   6.442   4.257
 6865SOL     OW21493   7.020   4.323   4.421
 6865SOL    HW121494   6.991   4.379   4.499
 6865SOL    HW221495   6.947   4.259   4.397
 6866SOL     OW21496   6.648   3.696   1.597
 6866SOL    HW121497   6.691   3.670   1.683
 6866SOL    HW221498   6.553   3.666   1.597
 6867SOL     OW21499   2.290   4.298   1.958
 6867SOL    HW121500   2.247   4.313   1.869
 6867SOL    HW221501   2.290   4.200   1.979
 6868SOL     OW21502   2.146   6.318   4.951
 6868SOL    HW121503   2.191   6.234   4.921
 6868SOL    HW221504   2.115   6.307   5.045
 6869SOL     OW21505   5.615   2.004   5.615
 6869SOL    HW121506   5.584   2.098   5.623
 6869SOL    HW221507   5.549   1.951   5.563
 6870SOL     OW21508   5.629   3.814   3.274
 6870SOL    HW121509   5.688   3.751   3.223
 6870SOL    HW221510   5.536   3.811   3.235
 6871SOL     OW21511   5.413   5.482   1.294
 6871SOL    HW121512   5.378   5.394   1.262
 6871SOL    HW221513   5.423   5.480   1.393
 6872SOL     OW21514   2.152   2.869   0.413
 6872SOL    HW121515   2.230   2.823   0.456
 6872SOL    HW221516   2.144   2.962   0.448
 6873SOL     OW21517   6.196   3.196   6.529
 6873SOL    HW121518   6.213   3.139   6.610
 6873SOL    HW221519   6.132   3.269   6.552
 6874SOL     OW21520   0.084   2.908   3.986
 6874SOL    HW121521   0.019   2.879   3.916
 6874SOL    HW221522   0.046   2.891   4.077
 6875SOL     OW21523   1.888   1.091   2.246
 6875SOL    HW121524   1.882   1.191   2.247
 6875SOL    HW221525   1.803   1.052   2.283
 6876SOL     OW21526   3.560   6.056   0.252
 6876SOL    HW121527   3.608   6.016   0.174
 6876SOL    HW221528   3.581   6.003   0.335
 6877SOL     OW21529   2.375   3.866   0.095
 6877SOL    HW121530   2.375   3.813   0.010
 6877SOL    HW221531   2.291   3.847   0.146
 6878SOL     OW21532   2.162   1.541   5.008
 6878SOL    HW121533   2.080   1.489   4.983
 6878SOL    HW221534   2.154   1.570   5.104
 6879SOL     OW21535   1.066   2.145   6.945
 6879SOL    HW121536   0.993   2.090   6.904
 6879SOL    HW221537   1.154   2.100   6.930
 6880SOL     OW21538   2.266   4.251   4.813
 6880SOL    HW121539   2.282   4.200   4.897
 6880SOL    HW221540   2.280   4.192   4.733
 6881SOL     OW21541   0.786   4.642   1.381
 6881SOL    HW121542   0.796   4.554   1.426
 6881SOL    HW221543   0.822   4.636   1.287
 6882SOL     OW21544   2.074   0.893   5.583
 6882SOL    HW121545   2.056   0.897   5.485
 6882SOL    HW221546   2.135   0.817   5.603
 6883SOL     OW21547   4.162   0.596   1.708
 6883SOL    HW121548   4.143   0.600   1.807
 6883SOL    HW221549   4.087   0.549   1.662
 6884SOL     OW21550   2.566   4.575   4.589
 6884SOL    HW121551   2.611   4.564   4.678
 6884SOL    HW221552   2.474   4.537   4.593
 6885SOL     OW21553   3.076   5.974   4.176
 6885SOL    HW121554   3.057   5.912   4.253
 6885SOL    HW221555   3.174   5.971   4.155
 6886SOL     OW21556   5.370   1.175   2.609
 6886SOL    HW121557   5.354   1.273   2.607
 6886SOL    HW221558   5.409   1.144   2.523
 6887SOL     OW21559   5.989   0.676   4.799
 6887SOL    HW121560   6.017   0.643   4.890
 6887SOL    HW221561   5.965   0.773   4.805
 6888SOL     OW21562   6.393   0.350   5.027
 6888SOL    HW121563   6.432   0.305   5.107
 6888SOL    HW221564   6.412   0.448   5.031
 6889SOL     OW21565   1.168   4.381   6.192
 6889SOL    HW121566   1.247   4.351   6.245
 6889SOL    HW221567   1.149   4.477   6.214
 6890SOL     OW21568   1.981   6.503   1.034
 6890SOL    HW121569   1.897   6.470   1.078
 6890SOL    HW221570   2.018   6.432   0.975
 6891SOL     OW21571   2.020   3.480   3.810
 6891SOL    HW121572   2.052   3.489   3.716
 6891SOL    HW221573   2.022   3.383   3.837
 6892SOL     OW21574   3.127   0.155   4.253
 6892SOL    HW121575   3.207   0.128   4.199
 6892SOL    HW221576   3.106   0.251   4.235
 6893SOL     OW21577   4.690   5.918   2.991
 6893SOL    HW121578   4.624   5.978   3.037
 6893SOL    HW221579   4.783   5.954   3.005
 6894SOL     OW21580   5.488   5.714   0.229
 6894SOL    HW121581   5.424   5.791   0.238
 6894SOL    HW221582   5.495   5.687   0.133
 6895SOL     OW21583   2.778   4.071   0.085
 6895SOL    HW121584   2.686   4.109   0.087
 6895SOL    HW221585   2.779   3.980   0.125
 6896SOL     OW21586   3.771   0.399   3.495
 6896SOL    HW121587   3.781   0.316   3.441
 6896SOL    HW221588   3.835   0.468   3.461
 6897SOL     OW21589   3.555   3.822   0.283
 6897SOL    HW121590   3.522   3.812   0.188
 6897SOL    HW221591   3.609   3.905   0.291
 6898SOL     OW21592   4.090   1.633   1.817
 6898SOL    HW121593   4.155   1.602   1.748
 6898SOL    HW221594   4.015   1.682   1.772
 6899SOL     OW21595   4.890   6.722   6.284
 6899SOL    HW121596   4.886   6.810   6.235
 6899SOL    HW221597   4.827   6.657   6.242
 6900SOL     OW21598   5.651   0.439   6.355
 6900SOL    HW121599   5.569   0.476   6.399
 6900SOL    HW221600   5.685   0.362   6.408
 6901SOL     OW21601   1.839   0.149   6.254
 6901SOL    HW121602   1.801   0.138   6.346
 6901SOL    HW221603   1.920   0.208   6.259
 6902SOL     OW21604   0.754   6.371   6.912
 6902SOL    HW121605   0.735   6.305   6.840
 6902SOL    HW221606   0.840   6.348   6.956
 6903SOL     OW21607   3.602   4.408   0.497
 6903SOL    HW121608   3.566   4.327   0.543
 6903SOL    HW221609   3.691   4.385   0.456
 6904SOL     OW21610   6.394   1.134   3.851
 6904SOL    HW121611   6.368   1.157   3.945
 6904SOL    HW221612   6.332   1.064   3.816
 6905SOL     OW21613   5.828   6.430   0.728
 6905SOL    HW121614   5.800   6.507   0.787
 6905SOL    HW221615   5.920   6.401   0.754
 6906SOL     OW21616   3.721   0.970   3.329
 6906SOL    HW121617   3.710   1.061   3.370
 6906SOL    HW221618   3.739   0.904   3.402
 6907SOL     OW21619   3.474   0.886   1.540
 6907SOL    HW121620   3.399   0.926   1.487
 6907SOL    HW221621   3.440   0.807   1.591
 6908SOL     OW21622   1.215   6.712   5.651
 6908SOL    HW121623   1.198   6.809   5.637
 6908SOL    HW221624   1.130   6.667   5.679
 6909SOL     OW21625   5.002   4.513   0.763
 6909SOL    HW121626   4.962   4.422   0.778
 6909SOL    HW221627   5.098   4.503   0.739
 6910SOL     OW21628   6.485   1.606   1.857
 6910SOL    HW121629   6.416   1.675   1.877
 6910SOL    HW221630   6.441   1.525   1.819
 6911SOL     OW21631   4.119   0.145   4.340
 6911SOL    HW121632   4.083   0.220   4.395
 6911SOL    HW221633   4.184   0.092   4.395
 6912SOL     OW21634   4.694   4.717   0.741
 6912SOL    HW121635   4.739   4.743   0.656
 6912SOL    HW221636   4.740   4.760   0.819
 6913SOL     OW21637   5.159   5.145   4.814
 6913SOL    HW121638   5.178   5.090   4.732
 6913SOL    HW221639   5.181   5.241   4.795
 6914SOL     OW21640   5.928   5.196   0.366
 6914SOL    HW121641   5.992   5.137   0.318
 6914SOL    HW221642   5.842   5.202   0.315
 6915SOL     OW21643   0.675   4.573   2.923
 6915SOL    HW121644   0.714   4.488   2.888
 6915SOL    HW221645   0.593   4.552   2.977
 6916SOL     OW21646   6.266   3.686   6.899
 6916SOL    HW121647   6.187   3.702   6.959
 6916SOL    HW221648   6.274   3.588   6.879
 6917SOL     OW21649   4.716   6.509   6.190
 6917SOL    HW121650   4.786   6.437   6.193
 6917SOL    HW221651   4.641   6.481   6.131
 6918SOL     OW21652   0.080   4.049   4.158
 6918SOL    HW121653   0.001   4.108   4.142
 6918SOL    HW221654   0.163   4.095   4.128
 6919SOL     OW21655   1.905   6.469   2.637
 6919SOL    HW121656   1.989   6.427   2.601
 6919SOL    HW221657   1.846   6.397   2.675
 6920SOL     OW21658   5.363   5.728   4.729
 6920SOL    HW121659   5.293   5.703   4.797
 6920SOL    HW221660   5.426   5.652   4.718
 6921SOL     OW21661   6.676   6.980   3.467
 6921SOL    HW121662   6.666   6.881   3.465
 6921SOL    HW221663   6.768   7.003   3.500
 6922SOL     OW21664   2.736   5.962   0.831
 6922SOL    HW121665   2.722   6.058   0.855
 6922SOL    HW221666   2.808   5.955   0.762
 6923SOL     OW21667   4.715   0.196   4.509
 6923SOL    HW121668   4.806   0.156   4.517
 6923SOL    HW221669   4.722   0.283   4.460
 6924SOL     OW21670   0.485   4.976   1.345
 6924SOL    HW121671   0.450   5.014   1.431
 6924SOL    HW221672   0.411   4.934   1.294
 6925SOL     OW21673   4.415   6.633   3.452
 6925SOL    HW121674   4.410   6.668   3.545
 6925SOL    HW221675   4.347   6.679   3.395
 6926SOL     OW21676   3.394   4.143   4.178
 6926SOL    HW121677   3.376   4.062   4.122
 6926SOL    HW221678   3.341   4.137   4.262
 6927SOL     OW21679   5.166   3.574   6.382
 6927SOL    HW121680   5.094   3.584   6.451
 6927SOL    HW221681   5.197   3.664   6.353
 6928SOL     OW21682   4.874   0.662   6.776
 6928SOL    HW121683   4.898   0.722   6.700
 6928SOL    HW221684   4.884   0.711   6.862
 6929SOL     OW21685   4.085   6.065   0.266
 6929SOL    HW121686   4.095   6.163   0.283
 6929SOL    HW221687   4.097   6.047   0.168
 6930SOL     OW21688   0.551   6.800   1.805
 6930SOL    HW121689   0.515   6.734   1.738
 6930SOL    HW221690   0.482   6.870   1.823
 6931SOL     OW21691   1.425   0.258   1.512
 6931SOL    HW121692   1.479   0.176   1.496
 6931SOL    HW221693   1.418   0.310   1.426
 6932SOL     OW21694   2.801   1.058   6.991
 6932SOL    HW121695   2.708   1.071   6.959
 6932SOL    HW221696   2.826   1.134   0.020
 6933SOL     OW21697   4.332   5.577   5.925
 6933SOL    HW121698   4.332   5.669   5.885
 6933SOL    HW221699   4.341   5.509   5.852
 6934SOL     OW21700   5.038   2.794   0.299
 6934SOL    HW121701   5.058   2.711   0.351
 6934SOL    HW221702   4.982   2.856   0.354
 6935SOL     OW21703   4.155   6.632   3.601
 6935SOL    HW121704   4.239   6.604   3.647
 6935SOL    HW221705   4.127   6.561   3.537
 6936SOL     OW21706   0.400   3.055   1.545
 6936SOL    HW121707   0.456   3.079   1.624
 6936SOL    HW221708   0.460   3.029   1.469
 6937SOL     OW21709   4.276   6.386   6.007
 6937SOL    HW121710   4.234   6.321   5.943
 6937SOL    HW221711   4.237   6.477   5.993
 6938SOL     OW21712   4.870   2.985   5.048
 6938SOL    HW121713   4.820   3.051   5.104
 6938SOL    HW221714   4.953   2.957   5.095
 6939SOL     OW21715   0.064   4.433   2.177
 6939SOL    HW121716   0.103   4.342   2.192
 6939SOL    HW221717   0.116   4.500   2.228
 6940SOL     OW21718   4.757   0.602   6.192
 6940SOL    HW121719   4.774   0.569   6.284
 6940SOL    HW221720   4.756   0.702   6.192
 6941SOL     OW21721   3.591   2.864   3.324
 6941SOL    HW121722   3.634   2.785   3.367
 6941SOL    HW221723   3.517   2.898   3.381
 6942SOL     OW21724   6.935   3.304   0.647
 6942SOL    HW121725   6.915   3.357   0.564
 6942SOL    HW221726   6.951   3.209   0.623
 6943SOL     OW21727   5.383   6.666   6.019
 6943SOL    HW121728   5.393   6.666   5.920
 6943SOL    HW221729   5.407   6.576   6.055
 6944SOL     OW21730   1.030   5.156   6.457
 6944SOL    HW121731   1.085   5.084   6.499
 6944SOL    HW221732   1.041   5.241   6.509
 6945SOL     OW21733   5.996   2.898   6.213
 6945SOL    HW121734   6.005   2.917   6.311
 6945SOL    HW221735   6.028   2.977   6.161
 6946SOL     OW21736   5.889   4.210   2.884
 6946SOL    HW121737   5.822   4.218   2.811
 6946SOL    HW221738   5.868   4.130   2.940
 6947SOL     OW21739   3.665   6.891   2.765
 6947SOL    HW121740   3.597   6.959   2.738
 6947SOL    HW221741   3.744   6.896   2.704
 6948SOL     OW21742   4.807   0.651   0.090
 6948SOL    HW121743   4.824   0.647   0.189
 6948SOL    HW221744   4.721   0.699   0.073
 6949SOL     OW21745   5.147   6.667   3.247
 6949SOL    HW121746   5.150   6.632   3.154
 6949SOL    HW221747   5.230   6.719   3.266
 6950SOL     OW21748   1.852   0.888   2.676
 6950SOL    HW121749   1.908   0.930   2.747
 6950SOL    HW221750   1.888   0.797   2.654
 6951SOL     OW21751   6.502   6.217   5.609
 6951SOL    HW121752   6.466   6.126   5.587
 6951SOL    HW221753   6.457   6.251   5.692
 6952SOL     OW21754   0.769   5.590   4.176
 6952SOL    HW121755   0.827   5.521   4.219
 6952SOL    HW221756   0.729   5.553   4.092
 6953SOL     OW21757   4.848   1.157   5.949
 6953SOL    HW121758   4.887   1.129   6.037
 6953SOL    HW221759   4.910   1.129   5.875
 6954SOL     OW21760   6.652   3.228   4.225
 6954SOL    HW121761   6.676   3.131   4.229
 6954SOL    HW221762   6.725   3.279   4.178
 6955SOL     OW21763   0.289   6.172   1.465
 6955SOL    HW121764   0.383   6.180   1.434
 6955SOL    HW221765   0.267   6.248   1.526
 6956SOL     OW21766   4.674   5.494   2.039
 6956SOL    HW121767   4.662   5.401   2.004
 6956SOL    HW221768   4.767   5.505   2.073
 6957SOL     OW21769   0.114   4.655   1.706
 6957SOL    HW121770   0.047   4.646   1.780
 6957SOL    HW221771   0.199   4.692   1.743
 6958SOL     OW21772   2.462   2.906   6.132
 6958SOL    HW121773   2.421   2.910   6.223
 6958SOL    HW221774   2.391   2.886   6.064
 6959SOL     OW21775   3.201   1.511   4.861
 6959SOL    HW121776   3.261   1.501   4.782
 6959SOL    HW221777   3.116   1.460   4.845
 6960SOL     OW21778   0.053   4.984   0.319
 6960SOL    HW121779   0.030   4.932   0.236
 6960SOL    HW221780   0.024   5.079   0.307
 6961SOL     OW21781   1.155   2.170   3.314
 6961SOL    HW121782   1.229   2.142   3.375
 6961SOL    HW221783   1.132   2.266   3.331
 6962SOL     OW21784   5.063   5.130   2.078
 6962SOL    HW121785   5.104   5.099   2.164
 6962SOL    HW221786   5.092   5.224   2.060
 6963SOL     OW21787   0.961   5.074   1.791
 6963SOL    HW121788   0.932   4.989   1.747
 6963SOL    HW221789   0.885   5.111   1.845
 6964SOL     OW21790   4.576   5.423   5.374
 6964SOL    HW121791   4.642   5.404   5.446
 6964SOL    HW221792   4.559   5.339   5.322
 6965SOL     OW21793   6.373   3.838   6.364
 6965SOL    HW121794   6.473   3.837   6.361
 6965SOL    HW221795   6.338   3.754   6.322
 6966SOL     OW21796   5.148   2.619   2.874
 6966SOL    HW121797   5.092   2.602   2.793
 6966SOL    HW221798   5.093   2.664   2.944
 6967SOL     OW21799   1.047   2.578   6.088
 6967SOL    HW121800   1.025   2.581   5.991
 6967SOL    HW221801   1.109   2.653   6.111
 6968SOL     OW21802   4.267   5.611   1.317
 6968SOL    HW121803   4.222   5.640   1.232
 6968SOL    HW221804   4.199   5.573   1.379
 6969SOL     OW21805   3.644   1.196   1.207
 6969SOL    HW121806   3.655   1.285   1.162
 6969SOL    HW221807   3.603   1.209   1.297
 6970SOL     OW21808   3.560   4.655   0.620
 6970SOL    HW121809   3.579   4.566   0.579
 6970SOL    HW221810   3.489   4.702   0.566
 6971SOL     OW21811   6.376   2.448   1.571
 6971SOL    HW121812   6.475   2.447   1.585
 6971SOL    HW221813   6.333   2.496   1.647
 6972SOL     OW21814   5.347   4.325   4.148
 6972SOL    HW121815   5.438   4.347   4.111
 6972SOL    HW221816   5.340   4.226   4.160
 6973SOL     OW21817   2.031   5.273   4.323
 6973SOL    HW121818   1.983   5.202   4.376
 6973SOL    HW221819   1.965   5.342   4.294
 6974SOL     OW21820   3.618   4.085   3.754
 6974SOL    HW121821   3.627   4.124   3.846
 6974SOL    HW221822   3.537   4.028   3.749
 6975SOL     OW21823   3.665   0.584   6.231
 6975SOL    HW121824   3.604   0.662   6.235
 6975SOL    HW221825   3.621   0.509   6.182
 6976SOL     OW21826   2.761   4.917   6.934
 6976SOL    HW121827   2.749   5.011   6.965
 6976SOL    HW221828   2.859   4.897   6.925
 6977SOL     OW21829   4.009   1.576   2.254
 6977SOL    HW121830   3.997   1.597   2.351
 6977SOL    HW221831   3.919   1.570   2.210
 6978SOL     OW21832   0.074   0.725   1.768
 6978SOL    HW121833   0.120   0.786   1.703
 6978SOL    HW221834   0.123   0.638   1.773
 6979SOL     OW21835   0.817   4.975   2.521
 6979SOL    HW121836   0.900   5.024   2.549
 6979SOL    HW221837   0.736   5.023   2.555
 6980SOL     OW21838   2.194   1.252   3.027
 6980SOL    HW121839   2.273   1.306   2.998
 6980SOL    HW221840   2.123   1.257   2.958
 6981SOL     OW21841   2.512   4.158   0.082
 6981SOL    HW121842   2.429   4.105   0.063
 6981SOL    HW221843   2.510   4.192   0.176
 6982SOL     OW21844   1.290   0.542   4.197
 6982SOL    HW121845   1.355   0.603   4.151
 6982SOL    HW221846   1.339   0.463   4.235
 6983SOL     OW21847   6.828   0.266   4.879
 6983SOL    HW121848   6.919   0.283   4.840
 6983SOL    HW221849   6.803   0.171   4.865
 6984SOL     OW21850   2.015   1.901   5.444
 6984SOL    HW121851   2.037   1.885   5.348
 6984SOL    HW221852   1.992   1.998   5.457
 6985SOL     OW21853   3.949   5.724   2.221
 6985SOL    HW121854   4.008   5.678   2.288
 6985SOL    HW221855   3.857   5.735   2.259
 6986SOL     OW21856   1.721   6.197   5.509
 6986SOL    HW121857   1.820   6.182   5.513
 6986SOL    HW221858   1.702   6.274   5.447
 6987SOL     OW21859   6.787   2.693   6.329
 6987SOL    HW121860   6.726   2.629   6.282
 6987SOL    HW221861   6.878   2.653   6.337
 6988SOL     OW21862   5.162   1.125   3.944
 6988SOL    HW121863   5.188   1.189   4.017
 6988SOL    HW221864   5.090   1.065   3.977
 6989SOL     OW21865   1.222   1.250   3.283
 6989SOL    HW121866   1.187   1.164   3.321
 6989SOL    HW221867   1.311   1.233   3.241
 6990SOL     OW21868   4.673   2.950   6.817
 6990SOL    HW121869   4.727   2.868   6.836
 6990SOL    HW221870   4.580   2.924   6.792
 6991SOL     OW21871   2.559   4.463   5.662
 6991SOL    HW121872   2.650   4.431   5.633
 6991SOL    HW221873   2.492   4.438   5.592
 6992SOL     OW21874   5.923   6.222   4.510
 6992SOL    HW121875   6.018   6.228   4.479
 6992SOL    HW221876   5.862   6.241   4.433
 6993SOL     OW21877   6.999   0.115   3.155
 6993SOL    HW121878   0.058   0.079   3.132
 6993SOL    HW221879   6.930   0.044   3.137
 6994SOL     OW21880   1.703   3.616   5.706
 6994SOL    HW121881   1.666   3.531   5.743
 6994SOL    HW221882   1.677   3.692   5.766
 6995SOL     OW21883   6.098   5.745   4.865
 6995SOL    HW121884   6.059   5.657   4.890
 6995SOL    HW221885   6.110   5.748   4.765
 6996SOL     OW21886   2.782   0.963   5.349
 6996SOL    HW121887   2.862   0.958   5.289
 6996SOL    HW221888   2.780   0.882   5.407
 6997SOL     OW21889   4.931   6.137   4.855
 6997SOL    HW121890   4.893   6.225   4.883
 6997SOL    HW221891   4.965   6.089   4.936
 6998SOL     OW21892   1.766   2.444   1.458
 6998SOL    HW121893   1.809   2.524   1.416
 6998SOL    HW221894   1.733   2.467   1.550
 6999SOL     OW21895   2.029   2.172   6.197
 6999SOL    HW121896   2.065   2.211   6.113
 6999SOL    HW221897   2.095   2.107   6.235
 7000SOL     OW21898   0.613   6.179   3.009
 7000SOL    HW121899   0.651   6.094   2.972
 7000SOL    HW221900   0.668   6.209   3.087
 7001SOL     OW21901   2.407   2.769   5.808
 7001SOL    HW121902   2.496   2.794   5.846
 7001SOL    HW221903   2.378   2.839   5.742
 7002SOL     OW21904   2.076   5.029   4.145
 7002SOL    HW121905   2.165   5.025   4.192
 7002SOL    HW221906   2.013   5.087   4.197
 7003SOL     OW21907   3.011   6.946   0.448
 7003SOL    HW121908   2.986   0.005   0.483
 7003SOL    HW221909   3.075   6.903   0.512
 7004SOL     OW21910   2.240   4.438   1.669
 7004SOL    HW121911   2.237   4.465   1.573
 7004SOL    HW221912   2.147   4.440   1.707
 7005SOL     OW21913   5.746   6.207   6.292
 7005SOL    HW121914   5.832   6.220   6.241
 7005SOL    HW221915   5.763   6.221   6.389
 7006SOL     OW21916   4.912   3.990   4.858
 7006SOL    HW121917   4.914   3.898   4.896
 7006SOL    HW221918   4.891   4.056   4.931
 7007SOL     OW21919   5.084   6.590   2.994
 7007SOL    HW121920   5.082   6.678   2.947
 7007SOL    HW221921   5.015   6.529   2.955
 7008SOL     OW21922   2.252   5.376   4.468
 7008SOL    HW121923   2.241   5.409   4.561
 7008SOL    HW221924   2.174   5.319   4.443
 7009SOL     OW21925   5.950   5.710   2.255
 7009SOL    HW121926   5.893   5.737   2.177
 7009SOL    HW221927   6.042   5.747   2.243
 7010SOL     OW21928   3.265   4.492   6.029
 7010SOL    HW121929   3.239   4.579   6.070
 7010SOL    HW221930   3.241   4.417   6.091
 7011SOL     OW21931   2.235   6.903   5.555
 7011SOL    HW121932   2.190   6.913   5.466
 7011SOL    HW221933   2.334   6.912   5.542
 7012SOL     OW21934   1.105   6.883   1.865
 7012SOL    HW121935   1.043   6.876   1.943
 7012SOL    HW221936   1.126   6.979   1.848
 7013SOL     OW21937   1.144   0.086   1.461
 7013SOL    HW121938   1.077   0.140   1.411
 7013SOL    HW221939   1.192   0.144   1.527
 7014SOL     OW21940   3.291   4.524   1.040
 7014SOL    HW121941   3.312   4.600   0.979
 7014SOL    HW221942   3.313   4.549   1.134
 7015SOL     OW21943   5.262   3.152   2.455
 7015SOL    HW121944   5.194   3.129   2.525
 7015SOL    HW221945   5.350   3.112   2.480
 7016SOL     OW21946   4.607   5.187   1.976
 7016SOL    HW121947   4.604   5.148   2.069
 7016SOL    HW221948   4.587   5.115   1.910
 7017SOL     OW21949   3.033   1.762   3.411
 7017SOL    HW121950   3.046   1.801   3.320
 7017SOL    HW221951   2.936   1.759   3.433
 7018SOL     OW21952   0.273   4.266   4.719
 7018SOL    HW121953   0.263   4.267   4.819
 7018SOL    HW221954   0.244   4.354   4.682
 7019SOL     OW21955   2.366   4.782   6.498
 7019SOL    HW121956   2.295   4.715   6.478
 7019SOL    HW221957   2.334   4.843   6.571
 7020SOL     OW21958   6.135   6.984   0.306
 7020SOL    HW121959   6.160   0.046   0.330
 7020SOL    HW221960   6.207   6.944   0.249
 7021SOL     OW21961   2.563   1.257   4.863
 7021SOL    HW121962   2.492   1.190   4.881
 7021SOL    HW221963   2.567   1.277   4.765
 7022SOL     OW21964   5.280   3.255   0.803
 7022SOL    HW121965   5.191   3.289   0.771
 7022SOL    HW221966   5.343   3.332   0.812
 7023SOL     OW21967   5.985   2.564   2.450
 7023SOL    HW121968   6.024   2.574   2.358
 7023SOL    HW221969   6.054   2.527   2.511
 7024SOL     OW21970   1.866   5.985   6.416
 7024SOL    HW121971   1.904   6.038   6.492
 7024SOL    HW221972   1.916   5.899   6.408
 7025SOL     OW21973   2.941   2.151   6.807
 7025SOL    HW121974   2.895   2.065   6.829
 7025SOL    HW221975   2.947   2.161   6.708
 7026SOL     OW21976   3.207   1.496   2.223
 7026SOL    HW121977   3.186   1.492   2.125
 7026SOL    HW221978   3.261   1.415   2.248
 7027SOL     OW21979   4.088   5.728   3.859
 7027SOL    HW121980   4.060   5.636   3.829
 7027SOL    HW221981   4.141   5.721   3.943
 7028SOL     OW21982   4.912   7.017   3.501
 7028SOL    HW121983   4.936   6.958   3.423
 7028SOL    HW221984   4.829   6.983   3.544
 7029SOL     OW21985   3.779   6.473   0.242
 7029SOL    HW121986   3.680   6.484   0.232
 7029SOL    HW221987   3.822   6.562   0.245
 7030SOL     OW21988   0.322   3.689   5.496
 7030SOL    HW121989   0.310   3.779   5.455
 7030SOL    HW221990   0.234   3.659   5.535
 7031SOL     OW21991   2.399   5.913   4.413
 7031SOL    HW121992   2.345   5.859   4.348
 7031SOL    HW221993   2.490   5.931   4.375
 7032SOL     OW21994   4.488   6.826   3.007
 7032SOL    HW121995   4.420   6.789   3.071
 7032SOL    HW221996   4.447   6.902   2.956
 7033SOL     OW21997   6.852   0.985   3.863
 7033SOL    HW121998   6.757   0.963   3.840
 7033SOL    HW221999   6.912   0.923   3.812
 7034SOL     OW22000   4.809   0.239   2.958
 7034SOL    HW122001   4.731   0.273   2.904
 7034SOL    HW222002   4.803   0.140   2.966
 7035SOL     OW22003   0.565   6.300   2.769
 7035SOL    HW122004   0.558   6.221   2.708
 7035SOL    HW222005   0.564   6.269   2.864
 7036SOL     OW22006   6.929   5.729   2.007
 7036SOL    HW122007   6.989   5.671   1.953
 7036SOL    HW222008   6.976   5.757   2.091
 7037SOL     OW22009   0.536   6.211   5.398
 7037SOL    HW122010   0.569   6.213   5.304
 7037SOL    HW222011   0.611   6.233   5.461
 7038SOL     OW22012   0.901   3.953   3.271
 7038SOL    HW122013   0.918   3.971   3.368
 7038SOL    HW222014   0.958   3.876   3.241
 7039SOL     OW22015   3.977   0.103   6.720
 7039SOL    HW122016   4.063   0.141   6.753
 7039SOL    HW222017   3.984   0.083   6.622
 7040SOL     OW22018   4.551   2.855   6.139
 7040SOL    HW122019   4.646   2.883   6.154
 7040SOL    HW222020   4.498   2.935   6.110
 7041SOL     OW22021   1.273   0.989   3.109
 7041SOL    HW122022   1.350   0.974   3.048
 7041SOL    HW222023   1.268   0.914   3.175
 7042SOL     OW22024   4.724   5.585   5.872
 7042SOL    HW122025   4.784   5.507   5.861
 7042SOL    HW222026   4.691   5.589   5.966
 7043SOL     OW22027   1.346   2.893   3.068
 7043SOL    HW122028   1.431   2.920   3.024
 7043SOL    HW222029   1.366   2.836   3.147
 7044SOL     OW22030   4.582   4.963   2.578
 7044SOL    HW122031   4.635   5.045   2.554
 7044SOL    HW222032   4.533   4.980   2.663
 7045SOL     OW22033   4.871   6.548   1.010
 7045SOL    HW122034   4.922   6.564   0.925
 7045SOL    HW222035   4.831   6.634   1.041
 7046SOL     OW22036   3.954   0.697   4.943
 7046SOL    HW122037   3.914   0.684   5.033
 7046SOL    HW222038   4.054   0.692   4.950
 7047SOL     OW22039   0.617   1.845   3.495
 7047SOL    HW122040   0.556   1.906   3.445
 7047SOL    HW222041   0.711   1.859   3.465
 7048SOL     OW22042   0.716   6.006   1.296
 7048SOL    HW122043   0.670   5.972   1.214
 7048SOL    HW222044   0.783   5.939   1.327
 7049SOL     OW22045   1.696   1.179   0.615
 7049SOL    HW122046   1.764   1.158   0.545
 7049SOL    HW222047   1.653   1.095   0.646
 7050SOL     OW22048   3.659   4.054   4.646
 7050SOL    HW122049   3.717   4.095   4.717
 7050SOL    HW222050   3.679   4.096   4.558
 7051SOL     OW22051   6.843   0.797   1.115
 7051SOL    HW122052   6.849   0.824   1.019
 7051SOL    HW222053   6.763   0.841   1.157
 7052SOL     OW22054   6.813   2.052   4.499
 7052SOL    HW122055   6.776   1.971   4.454
 7052SOL    HW222056   6.842   2.029   4.591
 7053SOL     OW22057   0.390   3.842   6.156
 7053SOL    HW122058   0.394   3.803   6.248
 7053SOL    HW222059   0.463   3.910   6.146
 7054SOL     OW22060   6.859   6.339   1.382
 7054SOL    HW122061   6.905   6.291   1.456
 7054SOL    HW222062   6.778   6.288   1.354
 7055SOL     OW22063   4.424   0.449   5.892
 7055SOL    HW122064   4.469   0.489   5.971
 7055SOL    HW222065   4.358   0.380   5.922
 7056SOL     OW22066   5.653   4.547   2.962
 7056SOL    HW122067   5.646   4.626   3.023
 7056SOL    HW222068   5.642   4.463   3.016
 7057SOL     OW22069   0.207   4.349   4.237
 7057SOL    HW122070   0.123   4.318   4.283
 7057SOL    HW222071   0.285   4.295   4.270
 7058SOL     OW22072   0.264   5.524   4.720
 7058SOL    HW122073   0.331   5.508   4.793
 7058SOL    HW222074   0.232   5.437   4.684
 7059SOL     OW22075   0.396   0.016   1.685
 7059SOL    HW122076   0.308   0.027   1.732
 7059SOL    HW222077   0.453   0.096   1.703
 7060SOL     OW22078   2.971   0.168   1.473
 7060SOL    HW122079   2.950   0.186   1.376
 7060SOL    HW222080   2.935   0.243   1.528
 7061SOL     OW22081   0.221   1.606   3.093
 7061SOL    HW122082   0.178   1.542   3.029
 7061SOL    HW222083   0.246   1.558   3.177
 7062SOL     OW22084   5.994   2.046   5.551
 7062SOL    HW122085   5.913   2.044   5.493
 7062SOL    HW222086   6.007   1.957   5.594
 7063SOL     OW22087   1.618   6.037   0.984
 7063SOL    HW122088   1.699   6.049   0.927
 7063SOL    HW222089   1.541   6.007   0.926
 7064SOL     OW22090   4.199   2.365   1.519
 7064SOL    HW122091   4.129   2.375   1.449
 7064SOL    HW222092   4.277   2.315   1.482
 7065SOL     OW22093   4.602   4.170   1.457
 7065SOL    HW122094   4.588   4.233   1.534
 7065SOL    HW222095   4.696   4.135   1.459
 7066SOL     OW22096   3.855   1.008   0.364
 7066SOL    HW122097   3.807   0.940   0.419
 7066SOL    HW222098   3.945   1.027   0.405
 7067SOL     OW22099   1.031   4.035   5.659
 7067SOL    HW122100   0.956   4.026   5.594
 7067SOL    HW222101   1.117   4.008   5.616
 7068SOL     OW22102   0.717   2.845   3.138
 7068SOL    HW122103   0.759   2.795   3.213
 7068SOL    HW222104   0.647   2.906   3.174
 7069SOL     OW22105   6.389   3.594   5.207
 7069SOL    HW122106   6.444   3.657   5.261
 7069SOL    HW222107   6.365   3.514   5.262
 7070SOL     OW22108   6.381   4.775   5.220
 7070SOL    HW122109   6.378   4.747   5.316
 7070SOL    HW222110   6.429   4.863   5.213
 7071SOL     OW22111   1.078   6.239   4.913
 7071SOL    HW122112   1.127   6.267   4.995
 7071SOL    HW222113   0.979   6.250   4.928
 7072SOL     OW22114   6.728   6.436   6.030
 7072SOL    HW122115   6.818   6.479   6.026
 7072SOL    HW222116   6.667   6.481   5.964
 7073SOL     OW22117   0.093   0.841   5.556
 7073SOL    HW122118   0.192   0.830   5.547
 7073SOL    HW222119   0.064   0.804   5.644
 7074SOL     OW22120   3.115   2.890   2.041
 7074SOL    HW122121   3.198   2.835   2.027
 7074SOL    HW222122   3.047   2.837   2.091
 7075SOL     OW22123   1.851   5.841   4.573
 7075SOL    HW122124   1.907   5.920   4.599
 7075SOL    HW222125   1.878   5.761   4.626
 7076SOL     OW22126   3.325   2.065   6.863
 7076SOL    HW122127   3.316   1.965   6.867
 7076SOL    HW222128   3.418   2.092   6.889
 7077SOL     OW22129   2.208   5.339   5.364
 7077SOL    HW122130   2.137   5.269   5.353
 7077SOL    HW222131   2.191   5.390   5.449
 7078SOL     OW22132   6.224   6.609   2.857
 7078SOL    HW122133   6.188   6.597   2.949
 7078SOL    HW222134   6.180   6.545   2.795
 7079SOL     OW22135   6.857   6.007   5.334
 7079SOL    HW122136   6.844   5.918   5.378
 7079SOL    HW222137   6.869   5.994   5.236
 7080SOL     OW22138   4.380   2.426   3.482
 7080SOL    HW122139   4.431   2.447   3.565
 7080SOL    HW222140   4.421   2.474   3.404
 7081SOL     OW22141   3.438   1.060   4.941
 7081SOL    HW122142   3.528   1.068   4.899
 7081SOL    HW222143   3.399   1.152   4.954
 7082SOL     OW22144   5.439   1.037   0.088
 7082SOL    HW122145   5.435   1.007   7.025
 7082SOL    HW222146   5.535   1.043   0.117
 7083SOL     OW22147   2.912   1.392   6.779
 7083SOL    HW122148   2.831   1.371   6.724
 7083SOL    HW222149   2.969   1.458   6.729
 7084SOL     OW22150   7.016   6.613   5.183
 7084SOL    HW122151   7.030   6.671   5.263
 7084SOL    HW222152   0.001   6.517   5.208
 7085SOL     OW22153   2.277   2.196   3.064
 7085SOL    HW122154   2.348   2.127   3.080
 7085SOL    HW222155   2.309   2.262   2.996
 7086SOL     OW22156   5.596   0.775   6.225
 7086SOL    HW122157   5.695   0.760   6.232
 7086SOL    HW222158   5.549   0.721   6.295
 7087SOL     OW22159   1.151   2.995   4.640
 7087SOL    HW122160   1.114   3.012   4.549
 7087SOL    HW222161   1.201   2.908   4.640
 7088SOL     OW22162   4.950   2.953   4.255
 7088SOL    HW122163   4.986   2.977   4.345
 7088SOL    HW222164   4.924   3.036   4.206
 7089SOL     OW22165   3.498   2.749   5.884
 7089SOL    HW122166   3.548   2.796   5.957
 7089SOL    HW222167   3.400   2.760   5.899
 7090SOL     OW22168   1.910   1.498   5.612
 7090SOL    HW122169   1.885   1.401   5.618
 7090SOL    HW222170   2.009   1.506   5.608
 7091SOL     OW22171   0.136   1.092   6.691
 7091SOL    HW122172   0.048   1.113   6.733
 7091SOL    HW222173   0.183   1.021   6.744
 7092SOL     OW22174   3.979   3.969   0.248
 7092SOL    HW122175   3.994   3.889   0.190
 7092SOL    HW222176   4.066   4.000   0.285
 7093SOL     OW22177   3.730   4.153   4.399
 7093SOL    HW122178   3.771   4.096   4.328
 7093SOL    HW222179   3.668   4.220   4.357
 7094SOL     OW22180   0.450   6.878   5.616
 7094SOL    HW122181   0.355   6.847   5.617
 7094SOL    HW222182   0.510   6.799   5.626
 7095SOL     OW22183   1.889   2.883   6.623
 7095SOL    HW122184   1.827   2.908   6.696
 7095SOL    HW222185   1.974   2.936   6.631
 7096SOL     OW22186   5.296   2.222   3.634
 7096SOL    HW122187   5.200   2.193   3.625
 7096SOL    HW222188   5.342   2.164   3.701
 7097SOL     OW22189   6.879   0.376   1.701
 7097SOL    HW122190   6.901   0.354   1.606
 7097SOL    HW222191   6.781   0.367   1.716
 7098SOL     OW22192   1.390   6.142   4.947
 7098SOL    HW122193   1.410   6.174   4.855
 7098SOL    HW222194   1.331   6.208   4.994
 7099SOL     OW22195   1.396   1.404   4.972
 7099SOL    HW122196   1.472   1.425   4.911
 7099SOL    HW222197   1.335   1.339   4.928
 7100SOL     OW22198   4.926   4.102   1.126
 7100SOL    HW122199   4.830   4.085   1.149
 7100SOL    HW222200   4.965   4.020   1.084
 7101SOL     OW22201   2.762   0.089   4.777
 7101SOL    HW122202   2.780   0.156   4.704
 7101SOL    HW222203   2.847   0.043   4.802
 7102SOL     OW22204   4.314   0.984   0.829
 7102SOL    HW122205   4.224   0.940   0.827
 7102SOL    HW222206   4.383   0.917   0.856
 7103SOL     OW22207   3.720   5.694   6.521
 7103SOL    HW122208   3.696   5.605   6.483
 7103SOL    HW222209   3.647   5.760   6.500
 7104SOL     OW22210   1.549   3.216   3.519
 7104SOL    HW122211   1.569   3.313   3.502
 7104SOL    HW222212   1.629   3.161   3.494
 7105SOL     OW22213   3.338   3.443   4.915
 7105SOL    HW122214   3.381   3.420   4.828
 7105SOL    HW222215   3.387   3.397   4.989
 7106SOL     OW22216   3.865   2.989   4.361
 7106SOL    HW122217   3.862   2.986   4.261
 7106SOL    HW222218   3.774   2.970   4.398
 7107SOL     OW22219   2.559   1.048   0.206
 7107SOL    HW122220   2.648   1.003   0.213
 7107SOL    HW222221   2.562   1.116   0.134
 7108SOL     OW22222   4.030   6.644   1.533
 7108SOL    HW122223   3.948   6.587   1.526
 7108SOL    HW222224   4.020   6.724   1.475
 7109SOL     OW22225   3.537   6.963   6.101
 7109SOL    HW122226   3.568   0.014   6.054
 7109SOL    HW222227   3.445   6.939   6.068
 7110SOL     OW22228   5.272   5.273   3.988
 7110SOL    HW122229   5.286   5.336   4.065
 7110SOL    HW222230   5.247   5.183   4.023
 7111SOL     OW22231   1.379   3.418   4.349
 7111SOL    HW122232   1.444   3.479   4.304
 7111SOL    HW222233   1.307   3.393   4.285
 7112SOL     OW22234   1.979   5.899   4.291
 7112SOL    HW122235   2.046   5.827   4.272
 7112SOL    HW222236   1.934   5.881   4.379
 7113SOL     OW22237   3.974   3.912   4.819
 7113SOL    HW122238   4.038   3.853   4.869
 7113SOL    HW222239   3.971   3.885   4.723
 7114SOL     OW22240   4.173   0.240   1.841
 7114SOL    HW122241   4.268   0.256   1.815
 7114SOL    HW222242   4.135   0.323   1.883
 7115SOL     OW22243   5.082   2.168   1.287
 7115SOL    HW122244   5.000   2.111   1.288
 7115SOL    HW222245   5.074   2.238   1.359
 7116SOL     OW22246   5.743   4.177   3.779
 7116SOL    HW122247   5.779   4.104   3.721
 7116SOL    HW222248   5.818   4.221   3.828
 7117SOL     OW22249   0.155   6.166   3.721
 7117SOL    HW122250   0.093   6.224   3.773
 7117SOL    HW222251   0.133   6.173   3.624
 7118SOL     OW22252   5.313   4.039   1.264
 7118SOL    HW122253   5.385   4.042   1.333
 7118SOL    HW222254   5.246   4.112   1.282
 7119SOL     OW22255   5.543   0.959   3.197
 7119SOL    HW122256   5.592   1.026   3.140
 7119SOL    HW222257   5.583   0.959   3.288
 7120SOL     OW22258   4.390   1.584   2.665
 7120SOL    HW122259   4.480   1.567   2.705
 7120SOL    HW222260   4.338   1.499   2.663
 7121SOL     OW22261   2.100   0.146   3.547
 7121SOL    HW122262   2.052   0.228   3.578
 7121SOL    HW222263   2.104   0.145   3.447
 7122SOL     OW22264   6.690   0.854   0.235
 7122SOL    HW122265   6.691   0.755   0.248
 7122SOL    HW222266   6.718   0.876   0.141
 7123SOL     OW22267   3.014   5.411   1.777
 7123SOL    HW122268   3.076   5.441   1.849
 7123SOL    HW222269   2.951   5.485   1.754
 7124SOL     OW22270   0.881   4.761   0.948
 7124SOL    HW122271   0.972   4.764   0.906
 7124SOL    HW222272   0.886   4.793   1.042
 7125SOL     OW22273   6.367   6.127   1.263
 7125SOL    HW122274   6.343   6.174   1.177
 7125SOL    HW222275   6.457   6.083   1.252
 7126SOL     OW22276   2.418   3.622   0.507
 7126SOL    HW122277   2.320   3.634   0.518
 7126SOL    HW222278   2.465   3.644   0.593
 7127SOL     OW22279   3.307   5.222   4.588
 7127SOL    HW122280   3.398   5.238   4.628
 7127SOL    HW222281   3.247   5.183   4.658
 7128SOL     OW22282   3.311   4.997   0.588
 7128SOL    HW122283   3.356   4.916   0.552
 7128SOL    HW222284   3.212   4.987   0.581
 7129SOL     OW22285   3.132   0.772   1.220
 7129SOL    HW122286   3.208   0.809   1.167
 7129SOL    HW222287   3.167   0.716   1.295
 7130SOL     OW22288   3.399   5.029   4.413
 7130SOL    HW122289   3.380   5.103   4.478
 7130SOL    HW222290   3.315   5.006   4.364
 7131SOL     OW22291   2.760   1.533   1.174
 7131SOL    HW122292   2.686   1.584   1.218
 7131SOL    HW222293   2.845   1.586   1.178
 7132SOL     OW22294   4.051   3.712   2.644
 7132SOL    HW122295   4.070   3.747   2.736
 7132SOL    HW222296   3.959   3.674   2.642
 7133SOL     OW22297   5.342   5.037   3.256
 7133SOL    HW122298   5.380   5.096   3.185
 7133SOL    HW222299   5.247   5.014   3.234
 7134SOL     OW22300   6.307   6.023   4.044
 7134SOL    HW122301   6.215   6.055   4.067
 7134SOL    HW222302   6.374   6.090   4.076
 7135SOL     OW22303   1.351   0.929   4.313
 7135SOL    HW122304   1.418   0.982   4.261
 7135SOL    HW222305   1.287   0.885   4.250
 7136SOL     OW22306   1.542   1.604   0.544
 7136SOL    HW122307   1.578   1.548   0.619
 7136SOL    HW222308   1.445   1.584   0.532
 7137SOL     OW22309   4.107   1.057   4.800
 7137SOL    HW122310   4.025   1.000   4.801
 7137SOL    HW222311   4.083   1.148   4.765
 7138SOL     OW22312   3.214   3.020   1.465
 7138SOL    HW122313   3.209   2.923   1.443
 7138SOL    HW222314   3.232   3.031   1.563
 7139SOL     OW22315   4.904   3.306   2.015
 7139SOL    HW122316   4.859   3.217   2.013
 7139SOL    HW222317   4.857   3.369   1.953
 7140SOL     OW22318   5.885   3.081   5.481
 7140SOL    HW122319   5.801   3.116   5.523
 7140SOL    HW222320   5.862   3.015   5.410
 7141SOL     OW22321   3.411   0.096   0.999
 7141SOL    HW122322   3.484   0.105   0.931
 7141SOL    HW222323   3.447   0.117   1.090
 7142SOL     OW22324   4.455   0.051   3.735
 7142SOL    HW122325   4.429   0.129   3.678
 7142SOL    HW222326   4.379   7.017   3.737
 7143SOL     OW22327   1.771   3.282   6.021
 7143SOL    HW122328   1.742   3.350   5.954
 7143SOL    HW222329   1.719   3.198   6.008
 7144SOL     OW22330   1.071   0.905   2.947
 7144SOL    HW122331   0.992   0.940   2.896
 7144SOL    HW222332   1.132   0.980   2.970
 7145SOL     OW22333   4.411   6.634   6.250
 7145SOL    HW122334   4.484   6.568   6.267
 7145SOL    HW222335   4.444   6.703   6.186
 7146SOL     OW22336   2.402   6.725   0.936
 7146SOL    HW122337   2.491   6.762   0.962
 7146SOL    HW222338   2.331   6.793   0.954
 7147SOL     OW22339   6.811   6.865   3.899
 7147SOL    HW122340   6.829   6.963   3.890
 7147SOL    HW222341   6.886   6.822   3.949
 7148SOL     OW22342   0.955   6.045   1.467
 7148SOL    HW122343   0.879   6.109   1.475
 7148SOL    HW222344   1.013   6.052   1.548
 7149SOL     OW22345   6.751   0.265   3.625
 7149SOL    HW122346   6.808   0.292   3.548
 7149SOL    HW222347   6.718   0.347   3.673
 7150SOL     OW22348   4.731   3.144   1.401
 7150SOL    HW122349   4.695   3.211   1.336
 7150SOL    HW222350   4.736   3.186   1.492
 7151SOL     OW22351   1.219   5.605   0.573
 7151SOL    HW122352   1.312   5.571   0.560
 7151SOL    HW222353   1.202   5.682   0.512
 7152SOL     OW22354   0.523   3.552   5.605
 7152SOL    HW122355   0.452   3.620   5.585
 7152SOL    HW222356   0.606   3.598   5.637
 7153SOL     OW22357   4.066   6.889   5.461
 7153SOL    HW122358   4.008   6.947   5.405
 7153SOL    HW222359   4.014   6.810   5.493
 7154SOL     OW22360   4.123   5.574   4.694
 7154SOL    HW122361   4.111   5.475   4.702
 7154SOL    HW222362   4.147   5.597   4.599
 7155SOL     OW22363   1.540   6.180   1.963
 7155SOL    HW122364   1.615   6.213   2.019
 7155SOL    HW222365   1.545   6.081   1.954
 7156SOL     OW22366   0.136   5.099   4.837
 7156SOL    HW122367   0.069   5.153   4.786
 7156SOL    HW222368   0.145   5.137   4.930
 7157SOL     OW22369   6.261   5.232   0.433
 7157SOL    HW122370   6.185   5.220   0.369
 7157SOL    HW222371   6.309   5.317   0.411
 7158SOL     OW22372   7.012   6.795   3.263
 7158SOL    HW122373   0.074   6.824   3.243
 7158SOL    HW222374   6.993   6.808   3.360
 7159SOL     OW22375   0.475   4.390   1.564
 7159SOL    HW122376   0.400   4.391   1.631
 7159SOL    HW222377   0.474   4.475   1.511
 7160SOL     OW22378   6.566   0.257   1.705
 7160SOL    HW122379   6.611   0.188   1.647
 7160SOL    HW222380   6.521   0.211   1.781
 7161SOL     OW22381   3.372   3.943   4.009
 7161SOL    HW122382   3.323   3.870   4.057
 7161SOL    HW222383   3.456   3.906   3.969
 7162SOL     OW22384   3.141   5.513   5.232
 7162SOL    HW122385   3.090   5.594   5.263
 7162SOL    HW222386   3.089   5.431   5.255
 7163SOL     OW22387   3.539   0.461   3.901
 7163SOL    HW122388   3.576   0.370   3.882
 7163SOL    HW222389   3.528   0.473   4.000
 7164SOL     OW22390   1.802   1.457   2.452
 7164SOL    HW122391   1.728   1.390   2.466
 7164SOL    HW222392   1.827   1.458   2.355
 7165SOL     OW22393   5.928   0.979   0.494
 7165SOL    HW122394   6.005   0.917   0.505
 7165SOL    HW222395   5.921   1.039   0.574
 7166SOL     OW22396   4.906   4.587   1.751
 7166SOL    HW122397   4.949   4.677   1.753
 7166SOL    HW222398   4.810   4.595   1.777
 7167SOL     OW22399   5.199   3.825   5.162
 7167SOL    HW122400   5.277   3.861   5.112
 7167SOL    HW222401   5.136   3.779   5.099
 7168SOL     OW22402   1.401   1.645   4.033
 7168SOL    HW122403   1.492   1.605   4.042
 7168SOL    HW222404   1.402   1.738   4.071
 7169SOL     OW22405   1.928   3.293   5.710
 7169SOL    HW122406   1.843   3.339   5.686
 7169SOL    HW222407   1.910   3.227   5.783
 7170SOL     OW22408   4.756   5.256   2.996
 7170SOL    HW122409   4.679   5.271   2.934
 7170SOL    HW222410   4.732   5.186   3.063
 7171SOL     OW22411   4.629   3.310   5.779
 7171SOL    HW122412   4.712   3.317   5.835
 7171SOL    HW222413   4.584   3.223   5.798
 7172SOL     OW22414   1.453   6.791   6.969
 7172SOL    HW122415   1.523   6.812   6.901
 7172SOL    HW222416   1.406   6.706   6.944
 7173SOL     OW22417   6.449   5.111   4.583
 7173SOL    HW122418   6.369   5.116   4.642
 7173SOL    HW222419   6.458   5.196   4.532
 7174SOL     OW22420   1.452   5.385   6.571
 7174SOL    HW122421   1.484   5.420   6.482
 7174SOL    HW222422   1.495   5.297   6.589
 7175SOL     OW22423   5.169   3.540   1.097
 7175SOL    HW122424   5.175   3.619   1.036
 7175SOL    HW222425   5.102   3.475   1.060
 7176SOL     OW22426   0.303   5.208   2.490
 7176SOL    HW122427   0.320   5.116   2.525
 7176SOL    HW222428   0.317   5.274   2.563
 7177SOL     OW22429   1.879   5.953   4.020
 7177SOL    HW122430   1.882   5.901   4.105
 7177SOL    HW222431   1.941   6.031   4.027
 7178SOL     OW22432   2.220   2.627   5.922
 7178SOL    HW122433   2.293   2.689   5.895
 7178SOL    HW222434   2.166   2.602   5.841
 7179SOL     OW22435   2.529   3.363   5.643
 7179SOL    HW122436   2.621   3.401   5.630
 7179SOL    HW222437   2.471   3.391   5.567
 7180SOL     OW22438   0.796   5.142   6.693
 7180SOL    HW122439   0.792   5.079   6.771
 7180SOL    HW222440   0.837   5.096   6.615
 7181SOL     OW22441   3.807   0.509   0.296
 7181SOL    HW122442   3.864   0.580   0.335
 7181SOL    HW222443   3.718   0.547   0.271
 7182SOL     OW22444   1.684   4.146   5.484
 7182SOL    HW122445   1.679   4.193   5.396
 7182SOL    HW222446   1.715   4.052   5.469
 7183SOL     OW22447   1.838   5.092   2.514
 7183SOL    HW122448   1.833   4.992   2.515
 7183SOL    HW222449   1.816   5.127   2.605
 7184SOL     OW22450   0.865   0.017   3.671
 7184SOL    HW122451   0.954   0.019   3.624
 7184SOL    HW222452   0.803   0.081   3.625
 7185SOL     OW22453   5.174   2.596   6.746
 7185SOL    HW122454   5.097   2.578   6.684
 7185SOL    HW222455   5.192   2.515   6.801
 7186SOL     OW22456   6.852   7.030   5.322
 7186SOL    HW122457   6.813   6.944   5.354
 7186SOL    HW222458   6.855   0.064   5.398
 7187SOL     OW22459   1.986   4.461   1.762
 7187SOL    HW122460   1.935   4.534   1.716
 7187SOL    HW222461   1.929   4.420   1.833
 7188SOL     OW22462   5.720   0.069   1.566
 7188SOL    HW122463   5.653   0.031   1.630
 7188SOL    HW222464   5.720   0.169   1.572
 7189SOL     OW22465   6.319   1.636   6.341
 7189SOL    HW122466   6.280   1.547   6.317
 7189SOL    HW222467   6.245   1.700   6.361
 7190SOL     OW22468   5.351   3.968   3.592
 7190SOL    HW122469   5.403   3.887   3.617
 7190SOL    HW222470   5.384   4.047   3.644
 7191SOL     OW22471   1.032   3.762   2.445
 7191SOL    HW122472   1.066   3.673   2.414
 7191SOL    HW222473   0.959   3.748   2.512
 7192SOL     OW22474   2.270   6.283   5.623
 7192SOL    HW122475   2.175   6.251   5.616
 7192SOL    HW222476   2.280   6.341   5.704
 7193SOL     OW22477   2.947   2.294   4.342
 7193SOL    HW122478   3.034   2.331   4.374
 7193SOL    HW222479   2.954   2.272   4.245
 7194SOL     OW22480   2.000   1.618   1.143
 7194SOL    HW122481   2.020   1.529   1.101
 7194SOL    HW222482   1.903   1.640   1.127
 7195SOL     OW22483   0.484   4.686   0.497
 7195SOL    HW122484   0.387   4.706   0.482
 7195SOL    HW222485   0.516   4.739   0.576
 7196SOL     OW22486   3.149   3.020   3.552
 7196SOL    HW122487   3.216   2.949   3.574
 7196SOL    HW222488   3.060   2.977   3.537
 7197SOL     OW22489   6.800   2.171   5.395
 7197SOL    HW122490   6.833   2.082   5.427
 7197SOL    HW222491   6.819   2.180   5.297
 7198SOL     OW22492   1.680   6.777   5.894
 7198SOL    HW122493   1.588   6.746   5.870
 7198SOL    HW222494   1.674   6.865   5.941
 7199SOL     OW22495   0.872   0.655   2.579
 7199SOL    HW122496   0.838   0.566   2.608
 7199SOL    HW222497   0.920   0.646   2.492
 7200SOL     OW22498   2.341   0.990   0.668
 7200SOL    HW122499   2.359   1.088   0.677
 7200SOL    HW222500   2.335   0.965   0.572
 7201SOL     OW22501   1.716   4.840   2.904
 7201SOL    HW122502   1.733   4.934   2.932
 7201SOL    HW222503   1.632   4.806   2.946
 7202SOL     OW22504   4.041   0.154   6.419
 7202SOL    HW122505   4.062   0.193   6.329
 7202SOL    HW222506   4.038   0.054   6.412
 7203SOL     OW22507   6.326   0.210   0.641
 7203SOL    HW122508   6.346   0.151   0.562
 7203SOL    HW222509   6.399   0.279   0.649
 7204SOL     OW22510   6.527   0.126   3.909
 7204SOL    HW122511   6.530   0.225   3.919
 7204SOL    HW222512   6.498   0.084   3.995
 7205SOL     OW22513   1.556   5.712   3.303
 7205SOL    HW122514   1.655   5.700   3.299
 7205SOL    HW222515   1.516   5.692   3.214
 7206SOL     OW22516   0.349   1.295   1.095
 7206SOL    HW122517   0.425   1.348   1.132
 7206SOL    HW222518   0.319   1.228   1.163
 7207SOL     OW22519   3.853   0.123   1.205
 7207SOL    HW122520   3.951   0.105   1.204
 7207SOL    HW222521   3.833   0.194   1.273
 7208SOL     OW22522   3.979   6.914   4.703
 7208SOL    HW122523   3.970   6.995   4.645
 7208SOL    HW222524   3.890   6.868   4.710
 7209SOL     OW22525   3.016   3.194   4.112
 7209SOL    HW122526   3.019   3.223   4.016
 7209SOL    HW222527   2.937   3.236   4.156
 7210SOL     OW22528   4.649   0.860   3.455
 7210SOL    HW122529   4.712   0.936   3.470
 7210SOL    HW222530   4.619   0.824   3.544
 7211SOL     OW22531   0.739   6.064   3.907
 7211SOL    HW122532   0.834   6.051   3.878
 7211SOL    HW222533   0.714   5.991   3.971
 7212SOL     OW22534   0.641   6.155   4.573
 7212SOL    HW122535   0.627   6.140   4.671
 7212SOL    HW222536   0.556   6.186   4.532
 7213SOL     OW22537   5.636   0.067   5.125
 7213SOL    HW122538   5.692   0.082   5.206
 7213SOL    HW222539   5.695   0.048   5.046
 7214SOL     OW22540   2.565   5.591   4.389
 7214SOL    HW122541   2.467   5.574   4.382
 7214SOL    HW222542   2.589   5.673   4.337
 7215SOL     OW22543   1.216   3.082   4.303
 7215SOL    HW122544   1.147   3.021   4.264
 7215SOL    HW222545   1.216   3.169   4.254
 7216SOL     OW22546   3.106   5.669   6.542
 7216SOL    HW122547   3.045   5.608   6.593
 7216SOL    HW222548   3.201   5.647   6.565
 7217SOL     OW22549   1.755   4.412   2.416
 7217SOL    HW122550   1.772   4.505   2.383
 7217SOL    HW222551   1.841   4.362   2.421
 7218SOL     OW22552   4.891   2.430   5.440
 7218SOL    HW122553   4.846   2.355   5.487
 7218SOL    HW222554   4.883   2.514   5.495
 7219SOL     OW22555   4.406   6.713   3.726
 7219SOL    HW122556   4.498   6.715   3.766
 7219SOL    HW222557   4.348   6.779   3.773
 7220SOL     OW22558   6.563   0.833   3.437
 7220SOL    HW122559   6.472   0.862   3.406
 7220SOL    HW222560   6.557   0.741   3.477
 7221SOL     OW22561   5.594   4.868   5.845
 7221SOL    HW122562   5.622   4.893   5.938
 7221SOL    HW222563   5.674   4.866   5.785
 7222SOL     OW22564   6.378   6.345   1.068
 7222SOL    HW122565   6.370   6.400   0.985
 7222SOL    HW222566   6.435   6.393   1.134
 7223SOL     OW22567   3.090   1.893   0.753
 7223SOL    HW122568   3.117   1.978   0.799
 7223SOL    HW222569   3.002   1.906   0.708
 7224SOL     OW22570   5.960   1.266   4.203
 7224SOL    HW122571   5.956   1.360   4.237
 7224SOL    HW222572   5.975   1.267   4.104
 7225SOL     OW22573   1.744   5.950   0.281
 7225SOL    HW122574   1.781   6.035   0.243
 7225SOL    HW222575   1.817   5.898   0.324
 7226SOL     OW22576   0.094   6.922   0.126
 7226SOL    HW122577   0.102   6.889   0.032
 7226SOL    HW222578   0.027   6.866   0.176
 7227SOL     OW22579   0.566   2.049   0.161
 7227SOL    HW122580   0.623   2.030   0.081
 7227SOL    HW222581   0.622   2.093   0.231
 7228SOL     OW22582   7.008   6.629   1.812
 7228SOL    HW122583   0.060   6.636   1.867
 7228SOL    HW222584   6.943   6.567   1.856
 7229SOL     OW22585   1.000   0.463   4.614
 7229SOL    HW122586   0.944   0.527   4.562
 7229SOL    HW222587   0.941   0.394   4.656
 7230SOL     OW22588   4.114   5.379   4.267
 7230SOL    HW122589   4.196   5.321   4.269
 7230SOL    HW222590   4.056   5.357   4.345
 7231SOL     OW22591   5.689   1.901   6.199
 7231SOL    HW122592   5.695   1.955   6.284
 7231SOL    HW222593   5.707   1.805   6.220
 7232SOL     OW22594   4.154   4.869   2.930
 7232SOL    HW122595   4.089   4.847   3.003
 7232SOL    HW222596   4.107   4.922   2.859
 7233SOL     OW22597   0.584   2.979   5.130
 7233SOL    HW122598   0.674   3.023   5.131
 7233SOL    HW222599   0.560   2.952   5.223
 7234SOL     OW22600   5.808   2.551   1.836
 7234SOL    HW122601   5.891   2.507   1.871
 7234SOL    HW222602   5.775   2.618   1.902
 7235SOL     OW22603   5.544   4.158   4.684
 7235SOL    HW122604   5.546   4.197   4.592
 7235SOL    HW222605   5.507   4.225   4.748
 7236SOL     OW22606   3.714   1.741   2.831
 7236SOL    HW122607   3.725   1.717   2.735
 7236SOL    HW222608   3.680   1.661   2.882
 7237SOL     OW22609   6.612   6.187   5.103
 7237SOL    HW122610   6.631   6.091   5.123
 7237SOL    HW222611   6.581   6.232   5.186
 7238SOL     OW22612   2.416   1.641   2.503
 7238SOL    HW122613   2.504   1.611   2.539
 7238SOL    HW222614   2.355   1.563   2.491
 7239SOL     OW22615   1.842   1.729   2.896
 7239SOL    HW122616   1.920   1.791   2.885
 7239SOL    HW222617   1.846   1.657   2.827
 7240SOL     OW22618   3.107   3.689   0.857
 7240SOL    HW122619   3.070   3.643   0.937
 7240SOL    HW222620   3.034   3.708   0.791
 7241SOL     OW22621   3.678   0.781   5.742
 7241SOL    HW122622   3.763   0.757   5.696
 7241SOL    HW222623   3.688   0.770   5.841
 7242SOL     OW22624   5.689   4.005   6.982
 7242SOL    HW122625   5.742   4.089   6.996
 7242SOL    HW222626   5.592   4.028   6.972
 7243SOL     OW22627   1.565   4.734   6.326
 7243SOL    HW122628   1.542   4.813   6.268
 7243SOL    HW222629   1.483   4.679   6.341
 7244SOL     OW22630   5.591   1.773   1.038
 7244SOL    HW122631   5.621   1.783   0.943
 7244SOL    HW222632   5.656   1.715   1.088
 7245SOL     OW22633   0.124   2.167   4.786
 7245SOL    HW122634   0.185   2.156   4.708
 7245SOL    HW222635   0.177   2.194   4.867
 7246SOL     OW22636   6.179   0.011   4.767
 7246SOL    HW122637   6.231   6.978   4.712
 7246SOL    HW222638   6.100   0.043   4.715
 7247SOL     OW22639   2.841   6.143   1.737
 7247SOL    HW122640   2.778   6.148   1.814
 7247SOL    HW222641   2.792   6.111   1.656
 7248SOL     OW22642   3.978   1.117   4.245
 7248SOL    HW122643   3.894   1.155   4.207
 7248SOL    HW222644   4.020   1.056   4.178
 7249SOL     OW22645   5.426   4.366   1.093
 7249SOL    HW122646   5.332   4.398   1.082
 7249SOL    HW222647   5.451   4.367   1.190
 7250SOL     OW22648   1.959   4.696   6.487
 7250SOL    HW122649   2.003   4.662   6.570
 7250SOL    HW222650   1.859   4.692   6.498
 7251SOL     OW22651   6.963   6.658   4.818
 7251SOL    HW122652   6.981   6.624   4.910
 7251SOL    HW222653   6.974   6.584   4.752
 7252SOL     OW22654   2.965   3.205   4.965
 7252SOL    HW122655   2.865   3.196   4.968
 7252SOL    HW222656   3.006   3.151   5.038
 7253SOL     OW22657   2.896   6.386   1.242
 7253SOL    HW122658   2.927   6.444   1.318
 7253SOL    HW222659   2.817   6.428   1.198
 7254SOL     OW22660   3.625   5.267   3.788
 7254SOL    HW122661   3.643   5.362   3.813
 7254SOL    HW222662   3.712   5.218   3.778
 7255SOL     OW22663   2.906   3.320   2.334
 7255SOL    HW122664   2.899   3.414   2.299
 7255SOL    HW222665   2.868   3.257   2.267
 7256SOL     OW22666   4.115   5.094   4.358
 7256SOL    HW122667   4.071   5.008   4.383
 7256SOL    HW222668   4.104   5.109   4.260
 7257SOL     OW22669   5.575   2.728   3.180
 7257SOL    HW122670   5.653   2.718   3.119
 7257SOL    HW222671   5.497   2.677   3.143
 7258SOL     OW22672   3.943   0.284   4.691
 7258SOL    HW122673   3.858   0.235   4.711
 7258SOL    HW222674   3.931   0.381   4.709
 7259SOL     OW22675   2.310   3.823   6.757
 7259SOL    HW122676   2.369   3.771   6.818
 7259SOL    HW222677   2.363   3.896   6.713
 7260SOL     OW22678   3.665   2.088   2.701
 7260SOL    HW122679   3.676   2.184   2.726
 7260SOL    HW222680   3.647   2.034   2.783
 7261SOL     OW22681   2.243   3.170   1.759
 7261SOL    HW122682   2.249   3.133   1.666
 7261SOL    HW222683   2.266   3.268   1.757
 7262SOL     OW22684   5.392   1.981   4.391
 7262SOL    HW122685   5.442   2.043   4.451
 7262SOL    HW222686   5.420   1.998   4.296
 7263SOL     OW22687   1.154   5.649   1.236
 7263SOL    HW122688   1.182   5.710   1.161
 7263SOL    HW222689   1.146   5.556   1.201
 7264SOL     OW22690   6.576   1.154   6.787
 7264SOL    HW122691   6.585   1.100   6.703
 7264SOL    HW222692   6.629   1.238   6.779
 7265SOL     OW22693   5.317   4.851   5.888
 7265SOL    HW122694   5.405   4.881   5.853
 7265SOL    HW222695   5.274   4.789   5.822
 7266SOL     OW22696   4.728   0.610   1.607
 7266SOL    HW122697   4.724   0.602   1.707
 7266SOL    HW222698   4.642   0.648   1.573
 7267SOL     OW22699   0.485   3.830   4.617
 7267SOL    HW122700   0.578   3.797   4.634
 7267SOL    HW222701   0.419   3.761   4.647
 7268SOL     OW22702   4.085   6.070   1.675
 7268SOL    HW122703   4.008   6.105   1.728
 7268SOL    HW222704   4.079   5.971   1.668
 7269SOL     OW22705   0.722   5.443   1.936
 7269SOL    HW122706   0.787   5.387   1.987
 7269SOL    HW222707   0.761   5.534   1.921
 7270SOL     OW22708   2.457   2.060   2.589
 7270SOL    HW122709   2.540   2.060   2.534
 7270SOL    HW222710   2.451   1.975   2.641
 7271SOL     OW22711   0.025   3.653   3.139
 7271SOL    HW122712   7.015   3.695   3.219
 7271SOL    HW222713   0.085   3.578   3.168
 7272SOL     OW22714   4.932   2.732   2.956
 7272SOL    HW122715   4.903   2.750   3.050
 7272SOL    HW222716   4.876   2.786   2.893
 7273SOL     OW22717   5.644   4.557   1.602
 7273SOL    HW122718   5.565   4.496   1.615
 7273SOL    HW222719   5.612   4.649   1.582
 7274SOL     OW22720   6.763   5.087   5.830
 7274SOL    HW122721   6.787   5.048   5.742
 7274SOL    HW222722   6.837   5.147   5.861
 7275SOL     OW22723   0.058   0.420   6.759
 7275SOL    HW122724   7.015   0.387   6.700
 7275SOL    HW222725   0.055   0.520   6.763
 7276SOL     OW22726   1.975   2.027   3.637
 7276SOL    HW122727   2.002   2.123   3.626
 7276SOL    HW222728   1.914   2.001   3.562
 7277SOL     OW22729   4.728   1.485   4.691
 7277SOL    HW122730   4.795   1.497   4.618
 7277SOL    HW222731   4.747   1.550   4.765
 7278SOL     OW22732   3.276   1.418   3.469
 7278SOL    HW122733   3.275   1.502   3.524
 7278SOL    HW222734   3.327   1.347   3.519
 7279SOL     OW22735   4.404   4.558   0.105
 7279SOL    HW122736   4.341   4.609   0.163
 7279SOL    HW222737   4.497   4.592   0.119
 7280SOL     OW22738   5.366   1.851   5.525
 7280SOL    HW122739   5.286   1.910   5.541
 7280SOL    HW222740   5.394   1.859   5.429
 7281SOL     OW22741   3.540   6.542   1.675
 7281SOL    HW122742   3.559   6.488   1.592
 7281SOL    HW222743   3.470   6.496   1.729
 7282SOL     OW22744   6.494   5.572   2.298
 7282SOL    HW122745   6.548   5.630   2.359
 7282SOL    HW222746   6.479   5.618   2.211
 7283SOL     OW22747   3.828   5.146   2.906
 7283SOL    HW122748   3.853   5.049   2.910
 7283SOL    HW222749   3.735   5.154   2.871
 7284SOL     OW22750   6.692   1.639   3.759
 7284SOL    HW122751   6.748   1.627   3.677
 7284SOL    HW222752   6.602   1.597   3.744
 7285SOL     OW22753   4.752   2.771   2.071
 7285SOL    HW122754   4.774   2.728   1.983
 7285SOL    HW222755   4.736   2.869   2.057
 7286SOL     OW22756   0.538   0.981   0.472
 7286SOL    HW122757   0.518   1.019   0.382
 7286SOL    HW222758   0.550   0.882   0.464
 7287SOL     OW22759   1.455   2.692   3.504
 7287SOL    HW122760   1.400   2.635   3.444
 7287SOL    HW222761   1.417   2.785   3.506
 7288SOL     OW22762   3.042   2.124   3.046
 7288SOL    HW122763   2.958   2.161   3.007
 7288SOL    HW222764   3.115   2.127   2.978
 7289SOL     OW22765   6.148   2.449   1.337
 7289SOL    HW122766   6.138   2.453   1.437
 7289SOL    HW222767   6.126   2.539   1.298
 7290SOL     OW22768   3.829   1.498   4.492
 7290SOL    HW122769   3.823   1.535   4.584
 7290SOL    HW222770   3.924   1.476   4.471
 7291SOL     OW22771   4.329   0.876   0.304
 7291SOL    HW122772   4.341   0.786   0.260
 7291SOL    HW222773   4.389   0.882   0.383
 7292SOL     OW22774   1.998   0.001   3.001
 7292SOL    HW122775   2.026   6.952   2.950
 7292SOL    HW222776   1.903   7.020   3.033
 7293SOL     OW22777   1.435   1.067   4.814
 7293SOL    HW122778   1.386   1.016   4.745
 7293SOL    HW222779   1.531   1.077   4.787
 7294SOL     OW22780   2.944   4.951   1.443
 7294SOL    HW122781   2.976   4.858   1.458
 7294SOL    HW222782   2.869   4.950   1.376
 7295SOL     OW22783   6.284   5.437   2.427
 7295SOL    HW122784   6.351   5.506   2.400
 7295SOL    HW222785   6.210   5.436   2.359
 7296SOL     OW22786   3.952   4.939   2.228
 7296SOL    HW122787   4.015   4.873   2.188
 7296SOL    HW222788   4.003   5.009   2.278
 7297SOL     OW22789   3.661   6.114   1.479
 7297SOL    HW122790   3.754   6.131   1.449
 7297SOL    HW222791   3.605   6.085   1.402
 7298SOL     OW22792   4.976   5.647   6.672
 7298SOL    HW122793   4.965   5.722   6.607
 7298SOL    HW222794   4.949   5.561   6.629
 7299SOL     OW22795   1.374   2.909   0.240
 7299SOL    HW122796   1.287   2.948   0.270
 7299SOL    HW222797   1.394   2.826   0.293
 7300SOL     OW22798   1.097   4.718   1.795
 7300SOL    HW122799   1.104   4.782   1.872
 7300SOL    HW222800   1.001   4.697   1.778
 7301SOL     OW22801   5.590   6.453   5.460
 7301SOL    HW122802   5.597   6.439   5.559
 7301SOL    HW222803   5.651   6.389   5.414
 7302SOL     OW22804   4.977   2.841   5.459
 7302SOL    HW122805   4.957   2.931   5.499
 7302SOL    HW222806   5.060   2.847   5.404
 7303SOL     OW22807   2.777   0.941   0.972
 7303SOL    HW122808   2.745   0.978   1.059
 7303SOL    HW222809   2.707   0.955   0.902
 7304SOL     OW22810   2.746   5.440   1.892
 7304SOL    HW122811   2.677   5.424   1.822
 7304SOL    HW222812   2.809   5.362   1.894
 7305SOL     OW22813   5.774   2.408   0.516
 7305SOL    HW122814   5.759   2.342   0.442
 7305SOL    HW222815   5.751   2.366   0.604
 7306SOL     OW22816   2.123   1.342   1.625
 7306SOL    HW122817   2.153   1.427   1.581
 7306SOL    HW222818   2.026   1.350   1.648
 7307SOL     OW22819   1.693   6.573   1.125
 7307SOL    HW122820   1.721   6.590   1.219
 7307SOL    HW222821   1.597   6.601   1.114
 7308SOL     OW22822   4.706   0.748   2.253
 7308SOL    HW122823   4.795   0.755   2.209
 7308SOL    HW222824   4.677   0.652   2.256
 7309SOL     OW22825   2.156   5.131   2.875
 7309SOL    HW122826   2.223   5.202   2.853
 7309SOL    HW222827   2.179   5.090   2.963
 7310SOL     OW22828   1.873   2.616   0.266
 7310SOL    HW122829   1.781   2.577   0.272
 7310SOL    HW222830   1.933   2.553   0.218
 7311SOL     OW22831   0.237   6.776   6.267
 7311SOL    HW122832   0.316   6.767   6.328
 7311SOL    HW222833   0.153   6.764   6.319
 7312SOL     OW22834   0.414   2.467   5.512
 7312SOL    HW122835   0.373   2.533   5.574
 7312SOL    HW222836   0.369   2.473   5.423
 7313SOL     OW22837   2.421   0.548   1.918
 7313SOL    HW122838   2.325   0.520   1.922
 7313SOL    HW222839   2.476   0.473   1.883
 7314SOL     OW22840   0.148   4.279   0.038
 7314SOL    HW122841   0.210   4.215   0.083
 7314SOL    HW222842   0.116   4.240   6.983
 7315SOL     OW22843   1.075   5.049   2.605
 7315SOL    HW122844   1.130   5.011   2.531
 7315SOL    HW222845   1.134   5.077   2.681
 7316SOL     OW22846   3.118   2.187   0.205
 7316SOL    HW122847   3.201   2.237   0.230
 7316SOL    HW222848   3.112   2.181   0.105
 7317SOL     OW22849   3.357   1.304   1.991
 7317SOL    HW122850   3.271   1.253   1.994
 7317SOL    HW222851   3.421   1.257   1.931
 7318SOL     OW22852   3.579   0.020   1.731
 7318SOL    HW122853   3.611   0.110   1.702
 7318SOL    HW222854   3.642   6.981   1.696
 7319SOL     OW22855   6.520   4.872   0.569
 7319SOL    HW122856   6.566   4.800   0.518
 7319SOL    HW222857   6.574   4.898   0.648
 7320SOL     OW22858   6.910   3.283   1.232
 7320SOL    HW122859   6.939   3.251   1.322
 7320SOL    HW222860   6.928   3.381   1.224
 7321SOL     OW22861   2.147   6.121   6.730
 7321SOL    HW122862   2.197   6.066   6.663
 7321SOL    HW222863   2.188   6.213   6.734
 7322SOL     OW22864   0.640   2.219   2.260
 7322SOL    HW122865   0.559   2.191   2.313
 7322SOL    HW222866   0.611   2.281   2.187
 7323SOL     OW22867   1.211   1.523   1.160
 7323SOL    HW122868   1.133   1.550   1.103
 7323SOL    HW222869   1.181   1.509   1.254
 7324SOL     OW22870   5.668   4.816   3.091
 7324SOL    HW122871   5.767   4.826   3.078
 7324SOL    HW222872   5.648   4.815   3.189
 7325SOL     OW22873   3.846   1.105   6.083
 7325SOL    HW122874   3.874   1.182   6.026
 7325SOL    HW222875   3.927   1.055   6.114
 7326SOL     OW22876   2.774   0.529   0.016
 7326SOL    HW122877   2.699   0.466   0.036
 7326SOL    HW222878   2.738   0.614   7.009
 7327SOL     OW22879   6.201   3.948   3.312
 7327SOL    HW122880   6.215   4.022   3.379
 7327SOL    HW222881   6.273   3.880   3.323
 7328SOL     OW22882   4.124   4.906   5.524
 7328SOL    HW122883   4.039   4.954   5.541
 7328SOL    HW222884   4.192   4.968   5.486
 7329SOL     OW22885   2.539   3.251   0.605
 7329SOL    HW122886   2.622   3.196   0.614
 7329SOL    HW222887   2.563   3.345   0.584
 7330SOL     OW22888   3.758   2.807   1.636
 7330SOL    HW122889   3.682   2.758   1.679
 7330SOL    HW222890   3.744   2.809   1.537
 7331SOL     OW22891   4.526   0.793   1.876
 7331SOL    HW122892   4.455   0.850   1.916
 7331SOL    HW222893   4.494   0.755   1.789
 7332SOL     OW22894   3.130   4.202   6.851
 7332SOL    HW122895   3.139   4.103   6.840
 7332SOL    HW222896   3.116   4.224   6.947
 7333SOL     OW22897   6.569   2.341   1.773
 7333SOL    HW122898   6.628   2.413   1.811
 7333SOL    HW222899   6.608   2.252   1.794
 7334SOL     OW22900   2.872   6.753   5.617
 7334SOL    HW122901   2.953   6.799   5.579
 7334SOL    HW222902   2.791   6.788   5.570
 7335SOL     OW22903   6.824   2.868   2.623
 7335SOL    HW122904   6.743   2.860   2.565
 7335SOL    HW222905   6.886   2.936   2.583
 7336SOL     OW22906   1.553   5.962   1.251
 7336SOL    HW122907   1.586   5.869   1.235
 7336SOL    HW222908   1.547   6.010   1.164
 7337SOL     OW22909   2.085   2.182   2.746
 7337SOL    HW122910   2.179   2.199   2.775
 7337SOL    HW222911   2.081   2.178   2.646
 7338SOL     OW22912   5.586   2.965   1.769
 7338SOL    HW122913   5.647   3.044   1.765
 7338SOL    HW222914   5.534   2.967   1.855
 7339SOL     OW22915   6.515   5.752   4.978
 7339SOL    HW122916   6.459   5.794   4.907
 7339SOL    HW222917   6.466   5.758   5.066
 7340SOL     OW22918   2.700   0.198   0.431
 7340SOL    HW122919   2.633   0.149   0.486
 7340SOL    HW222920   2.674   0.195   0.335
 7341SOL     OW22921   6.922   5.124   4.000
 7341SOL    HW122922   6.895   5.117   4.096
 7341SOL    HW222923   6.841   5.139   3.943
 7342SOL     OW22924   6.577   7.012   0.703
 7342SOL    HW122925   6.573   0.016   0.797
 7342SOL    HW222926   6.490   0.001   0.657
 7343SOL     OW22927   6.021   3.758   2.835
 7343SOL    HW122928   6.019   3.659   2.824
 7343SOL    HW222929   6.037   3.781   2.931
 7344SOL     OW22930   2.225   6.764   0.142
 7344SOL    HW122931   2.213   6.702   0.064
 7344SOL    HW222932   2.266   6.850   0.111
 7345SOL     OW22933   4.458   5.171   5.653
 7345SOL    HW122934   4.396   5.097   5.681
 7345SOL    HW222935   4.410   5.258   5.654
 7346SOL     OW22936   3.795   4.570   1.401
 7346SOL    HW122937   3.729   4.508   1.443
 7346SOL    HW222938   3.752   4.618   1.324
 7347SOL     OW22939   5.901   1.609   2.148
 7347SOL    HW122940   5.852   1.680   2.198
 7347SOL    HW222941   5.991   1.643   2.121
 7348SOL     OW22942   1.622   2.152   3.729
 7348SOL    HW122943   1.589   2.134   3.822
 7348SOL    HW222944   1.609   2.071   3.672
 7349SOL     OW22945   3.569   1.878   0.582
 7349SOL    HW122946   3.500   1.810   0.607
 7349SOL    HW222947   3.644   1.874   0.647
 7350SOL     OW22948   1.047   2.335   3.073
 7350SOL    HW122949   1.068   2.251   3.123
 7350SOL    HW222950   1.129   2.393   3.070
 7351SOL     OW22951   4.652   5.103   6.619
 7351SOL    HW122952   4.636   5.194   6.580
 7351SOL    HW222953   4.574   5.077   6.675
 7352SOL     OW22954   1.087   1.892   2.340
 7352SOL    HW122955   1.075   1.976   2.286
 7352SOL    HW222956   1.047   1.815   2.290
 7353SOL     OW22957   6.094   1.661   4.596
 7353SOL    HW122958   6.009   1.707   4.621
 7353SOL    HW222959   6.135   1.709   4.518
 7354SOL     OW22960   6.536   6.289   5.353
 7354SOL    HW122961   6.515   6.273   5.449
 7354SOL    HW222962   6.481   6.365   5.319
 7355SOL     OW22963   1.037   5.634   1.816
 7355SOL    HW122964   1.062   5.715   1.869
 7355SOL    HW222965   1.047   5.654   1.718
 7356SOL     OW22966   6.154   1.898   6.653
 7356SOL    HW122967   6.119   1.824   6.710
 7356SOL    HW222968   6.254   1.896   6.652
 7357SOL     OW22969   5.457   2.134   6.598
 7357SOL    HW122970   5.552   2.156   6.621
 7357SOL    HW222971   5.451   2.107   6.502
 7358SOL     OW22972   3.392   1.620   4.038
 7358SOL    HW122973   3.414   1.702   3.985
 7358SOL    HW222974   3.299   1.629   4.074
 7359SOL     OW22975   3.799   3.589   2.663
 7359SOL    HW122976   3.732   3.651   2.622
 7359SOL    HW222977   3.772   3.494   2.644
 7360SOL     OW22978   1.106   2.234   5.209
 7360SOL    HW122979   1.180   2.230   5.276
 7360SOL    HW222980   1.048   2.313   5.229
 7361SOL     OW22981   4.997   6.294   1.512
 7361SOL    HW122982   4.929   6.350   1.464
 7361SOL    HW222983   5.084   6.297   1.462
 7362SOL     OW22984   1.939   6.226   5.204
 7362SOL    HW122985   1.883   6.160   5.155
 7362SOL    HW222986   2.003   6.178   5.264
 7363SOL     OW22987   5.073   2.911   6.720
 7363SOL    HW122988   5.017   2.939   6.798
 7363SOL    HW222989   5.097   2.814   6.729
 7364SOL     OW22990   4.361   6.815   0.898
 7364SOL    HW122991   4.341   6.831   0.801
 7364SOL    HW222992   4.403   6.725   0.909
 7365SOL     OW22993   2.812   0.064   2.385
 7365SOL    HW122994   2.904   0.103   2.380
 7365SOL    HW222995   2.792   0.015   2.300
 7366SOL     OW22996   6.844   5.376   6.555
 7366SOL    HW122997   6.877   5.367   6.649
 7366SOL    HW222998   6.745   5.395   6.557
 7367SOL     OW22999   4.927   3.694   1.700
 7367SOL    HW123000   5.002   3.645   1.746
 7367SOL    HW223001   4.876   3.747   1.767
 7368SOL     OW23002   2.915   3.432   4.709
 7368SOL    HW123003   2.875   3.522   4.692
 7368SOL    HW223004   2.934   3.387   4.621
 7369SOL     OW23005   5.097   4.086   0.729
 7369SOL    HW123006   5.157   4.139   0.669
 7369SOL    HW223007   5.140   4.075   0.818
 7370SOL     OW23008   2.522   0.017   0.554
 7370SOL    HW123009   2.508   0.032   0.652
 7370SOL    HW223010   2.458   6.978   0.522
 7371SOL     OW23011   2.989   4.860   4.134
 7371SOL    HW123012   2.906   4.867   4.190
 7371SOL    HW223013   2.965   4.827   4.042
 7372SOL     OW23014   4.023   0.306   6.193
 7372SOL    HW123015   3.963   0.337   6.120
 7372SOL    HW223016   4.102   0.367   6.200
 7373SOL     OW23017   3.697   0.800   3.549
 7373SOL    HW123018   3.623   0.742   3.514
 7373SOL    HW223019   3.783   0.749   3.548
 7374SOL     OW23020   1.846   2.855   6.148
 7374SOL    HW123021   1.906   2.776   6.140
 7374SOL    HW223022   1.898   2.932   6.186
 7375SOL     OW23023   1.289   0.995   4.594
 7375SOL    HW123024   1.292   1.094   4.589
 7375SOL    HW223025   1.298   0.956   4.502
 7376SOL     OW23026   2.656   2.730   0.057
 7376SOL    HW123027   2.629   2.654   7.029
 7376SOL    HW223028   2.708   2.695   0.135
 7377SOL     OW23029   4.658   4.571   1.862
 7377SOL    HW123030   4.676   4.520   1.946
 7377SOL    HW223031   4.607   4.654   1.884
 7378SOL     OW23032   0.535   1.871   4.530
 7378SOL    HW123033   0.631   1.850   4.547
 7378SOL    HW223034   0.522   1.971   4.530
 7379SOL     OW23035   3.865   0.939   1.995
 7379SOL    HW123036   3.856   0.984   1.906
 7379SOL    HW223037   3.795   0.869   2.004
 7380SOL     OW23038   6.913   3.194   5.710
 7380SOL    HW123039   6.835   3.255   5.699
 7380SOL    HW223040   6.998   3.244   5.691
 7381SOL     OW23041   4.642   2.498   2.130
 7381SOL    HW123042   4.652   2.595   2.154
 7381SOL    HW223043   4.579   2.490   2.052
 7382SOL     OW23044   0.564   4.447   4.450
 7382SOL    HW123045   0.627   4.434   4.527
 7382SOL    HW223046   0.611   4.496   4.376
 7383SOL     OW23047   0.374   6.513   2.738
 7383SOL    HW123048   0.467   6.551   2.741
 7383SOL    HW223049   0.368   6.437   2.803
 7384SOL     OW23050   5.137   6.831   2.212
 7384SOL    HW123051   5.212   6.767   2.231
 7384SOL    HW223052   5.141   6.860   2.117
 7385SOL     OW23053   4.525   6.102   1.874
 7385SOL    HW123054   4.569   6.108   1.964
 7385SOL    HW223055   4.583   6.051   1.812
 7386SOL     OW23056   1.281   2.427   5.672
 7386SOL    HW123057   1.313   2.521   5.665
 7386SOL    HW223058   1.183   2.427   5.695
 7387SOL     OW23059   4.345   5.196   4.061
 7387SOL    HW123060   4.370   5.106   4.097
 7387SOL    HW223061   4.245   5.206   4.062
 7388SOL     OW23062   6.513   4.936   4.228
 7388SOL    HW123063   6.548   4.873   4.160
 7388SOL    HW223064   6.541   4.907   4.319
 7389SOL     OW23065   1.541   3.471   6.999
 7389SOL    HW123066   1.588   3.382   6.997
 7389SOL    HW223067   1.589   3.533   0.029
 7390SOL     OW23068   0.198   1.725   6.260
 7390SOL    HW123069   0.163   1.682   6.343
 7390SOL    HW223070   0.131   1.717   6.186
 7391SOL     OW23071   5.916   3.760   5.869
 7391SOL    HW123072   5.833   3.705   5.861
 7391SOL    HW223073   5.935   3.778   5.965
 7392SOL     OW23074   1.476   4.997   4.855
 7392SOL    HW123075   1.553   4.958   4.905
 7392SOL    HW223076   1.398   5.007   4.917
 7393SOL     OW23077   5.998   5.612   2.522
 7393SOL    HW123078   6.035   5.684   2.580
 7393SOL    HW223079   5.938   5.651   2.454
 7394SOL     OW23080   3.865   3.753   6.550
 7394SOL    HW123081   3.957   3.722   6.575
 7394SOL    HW223082   3.837   3.708   6.465
 7395SOL     OW23083   0.712   0.216   6.517
 7395SOL    HW123084   0.695   0.245   6.423
 7395SOL    HW223085   0.648   0.143   6.542
 7396SOL     OW23086   1.303   0.781   5.751
 7396SOL    HW123087   1.359   0.710   5.710
 7396SOL    HW223088   1.230   0.807   5.687
 7397SOL     OW23089   6.830   4.447   4.670
 7397SOL    HW123090   6.854   4.350   4.664
 7397SOL    HW223091   6.730   4.456   4.672
 7398SOL     OW23092   4.642   4.939   4.346
 7398SOL    HW123093   4.638   5.039   4.335
 7398SOL    HW223094   4.550   4.902   4.347
 7399SOL     OW23095   6.110   3.919   5.784
 7399SOL    HW123096   6.041   3.987   5.761
 7399SOL    HW223097   6.066   3.838   5.824
 7400SOL     OW23098   3.231   4.716   0.141
 7400SOL    HW123099   3.169   4.652   0.095
 7400SOL    HW223100   3.244   4.688   0.236
 7401SOL     OW23101   0.128   1.452   4.153
 7401SOL    HW123102   0.215   1.501   4.148
 7401SOL    HW223103   0.099   1.426   4.061
 7402SOL     OW23104   1.998   0.046   3.803
 7402SOL    HW123105   1.987   6.982   3.831
 7402SOL    HW223106   1.987   0.053   3.704
 7403SOL     OW23107   1.761   3.239   3.692
 7403SOL    HW123108   1.791   3.233   3.787
 7403SOL    HW223109   1.675   3.290   3.687
 7404SOL     OW23110   1.062   0.626   1.085
 7404SOL    HW123111   0.981   0.649   1.140
 7404SOL    HW223112   1.041   0.638   0.988
 7405SOL     OW23113   2.704   5.068   5.358
 7405SOL    HW123114   2.723   4.983   5.408
 7405SOL    HW223115   2.716   5.052   5.260
 7406SOL     OW23116   1.717   3.498   2.452
 7406SOL    HW123117   1.628   3.497   2.497
 7406SOL    HW223118   1.766   3.581   2.478
 7407SOL     OW23119   0.893   6.355   5.237
 7407SOL    HW123120   0.908   6.390   5.330
 7407SOL    HW223121   0.896   6.430   5.172
 7408SOL     OW23122   1.809   4.401   5.514
 7408SOL    HW123123   1.834   4.459   5.436
 7408SOL    HW223124   1.836   4.307   5.495
 7409SOL     OW23125   1.094   0.780   4.983
 7409SOL    HW123126   1.104   0.746   5.077
 7409SOL    HW223127   1.135   0.714   4.920
 7410SOL     OW23128   0.639   4.739   1.084
 7410SOL    HW123129   0.701   4.698   1.017
 7410SOL    HW223130   0.581   4.667   1.123
 7411SOL     OW23131   2.756   6.209   4.937
 7411SOL    HW123132   2.743   6.280   4.868
 7411SOL    HW223133   2.823   6.143   4.903
 7412SOL     OW23134   1.932   0.829   0.939
 7412SOL    HW123135   1.949   0.881   1.023
 7412SOL    HW223136   2.008   0.767   0.923
 7413SOL     OW23137   6.410   3.105   4.429
 7413SOL    HW123138   6.406   3.176   4.359
 7413SOL    HW223139   6.335   3.040   4.414
 7414SOL     OW23140   6.648   6.756   1.943
 7414SOL    HW123141   6.576   6.773   2.011
 7414SOL    HW223142   6.612   6.774   1.851
 7415SOL     OW23143   2.091   3.325   2.885
 7415SOL    HW123144   2.081   3.231   2.919
 7415SOL    HW223145   2.046   3.333   2.796
 7416SOL     OW23146   3.657   1.275   4.477
 7416SOL    HW123147   3.710   1.359   4.474
 7416SOL    HW223148   3.559   1.297   4.472
 7417SOL     OW23149   1.470   6.965   6.008
 7417SOL    HW123150   1.386   6.988   5.957
 7417SOL    HW223151   1.454   6.884   6.064
 7418SOL     OW23152   2.542   4.164   1.099
 7418SOL    HW123153   2.511   4.074   1.069
 7418SOL    HW223154   2.596   4.153   1.183
 7419SOL     OW23155   5.620   1.289   5.045
 7419SOL    HW123156   5.525   1.281   5.013
 7419SOL    HW223157   5.680   1.310   4.968
 7420SOL     OW23158   6.856   6.379   1.672
 7420SOL    HW123159   6.817   6.410   1.758
 7420SOL    HW223160   6.827   6.439   1.597
 7421SOL     OW23161   3.798   4.002   1.486
 7421SOL    HW123162   3.761   3.916   1.450
 7421SOL    HW223163   3.858   4.044   1.418
 7422SOL     OW23164   0.289   3.522   1.011
 7422SOL    HW123165   0.216   3.484   0.955
 7422SOL    HW223166   0.252   3.592   1.071
 7423SOL     OW23167   2.192   4.697   5.932
 7423SOL    HW123168   2.228   4.755   6.005
 7423SOL    HW223169   2.157   4.612   5.971
 7424SOL     OW23170   5.751   1.524   4.500
 7424SOL    HW123171   5.792   1.482   4.419
 7424SOL    HW223172   5.667   1.572   4.474
 7425SOL     OW23173   3.526   4.559   5.956
 7425SOL    HW123174   3.447   4.523   6.005
 7425SOL    HW223175   3.609   4.512   5.989
 7426SOL     OW23176   0.371   1.975   6.241
 7426SOL    HW123177   0.301   1.905   6.232
 7426SOL    HW223178   0.391   1.990   6.337
 7427SOL     OW23179   3.231   6.326   4.844
 7427SOL    HW123180   3.161   6.318   4.773
 7427SOL    HW223181   3.189   6.322   4.934
 7428SOL     OW23182   3.636   2.490   5.909
 7428SOL    HW123183   3.615   2.443   5.824
 7428SOL    HW223184   3.601   2.584   5.905
 7429SOL     OW23185   6.976   0.125   2.393
 7429SOL    HW123186   6.913   0.067   2.445
 7429SOL    HW223187   6.973   0.099   2.297
 7430SOL     OW23188   6.911   3.754   5.052
 7430SOL    HW123189   6.974   3.695   5.003
 7430SOL    HW223190   6.817   3.736   5.020
 7431SOL     OW23191   0.674   3.460   2.036
 7431SOL    HW123192   0.731   3.398   1.982
 7431SOL    HW223193   0.592   3.483   1.984
 7432SOL     OW23194   0.714   6.807   3.603
 7432SOL    HW123195   0.749   6.800   3.697
 7432SOL    HW223196   0.723   6.901   3.571
 7433SOL     OW23197   6.144   5.637   0.901
 7433SOL    HW123198   6.136   5.610   0.805
 7433SOL    HW223199   6.094   5.573   0.958
 7434SOL     OW23200   2.434   1.900   6.957
 7434SOL    HW123201   2.405   1.965   7.028
 7434SOL    HW223202   2.404   1.808   6.982
 7435SOL     OW23203   3.427   6.405   6.466
 7435SOL    HW123204   3.422   6.453   6.378
 7435SOL    HW223205   3.507   6.344   6.467
 7436SOL     OW23206   5.610   3.276   6.960
 7436SOL    HW123207   5.593   3.359   7.014
 7436SOL    HW223208   5.568   3.198   7.005
 7437SOL     OW23209   0.184   5.061   6.366
 7437SOL    HW123210   0.231   5.032   6.283
 7437SOL    HW223211   0.251   5.097   6.431
 7438SOL     OW23212   0.760   4.436   2.287
 7438SOL    HW123213   0.662   4.452   2.286
 7438SOL    HW223214   0.803   4.481   2.208
 7439SOL     OW23215   2.290   0.093   4.291
 7439SOL    HW123216   2.332   0.174   4.252
 7439SOL    HW223217   2.359   0.043   4.345
 7440SOL     OW23218   1.108   2.591   4.484
 7440SOL    HW123219   1.066   2.501   4.490
 7440SOL    HW223220   1.043   2.660   4.516
 7441SOL     OW23221   5.300   0.921   4.383
 7441SOL    HW123222   5.278   0.826   4.400
 7441SOL    HW223223   5.390   0.927   4.340
 7442SOL     OW23224   0.857   1.741   6.443
 7442SOL    HW123225   0.900   1.831   6.451
 7442SOL    HW223226   0.877   1.702   6.354
 7443SOL     OW23227   0.436   1.967   6.507
 7443SOL    HW123228   0.496   1.890   6.485
 7443SOL    HW223229   0.394   1.953   6.597
 7444SOL     OW23230   6.753   3.497   6.358
 7444SOL    HW123231   6.705   3.557   6.423
 7444SOL    HW223232   6.834   3.545   6.323
 7445SOL     OW23233   5.118   1.723   1.519
 7445SOL    HW123234   5.186   1.772   1.466
 7445SOL    HW223235   5.162   1.655   1.578
 7446SOL     OW23236   6.777   4.078   0.517
 7446SOL    HW123237   6.774   4.105   0.614
 7446SOL    HW223238   6.737   3.987   0.507
 7447SOL     OW23239   1.961   4.524   0.372
 7447SOL    HW123240   1.932   4.433   0.402
 7447SOL    HW223241   2.058   4.537   0.395
 7448SOL     OW23242   5.425   6.939   5.661
 7448SOL    HW123243   5.383   6.883   5.589
 7448SOL    HW223244   5.354   6.993   5.706
 7449SOL     OW23245   4.862   2.309   1.883
 7449SOL    HW123246   4.767   2.282   1.869
 7449SOL    HW223247   4.916   2.229   1.912
 7450SOL     OW23248   4.448   2.498   2.967
 7450SOL    HW123249   4.380   2.559   3.008
 7450SOL    HW223250   4.419   2.474   2.875
 7451SOL     OW23251   1.687   1.134   4.763
 7451SOL    HW123252   1.711   1.043   4.797
 7451SOL    HW223253   1.720   1.203   4.828
 7452SOL     OW23254   1.935   0.447   5.019
 7452SOL    HW123255   1.977   0.402   4.940
 7452SOL    HW223256   1.835   0.440   5.012
 7453SOL     OW23257   5.943   6.747   4.901
 7453SOL    HW123258   5.946   6.846   4.890
 7453SOL    HW223259   5.982   6.703   4.820
 7454SOL     OW23260   0.966   3.510   1.704
 7454SOL    HW123261   0.993   3.606   1.697
 7454SOL    HW223262   0.966   3.469   1.612
 7455SOL     OW23263   5.320   2.190   0.238
 7455SOL    HW123264   5.222   2.199   0.256
 7455SOL    HW223265   5.334   2.151   0.147
 7456SOL     OW23266   1.450   3.167   4.702
 7456SOL    HW123267   1.501   3.252   4.700
 7456SOL    HW223268   1.428   3.138   4.609
 7457SOL     OW23269   5.541   0.955   5.398
 7457SOL    HW123270   5.590   0.965   5.312
 7457SOL    HW223271   5.597   0.992   5.473
 7458SOL     OW23272   2.816   0.016   0.055
 7458SOL    HW123273   2.851   0.093   0.110
 7458SOL    HW223274   2.798   0.047   6.994
 7459SOL     OW23275   4.916   0.041   5.466
 7459SOL    HW123276   5.006   0.062   5.504
 7459SOL    HW223277   4.896   0.103   5.390
 7460SOL     OW23278   2.080   4.416   0.697
 7460SOL    HW123279   2.113   4.353   0.626
 7460SOL    HW223280   1.991   4.453   0.671
 7461SOL     OW23281   5.587   1.273   5.886
 7461SOL    HW123282   5.627   1.362   5.909
 7461SOL    HW223283   5.487   1.281   5.888
 7462SOL     OW23284   2.188   1.726   1.795
 7462SOL    HW123285   2.231   1.746   1.883
 7462SOL    HW223286   2.095   1.692   1.809
 7463SOL     OW23287   3.569   3.093   1.469
 7463SOL    HW123288   3.495   3.158   1.452
 7463SOL    HW223289   3.622   3.122   1.549
 7464SOL     OW23290   4.213   6.220   0.709
 7464SOL    HW123291   4.168   6.307   0.730
 7464SOL    HW223292   4.163   6.173   0.636
 7465SOL     OW23293   2.016   6.821   1.259
 7465SOL    HW123294   2.051   6.739   1.214
 7465SOL    HW223295   1.916   6.814   1.267
 7466SOL     OW23296   0.327   0.536   6.285
 7466SOL    HW123297   0.409   0.562   6.234
 7466SOL    HW223298   0.247   0.541   6.225
 7467SOL     OW23299   6.859   2.407   1.150
 7467SOL    HW123300   6.832   2.341   1.079
 7467SOL    HW223301   6.957   2.399   1.167
 7468SOL     OW23302   5.365   1.859   2.116
 7468SOL    HW123303   5.327   1.949   2.095
 7468SOL    HW223304   5.342   1.834   2.210
 7469SOL     OW23305   1.433   0.008   6.278
 7469SOL    HW123306   1.473   7.017   6.189
 7469SOL    HW223307   1.466   6.975   6.347
 7470SOL     OW23308   0.655   1.766   2.181
 7470SOL    HW123309   0.755   1.764   2.175
 7470SOL    HW223310   0.619   1.845   2.131
 7471SOL     OW23311   6.678   7.017   4.853
 7471SOL    HW123312   6.722   7.002   4.941
 7471SOL    HW223313   6.590   0.030   4.867
 7472SOL     OW23314   3.694   0.155   4.756
 7472SOL    HW123315   3.599   0.152   4.724
 7472SOL    HW223316   3.702   0.104   4.841
 7473SOL     OW23317   6.881   3.710   4.433
 7473SOL    HW123318   6.926   3.759   4.507
 7473SOL    HW223319   6.902   3.754   4.345
 7474SOL     OW23320   3.305   0.909   4.166
 7474SOL    HW123321   3.357   0.977   4.114
 7474SOL    HW223322   3.368   0.839   4.201
 7475SOL     OW23323   4.263   0.182   2.107
 7475SOL    HW123324   4.274   0.088   2.073
 7475SOL    HW223325   4.337   0.238   2.071
 7476SOL     OW23326   4.695   5.832   4.476
 7476SOL    HW123327   4.729   5.867   4.563
 7476SOL    HW223328   4.596   5.845   4.471
 7477SOL     OW23329   4.083   1.462   4.157
 7477SOL    HW123330   4.127   1.389   4.105
 7477SOL    HW223331   4.154   1.518   4.202
 7478SOL     OW23332   2.822   3.606   6.407
 7478SOL    HW123333   2.750   3.539   6.389
 7478SOL    HW223334   2.801   3.655   6.491
 7479SOL     OW23335   4.293   1.351   0.316
 7479SOL    HW123336   4.247   1.440   0.315
 7479SOL    HW223337   4.263   1.297   0.237
 7480SOL     OW23338   5.653   5.965   1.525
 7480SOL    HW123339   5.721   6.038   1.523
 7480SOL    HW223340   5.632   5.936   1.432
 7481SOL     OW23341   5.138   5.042   0.941
 7481SOL    HW123342   5.235   5.026   0.924
 7481SOL    HW223343   5.102   5.107   0.874
 7482SOL     OW23344   4.086   0.900   2.120
 7482SOL    HW123345   4.103   0.962   2.196
 7482SOL    HW223346   3.992   0.912   2.087
 7483SOL     OW23347   3.439   2.079   4.198
 7483SOL    HW123348   3.511   2.114   4.258
 7483SOL    HW223349   3.351   2.083   4.244
 7484SOL     OW23350   1.783   6.644   1.405
 7484SOL    HW123351   1.764   6.740   1.424
 7484SOL    HW223352   1.821   6.601   1.487
 7485SOL     OW23353   3.206   5.954   5.882
 7485SOL    HW123354   3.241   5.928   5.972
 7485SOL    HW223355   3.212   6.053   5.872
 7486SOL     OW23356   3.100   6.484   5.345
 7486SOL    HW123357   3.045   6.530   5.276
 7486SOL    HW223358   3.047   6.476   5.429
 7487SOL     OW23359   2.636   6.447   3.164
 7487SOL    HW123360   2.686   6.532   3.147
 7487SOL    HW223361   2.617   6.439   3.262
 7488SOL     OW23362   3.120   6.879   5.566
 7488SOL    HW123363   3.216   6.863   5.587
 7488SOL    HW223364   3.089   6.964   5.609
 7489SOL     OW23365   4.594   2.271   4.315
 7489SOL    HW123366   4.641   2.340   4.371
 7489SOL    HW223367   4.544   2.209   4.375
 7490SOL     OW23368   0.195   0.661   0.699
 7490SOL    HW123369   0.286   0.643   0.664
 7490SOL    HW223370   0.130   0.596   0.659
 7491SOL     OW23371   0.103   5.473   6.231
 7491SOL    HW123372   0.191   5.471   6.279
 7491SOL    HW223373   0.117   5.504   6.137
 7492SOL     OW23374   1.654   2.305   5.381
 7492SOL    HW123375   1.623   2.321   5.475
 7492SOL    HW223376   1.703   2.386   5.349
 7493SOL     OW23377   6.061   4.410   6.132
 7493SOL    HW123378   5.973   4.439   6.096
 7493SOL    HW223379   6.086   4.322   6.092
 7494SOL     OW23380   5.835   0.660   2.437
 7494SOL    HW123381   5.826   0.678   2.535
 7494SOL    HW223382   5.790   0.733   2.385
 7495SOL     OW23383   2.169   1.492   0.610
 7495SOL    HW123384   2.101   1.423   0.635
 7495SOL    HW223385   2.130   1.583   0.622
 7496SOL     OW23386   1.249   5.118   6.035
 7496SOL    HW123387   1.185   5.061   5.983
 7496SOL    HW223388   1.249   5.211   5.999
 7497SOL     OW23389   2.654   5.114   2.069
 7497SOL    HW123390   2.748   5.082   2.079
 7497SOL    HW223391   2.593   5.057   2.123
 7498SOL     OW23392   2.775   1.128   4.651
 7498SOL    HW123393   2.835   1.074   4.710
 7498SOL    HW223394   2.790   1.101   4.556
 7499SOL     OW23395   5.653   6.674   4.130
 7499SOL    HW123396   5.639   6.590   4.078
 7499SOL    HW223397   5.709   6.653   4.211
 7500SOL     OW23398   4.181   6.027   2.750
 7500SOL    HW123399   4.273   6.063   2.765
 7500SOL    HW223400   4.124   6.098   2.706
 7501SOL     OW23401   0.953   3.165   4.088
 7501SOL    HW123402   0.960   3.068   4.066
 7501SOL    HW223403   0.897   3.176   4.170
 7502SOL     OW23404   1.948   1.033   5.150
 7502SOL    HW123405   1.940   0.991   5.060
 7502SOL    HW223406   1.980   0.965   5.216
 7503SOL     OW23407   2.766   1.029   6.381
 7503SOL    HW123408   2.850   1.048   6.329
 7503SOL    HW223409   2.779   1.059   6.475
 7504SOL     OW23410   3.880   6.651   3.678
 7504SOL    HW123411   3.885   6.667   3.777
 7504SOL    HW223412   3.969   6.622   3.644
 7505SOL     OW23413   2.556   0.926   5.168
 7505SOL    HW123414   2.611   0.948   5.249
 7505SOL    HW223415   2.493   0.852   5.190
 7506SOL     OW23416   3.481   0.975   2.639
 7506SOL    HW123417   3.402   1.031   2.612
 7506SOL    HW223418   3.555   1.033   2.671
 7507SOL     OW23419   0.879   6.169   6.279
 7507SOL    HW123420   0.933   6.154   6.196
 7507SOL    HW223421   0.900   6.259   6.317
 7508SOL     OW23422   5.438   6.733   3.075
 7508SOL    HW123423   5.466   6.640   3.100
 7508SOL    HW223424   5.403   6.781   3.156
 7509SOL     OW23425   5.461   4.351   7.013
 7509SOL    HW123426   5.431   4.419   0.049
 7509SOL    HW223427   5.449   4.259   0.019
 7510SOL     OW23428   3.005   3.969   4.526
 7510SOL    HW123429   3.037   3.954   4.620
 7510SOL    HW223430   2.914   4.010   4.529
 7511SOL     OW23431   1.664   0.276   2.600
 7511SOL    HW123432   1.752   0.250   2.639
 7511SOL    HW223433   1.668   0.268   2.500
 7512SOL     OW23434   2.563   3.555   1.327
 7512SOL    HW123435   2.587   3.586   1.419
 7512SOL    HW223436   2.567   3.632   1.264
 7513SOL     OW23437   1.196   2.675   6.368
 7513SOL    HW123438   1.266   2.616   6.409
 7513SOL    HW223439   1.106   2.631   6.377
 7514SOL     OW23440   3.096   6.124   1.632
 7514SOL    HW123441   3.157   6.196   1.665
 7514SOL    HW223442   3.008   6.130   1.679
 7515SOL     OW23443   0.453   0.192   2.674
 7515SOL    HW123444   0.474   0.248   2.594
 7515SOL    HW223445   0.354   0.184   2.684
 7516SOL     OW23446   6.906   6.848   4.231
 7516SOL    HW123447   6.833   6.808   4.286
 7516SOL    HW223448   6.936   6.783   4.162
 7517SOL     OW23449   0.023   3.796   1.336
 7517SOL    HW123450   6.957   3.816   1.345
 7517SOL    HW223451   0.048   3.794   1.239
 7518SOL     OW23452   4.154   5.840   3.626
 7518SOL    HW123453   4.143   5.802   3.718
 7518SOL    HW223454   4.161   5.940   3.633
 7519SOL     OW23455   1.339   6.769   4.597
 7519SOL    HW123456   1.364   6.865   4.587
 7519SOL    HW223457   1.295   6.737   4.513
 7520SOL     OW23458   1.521   6.788   2.913
 7520SOL    HW123459   1.575   6.707   2.889
 7520SOL    HW223460   1.574   6.870   2.893
 7521SOL     OW23461   4.633   4.457   5.300
 7521SOL    HW123462   4.653   4.359   5.300
 7521SOL    HW223463   4.607   4.486   5.393
 7522SOL     OW23464   2.229   1.130   0.062
 7522SOL    HW123465   2.286   1.049   0.045
 7522SOL    HW223466   2.134   1.107   0.045
 7523SOL     OW23467   6.188   6.667   5.391
 7523SOL    HW123468   6.213   6.745   5.333
 7523SOL    HW223469   6.089   6.656   5.391
 7524SOL     OW23470   6.982   1.751   5.500
 7524SOL    HW123471   7.014   1.683   5.435
 7524SOL    HW223472   0.029   1.794   5.545
 7525SOL     OW23473   1.924   0.325   0.485
 7525SOL    HW123474   1.987   0.369   0.550
 7525SOL    HW223475   1.972   0.252   0.437
 7526SOL     OW23476   3.531   3.273   4.658
 7526SOL    HW123477   3.563   3.188   4.699
 7526SOL    HW223478   3.609   3.323   4.619
 7527SOL     OW23479   5.037   4.185   2.556
 7527SOL    HW123480   4.964   4.250   2.579
 7527SOL    HW223481   5.124   4.233   2.552
 7528SOL     OW23482   4.533   2.751   0.572
 7528SOL    HW123483   4.626   2.740   0.607
 7528SOL    HW223484   4.471   2.772   0.648
 7529SOL     OW23485   4.114   0.988   4.054
 7529SOL    HW123486   4.090   0.909   3.997
 7529SOL    HW223487   4.203   0.974   4.097
 7530SOL     OW23488   0.117   3.470   2.563
 7530SOL    HW123489   0.203   3.456   2.514
 7530SOL    HW223490   0.113   3.565   2.596
 7531SOL     OW23491   4.401   1.550   3.663
 7531SOL    HW123492   4.458   1.631   3.652
 7531SOL    HW223493   4.321   1.573   3.720
 7532SOL     OW23494   5.308   5.864   2.244
 7532SOL    HW123495   5.227   5.893   2.294
 7532SOL    HW223496   5.353   5.944   2.204
 7533SOL     OW23497   2.730   1.235   3.696
 7533SOL    HW123498   2.728   1.188   3.784
 7533SOL    HW223499   2.821   1.227   3.656
 7534SOL     OW23500   3.952   6.323   5.377
 7534SOL    HW123501   4.002   6.351   5.458
 7534SOL    HW223502   3.862   6.287   5.404
 7535SOL     OW23503   2.453   1.850   5.228
 7535SOL    HW123504   2.404   1.937   5.229
 7535SOL    HW223505   2.503   1.841   5.142
 7536SOL     OW23506   4.792   5.243   5.051
 7536SOL    HW123507   4.744   5.161   5.082
 7536SOL    HW223508   4.834   5.225   4.961
 7537SOL     OW23509   2.275   4.484   4.631
 7537SOL    HW123510   2.217   4.417   4.678
 7537SOL    HW223511   2.219   4.538   4.568
 7538SOL     OW23512   3.460   3.210   3.207
 7538SOL    HW123513   3.464   3.303   3.171
 7538SOL    HW223514   3.403   3.153   3.147
 7539SOL     OW23515   1.889   2.772   5.367
 7539SOL    HW123516   1.829   2.852   5.372
 7539SOL    HW223517   1.965   2.792   5.306
 7540SOL     OW23518   2.735   0.794   6.901
 7540SOL    HW123519   2.741   0.795   6.802
 7540SOL    HW223520   2.801   0.858   6.940
 7541SOL     OW23521   6.313   2.833   5.577
 7541SOL    HW123522   6.321   2.900   5.651
 7541SOL    HW223523   6.222   2.790   5.581
 7542SOL     OW23524   0.991   0.126   5.660
 7542SOL    HW123525   0.955   0.073   5.584
 7542SOL    HW223526   0.957   0.220   5.655
 7543SOL     OW23527   4.124   2.506   0.554
 7543SOL    HW123528   4.079   2.543   0.473
 7543SOL    HW223529   4.224   2.511   0.541
 7544SOL     OW23530   0.501   2.051   2.785
 7544SOL    HW123531   0.514   2.006   2.873
 7544SOL    HW223532   0.556   2.003   2.715
 7545SOL     OW23533   4.478   6.905   2.599
 7545SOL    HW123534   4.418   6.942   2.669
 7545SOL    HW223535   4.440   6.923   2.508
 7546SOL     OW23536   4.955   1.194   0.228
 7546SOL    HW123537   4.941   1.151   0.317
 7546SOL    HW223538   5.051   1.219   0.218
 7547SOL     OW23539   4.293   0.617   0.205
 7547SOL    HW123540   4.229   0.622   0.129
 7547SOL    HW223541   4.364   0.549   0.185
 7548SOL     OW23542   2.295   1.715   1.017
 7548SOL    HW123543   2.230   1.776   0.971
 7548SOL    HW223544   2.253   1.676   1.099
 7549SOL     OW23545   5.696   1.574   2.554
 7549SOL    HW123546   5.665   1.620   2.471
 7549SOL    HW223547   5.791   1.545   2.542
 7550SOL     OW23548   1.713   5.767   2.474
 7550SOL    HW123549   1.616   5.779   2.455
 7550SOL    HW223550   1.739   5.671   2.458
 7551SOL     OW23551   4.382   3.543   6.980
 7551SOL    HW123552   4.458   3.601   7.009
 7551SOL    HW223553   4.349   3.489   0.026
 7552SOL     OW23554   2.722   5.592   4.673
 7552SOL    HW123555   2.718   5.564   4.769
 7552SOL    HW223556   2.632   5.577   4.631
 7553SOL     OW23557   4.410   4.647   6.132
 7553SOL    HW123558   4.480   4.641   6.203
 7553SOL    HW223559   4.321   4.663   6.174
 7554SOL     OW23560   4.953   2.108   0.835
 7554SOL    HW123561   4.893   2.173   0.881
 7554SOL    HW223562   4.992   2.151   0.753
 7555SOL     OW23563   0.722   5.551   5.283
 7555SOL    HW123564   0.727   5.580   5.379
 7555SOL    HW223565   0.706   5.630   5.225
 7556SOL     OW23566   0.417   3.141   5.371
 7556SOL    HW123567   0.439   3.049   5.339
 7556SOL    HW223568   0.492   3.176   5.427
 7557SOL     OW23569   5.104   4.092   6.345
 7557SOL    HW123570   5.057   4.023   6.400
 7557SOL    HW223571   5.112   4.176   6.397
 7558SOL     OW23572   2.041   2.271   3.610
 7558SOL    HW123573   2.114   2.313   3.663
 7558SOL    HW223574   1.955   2.320   3.625
 7559SOL     OW23575   6.326   5.329   0.990
 7559SOL    HW123576   6.368   5.410   1.031
 7559SOL    HW223577   6.376   5.304   0.907
 7560SOL     OW23578   4.839   0.121   0.329
 7560SOL    HW123579   4.882   0.165   0.251
 7560SOL    HW223580   4.848   0.180   0.410
 7561SOL     OW23581   0.776   3.518   0.855
 7561SOL    HW123582   0.684   3.547   0.881
 7561SOL    HW223583   0.843   3.559   0.917
 7562SOL     OW23584   5.573   6.557   4.711
 7562SOL    HW123585   5.541   6.571   4.805
 7562SOL    HW223586   5.672   6.543   4.712
 7563SOL     OW23587   2.731   0.343   1.637
 7563SOL    HW123588   2.696   0.339   1.730
 7563SOL    HW223589   2.655   0.356   1.573
 7564SOL     OW23590   5.425   0.175   2.989
 7564SOL    HW123591   5.362   0.178   2.912
 7564SOL    HW223592   5.378   0.138   3.069
 7565SOL     OW23593   5.158   5.203   6.631
 7565SOL    HW123594   5.206   5.278   6.585
 7565SOL    HW223595   5.207   5.118   6.616
 7566SOL     OW23596   0.117   4.897   3.989
 7566SOL    HW123597   0.157   4.970   4.045
 7566SOL    HW223598   0.018   4.909   3.984
 7567SOL     OW23599   2.726   4.177   5.955
 7567SOL    HW123600   2.702   4.272   5.939
 7567SOL    HW223601   2.712   4.154   6.052
 7568SOL     OW23602   5.762   5.555   3.826
 7568SOL    HW123603   5.775   5.523   3.732
 7568SOL    HW223604   5.817   5.499   3.888
 7569SOL     OW23605   4.256   6.102   6.670
 7569SOL    HW123606   4.276   6.121   6.574
 7569SOL    HW223607   4.240   6.004   6.681
 7570SOL     OW23608   5.474   4.403   4.832
 7570SOL    HW123609   5.541   4.424   4.904
 7570SOL    HW223610   5.496   4.454   4.749
 7571SOL     OW23611   5.524   3.622   1.953
 7571SOL    HW123612   5.460   3.620   1.877
 7571SOL    HW223613   5.611   3.662   1.924
 7572SOL     OW23614   5.288   0.190   3.842
 7572SOL    HW123615   5.340   0.134   3.777
 7572SOL    HW223616   5.208   0.138   3.874
 7573SOL     OW23617   6.952   5.955   4.269
 7573SOL    HW123618   6.978   5.927   4.362
 7573SOL    HW223619   6.941   5.873   4.212
 7574SOL     OW23620   6.086   1.227   3.670
 7574SOL    HW123621   5.997   1.182   3.681
 7574SOL    HW223622   6.143   1.173   3.608
 7575SOL     OW23623   4.435   1.087   6.198
 7575SOL    HW123624   4.492   1.128   6.126
 7575SOL    HW223625   4.461   1.125   6.287
 7576SOL     OW23626   5.535   5.013   0.234
 7576SOL    HW123627   5.557   4.917   0.215
 7576SOL    HW223628   5.436   5.022   0.246
 7577SOL     OW23629   6.519   0.114   4.623
 7577SOL    HW123630   6.594   0.180   4.619
 7577SOL    HW223631   6.472   0.123   4.710
 7578SOL     OW23632   2.100   6.328   4.239
 7578SOL    HW123633   2.050   6.330   4.326
 7578SOL    HW223634   2.194   6.359   4.254
 7579SOL     OW23635   4.241   2.317   2.322
 7579SOL    HW123636   4.171   2.371   2.369
 7579SOL    HW223637   4.331   2.337   2.362
 7580SOL     OW23638   1.243   3.536   2.970
 7580SOL    HW123639   1.272   3.626   2.936
 7580SOL    HW223640   1.319   3.494   3.020
 7581SOL     OW23641   5.412   2.035   0.460
 7581SOL    HW123642   5.397   2.107   0.392
 7581SOL    HW223643   5.358   1.954   0.435
 7582SOL     OW23644   3.780   1.658   0.449
 7582SOL    HW123645   3.766   1.696   0.541
 7582SOL    HW223646   3.724   1.576   0.438
 7583SOL     OW23647   5.959   4.321   2.238
 7583SOL    HW123648   5.902   4.270   2.302
 7583SOL    HW223649   6.047   4.275   2.228
 7584SOL     OW23650   2.544   6.673   1.230
 7584SOL    HW123651   2.446   6.669   1.211
 7584SOL    HW223652   2.560   6.666   1.328
 7585SOL     OW23653   1.052   4.081   6.331
 7585SOL    HW123654   1.041   4.144   6.407
 7585SOL    HW223655   1.149   4.058   6.321
 7586SOL     OW23656   3.025   0.232   2.520
 7586SOL    HW123657   2.938   0.277   2.498
 7586SOL    HW223658   3.051   0.252   2.614
 7587SOL     OW23659   2.167   1.646   6.741
 7587SOL    HW123660   2.218   1.725   6.706
 7587SOL    HW223661   2.227   1.590   6.797
 7588SOL     OW23662   0.756   4.996   2.253
 7588SOL    HW123663   0.713   5.086   2.250
 7588SOL    HW223664   0.776   4.972   2.348
 7589SOL     OW23665   5.834   6.115   0.366
 7589SOL    HW123666   5.868   6.126   0.272
 7589SOL    HW223667   5.859   6.024   0.400
 7590SOL     OW23668   2.942   1.748   5.595
 7590SOL    HW123669   2.907   1.836   5.563
 7590SOL    HW223670   3.012   1.715   5.532
 7591SOL     OW23671   0.246   4.814   0.433
 7591SOL    HW123672   0.164   4.855   0.395
 7591SOL    HW223673   0.312   4.886   0.457
 7592SOL     OW23674   6.734   4.854   0.155
 7592SOL    HW123675   6.639   4.830   0.177
 7592SOL    HW223676   6.772   4.910   0.228
 7593SOL     OW23677   5.482   2.809   0.146
 7593SOL    HW123678   5.459   2.729   0.202
 7593SOL    HW223679   5.477   2.891   0.202
 7594SOL     OW23680   0.927   4.867   3.241
 7594SOL    HW123681   0.893   4.894   3.331
 7594SOL    HW223682   0.947   4.769   3.241
 7595SOL     OW23683   0.230   3.381   6.373
 7595SOL    HW123684   0.245   3.313   6.445
 7595SOL    HW223685   0.160   3.347   6.310
 7596SOL     OW23686   5.067   5.031   2.611
 7596SOL    HW123687   5.127   5.014   2.690
 7596SOL    HW223688   4.996   4.961   2.607
 7597SOL     OW23689   3.244   5.775   2.149
 7597SOL    HW123690   3.218   5.869   2.128
 7597SOL    HW223691   3.172   5.732   2.204
 7598SOL     OW23692   6.638   0.279   2.936
 7598SOL    HW123693   6.718   0.339   2.929
 7598SOL    HW223694   6.651   0.216   3.013
 7599SOL     OW23695   5.646   1.613   3.648
 7599SOL    HW123696   5.608   1.644   3.561
 7599SOL    HW223697   5.696   1.689   3.691
 7600SOL     OW23698   1.510   0.399   1.954
 7600SOL    HW123699   1.552   0.487   1.977
 7600SOL    HW223700   1.475   0.356   2.037
 7601SOL     OW23701   1.897   5.390   3.406
 7601SOL    HW123702   1.919   5.465   3.468
 7601SOL    HW223703   1.799   5.373   3.407
 7602SOL     OW23704   2.423   4.541   5.001
 7602SOL    HW123705   2.389   4.533   4.907
 7602SOL    HW223706   2.521   4.564   4.998
 7603SOL     OW23707   1.438   6.411   6.422
 7603SOL    HW123708   1.402   6.356   6.497
 7603SOL    HW223709   1.522   6.457   6.451
 7604SOL     OW23710   3.546   5.885   4.136
 7604SOL    HW123711   3.466   5.922   4.090
 7604SOL    HW223712   3.521   5.801   4.185
 7605SOL     OW23713   1.558   5.725   0.029
 7605SOL    HW123714   1.520   5.810   0.065
 7605SOL    HW223715   1.532   5.714   6.965
 7606SOL     OW23716   0.317   2.796   2.218
 7606SOL    HW123717   0.310   2.742   2.134
 7606SOL    HW223718   0.385   2.755   2.278
 7607SOL     OW23719   4.655   6.908   0.104
 7607SOL    HW123720   4.563   6.947   0.100
 7607SOL    HW223721   4.648   6.809   0.117
 7608SOL     OW23722   3.468   4.164   3.526
 7608SOL    HW123723   3.540   4.161   3.595
 7608SOL    HW223724   3.430   4.257   3.521
 7609SOL     OW23725   6.685   3.779   3.831
 7609SOL    HW123726   6.697   3.874   3.802
 7609SOL    HW223727   6.731   3.765   3.918
 7610SOL     OW23728   6.166   0.583   1.277
 7610SOL    HW123729   6.128   0.595   1.185
 7610SOL    HW223730   6.124   0.503   1.320
 7611SOL     OW23731   1.276   1.922   0.203
 7611SOL    HW123732   1.209   1.987   0.166
 7611SOL    HW223733   1.338   1.894   0.131
 7612SOL     OW23734   3.702   1.648   4.328
 7612SOL    HW123735   3.756   1.590   4.390
 7612SOL    HW223736   3.673   1.730   4.376
 7613SOL     OW23737   4.958   1.938   1.186
 7613SOL    HW123738   5.007   1.867   1.236
 7613SOL    HW223739   4.874   1.900   1.148
 7614SOL     OW23740   3.888   2.451   1.687
 7614SOL    HW123741   3.980   2.475   1.718
 7614SOL    HW223742   3.834   2.419   1.765
 7615SOL     OW23743   4.948   5.100   6.754
 7615SOL    HW123744   4.879   5.171   6.766
 7615SOL    HW223745   5.015   5.130   6.686
 7616SOL     OW23746   0.797   4.305   4.201
 7616SOL    HW123747   0.848   4.319   4.285
 7616SOL    HW223748   0.762   4.212   4.198
 7617SOL     OW23749   3.281   5.851   4.033
 7617SOL    HW123750   3.220   5.778   4.004
 7617SOL    HW223751   3.320   5.896   3.952
 7618SOL     OW23752   1.016   2.478   6.337
 7618SOL    HW123753   1.046   2.384   6.354
 7618SOL    HW223754   1.036   2.503   6.243
 7619SOL     OW23755   5.663   3.628   5.872
 7619SOL    HW123756   5.593   3.691   5.837
 7619SOL    HW223757   5.637   3.597   5.964
 7620SOL     OW23758   3.562   0.420   1.175
 7620SOL    HW123759   3.657   0.408   1.201
 7620SOL    HW223760   3.557   0.452   1.081
 7621SOL     OW23761   0.944   0.390   0.156
 7621SOL    HW123762   0.863   0.332   0.167
 7621SOL    HW223763   1.009   0.345   0.095
 7622SOL     OW23764   5.134   2.827   1.988
 7622SOL    HW123765   5.040   2.810   1.958
 7622SOL    HW223766   5.136   2.834   2.088
 7623SOL     OW23767   4.682   5.571   6.179
 7623SOL    HW123768   4.636   5.501   6.234
 7623SOL    HW223769   4.779   5.549   6.172
 7624SOL     OW23770   0.377   2.067   3.624
 7624SOL    HW123771   0.394   2.166   3.614
 7624SOL    HW223772   0.386   2.023   3.535
 7625SOL     OW23773   5.437   1.412   0.344
 7625SOL    HW123774   5.532   1.410   0.374
 7625SOL    HW223775   5.378   1.383   0.419
 7626SOL     OW23776   0.202   6.751   5.045
 7626SOL    HW123777   0.164   6.749   4.953
 7626SOL    HW223778   0.130   6.731   5.111
 7627SOL     OW23779   6.276   3.558   0.570
 7627SOL    HW123780   6.207   3.607   0.517
 7627SOL    HW223781   6.314   3.619   0.639
 7628SOL     OW23782   3.061   0.932   1.430
 7628SOL    HW123783   2.967   0.966   1.421
 7628SOL    HW223784   3.093   0.899   1.341
 7629SOL     OW23785   6.298   6.134   2.559
 7629SOL    HW123786   6.375   6.156   2.618
 7629SOL    HW223787   6.306   6.040   2.526
 7630SOL     OW23788   6.200   6.773   2.219
 7630SOL    HW123789   6.234   6.696   2.166
 7630SOL    HW223790   6.161   6.740   2.305
 7631SOL     OW23791   1.137   1.962   5.197
 7631SOL    HW123792   1.097   2.053   5.189
 7631SOL    HW223793   1.227   1.969   5.241
 7632SOL     OW23794   3.962   2.076   1.236
 7632SOL    HW123795   3.870   2.050   1.265
 7632SOL    HW223796   3.984   2.030   1.150
 7633SOL     OW23797   5.559   3.108   0.482
 7633SOL    HW123798   5.497   3.133   0.557
 7633SOL    HW223799   5.622   3.037   0.513
 7634SOL     OW23800   1.484   1.159   2.187
 7634SOL    HW123801   1.459   1.168   2.091
 7634SOL    HW223802   1.401   1.159   2.243
 7635SOL     OW23803   2.629   5.270   5.520
 7635SOL    HW123804   2.660   5.211   5.445
 7635SOL    HW223805   2.597   5.214   5.596
 7636SOL     OW23806   1.314   1.186   3.742
 7636SOL    HW123807   1.361   1.107   3.703
 7636SOL    HW223808   1.315   1.180   3.842
 7637SOL     OW23809   1.746   6.665   3.963
 7637SOL    HW123810   1.710   6.614   4.041
 7637SOL    HW223811   1.781   6.601   3.894
 7638SOL     OW23812   5.459   5.727   1.633
 7638SOL    HW123813   5.495   5.645   1.589
 7638SOL    HW223814   5.504   5.808   1.595
 7639SOL     OW23815   1.270   2.130   6.543
 7639SOL    HW123816   1.207   2.124   6.466
 7639SOL    HW223817   1.364   2.133   6.510
 7640SOL     OW23818   2.299   1.954   0.534
 7640SOL    HW123819   2.346   1.998   0.458
 7640SOL    HW223820   2.366   1.918   0.598
 7641SOL     OW23821   0.935   4.557   2.097
 7641SOL    HW123822   1.028   4.560   2.134
 7641SOL    HW223823   0.906   4.648   2.070
 7642SOL     OW23824   2.941   1.717   2.837
 7642SOL    HW123825   2.976   1.628   2.867
 7642SOL    HW223826   2.877   1.752   2.905
 7643SOL     OW23827   5.007   2.787   3.655
 7643SOL    HW123828   4.963   2.724   3.719
 7643SOL    HW223829   5.075   2.842   3.705
 7644SOL     OW23830   6.234   2.087   2.424
 7644SOL    HW123831   6.141   2.081   2.461
 7644SOL    HW223832   6.283   2.160   2.471
 7645SOL     OW23833   4.842   5.240   6.198
 7645SOL    HW123834   4.913   5.172   6.217
 7645SOL    HW223835   4.780   5.204   6.128
 7646SOL     OW23836   1.621   1.825   2.265
 7646SOL    HW123837   1.568   1.823   2.350
 7646SOL    HW223838   1.660   1.734   2.248
 7647SOL     OW23839   0.918   3.362   1.913
 7647SOL    HW123840   1.007   3.349   1.958
 7647SOL    HW223841   0.930   3.417   1.831
 7648SOL     OW23842   4.667   2.314   3.432
 7648SOL    HW123843   4.679   2.412   3.449
 7648SOL    HW223844   4.647   2.267   3.518
 7649SOL     OW23845   0.474   0.349   2.153
 7649SOL    HW123846   0.542   0.304   2.096
 7649SOL    HW223847   0.427   0.281   2.210
 7650SOL     OW23848   6.356   3.119   2.107
 7650SOL    HW123849   6.279   3.100   2.046
 7650SOL    HW223850   6.437   3.070   2.075
 7651SOL     OW23851   2.405   6.960   0.029
 7651SOL    HW123852   2.480   6.937   0.091
 7651SOL    HW223853   2.375   0.022   0.045
 7652SOL     OW23854   6.428   4.003   4.308
 7652SOL    HW123855   6.491   4.055   4.365
 7652SOL    HW223856   6.468   3.913   4.288
 7653SOL     OW23857   1.953   1.279   0.728
 7653SOL    HW123858   1.987   1.185   0.734
 7653SOL    HW223859   1.918   1.296   0.637
 7654SOL     OW23860   4.730   2.468   3.035
 7654SOL    HW123861   4.719   2.559   3.076
 7654SOL    HW223862   4.647   2.443   2.985
 7655SOL     OW23863   3.986   0.307   3.966
 7655SOL    HW123864   3.926   0.267   3.897
 7655SOL    HW223865   4.049   0.237   3.999
 7656SOL     OW23866   0.491   5.578   6.071
 7656SOL    HW123867   0.563   5.604   6.007
 7656SOL    HW223868   0.425   5.520   6.025
 7657SOL     OW23869   3.219   2.127   2.818
 7657SOL    HW123870   3.131   2.118   2.771
 7657SOL    HW223871   3.294   2.115   2.753
 7658SOL     OW23872   4.710   0.278   6.281
 7658SOL    HW123873   4.727   0.307   6.187
 7658SOL    HW223874   4.623   0.316   6.312
 7659SOL     OW23875   5.638   6.834   0.421
 7659SOL    HW123876   5.607   6.808   0.513
 7659SOL    HW223877   5.629   6.756   0.359
 7660SOL     OW23878   5.762   5.861   3.825
 7660SOL    HW123879   5.745   5.763   3.838
 7660SOL    HW223880   5.859   5.874   3.804
 7661SOL     OW23881   5.985   1.975   4.650
 7661SOL    HW123882   5.913   2.045   4.655
 7661SOL    HW223883   5.996   1.933   4.740
 7662SOL     OW23884   1.673   2.467   1.806
 7662SOL    HW123885   1.765   2.443   1.836
 7662SOL    HW223886   1.638   2.395   1.747
 7663SOL     OW23887   6.874   5.582   6.352
 7663SOL    HW123888   6.951   5.519   6.355
 7663SOL    HW223889   6.796   5.539   6.308
 7664SOL     OW23890   2.945   6.661   2.807
 7664SOL    HW123891   3.002   6.703   2.736
 7664SOL    HW223892   3.001   6.645   2.889
 7665SOL     OW23893   3.594   7.026   3.748
 7665SOL    HW123894   3.586   0.094   3.744
 7665SOL    HW223895   3.636   6.993   3.664
 7666SOL     OW23896   0.115   0.018   1.386
 7666SOL    HW123897   0.070   6.983   1.327
 7666SOL    HW223898   0.214   0.006   1.381
 7667SOL     OW23899   5.016   5.657   0.404
 7667SOL    HW123900   5.083   5.670   0.477
 7667SOL    HW223901   5.052   5.694   0.319
 7668SOL     OW23902   3.443   3.798   1.444
 7668SOL    HW123903   3.541   3.788   1.426
 7668SOL    HW223904   3.412   3.888   1.412
 7669SOL     OW23905   5.451   1.283   4.514
 7669SOL    HW123906   5.367   1.274   4.567
 7669SOL    HW223907   5.510   1.205   4.533
 7670SOL     OW23908   1.468   6.079   6.547
 7670SOL    HW123909   1.382   6.107   6.591
 7670SOL    HW223910   1.545   6.126   6.592
 7671SOL     OW23911   4.776   1.198   4.395
 7671SOL    HW123912   4.826   1.165   4.315
 7671SOL    HW223913   4.817   1.283   4.429
 7672SOL     OW23914   6.128   0.096   3.723
 7672SOL    HW123915   6.080   0.150   3.793
 7672SOL    HW223916   6.226   0.096   3.743
 7673SOL     OW23917   2.034   5.161   0.835
 7673SOL    HW123918   2.047   5.112   0.749
 7673SOL    HW223919   2.086   5.246   0.833
 7674SOL     OW23920   6.769   1.841   4.338
 7674SOL    HW123921   6.691   1.804   4.288
 7674SOL    HW223922   6.849   1.783   4.324
 7675SOL     OW23923   5.208   0.786   2.203
 7675SOL    HW123924   5.257   0.874   2.201
 7675SOL    HW223925   5.183   0.764   2.297
 7676SOL     OW23926   0.572   2.141   6.698
 7676SOL    HW123927   0.510   2.064   6.712
 7676SOL    HW223928   0.615   2.166   6.785
 7677SOL     OW23929   1.636   2.716   1.690
 7677SOL    HW123930   1.645   2.627   1.735
 7677SOL    HW223931   1.695   2.783   1.736
 7678SOL     OW23932   1.649   0.847   6.092
 7678SOL    HW123933   1.589   0.863   6.013
 7678SOL    HW223934   1.639   0.752   6.122
 7679SOL     OW23935   1.335   5.929   5.155
 7679SOL    HW123936   1.318   5.997   5.084
 7679SOL    HW223937   1.425   5.946   5.196
 7680SOL     OW23938   2.430   2.907   6.918
 7680SOL    HW123939   2.473   2.824   6.883
 7680SOL    HW223940   2.423   2.902   7.018
 7681SOL     OW23941   3.123   0.383   0.595
 7681SOL    HW123942   3.174   0.380   0.510
 7681SOL    HW223943   3.038   0.434   0.582
 7682SOL     OW23944   2.268   6.697   1.635
 7682SOL    HW123945   2.287   6.648   1.550
 7682SOL    HW223946   2.352   6.707   1.688
 7683SOL     OW23947   6.672   2.728   3.161
 7683SOL    HW123948   6.609   2.787   3.212
 7683SOL    HW223949   6.765   2.743   3.192
 7684SOL     OW23950   5.839   2.519   6.881
 7684SOL    HW123951   5.929   2.505   6.839
 7684SOL    HW223952   5.791   2.431   6.888
 7685SOL     OW23953   3.533   2.401   6.983
 7685SOL    HW123954   3.564   2.309   7.005
 7685SOL    HW223955   3.457   2.396   6.919
 7686SOL     OW23956   4.213   0.326   3.163
 7686SOL    HW123957   4.265   0.318   3.077
 7686SOL    HW223958   4.116   0.331   3.143
 7687SOL     OW23959   5.290   5.975   6.146
 7687SOL    HW123960   5.252   6.045   6.086
 7687SOL    HW223961   5.278   6.002   6.241
 7688SOL     OW23962   6.815   0.052   6.112
 7688SOL    HW123963   6.844   0.019   6.202
 7688SOL    HW223964   6.813   7.007   6.048
 7689SOL     OW23965   5.105   5.957   4.183
 7689SOL    HW123966   5.170   6.032   4.171
 7689SOL    HW223967   5.150   5.870   4.160
 7690SOL     OW23968   5.664   5.528   2.608
 7690SOL    HW123969   5.628   5.503   2.518
 7690SOL    HW223970   5.697   5.446   2.655
 7691SOL     OW23971   4.934   3.160   4.051
 7691SOL    HW123972   4.870   3.094   4.013
 7691SOL    HW223973   5.024   3.117   4.063
 7692SOL     OW23974   0.919   0.042   1.072
 7692SOL    HW123975   0.973   0.126   1.084
 7692SOL    HW223976   0.908   7.029   1.161
 7693SOL     OW23977   4.441   1.013   6.760
 7693SOL    HW123978   4.405   0.929   6.801
 7693SOL    HW223979   4.379   1.089   6.780
 7694SOL     OW23980   0.849   4.730   3.680
 7694SOL    HW123981   0.881   4.736   3.774
 7694SOL    HW223982   0.753   4.704   3.678
 7695SOL     OW23983   4.118   0.541   1.032
 7695SOL    HW123984   4.127   0.593   1.118
 7695SOL    HW223985   4.065   0.594   0.966
 7696SOL     OW23986   6.907   2.310   4.216
 7696SOL    HW123987   6.924   2.218   4.252
 7696SOL    HW223988   6.983   2.337   4.156
 7697SOL     OW23989   2.310   1.062   2.800
 7697SOL    HW123990   2.329   1.104   2.711
 7697SOL    HW223991   2.381   1.089   2.865
 7698SOL     OW23992   0.156   3.394   4.392
 7698SOL    HW123993   0.115   3.321   4.336
 7698SOL    HW223994   0.206   3.457   4.333
 7699SOL     OW23995   2.460   5.982   6.818
 7699SOL    HW123996   2.524   6.051   6.785
 7699SOL    HW223997   2.399   5.956   6.743
 7700SOL     OW23998   4.413   6.729   5.263
 7700SOL    HW123999   4.475   6.754   5.338
 7700SOL    HW224000   4.464   6.729   5.177
 7701SOL     OW24001   6.649   1.573   6.252
 7701SOL    HW124002   6.595   1.523   6.185
 7701SOL    HW224003   6.601   1.657   6.278
 7702SOL     OW24004   3.848   6.435   5.963
 7702SOL    HW124005   3.805   6.428   6.053
 7702SOL    HW224006   3.791   6.490   5.903
 7703SOL     OW24007   6.783   1.346   4.924
 7703SOL    HW124008   6.846   1.268   4.920
 7703SOL    HW224009   6.750   1.367   4.832
 7704SOL     OW24010   4.152   4.678   5.855
 7704SOL    HW124011   4.225   4.731   5.813
 7704SOL    HW224012   4.172   4.665   5.952
 7705SOL     OW24013   3.490   4.732   5.478
 7705SOL    HW124014   3.405   4.692   5.444
 7705SOL    HW224015   3.486   4.739   5.578
 7706SOL     OW24016   5.948   0.904   5.829
 7706SOL    HW124017   5.988   0.840   5.895
 7706SOL    HW224018   5.946   0.862   5.739
 7707SOL     OW24019   0.373   5.496   6.359
 7707SOL    HW124020   0.420   5.427   6.414
 7707SOL    HW224021   0.424   5.510   6.274
 7708SOL     OW24022   5.259   5.912   5.036
 7708SOL    HW124023   5.170   5.949   5.061
 7708SOL    HW224024   5.320   5.914   5.115
 7709SOL     OW24025   4.836   2.908   2.518
 7709SOL    HW124026   4.829   2.985   2.455
 7709SOL    HW224027   4.911   2.848   2.490
 7710SOL     OW24028   2.438   0.064   0.827
 7710SOL    HW124029   2.364   0.007   0.864
 7710SOL    HW224030   2.448   0.146   0.883
 7711SOL     OW24031   6.393   6.491   5.272
 7711SOL    HW124032   6.325   6.538   5.329
 7711SOL    HW224033   6.355   6.475   5.181
 7712SOL     OW24034   6.891   5.310   1.386
 7712SOL    HW124035   6.796   5.338   1.397
 7712SOL    HW224036   6.946   5.389   1.359
 7713SOL     OW24037   2.276   4.090   0.688
 7713SOL    HW124038   2.216   4.042   0.751
 7713SOL    HW224039   2.319   4.167   0.735
 7714SOL     OW24040   6.310   4.759   4.561
 7714SOL    HW124041   6.230   4.747   4.502
 7714SOL    HW224042   6.348   4.850   4.548
 7715SOL     OW24043   5.121   0.782   1.053
 7715SOL    HW124044   5.153   0.831   1.134
 7715SOL    HW224045   5.125   0.684   1.071
 7716SOL     OW24046   4.794   2.912   2.781
 7716SOL    HW124047   4.810   2.922   2.682
 7716SOL    HW224048   4.732   2.985   2.812
 7717SOL     OW24049   2.654   1.509   4.947
 7717SOL    HW124050   2.598   1.431   4.920
 7717SOL    HW224051   2.649   1.520   5.047
 7718SOL     OW24052   1.765   1.637   3.140
 7718SOL    HW124053   1.826   1.636   3.220
 7718SOL    HW224054   1.817   1.667   3.060
 7719SOL     OW24055   0.116   3.352   3.895
 7719SOL    HW124056   0.109   3.305   3.807
 7719SOL    HW224057   0.187   3.308   3.950
 7720SOL     OW24058   6.569   6.223   0.798
 7720SOL    HW124059   6.571   6.137   0.747
 7720SOL    HW224060   6.477   6.240   0.832
 7721SOL     OW24061   2.112   4.560   3.073
 7721SOL    HW124062   2.059   4.623   3.016
 7721SOL    HW224063   2.109   4.468   3.034
 7722SOL     OW24064   0.195   5.287   2.855
 7722SOL    HW124065   0.281   5.305   2.807
 7722SOL    HW224066   0.181   5.357   2.926
 7723SOL     OW24067   6.944   3.749   0.655
 7723SOL    HW124068   6.928   3.838   0.612
 7723SOL    HW224069   6.974   3.683   0.587
 7724SOL     OW24070   2.224   4.426   2.183
 7724SOL    HW124071   2.303   4.473   2.221
 7724SOL    HW224072   2.251   4.377   2.100
 7725SOL     OW24073   5.185   2.307   2.918
 7725SOL    HW124074   5.109   2.289   2.855
 7725SOL    HW224075   5.221   2.399   2.900
 7726SOL     OW24076   0.007   4.431   3.723
 7726SOL    HW124077   0.049   4.450   3.811
 7726SOL    HW224078   6.947   4.392   3.737
 7727SOL     OW24079   6.135   2.040   3.958
 7727SOL    HW124080   6.176   2.129   3.979
 7727SOL    HW224081   6.202   1.968   3.973
 7728SOL     OW24082   1.329   3.150   2.894
 7728SOL    HW124083   1.322   3.062   2.941
 7728SOL    HW224084   1.377   3.138   2.807
 7729SOL     OW24085   6.088   2.695   1.236
 7729SOL    HW124086   6.003   2.747   1.229
 7729SOL    HW224087   6.151   2.723   1.163
 7730SOL     OW24088   5.561   6.047   2.387
 7730SOL    HW124089   5.566   5.953   2.420
 7730SOL    HW224090   5.494   6.053   2.313
 7731SOL     OW24091   6.312   1.105   0.705
 7731SOL    HW124092   6.249   1.029   0.716
 7731SOL    HW224093   6.320   1.129   0.608
 7732SOL     OW24094   4.794   5.692   0.935
 7732SOL    HW124095   4.713   5.734   0.896
 7732SOL    HW224096   4.799   5.713   1.033
 7733SOL     OW24097   4.038   6.899   1.437
 7733SOL    HW124098   4.103   6.910   1.362
 7733SOL    HW224099   4.087   6.899   1.524
 7734SOL     OW24100   1.644   3.476   3.490
 7734SOL    HW124101   1.685   3.489   3.400
 7734SOL    HW224102   1.663   3.557   3.547
 7735SOL     OW24103   4.707   4.742   6.754
 7735SOL    HW124104   4.791   4.764   6.803
 7735SOL    HW224105   4.727   4.677   6.680
 7736SOL     OW24106   5.257   4.525   0.688
 7736SOL    HW124107   5.301   4.528   0.778
 7736SOL    HW224108   5.288   4.603   0.633
 7737SOL     OW24109   4.559   2.003   0.991
 7737SOL    HW124110   4.533   2.070   1.060
 7737SOL    HW224111   4.526   2.031   0.902
 7738SOL     OW24112   2.510   5.884   1.012
 7738SOL    HW124113   2.578   5.899   0.941
 7738SOL    HW224114   2.527   5.797   1.057
 7739SOL     OW24115   0.895   2.347   0.899
 7739SOL    HW124116   0.927   2.294   0.821
 7739SOL    HW224117   0.795   2.349   0.899
 7740SOL     OW24118   0.121   6.921   2.647
 7740SOL    HW124119   0.033   6.926   2.694
 7740SOL    HW224120   0.183   6.860   2.697
 7741SOL     OW24121   1.590   5.432   4.603
 7741SOL    HW124122   1.567   5.504   4.538
 7741SOL    HW224123   1.566   5.461   4.695
 7742SOL     OW24124   6.262   2.251   3.342
 7742SOL    HW124125   6.253   2.292   3.251
 7742SOL    HW224126   6.358   2.225   3.356
 7743SOL     OW24127   4.258   3.094   5.837
 7743SOL    HW124128   4.284   3.123   5.745
 7743SOL    HW224129   4.167   3.051   5.834
 7744SOL     OW24130   6.955   6.282   3.861
 7744SOL    HW124131   6.869   6.290   3.811
 7744SOL    HW224132   6.936   6.274   3.959
 7745SOL     OW24133   3.743   2.180   6.261
 7745SOL    HW124134   3.678   2.255   6.265
 7745SOL    HW224135   3.825   2.208   6.211
 7746SOL     OW24136   1.849   6.977   0.269
 7746SOL    HW124137   1.905   6.895   0.280
 7746SOL    HW224138   1.758   6.960   0.307
 7747SOL     OW24139   4.974   6.622   0.782
 7747SOL    HW124140   5.054   6.677   0.757
 7747SOL    HW224141   4.955   6.556   0.710
 7748SOL     OW24142   3.266   3.681   5.859
 7748SOL    HW124143   3.214   3.599   5.835
 7748SOL    HW224144   3.204   3.760   5.857
 7749SOL     OW24145   5.075   3.365   5.475
 7749SOL    HW124146   5.105   3.317   5.393
 7749SOL    HW224147   4.975   3.361   5.482
 7750SOL     OW24148   0.757   6.631   1.714
 7750SOL    HW124149   0.787   6.570   1.787
 7750SOL    HW224150   0.714   6.712   1.753
 7751SOL     OW24151   1.020   1.401   2.047
 7751SOL    HW124152   1.108   1.442   2.071
 7751SOL    HW224153   0.953   1.473   2.027
 7752SOL     OW24154   4.897   0.658   4.467
 7752SOL    HW124155   4.848   0.683   4.550
 7752SOL    HW224156   4.996   0.670   4.482
 7753SOL     OW24157   1.864   1.258   4.148
 7753SOL    HW124158   1.864   1.250   4.247
 7753SOL    HW224159   1.944   1.312   4.119
 7754SOL     OW24160   3.510   5.997   1.995
 7754SOL    HW124161   3.588   6.007   2.057
 7754SOL    HW224162   3.509   6.074   1.930
 7755SOL     OW24163   1.727   3.991   6.643
 7755SOL    HW124164   1.712   3.909   6.697
 7755SOL    HW224165   1.814   4.032   6.667
 7756SOL     OW24166   2.142   5.736   1.510
 7756SOL    HW124167   2.110   5.732   1.415
 7756SOL    HW224168   2.094   5.810   1.558
 7757SOL     OW24169   0.001   4.598   1.984
 7757SOL    HW124170   0.027   4.688   2.018
 7757SOL    HW224171   0.004   4.532   2.059
 7758SOL     OW24172   1.688   0.918   5.655
 7758SOL    HW124173   1.608   0.896   5.599
 7758SOL    HW224174   1.686   1.015   5.678
 7759SOL     OW24175   2.577   2.424   6.194
 7759SOL    HW124176   2.528   2.376   6.122
 7759SOL    HW224177   2.625   2.358   6.252
 7760SOL     OW24178   4.162   2.032   1.749
 7760SOL    HW124179   4.135   2.004   1.657
 7760SOL    HW224180   4.083   2.073   1.795
 7761SOL     OW24181   4.998   5.469   4.651
 7761SOL    HW124182   4.993   5.568   4.637
 7761SOL    HW224183   5.059   5.450   4.728
 7762SOL     OW24184   0.084   0.384   3.849
 7762SOL    HW124185   0.067   0.317   3.921
 7762SOL    HW224186   0.083   0.476   3.888
 7763SOL     OW24187   2.580   0.366   5.420
 7763SOL    HW124188   2.486   0.336   5.405
 7763SOL    HW224189   2.593   0.457   5.383
 7764SOL     OW24190   3.423   3.591   5.647
 7764SOL    HW124191   3.465   3.650   5.715
 7764SOL    HW224192   3.345   3.637   5.605
 7765SOL     OW24193   6.859   3.334   4.063
 7765SOL    HW124194   6.848   3.431   4.041
 7765SOL    HW224195   6.866   3.281   3.979
 7766SOL     OW24196   0.483   4.678   0.193
 7766SOL    HW124197   0.528   4.688   0.282
 7766SOL    HW224198   0.396   4.630   0.206
 7767SOL     OW24199   3.474   0.456   2.732
 7767SOL    HW124200   3.440   0.387   2.796
 7767SOL    HW224201   3.477   0.545   2.777
 7768SOL     OW24202   4.320   4.659   3.143
 7768SOL    HW124203   4.224   4.673   3.168
 7768SOL    HW224204   4.328   4.654   3.043
 7769SOL     OW24205   3.528   2.195   5.413
 7769SOL    HW124206   3.627   2.206   5.424
 7769SOL    HW224207   3.506   2.181   5.317
 7770SOL     OW24208   1.156   3.277   4.786
 7770SOL    HW124209   1.213   3.347   4.745
 7770SOL    HW224210   1.187   3.187   4.757
 7771SOL     OW24211   2.937   2.725   5.796
 7771SOL    HW124212   2.897   2.672   5.721
 7771SOL    HW224213   2.969   2.663   5.867
 7772SOL     OW24214   5.199   0.904   1.273
 7772SOL    HW124215   5.255   0.882   1.353
 7772SOL    HW224216   5.119   0.956   1.302
 7773SOL     OW24217   3.309   5.975   0.073
 7773SOL    HW124218   3.320   5.876   0.070
 7773SOL    HW224219   3.357   6.012   0.152
 7774SOL     OW24220   5.057   1.568   2.689
 7774SOL    HW124221   4.993   1.588   2.614
 7774SOL    HW224222   5.006   1.536   2.768
 7775SOL     OW24223   3.429   0.895   6.793
 7775SOL    HW124224   3.499   0.939   6.849
 7775SOL    HW224225   3.427   0.938   6.703
 7776SOL     OW24226   0.955   6.733   5.298
 7776SOL    HW124227   1.014   6.764   5.223
 7776SOL    HW224228   1.002   6.661   5.349
 7777SOL     OW24229   5.689   4.849   3.876
 7777SOL    HW124230   5.729   4.763   3.846
 7777SOL    HW224231   5.591   4.850   3.854
 7778SOL     OW24232   6.342   4.202   2.983
 7778SOL    HW124233   6.261   4.152   2.955
 7778SOL    HW224234   6.420   4.174   2.927
 7779SOL     OW24235   3.305   6.348   1.727
 7779SOL    HW124236   3.221   6.400   1.713
 7779SOL    HW224237   3.314   6.324   1.823
 7780SOL     OW24238   6.540   5.911   5.282
 7780SOL    HW124239   6.620   5.870   5.237
 7780SOL    HW224240   6.465   5.846   5.283
 7781SOL     OW24241   1.683   2.990   0.708
 7781SOL    HW124242   1.783   2.990   0.705
 7781SOL    HW224243   1.651   2.936   0.787
 7782SOL     OW24244   6.286   5.216   3.657
 7782SOL    HW124245   6.241   5.172   3.580
 7782SOL    HW224246   6.370   5.260   3.627
 7783SOL     OW24247   0.962   0.171   5.245
 7783SOL    HW124248   1.039   0.223   5.280
 7783SOL    HW224249   0.911   0.227   5.180
 7784SOL     OW24250   2.467   2.081   2.183
 7784SOL    HW124251   2.563   2.093   2.155
 7784SOL    HW224252   2.409   2.083   2.102
 7785SOL     OW24253   1.321   6.288   2.511
 7785SOL    HW124254   1.236   6.262   2.466
 7785SOL    HW224255   1.386   6.324   2.444
 7786SOL     OW24256   4.597   0.528   6.813
 7786SOL    HW124257   4.599   0.486   6.904
 7786SOL    HW224258   4.684   0.576   6.797
 7787SOL     OW24259   2.688   3.320   1.215
 7787SOL    HW124260   2.641   3.392   1.265
 7787SOL    HW224261   2.784   3.318   1.243
 7788SOL     OW24262   1.429   4.519   1.464
 7788SOL    HW124263   1.342   4.545   1.423
 7788SOL    HW224264   1.479   4.601   1.491
 7789SOL     OW24265   3.136   0.790   6.507
 7789SOL    HW124266   3.099   0.865   6.561
 7789SOL    HW224267   3.128   0.705   6.559
 7790SOL     OW24268   5.701   5.061   2.124
 7790SOL    HW124269   5.673   4.983   2.180
 7790SOL    HW224270   5.763   5.119   2.176
 7791SOL     OW24271   2.211   5.609   1.730
 7791SOL    HW124272   2.217   5.509   1.726
 7791SOL    HW224273   2.177   5.643   1.642
 7792SOL     OW24274   0.984   1.546   2.528
 7792SOL    HW124275   1.047   1.623   2.541
 7792SOL    HW224276   0.991   1.484   2.607
 7793SOL     OW24277   4.463   1.653   0.389
 7793SOL    HW124278   4.440   1.709   0.309
 7793SOL    HW224279   4.562   1.637   0.391
 7794SOL     OW24280   0.846   5.435   3.361
 7794SOL    HW124281   0.919   5.379   3.322
 7794SOL    HW224282   0.817   5.395   3.448
 7795SOL     OW24283   2.582   5.392   5.802
 7795SOL    HW124284   2.678   5.420   5.805
 7795SOL    HW224285   2.558   5.366   5.708
 7796SOL     OW24286   3.666   3.328   6.548
 7796SOL    HW124287   3.755   3.290   6.523
 7796SOL    HW224288   3.595   3.259   6.535
 7797SOL     OW24289   0.593   5.601   3.674
 7797SOL    HW124290   0.602   5.595   3.773
 7797SOL    HW224291   0.517   5.662   3.651
 7798SOL     OW24292   0.512   2.029   1.352
 7798SOL    HW124293   0.552   2.086   1.425
 7798SOL    HW224294   0.457   2.087   1.292
 7799SOL     OW24295   2.842   6.447   3.563
 7799SOL    HW124296   2.897   6.379   3.514
 7799SOL    HW224297   2.746   6.438   3.536
 7800SOL     OW24298   0.530   6.203   1.334
 7800SOL    HW124299   0.580   6.276   1.379
 7800SOL    HW224300   0.594   6.129   1.311
 7801SOL     OW24301   1.421   2.333   2.450
 7801SOL    HW124302   1.432   2.314   2.548
 7801SOL    HW224303   1.467   2.419   2.428
 7802SOL     OW24304   6.575   3.962   5.702
 7802SOL    HW124305   6.569   3.920   5.792
 7802SOL    HW224306   6.490   3.947   5.652
 7803SOL     OW24307   5.060   2.179   5.354
 7803SOL    HW124308   5.045   2.268   5.398
 7803SOL    HW224309   4.998   2.112   5.394
 7804SOL     OW24310   2.268   2.210   4.574
 7804SOL    HW124311   2.297   2.122   4.539
 7804SOL    HW224312   2.280   2.213   4.674
 7805SOL     OW24313   5.356   2.554   1.358
 7805SOL    HW124314   5.448   2.573   1.392
 7805SOL    HW224315   5.289   2.585   1.425
 7806SOL     OW24316   6.357   2.409   5.443
 7806SOL    HW124317   6.454   2.390   5.427
 7806SOL    HW224318   6.303   2.328   5.419
 7807SOL     OW24319   2.524   4.716   6.092
 7807SOL    HW124320   2.439   4.768   6.102
 7807SOL    HW224321   2.535   4.655   6.170
 7808SOL     OW24322   5.248   4.362   2.692
 7808SOL    HW124323   5.233   4.377   2.790
 7808SOL    HW224324   5.204   4.435   2.640
 7809SOL     OW24325   5.129   4.916   3.630
 7809SOL    HW124326   5.134   4.816   3.633
 7809SOL    HW224327   5.035   4.946   3.648
 7810SOL     OW24328   4.020   6.290   5.123
 7810SOL    HW124329   4.080   6.211   5.120
 7810SOL    HW224330   3.996   6.311   5.218
 7811SOL     OW24331   1.059   5.402   1.966
 7811SOL    HW124332   1.148   5.432   2.001
 7811SOL    HW224333   1.014   5.479   1.921
 7812SOL     OW24334   2.309   2.969   5.607
 7812SOL    HW124335   2.231   3.001   5.660
 7812SOL    HW224336   2.389   3.025   5.629
 7813SOL     OW24337   5.717   2.222   1.288
 7813SOL    HW124338   5.764   2.310   1.283
 7813SOL    HW224339   5.712   2.192   1.384
 7814SOL     OW24340   6.638   3.374   2.314
 7814SOL    HW124341   6.667   3.466   2.341
 7814SOL    HW224342   6.544   3.377   2.281
 7815SOL     OW24343   6.054   2.749   5.557
 7815SOL    HW124344   6.041   2.770   5.460
 7815SOL    HW224345   5.980   2.790   5.610
 7816SOL     OW24346   0.689   2.035   5.107
 7816SOL    HW124347   0.684   2.134   5.112
 7816SOL    HW224348   0.596   1.996   5.109
 7817SOL     OW24349   3.241   3.021   6.558
 7817SOL    HW124350   3.203   2.971   6.637
 7817SOL    HW224351   3.168   3.076   6.516
 7818SOL     OW24352   5.523   1.307   2.264
 7818SOL    HW124353   5.585   1.379   2.293
 7818SOL    HW224354   5.430   1.330   2.293
 7819SOL     OW24355   1.061   3.665   4.185
 7819SOL    HW124356   0.981   3.606   4.183
 7819SOL    HW224357   1.125   3.638   4.113
 7820SOL     OW24358   1.440   0.945   5.515
 7820SOL    HW124359   1.398   0.894   5.440
 7820SOL    HW224360   1.370   1.000   5.561
 7821SOL     OW24361   6.206   5.601   0.102
 7821SOL    HW124362   6.136   5.534   0.128
 7821SOL    HW224363   6.275   5.556   0.044
 7822SOL     OW24364   1.356   1.288   4.518
 7822SOL    HW124365   1.369   1.380   4.557
 7822SOL    HW224366   1.291   1.292   4.443
 7823SOL     OW24367   1.664   3.630   0.161
 7823SOL    HW124368   1.619   3.720   0.160
 7823SOL    HW224369   1.736   3.629   0.230
 7824SOL     OW24370   5.302   2.567   2.393
 7824SOL    HW124371   5.204   2.568   2.374
 7824SOL    HW224372   5.332   2.474   2.410
 7825SOL     OW24373   2.834   2.901   1.639
 7825SOL    HW124374   2.854   2.909   1.541
 7825SOL    HW224375   2.918   2.916   1.691
 7826SOL     OW24376   6.454   1.006   0.415
 7826SOL    HW124377   6.407   1.091   0.439
 7826SOL    HW224378   6.550   1.027   0.395
 7827SOL     OW24379   4.943   5.216   1.496
 7827SOL    HW124380   4.902   5.125   1.493
 7827SOL    HW224381   4.900   5.274   1.426
 7828SOL     OW24382   0.513   6.358   0.537
 7828SOL    HW124383   0.445   6.341   0.608
 7828SOL    HW224384   0.505   6.452   0.505
 7829SOL     OW24385   3.067   3.014   1.802
 7829SOL    HW124386   3.087   2.962   1.885
 7829SOL    HW224387   3.151   3.026   1.749
 7830SOL     OW24388   6.256   3.392   6.859
 7830SOL    HW124389   6.354   3.381   6.876
 7830SOL    HW224390   6.214   3.302   6.847
 7831SOL     OW24391   1.416   3.316   0.868
 7831SOL    HW124392   1.392   3.408   0.836
 7831SOL    HW224393   1.429   3.257   0.789
 7832SOL     OW24394   2.716   1.938   5.326
 7832SOL    HW124395   2.624   1.901   5.313
 7832SOL    HW224396   2.747   1.979   5.240
 7833SOL     OW24397   0.595   6.614   0.399
 7833SOL    HW124398   0.660   6.595   0.325
 7833SOL    HW224399   0.533   6.687   0.371
 7834SOL     OW24400   0.579   0.767   1.697
 7834SOL    HW124401   0.516   0.821   1.752
 7834SOL    HW224402   0.595   0.678   1.741
 7835SOL     OW24403   2.227   3.028   4.850
 7835SOL    HW124404   2.284   2.969   4.793
 7835SOL    HW224405   2.263   3.029   4.944
 7836SOL     OW24406   3.242   6.547   6.614
 7836SOL    HW124407   3.317   6.493   6.576
 7836SOL    HW224408   3.235   6.532   6.712
 7837SOL     OW24409   5.889   6.296   2.614
 7837SOL    HW124410   5.794   6.314   2.590
 7837SOL    HW224411   5.939   6.382   2.622
 7838SOL     OW24412   4.219   6.913   5.144
 7838SOL    HW124413   4.291   6.851   5.174
 7838SOL    HW224414   4.187   6.886   5.053
 7839SOL     OW24415   6.049   4.909   4.873
 7839SOL    HW124416   6.015   4.847   4.802
 7839SOL    HW224417   6.004   4.889   4.960
 7840SOL     OW24418   5.294   3.007   4.389
 7840SOL    HW124419   5.197   3.006   4.412
 7840SOL    HW224420   5.322   2.917   4.356
 7841SOL     OW24421   0.230   2.214   6.400
 7841SOL    HW124422   0.329   2.203   6.404
 7841SOL    HW224423   0.186   2.125   6.401
 7842SOL     OW24424   2.174   1.636   3.173
 7842SOL    HW124425   2.104   1.599   3.235
 7842SOL    HW224426   2.162   1.735   3.165
 7843SOL     OW24427   5.926   4.271   1.020
 7843SOL    HW124428   6.014   4.293   1.062
 7843SOL    HW224429   5.891   4.186   1.059
 7844SOL     OW24430   4.227   0.836   3.412
 7844SOL    HW124431   4.128   0.837   3.398
 7844SOL    HW224432   4.248   0.789   3.498
 7845SOL     OW24433   6.676   0.951   4.255
 7845SOL    HW124434   6.756   0.925   4.201
 7845SOL    HW224435   6.689   1.043   4.292
 7846SOL     OW24436   2.016   0.361   1.535
 7846SOL    HW124437   2.058   0.288   1.589
 7846SOL    HW224438   2.029   0.448   1.582
 7847SOL     OW24439   0.082   0.523   0.405
 7847SOL    HW124440   0.105   0.465   0.483
 7847SOL    HW224441   0.149   0.510   0.332
 7848SOL     OW24442   4.095   3.777   1.455
 7848SOL    HW124443   4.145   3.863   1.463
 7848SOL    HW224444   4.099   3.728   1.542
 7849SOL     OW24445   5.053   3.043   4.496
 7849SOL    HW124446   5.045   3.142   4.485
 7849SOL    HW224447   5.014   3.017   4.584
 7850SOL     OW24448   0.026   1.090   5.419
 7850SOL    HW124449   0.044   1.012   5.479
 7850SOL    HW224450   0.090   1.164   5.440
 7851SOL     OW24451   5.816   0.422   0.174
 7851SOL    HW124452   5.866   0.465   0.099
 7851SOL    HW224453   5.799   0.326   0.152
 7852SOL     OW24454   3.238   6.512   6.905
 7852SOL    HW124455   3.217   6.550   6.996
 7852SOL    HW224456   3.259   6.415   6.914
 7853SOL     OW24457   2.778   2.321   0.700
 7853SOL    HW124458   2.776   2.225   0.671
 7853SOL    HW224459   2.872   2.349   0.719
 7854SOL     OW24460   3.289   3.993   1.983
 7854SOL    HW124461   3.266   4.067   2.046
 7854SOL    HW224462   3.376   3.953   2.009
 7855SOL     OW24463   4.448   5.244   6.505
 7855SOL    HW124464   4.415   5.151   6.490
 7855SOL    HW224465   4.370   5.306   6.514
 7856SOL     OW24466   5.619   3.763   5.192
 7856SOL    HW124467   5.619   3.665   5.170
 7856SOL    HW224468   5.713   3.794   5.207
 7857SOL     OW24469   6.151   1.918   5.882
 7857SOL    HW124470   6.089   1.966   5.945
 7857SOL    HW224471   6.238   1.901   5.928
 7858SOL     OW24472   6.262   4.226   3.780
 7858SOL    HW124473   6.312   4.271   3.855
 7858SOL    HW224474   6.196   4.291   3.742
 7859SOL     OW24475   1.289   4.949   5.780
 7859SOL    HW124476   1.200   4.907   5.799
 7859SOL    HW224477   1.336   4.896   5.709
 7860SOL     OW24478   3.771   6.880   1.566
 7860SOL    HW124479   3.706   6.858   1.493
 7860SOL    HW224480   3.863   6.887   1.528
 7861SOL     OW24481   4.036   5.339   1.334
 7861SOL    HW124482   4.073   5.248   1.351
 7861SOL    HW224483   3.944   5.331   1.297
 7862SOL     OW24484   2.886   4.077   1.783
 7862SOL    HW124485   2.860   4.165   1.744
 7862SOL    HW224486   2.821   4.007   1.755
 7863SOL     OW24487   6.518   6.247   2.105
 7863SOL    HW124488   6.552   6.328   2.152
 7863SOL    HW224489   6.514   6.170   2.169
 7864SOL     OW24490   0.499   5.734   5.056
 7864SOL    HW124491   0.438   5.810   5.079
 7864SOL    HW224492   0.588   5.748   5.100
 7865SOL     OW24493   3.596   6.325   3.274
 7865SOL    HW124494   3.677   6.340   3.330
 7865SOL    HW224495   3.616   6.258   3.202
 7866SOL     OW24496   2.653   1.861   3.450
 7866SOL    HW124497   2.597   1.938   3.417
 7866SOL    HW224498   2.643   1.853   3.549
 7867SOL     OW24499   6.219   5.830   2.228
 7867SOL    HW124500   6.281   5.794   2.158
 7867SOL    HW224501   6.268   5.836   2.315
 7868SOL     OW24502   5.188   6.395   0.882
 7868SOL    HW124503   5.192   6.418   0.785
 7868SOL    HW224504   5.126   6.318   0.895
 7869SOL     OW24505   0.175   2.985   1.916
 7869SOL    HW124506   0.171   2.886   1.933
 7869SOL    HW224507   0.083   3.023   1.923
 7870SOL     OW24508   6.872   5.472   3.899
 7870SOL    HW124509   6.825   5.398   3.947
 7870SOL    HW224510   6.878   5.451   3.802
 7871SOL     OW24511   5.941   2.936   2.961
 7871SOL    HW124512   5.960   2.941   2.863
 7871SOL    HW224513   5.931   2.840   2.989
 7872SOL     OW24514   0.243   3.496   2.949
 7872SOL    HW124515   0.325   3.449   2.983
 7872SOL    HW224516   0.161   3.451   2.985
 7873SOL     OW24517   7.023   6.433   6.096
 7873SOL    HW124518   6.955   6.368   6.132
 7873SOL    HW224519   0.064   6.445   6.164
 7874SOL     OW24520   5.799   1.553   6.993
 7874SOL    HW124521   5.766   1.460   7.011
 7874SOL    HW224522   5.761   1.586   6.907
 7875SOL     OW24523   4.874   3.912   6.411
 7875SOL    HW124524   4.893   3.825   6.458
 7875SOL    HW224525   4.792   3.953   6.451
 7876SOL     OW24526   6.879   0.195   4.155
 7876SOL    HW124527   6.854   0.164   4.063
 7876SOL    HW224528   6.854   0.125   4.222
 7877SOL     OW24529   6.524   2.729   2.762
 7877SOL    HW124530   6.568   2.790   2.827
 7877SOL    HW224531   6.584   2.714   2.683
 7878SOL     OW24532   4.696   4.746   2.333
 7878SOL    HW124533   4.619   4.684   2.348
 7878SOL    HW224534   4.737   4.770   2.420
 7879SOL     OW24535   4.904   6.462   3.473
 7879SOL    HW124536   4.946   6.470   3.564
 7879SOL    HW224537   4.866   6.370   3.462
 7880SOL     OW24538   0.742   6.167   6.740
 7880SOL    HW124539   0.692   6.139   6.658
 7880SOL    HW224540   0.806   6.095   6.766
 7881SOL     OW24541   0.549   4.226   5.398
 7881SOL    HW124542   0.508   4.310   5.363
 7881SOL    HW224543   0.642   4.217   5.361
 7882SOL     OW24544   0.652   2.969   2.542
 7882SOL    HW124545   0.623   3.057   2.579
 7882SOL    HW224546   0.623   2.896   2.605
 7883SOL     OW24547   2.537   1.161   2.932
 7883SOL    HW124548   2.542   1.139   3.029
 7883SOL    HW224549   2.509   1.256   2.920
 7884SOL     OW24550   1.510   4.385   3.765
 7884SOL    HW124551   1.583   4.406   3.830
 7884SOL    HW224552   1.537   4.415   3.674
 7885SOL     OW24553   5.552   5.741   2.804
 7885SOL    HW124554   5.572   5.656   2.756
 7885SOL    HW224555   5.631   5.801   2.799
 7886SOL     OW24556   4.913   2.968   1.821
 7886SOL    HW124557   4.860   2.949   1.738
 7886SOL    HW224558   4.857   3.023   1.884
 7887SOL     OW24559   3.960   3.396   6.837
 7887SOL    HW124560   3.931   3.407   6.932
 7887SOL    HW224561   3.896   3.443   6.776
 7888SOL     OW24562   6.196   1.535   4.195
 7888SOL    HW124563   6.211   1.594   4.275
 7888SOL    HW224564   6.232   1.444   4.214
 7889SOL     OW24565   5.668   5.342   0.484
 7889SOL    HW124566   5.662   5.320   0.387
 7889SOL    HW224567   5.688   5.258   0.536
 7890SOL     OW24568   1.152   2.749   4.213
 7890SOL    HW124569   1.250   2.766   4.230
 7890SOL    HW224570   1.108   2.726   4.300
 7891SOL     OW24571   0.113   2.383   4.092
 7891SOL    HW124572   0.162   2.432   4.164
 7891SOL    HW224573   0.116   2.437   4.007
 7892SOL     OW24574   1.691   3.086   5.564
 7892SOL    HW124575   1.690   3.044   5.473
 7892SOL    HW224576   1.670   3.184   5.555
 7893SOL     OW24577   6.159   0.236   1.863
 7893SOL    HW124578   6.148   0.303   1.936
 7893SOL    HW224579   6.070   0.196   1.840
 7894SOL     OW24580   2.459   1.564   5.991
 7894SOL    HW124581   2.462   1.476   5.943
 7894SOL    HW224582   2.433   1.636   5.926
 7895SOL     OW24583   3.734   6.176   3.814
 7895SOL    HW124584   3.725   6.163   3.913
 7895SOL    HW224585   3.647   6.155   3.770
 7896SOL     OW24586   4.211   2.474   1.777
 7896SOL    HW124587   4.212   2.407   1.702
 7896SOL    HW224588   4.278   2.545   1.759
 7897SOL     OW24589   3.957   4.002   6.631
 7897SOL    HW124590   3.923   4.028   6.721
 7897SOL    HW224591   3.905   3.923   6.597
 7898SOL     OW24592   4.983   0.475   4.776
 7898SOL    HW124593   5.063   0.414   4.777
 7898SOL    HW224594   5.009   0.562   4.735
 7899SOL     OW24595   5.257   5.239   1.555
 7899SOL    HW124596   5.300   5.211   1.469
 7899SOL    HW224597   5.164   5.202   1.559
 7900SOL     OW24598   0.641   4.076   0.748
 7900SOL    HW124599   0.596   4.101   0.662
 7900SOL    HW224600   0.580   4.098   0.825
 7901SOL     OW24601   5.385   1.197   6.307
 7901SOL    HW124602   5.399   1.110   6.354
 7901SOL    HW224603   5.460   1.259   6.329
 7902SOL     OW24604   0.246   5.907   2.710
 7902SOL    HW124605   0.160   5.953   2.690
 7902SOL    HW224606   0.322   5.962   2.674
 7903SOL     OW24607   2.604   1.788   4.255
 7903SOL    HW124608   2.578   1.867   4.311
 7903SOL    HW224609   2.550   1.788   4.171
 7904SOL     OW24610   6.020   0.889   2.255
 7904SOL    HW124611   5.984   0.830   2.328
 7904SOL    HW224612   5.989   0.854   2.166
 7905SOL     OW24613   5.552   1.055   0.777
 7905SOL    HW124614   5.580   1.121   0.707
 7905SOL    HW224615   5.465   1.084   0.816
 7906SOL     OW24616   1.377   5.100   0.874
 7906SOL    HW124617   1.388   5.144   0.963
 7906SOL    HW224618   1.428   5.152   0.805
 7907SOL     OW24619   5.971   0.236   2.619
 7907SOL    HW124620   5.920   0.247   2.533
 7907SOL    HW224621   5.909   0.207   2.691
 7908SOL     OW24622   0.649   1.138   6.326
 7908SOL    HW124623   0.565   1.156   6.275
 7908SOL    HW224624   0.721   1.109   6.262
 7909SOL     OW24625   5.383   4.183   2.537
 7909SOL    HW124626   5.346   4.267   2.576
 7909SOL    HW224627   5.386   4.112   2.607
 7910SOL     OW24628   2.215   3.559   0.830
 7910SOL    HW124629   2.176   3.476   0.789
 7910SOL    HW224630   2.158   3.586   0.908
 7911SOL     OW24631   1.137   3.875   0.923
 7911SOL    HW124632   1.054   3.931   0.926
 7911SOL    HW224633   1.216   3.934   0.905
 7912SOL     OW24634   5.153   5.236   0.522
 7912SOL    HW124635   5.239   5.268   0.562
 7912SOL    HW224636   5.137   5.281   0.434
 7913SOL     OW24637   0.722   3.800   0.452
 7913SOL    HW124638   0.698   3.876   0.391
 7913SOL    HW224639   0.722   3.715   0.400
 7914SOL     OW24640   6.530   5.266   5.323
 7914SOL    HW124641   6.628   5.266   5.306
 7914SOL    HW224642   6.507   5.195   5.389
 7915SOL     OW24643   3.896   0.490   2.994
 7915SOL    HW124644   3.879   0.570   2.937
 7915SOL    HW224645   3.818   0.427   2.987
 7916SOL     OW24646   0.668   7.013   4.671
 7916SOL    HW124647   0.685   6.927   4.624
 7916SOL    HW224648   0.571   7.020   4.694
 7917SOL     OW24649   3.972   2.532   6.864
 7917SOL    HW124650   3.893   2.594   6.870
 7917SOL    HW224651   3.968   2.466   6.939
 7918SOL     OW24652   1.951   0.905   4.890
 7918SOL    HW124653   1.856   0.877   4.902
 7918SOL    HW224654   1.956   0.977   4.820
 7919SOL     OW24655   1.491   5.140   3.138
 7919SOL    HW124656   1.514   5.207   3.209
 7919SOL    HW224657   1.500   5.182   3.048
 7920SOL     OW24658   4.872   0.665   1.240
 7920SOL    HW124659   4.934   0.629   1.170
 7920SOL    HW224660   4.917   0.662   1.329
 7921SOL     OW24661   4.914   1.825   1.665
 7921SOL    HW124662   5.001   1.796   1.624
 7921SOL    HW224663   4.839   1.802   1.604
 7922SOL     OW24664   0.991   6.254   6.974
 7922SOL    HW124665   0.927   6.178   6.983
 7922SOL    HW224666   1.051   6.256   0.023
 7923SOL     OW24667   4.170   1.794   6.743
 7923SOL    HW124668   4.232   1.715   6.739
 7923SOL    HW224669   4.091   1.778   6.685
 7924SOL     OW24670   6.107   6.428   1.622
 7924SOL    HW124671   6.183   6.489   1.645
 7924SOL    HW224672   6.137   6.361   1.555
 7925SOL     OW24673   2.801   6.499   0.549
 7925SOL    HW124674   2.850   6.421   0.510
 7925SOL    HW224675   2.863   6.551   0.608
 7926SOL     OW24676   5.725   0.618   6.770
 7926SOL    HW124677   5.717   0.656   6.863
 7926SOL    HW224678   5.647   0.557   6.753
 7927SOL     OW24679   4.844   0.111   2.352
 7927SOL    HW124680   4.777   0.077   2.287
 7927SOL    HW224681   4.925   0.053   2.351
 7928SOL     OW24682   6.770   0.759   3.282
 7928SOL    HW124683   6.820   0.687   3.330
 7928SOL    HW224684   6.692   0.788   3.338
 7929SOL     OW24685   4.644   3.619   6.317
 7929SOL    HW124686   4.598   3.678   6.383
 7929SOL    HW224687   4.576   3.567   6.266
 7930SOL     OW24688   3.760   5.898   5.588
 7930SOL    HW124689   3.685   5.856   5.537
 7930SOL    HW224690   3.836   5.917   5.525
 7931SOL     OW24691   2.654   2.146   0.388
 7931SOL    HW124692   2.730   2.194   0.344
 7931SOL    HW224693   2.665   2.047   0.375
 7932SOL     OW24694   7.005   5.536   0.917
 7932SOL    HW124695   6.995   5.552   0.819
 7932SOL    HW224696   0.069   5.548   0.943
 7933SOL     OW24697   6.569   1.267   5.516
 7933SOL    HW124698   6.626   1.325   5.574
 7933SOL    HW224699   6.620   1.184   5.492
 7934SOL     OW24700   1.468   4.424   0.818
 7934SOL    HW124701   1.406   4.394   0.892
 7934SOL    HW224702   1.562   4.399   0.841
 7935SOL     OW24703   5.757   3.981   3.040
 7935SOL    HW124704   5.843   3.953   3.083
 7935SOL    HW224705   5.680   3.941   3.090
 7936SOL     OW24706   4.021   6.531   3.917
 7936SOL    HW124707   4.057   6.545   4.009
 7936SOL    HW224708   3.926   6.498   3.922
 7937SOL     OW24709   2.451   6.069   5.568
 7937SOL    HW124710   2.400   5.987   5.545
 7937SOL    HW224711   2.387   6.141   5.598
 7938SOL     OW24712   4.850   6.841   5.046
 7938SOL    HW124713   4.820   6.888   5.129
 7938SOL    HW224714   4.842   6.902   4.968
 7939SOL     OW24715   1.098   1.745   5.021
 7939SOL    HW124716   1.002   1.728   5.042
 7939SOL    HW224717   1.145   1.777   5.104
 7940SOL     OW24718   4.422   1.945   2.425
 7940SOL    HW124719   4.403   1.855   2.384
 7940SOL    HW224720   4.443   2.010   2.352
 7941SOL     OW24721   4.236   6.679   2.197
 7941SOL    HW124722   4.247   6.597   2.140
 7941SOL    HW224723   4.167   6.739   2.156
 7942SOL     OW24724   0.649   2.799   1.995
 7942SOL    HW124725   0.645   2.754   1.905
 7942SOL    HW224726   0.718   2.753   2.051
 7943SOL     OW24727   2.455   5.216   6.039
 7943SOL    HW124728   2.547   5.236   6.071
 7943SOL    HW224729   2.455   5.210   5.939
 7944SOL     OW24730   0.601   2.983   1.292
 7944SOL    HW124731   0.681   3.019   1.339
 7944SOL    HW224732   0.535   3.057   1.277
 7945SOL     OW24733   6.144   5.208   2.789
 7945SOL    HW124734   6.061   5.167   2.752
 7945SOL    HW224735   6.132   5.308   2.794
 7946SOL     OW24736   4.140   0.649   5.987
 7946SOL    HW124737   4.206   0.630   6.060
 7946SOL    HW224738   4.047   0.649   6.025
 7947SOL     OW24739   1.552   2.691   5.528
 7947SOL    HW124740   1.604   2.729   5.451
 7947SOL    HW224741   1.601   2.612   5.565
 7948SOL     OW24742   1.602   4.864   2.122
 7948SOL    HW124743   1.606   4.781   2.177
 7948SOL    HW224744   1.634   4.942   2.176
 7949SOL     OW24745   4.707   4.922   5.752
 7949SOL    HW124746   4.695   4.909   5.653
 7949SOL    HW224747   4.618   4.943   5.793
 7950SOL     OW24748   5.999   5.676   5.694
 7950SOL    HW124749   6.070   5.723   5.641
 7950SOL    HW224750   5.977   5.730   5.775
 7951SOL     OW24751   2.852   5.765   2.489
 7951SOL    HW124752   2.950   5.761   2.470
 7951SOL    HW224753   2.804   5.706   2.424
 7952SOL     OW24754   5.640   3.781   0.110
 7952SOL    HW124755   5.658   3.874   0.140
 7952SOL    HW224756   5.714   3.752   0.048
 7953SOL     OW24757   3.867   2.129   0.606
 7953SOL    HW124758   3.944   2.187   0.633
 7953SOL    HW224759   3.863   2.049   0.667
 7954SOL     OW24760   3.964   3.278   6.555
 7954SOL    HW124761   4.052   3.310   6.520
 7954SOL    HW224762   3.962   3.288   6.655
 7955SOL     OW24763   1.792   1.357   6.553
 7955SOL    HW124764   1.855   1.386   6.625
 7955SOL    HW224765   1.737   1.435   6.523
 7956SOL     OW24766   6.434   1.288   1.727
 7956SOL    HW124767   6.369   1.270   1.653
 7956SOL    HW224768   6.418   1.224   1.802
 7957SOL     OW24769   4.231   0.677   5.655
 7957SOL    HW124770   4.214   0.752   5.718
 7957SOL    HW224771   4.185   0.696   5.568
 7958SOL     OW24772   5.584   3.415   6.627
 7958SOL    HW124773   5.523   3.403   6.706
 7958SOL    HW224774   5.670   3.367   6.645
 7959SOL     OW24775   4.986   1.015   6.167
 7959SOL    HW124776   5.016   0.988   6.258
 7959SOL    HW224777   5.059   0.998   6.101
 7960SOL     OW24778   6.594   0.991   6.565
 7960SOL    HW124779   6.515   0.979   6.505
 7960SOL    HW224780   6.672   1.023   6.510
 7961SOL     OW24781   6.597   6.458   6.901
 7961SOL    HW124782   6.604   6.552   6.934
 7961SOL    HW224783   6.537   6.454   6.822
 7962SOL     OW24784   6.548   6.876   6.264
 7962SOL    HW124785   6.509   6.958   6.224
 7962SOL    HW224786   6.628   6.848   6.211
 7963SOL     OW24787   5.928   4.412   4.503
 7963SOL    HW124788   6.003   4.369   4.452
 7963SOL    HW224789   5.964   4.458   4.584
 7964SOL     OW24790   6.956   3.470   1.636
 7964SOL    HW124791   6.966   3.519   1.722
 7964SOL    HW224792   6.998   3.523   1.562
 7965SOL     OW24793   4.535   2.124   6.817
 7965SOL    HW124794   4.540   2.174   6.731
 7965SOL    HW224795   4.440   2.096   6.834
 7966SOL     OW24796   4.277   4.445   5.373
 7966SOL    HW124797   4.185   4.409   5.390
 7966SOL    HW224798   4.295   4.444   5.274
 7967SOL     OW24799   1.787   5.370   2.136
 7967SOL    HW124800   1.885   5.356   2.126
 7967SOL    HW224801   1.753   5.429   2.062
 7968SOL     OW24802   6.480   2.053   4.601
 7968SOL    HW124803   6.385   2.077   4.618
 7968SOL    HW224804   6.495   2.043   4.502
 7969SOL     OW24805   4.706   5.797   0.091
 7969SOL    HW124806   4.790   5.788   0.038
 7969SOL    HW224807   4.714   5.746   0.177
 7970SOL     OW24808   6.350   3.092   2.742
 7970SOL    HW124809   6.427   3.059   2.796
 7970SOL    HW224810   6.288   3.016   2.722
 7971SOL     OW24811   3.360   1.380   1.197
 7971SOL    HW124812   3.402   1.402   1.109
 7971SOL    HW224813   3.375   1.284   1.219
 7972SOL     OW24814   3.922   3.157   2.380
 7972SOL    HW124815   3.875   3.117   2.301
 7972SOL    HW224816   3.927   3.089   2.454
 7973SOL     OW24817   6.403   4.143   3.577
 7973SOL    HW124818   6.329   4.161   3.642
 7973SOL    HW224819   6.412   4.221   3.514
 7974SOL     OW24820   5.989   1.597   5.175
 7974SOL    HW124821   6.001   1.646   5.262
 7974SOL    HW224822   6.039   1.510   5.178
 7975SOL     OW24823   4.245   1.640   0.561
 7975SOL    HW124824   4.271   1.662   0.655
 7975SOL    HW224825   4.326   1.642   0.503
 7976SOL     OW24826   1.843   6.769   6.355
 7976SOL    HW124827   1.762   6.711   6.348
 7976SOL    HW224828   1.883   6.759   6.446
 7977SOL     OW24829   5.485   6.458   3.157
 7977SOL    HW124830   5.466   6.384   3.093
 7977SOL    HW224831   5.470   6.427   3.251
 7978SOL     OW24832   0.248   4.301   1.068
 7978SOL    HW124833   0.233   4.288   1.166
 7978SOL    HW224834   0.196   4.380   1.036
 7979SOL     OW24835   2.096   3.574   4.695
 7979SOL    HW124836   2.133   3.661   4.663
 7979SOL    HW224837   2.124   3.559   4.789
 7980SOL     OW24838   3.485   4.732   5.741
 7980SOL    HW124839   3.500   4.660   5.809
 7980SOL    HW224840   3.558   4.800   5.747
 7981SOL     OW24841   1.819   4.967   3.530
 7981SOL    HW124842   1.804   4.900   3.457
 7981SOL    HW224843   1.755   5.043   3.519
 7982SOL     OW24844   1.312   1.570   6.016
 7982SOL    HW124845   1.353   1.492   5.970
 7982SOL    HW224846   1.346   1.655   5.975
 7983SOL     OW24847   5.082   1.340   1.398
 7983SOL    HW124848   5.119   1.302   1.483
 7983SOL    HW224849   5.154   1.390   1.349
 7984SOL     OW24850   0.651   1.540   0.960
 7984SOL    HW124851   0.575   1.526   1.023
 7984SOL    HW224852   0.666   1.638   0.948
 7985SOL     OW24853   2.496   2.284   5.731
 7985SOL    HW124854   2.427   2.353   5.707
 7985SOL    HW224855   2.458   2.193   5.715
 7986SOL     OW24856   3.558   1.835   4.479
 7986SOL    HW124857   3.592   1.918   4.436
 7986SOL    HW224858   3.465   1.816   4.447
 7987SOL     OW24859   1.538   3.675   1.051
 7987SOL    HW124860   1.550   3.583   1.090
 7987SOL    HW224861   1.449   3.711   1.077
 7988SOL     OW24862   6.712   1.230   1.623
 7988SOL    HW124863   6.736   1.142   1.581
 7988SOL    HW224864   6.626   1.221   1.673
 7989SOL     OW24865   1.761   4.065   0.570
 7989SOL    HW124866   1.668   4.039   0.546
 7989SOL    HW224867   1.759   4.134   0.642
 7990SOL     OW24868   2.360   6.506   5.106
 7990SOL    HW124869   2.329   6.477   5.197
 7990SOL    HW224870   2.418   6.434   5.067
 7991SOL     OW24871   5.417   1.415   4.859
 7991SOL    HW124872   5.334   1.456   4.897
 7991SOL    HW224873   5.467   1.484   4.808
 7992SOL     OW24874   2.144   0.356   0.630
 7992SOL    HW124875   2.157   0.314   0.720
 7992SOL    HW224876   2.233   0.368   0.586
 7993SOL     OW24877   0.010   6.996   1.620
 7993SOL    HW124878   6.955   6.953   1.597
 7993SOL    HW224879   0.056   7.025   1.537
 7994SOL     OW24880   4.951   0.536   3.226
 7994SOL    HW124881   4.888   0.554   3.150
 7994SOL    HW224882   4.920   0.586   3.307
 7995SOL     OW24883   6.386   4.500   1.990
 7995SOL    HW124884   6.404   4.413   1.944
 7995SOL    HW224885   6.406   4.491   2.087
 7996SOL     OW24886   4.375   0.166   3.317
 7996SOL    HW124887   4.317   0.247   3.304
 7996SOL    HW224888   4.318   0.085   3.321
 7997SOL     OW24889   0.928   1.965   6.800
 7997SOL    HW124890   0.984   1.883   6.812
 7997SOL    HW224891   0.918   1.985   6.702
 7998SOL     OW24892   2.588   0.149   0.189
 7998SOL    HW124893   2.633   0.060   0.195
 7998SOL    HW224894   2.535   0.154   0.105
 7999SOL     OW24895   1.058   2.016   5.551
 7999SOL    HW124896   1.040   2.008   5.649
 7999SOL    HW224897   1.018   1.938   5.503
 8000SOL     OW24898   5.689   6.477   6.106
 8000SOL    HW124899   5.678   6.409   6.178
 8000SOL    HW224900   5.783   6.473   6.071
 8001SOL     OW24901   5.274   0.326   0.878
 8001SOL    HW124902   5.372   0.339   0.862
 8001SOL    HW224903   5.261   0.264   0.955
 8002SOL     OW24904   0.651   0.913   5.788
 8002SOL    HW124905   0.553   0.900   5.773
 8002SOL    HW224906   0.681   0.855   5.864
 8003SOL     OW24907   2.019   6.666   2.816
 8003SOL    HW124908   1.961   6.600   2.768
 8003SOL    HW224909   2.111   6.629   2.826
 8004SOL     OW24910   1.946   2.816   3.324
 8004SOL    HW124911   2.031   2.792   3.277
 8004SOL    HW224912   1.885   2.863   3.261
 8005SOL     OW24913   2.620   7.017   4.138
 8005SOL    HW124914   2.601   6.947   4.207
 8005SOL    HW224915   2.715   7.008   4.106
 8006SOL     OW24916   3.791   5.457   4.748
 8006SOL    HW124917   3.837   5.510   4.819
 8006SOL    HW224918   3.859   5.416   4.687
 8007SOL     OW24919   6.360   1.861   6.116
 8007SOL    HW124920   6.418   1.942   6.104
 8007SOL    HW224921   6.305   1.871   6.199
 8008SOL     OW24922   4.013   6.419   0.102
 8008SOL    HW124923   3.915   6.411   0.122
 8008SOL    HW224924   4.040   6.347   0.038
 8009SOL     OW24925   5.035   1.686   1.080
 8009SOL    HW124926   4.986   1.669   0.995
 8009SOL    HW224927   4.970   1.703   1.154
 8010SOL     OW24928   2.593   2.602   5.476
 8010SOL    HW124929   2.577   2.698   5.455
 8010SOL    HW224930   2.679   2.593   5.526
 8011SOL     OW24931   3.637   1.984   1.854
 8011SOL    HW124932   3.657   2.060   1.916
 8011SOL    HW224933   3.711   1.917   1.858
 8012SOL     OW24934   1.266   3.088   5.661
 8012SOL    HW124935   1.336   3.031   5.619
 8012SOL    HW224936   1.193   3.105   5.595
 8013SOL     OW24937   1.269   2.661   3.256
 8013SOL    HW124938   1.191   2.714   3.224
 8013SOL    HW224939   1.275   2.575   3.204
 8014SOL     OW24940   1.847   0.308   3.313
 8014SOL    HW124941   1.835   0.399   3.353
 8014SOL    HW224942   1.880   0.317   3.219
 8015SOL     OW24943   1.107   0.453   5.902
 8015SOL    HW124944   1.117   0.544   5.942
 8015SOL    HW224945   1.179   0.393   5.936
 8016SOL     OW24946   3.894   1.456   5.236
 8016SOL    HW124947   3.930   1.525   5.299
 8016SOL    HW224948   3.820   1.405   5.280
 8017SOL     OW24949   6.953   6.875   0.398
 8017SOL    HW124950   6.895   6.942   0.445
 8017SOL    HW224951   0.005   6.860   0.452
 8018SOL     OW24952   4.136   1.977   0.300
 8018SOL    HW124953   4.088   1.889   0.312
 8018SOL    HW224954   4.142   2.024   0.388
 8019SOL     OW24955   3.379   3.614   0.820
 8019SOL    HW124956   3.382   3.532   0.877
 8019SOL    HW224957   3.284   3.646   0.812
 8020SOL     OW24958   6.127   0.132   5.106
 8020SOL    HW124959   6.158   0.223   5.133
 8020SOL    HW224960   6.204   0.068   5.109
 8021SOL     OW24961   2.074   1.968   2.229
 8021SOL    HW124962   2.120   2.003   2.311
 8021SOL    HW224963   2.112   2.012   2.148
 8022SOL     OW24964   5.499   0.798   2.095
 8022SOL    HW124965   5.544   0.884   2.069
 8022SOL    HW224966   5.401   0.807   2.082
 8023SOL     OW24967   5.558   6.063   3.485
 8023SOL    HW124968   5.519   5.997   3.549
 8023SOL    HW224969   5.509   6.057   3.398
 8024SOL     OW24970   1.735   6.141   6.225
 8024SOL    HW124971   1.773   6.080   6.294
 8024SOL    HW224972   1.636   6.127   6.219
 8025SOL     OW24973   1.830   4.648   1.672
 8025SOL    HW124974   1.825   4.712   1.595
 8025SOL    HW224975   1.741   4.605   1.686
 8026SOL     OW24976   0.345   4.359   0.441
 8026SOL    HW124977   0.311   4.425   0.373
 8026SOL    HW224978   0.269   4.328   0.498
 8027SOL     OW24979   4.114   6.692   5.905
 8027SOL    HW124980   4.042   6.687   5.974
 8027SOL    HW224981   4.078   6.661   5.817
 8028SOL     OW24982   3.533   5.620   4.267
 8028SOL    HW124983   3.549   5.526   4.298
 8028SOL    HW224984   3.475   5.668   4.332
 8029SOL     OW24985   5.619   1.659   1.848
 8029SOL    HW124986   5.542   1.603   1.878
 8029SOL    HW224987   5.654   1.712   1.925
 8030SOL     OW24988   6.036   4.949   1.096
 8030SOL    HW124989   6.117   5.003   1.072
 8030SOL    HW224990   6.044   4.857   1.057
 8031SOL     OW24991   5.469   0.531   3.275
 8031SOL    HW124992   5.434   0.607   3.221
 8031SOL    HW224993   5.509   0.462   3.215
 8032SOL     OW24994   5.372   3.264   1.674
 8032SOL    HW124995   5.317   3.281   1.755
 8032SOL    HW224996   5.385   3.350   1.624
 8033SOL     OW24997   4.158   3.897   0.674
 8033SOL    HW124998   4.079   3.846   0.709
 8033SOL    HW224999   4.130   3.952   0.595
 8034SOL     OW25000   5.700   0.374   5.315
 8034SOL    HW125001   5.727   0.311   5.388
 8034SOL    HW225002   5.761   0.362   5.237
 8035SOL     OW25003   4.412   1.047   2.393
 8035SOL    HW125004   4.430   0.973   2.329
 8035SOL    HW225005   4.363   1.012   2.472
 8036SOL     OW25006   6.747   2.858   3.886
 8036SOL    HW125007   6.768   2.859   3.788
 8036SOL    HW225008   6.789   2.777   3.928
 8037SOL     OW25009   1.350   3.045   6.629
 8037SOL    HW125010   1.394   3.009   6.546
 8037SOL    HW225011   1.254   3.018   6.630
 8038SOL     OW25012   5.882   6.468   2.310
 8038SOL    HW125013   5.918   6.527   2.237
 8038SOL    HW225014   5.934   6.382   2.311
 8039SOL     OW25015   0.424   2.546   5.229
 8039SOL    HW125016   0.358   2.618   5.208
 8039SOL    HW225017   0.467   2.514   5.144
 8040SOL     OW25018   1.598   6.124   5.736
 8040SOL    HW125019   1.614   6.180   5.817
 8040SOL    HW225020   1.661   6.152   5.663
 8041SOL     OW25021   3.160   1.562   3.277
 8041SOL    HW125022   3.114   1.632   3.331
 8041SOL    HW225023   3.211   1.501   3.338
 8042SOL     OW25024   4.256   4.087   6.007
 8042SOL    HW125025   4.302   4.175   6.015
 8042SOL    HW225026   4.300   4.032   5.937
 8043SOL     OW25027   4.805   4.976   1.536
 8043SOL    HW125028   4.767   4.884   1.534
 8043SOL    HW225029   4.732   5.042   1.553
 8044SOL     OW25030   3.936   3.775   1.225
 8044SOL    HW125031   4.008   3.769   1.294
 8044SOL    HW225032   3.941   3.863   1.179
 8045SOL     OW25033   0.251   1.330   2.624
 8045SOL    HW125034   0.277   1.411   2.571
 8045SOL    HW225035   0.294   1.334   2.714
 8046SOL     OW25036   0.210   5.102   1.960
 8046SOL    HW125037   0.267   5.095   2.042
 8046SOL    HW225038   0.267   5.086   1.879
 8047SOL     OW25039   4.038   6.908   6.435
 8047SOL    HW125040   4.059   6.857   6.352
 8047SOL    HW225041   3.998   6.846   6.503
 8048SOL     OW25042   3.648   3.552   0.412
 8048SOL    HW125043   3.670   3.645   0.381
 8048SOL    HW225044   3.657   3.547   0.511
 8049SOL     OW25045   1.399   6.793   0.620
 8049SOL    HW125046   1.321   6.850   0.594
 8049SOL    HW225047   1.443   6.832   0.701
 8050SOL     OW25048   1.588   4.166   4.353
 8050SOL    HW125049   1.576   4.069   4.335
 8050SOL    HW225050   1.641   4.208   4.279
 8051SOL     OW25051   4.873   6.029   4.325
 8051SOL    HW125052   4.939   5.992   4.260
 8051SOL    HW225053   4.814   5.955   4.358
 8052SOL     OW25054   2.490   1.494   2.123
 8052SOL    HW125055   2.455   1.578   2.165
 8052SOL    HW225056   2.413   1.434   2.100
 8053SOL     OW25057   3.067   3.377   6.173
 8053SOL    HW125058   3.080   3.476   6.170
 8053SOL    HW225059   2.972   3.357   6.197
 8054SOL     OW25060   5.855   4.137   5.270
 8054SOL    HW125061   5.782   4.110   5.206
 8054SOL    HW225062   5.888   4.055   5.318
 8055SOL     OW25063   0.281   1.008   5.200
 8055SOL    HW125064   0.242   0.939   5.139
 8055SOL    HW225065   0.242   1.098   5.177
 8056SOL     OW25066   2.684   6.574   4.084
 8056SOL    HW125067   2.716   6.587   3.990
 8056SOL    HW225068   2.762   6.570   4.146
 8057SOL     OW25069   2.323   1.979   1.673
 8057SOL    HW125070   2.251   2.030   1.626
 8057SOL    HW225071   2.283   1.897   1.715
 8058SOL     OW25072   3.267   6.494   3.578
 8058SOL    HW125073   3.300   6.511   3.485
 8058SOL    HW225074   3.317   6.554   3.642
 8059SOL     OW25075   2.880   2.145   5.731
 8059SOL    HW125076   2.858   2.128   5.827
 8059SOL    HW225077   2.977   2.169   5.722
 8060SOL     OW25078   6.967   0.343   6.495
 8060SOL    HW125079   6.982   0.433   6.534
 8060SOL    HW225080   6.923   0.352   6.405
 8061SOL     OW25081   0.260   1.021   2.220
 8061SOL    HW125082   0.270   0.989   2.126
 8061SOL    HW225083   0.200   0.958   2.270
 8062SOL     OW25084   4.053   5.325   5.301
 8062SOL    HW125085   3.956   5.298   5.304
 8062SOL    HW225086   4.110   5.244   5.304
 8063SOL     OW25087   3.568   0.479   3.214
 8063SOL    HW125088   3.511   0.515   3.288
 8063SOL    HW225089   3.664   0.478   3.244
 8064SOL     OW25090   6.444   3.503   0.207
 8064SOL    HW125091   6.398   3.423   0.168
 8064SOL    HW225092   6.378   3.576   0.222
 8065SOL     OW25093   3.433   0.128   4.617
 8065SOL    HW125094   3.337   0.123   4.645
 8065SOL    HW225095   3.453   0.052   4.555
 8066SOL     OW25096   6.567   1.297   4.613
 8066SOL    HW125097   6.654   1.252   4.632
 8066SOL    HW225098   6.574   1.394   4.637
 8067SOL     OW25099   5.360   3.136   3.758
 8067SOL    HW125100   5.284   3.072   3.766
 8067SOL    HW225101   5.407   3.143   3.846
 8068SOL     OW25102   0.508   4.458   1.999
 8068SOL    HW125103   0.445   4.400   1.947
 8068SOL    HW225104   0.602   4.433   1.977
 8069SOL     OW25105   2.974   5.374   2.373
 8069SOL    HW125106   2.977   5.279   2.343
 8069SOL    HW225107   2.880   5.401   2.391
 8070SOL     OW25108   3.992   4.572   0.759
 8070SOL    HW125109   4.040   4.510   0.821
 8070SOL    HW225110   4.026   4.560   0.666
 8071SOL     OW25111   4.261   6.910   5.645
 8071SOL    HW125112   4.279   6.822   5.690
 8071SOL    HW225113   4.204   6.895   5.564
 8072SOL     OW25114   2.533   2.301   0.809
 8072SOL    HW125115   2.626   2.301   0.770
 8072SOL    HW225116   2.510   2.209   0.838
 8073SOL     OW25117   3.053   6.919   6.066
 8073SOL    HW125118   2.993   6.971   6.127
 8073SOL    HW225119   2.999   6.854   6.012
 8074SOL     OW25120   2.056   1.449   0.169
 8074SOL    HW125121   1.985   1.401   0.117
 8074SOL    HW225122   2.133   1.468   0.109
 8075SOL     OW25123   0.653   6.623   6.952
 8075SOL    HW125124   0.568   6.610   6.902
 8075SOL    HW225125   0.714   6.545   6.934
 8076SOL     OW25126   6.907   6.924   6.326
 8076SOL    HW125127   6.879   6.834   6.359
 8076SOL    HW225128   6.990   6.953   6.373
 8077SOL     OW25129   3.857   5.832   1.926
 8077SOL    HW125130   3.810   5.898   1.984
 8077SOL    HW225131   3.812   5.827   1.837
 8078SOL     OW25132   1.279   1.579   0.511
 8078SOL    HW125133   1.225   1.541   0.587
 8078SOL    HW225134   1.289   1.511   0.439
 8079SOL     OW25135   0.706   1.487   4.386
 8079SOL    HW125136   0.747   1.462   4.298
 8079SOL    HW225137   0.747   1.572   4.419
 8080SOL     OW25138   1.202   2.923   2.359
 8080SOL    HW125139   1.234   2.828   2.357
 8080SOL    HW225140   1.176   2.948   2.452
 8081SOL     OW25141   5.983   4.520   5.840
 8081SOL    HW125142   5.899   4.469   5.861
 8081SOL    HW225143   5.978   4.610   5.883
 8082SOL     OW25144   2.837   0.966   2.263
 8082SOL    HW125145   2.854   1.064   2.245
 8082SOL    HW225146   2.802   0.955   2.355
 8083SOL     OW25147   5.361   2.584   4.040
 8083SOL    HW125148   5.360   2.642   3.958
 8083SOL    HW225149   5.313   2.498   4.020
 8084SOL     OW25150   2.209   0.687   6.022
 8084SOL    HW125151   2.148   0.635   6.082
 8084SOL    HW225152   2.292   0.634   6.006
 8085SOL     OW25153   0.045   5.875   3.024
 8085SOL    HW125154   0.093   5.821   3.092
 8085SOL    HW225155   7.021   5.815   2.967
 8086SOL     OW25156   0.176   1.220   1.506
 8086SOL    HW125157   0.186   1.167   1.421
 8086SOL    HW225158   0.091   1.273   1.502
 8087SOL     OW25159   1.047   0.647   6.442
 8087SOL    HW125160   1.048   0.614   6.536
 8087SOL    HW225161   1.020   0.573   6.380
 8088SOL     OW25162   5.376   6.908   6.500
 8088SOL    HW125163   5.378   6.865   6.410
 8088SOL    HW225164   5.446   6.867   6.559
 8089SOL     OW25165   5.689   2.779   6.452
 8089SOL    HW125166   5.714   2.735   6.538
 8089SOL    HW225167   5.605   2.831   6.465
 8090SOL     OW25168   4.079   1.270   6.594
 8090SOL    HW125169   4.100   1.173   6.594
 8090SOL    HW225170   3.983   1.283   6.569
 8091SOL     OW25171   1.375   4.379   4.419
 8091SOL    HW125172   1.447   4.312   4.433
 8091SOL    HW225173   1.286   4.334   4.428
 8092SOL     OW25174   4.720   2.113   5.279
 8092SOL    HW125175   4.680   2.194   5.321
 8092SOL    HW225176   4.726   2.040   5.346
 8093SOL     OW25177   3.074   6.040   2.769
 8093SOL    HW125178   3.025   5.957   2.743
 8093SOL    HW225179   3.008   6.111   2.794
 8094SOL     OW25180   0.876   4.259   5.373
 8094SOL    HW125181   0.945   4.308   5.427
 8094SOL    HW225182   0.918   4.221   5.291
 8095SOL     OW25183   1.014   4.679   5.009
 8095SOL    HW125184   1.101   4.685   4.961
 8095SOL    HW225185   1.002   4.587   5.046
 8096SOL     OW25186   0.962   0.413   2.321
 8096SOL    HW125187   0.928   0.507   2.311
 8096SOL    HW225188   0.959   0.366   2.233
 8097SOL     OW25189   4.075   0.313   5.046
 8097SOL    HW125190   4.111   0.221   5.065
 8097SOL    HW225191   4.083   0.333   4.949
 8098SOL     OW25192   1.027   6.140   4.184
 8098SOL    HW125193   0.946   6.168   4.134
 8098SOL    HW225194   1.042   6.201   4.262
 8099SOL     OW25195   4.441   5.937   4.458
 8099SOL    HW125196   4.452   6.036   4.471
 8099SOL    HW225197   4.401   5.897   4.540
 8100SOL     OW25198   5.739   1.201   6.210
 8100SOL    HW125199   5.768   1.207   6.115
 8100SOL    HW225200   5.749   1.106   6.242
 8101SOL     OW25201   2.089   5.445   0.781
 8101SOL    HW125202   2.189   5.438   0.779
 8101SOL    HW225203   2.061   5.534   0.748
 8102SOL     OW25204   0.911   3.429   4.292
 8102SOL    HW125205   0.925   3.488   4.372
 8102SOL    HW225206   0.813   3.414   4.278
 8103SOL     OW25207   3.669   0.713   2.052
 8103SOL    HW125208   3.680   0.662   2.137
 8103SOL    HW225209   3.574   0.739   2.041
 8104SOL     OW25210   2.102   6.862   5.963
 8104SOL    HW125211   2.026   6.881   6.025
 8104SOL    HW225212   2.118   6.763   5.959
 8105SOL     OW25213   7.023   2.201   2.988
 8105SOL    HW125214   0.046   2.284   2.988
 8105SOL    HW225215   0.030   2.136   2.923
 8106SOL     OW25216   2.659   6.594   3.787
 8106SOL    HW125217   2.668   6.623   3.691
 8106SOL    HW225218   2.612   6.506   3.790
 8107SOL     OW25219   1.535   5.914   4.837
 8107SOL    HW125220   1.515   5.998   4.887
 8107SOL    HW225221   1.468   5.844   4.862
 8108SOL     OW25222   6.596   1.730   6.904
 8108SOL    HW125223   6.568   1.637   6.882
 8108SOL    HW225224   6.631   1.734   6.997
 8109SOL     OW25225   0.058   4.088   6.364
 8109SOL    HW125226   0.071   4.010   6.425
 8109SOL    HW225227   0.094   4.066   6.273
 8110SOL     OW25228   4.170   4.837   1.473
 8110SOL    HW125229   4.089   4.793   1.511
 8110SOL    HW225230   4.220   4.770   1.417
 8111SOL     OW25231   5.515   0.997   3.857
 8111SOL    HW125232   5.608   0.963   3.864
 8111SOL    HW225233   5.465   0.977   3.942
 8112SOL     OW25234   0.892   3.207   4.841
 8112SOL    HW125235   0.992   3.201   4.835
 8112SOL    HW225236   0.850   3.149   4.771
 8113SOL     OW25237   6.398   3.239   1.587
 8113SOL    HW125238   6.471   3.307   1.579
 8113SOL    HW225239   6.321   3.278   1.637
 8114SOL     OW25240   1.351   4.002   2.031
 8114SOL    HW125241   1.417   4.034   1.963
 8114SOL    HW225242   1.261   3.991   1.988
 8115SOL     OW25243   3.101   6.472   5.983
 8115SOL    HW125244   3.152   6.552   5.952
 8115SOL    HW225245   3.007   6.499   6.003
 8116SOL     OW25246   4.114   5.059   0.397
 8116SOL    HW125247   4.068   5.113   0.467
 8116SOL    HW225248   4.072   4.968   0.394
 8117SOL     OW25249   1.852   6.773   3.043
 8117SOL    HW125250   1.903   6.745   2.962
 8117SOL    HW225251   1.888   6.726   3.123
 8118SOL     OW25252   6.621   4.368   6.580
 8118SOL    HW125253   6.708   4.416   6.591
 8118SOL    HW225254   6.625   4.308   6.501
 8119SOL     OW25255   5.048   6.452   6.009
 8119SOL    HW125256   4.968   6.457   5.949
 8119SOL    HW225257   5.087   6.543   6.022
 8120SOL     OW25258   2.335   5.215   0.550
 8120SOL    HW125259   2.421   5.209   0.498
 8120SOL    HW225260   2.337   5.296   0.608
 8121SOL     OW25261   1.116   4.200   2.616
 8121SOL    HW125262   1.105   4.176   2.520
 8121SOL    HW225263   1.086   4.294   2.631
 8122SOL     OW25264   0.982   4.427   2.628
 8122SOL    HW125265   1.003   4.452   2.723
 8122SOL    HW225266   0.938   4.504   2.582
 8123SOL     OW25267   0.509   1.284   6.619
 8123SOL    HW125268   0.527   1.197   6.574
 8123SOL    HW225269   0.476   1.268   6.712
 8124SOL     OW25270   5.753   6.287   3.800
 8124SOL    HW125271   5.802   6.367   3.834
 8124SOL    HW225272   5.816   6.226   3.752
 8125SOL     OW25273   1.073   0.922   2.531
 8125SOL    HW125274   1.042   0.985   2.460
 8125SOL    HW225275   0.995   0.892   2.587
 8126SOL     OW25276   4.795   4.904   3.746
 8126SOL    HW125277   4.752   4.890   3.657
 8126SOL    HW225278   4.798   5.002   3.767
 8127SOL     OW25279   2.935   2.824   6.772
 8127SOL    HW125280   2.840   2.803   6.792
 8127SOL    HW225281   2.953   2.920   6.793
 8128SOL     OW25282   3.084   2.275   1.703
 8128SOL    HW125283   3.018   2.327   1.756
 8128SOL    HW225284   3.177   2.308   1.721
 8129SOL     OW25285   1.984   1.960   6.785
 8129SOL    HW125286   2.044   1.932   6.859
 8129SOL    HW225287   1.934   2.043   6.812
 8130SOL     OW25288   1.851   6.591   6.977
 8130SOL    HW125289   1.785   6.541   6.922
 8130SOL    HW225290   1.892   6.530   0.013
 8131SOL     OW25291   2.715   2.697   1.246
 8131SOL    HW125292   2.765   2.611   1.235
 8131SOL    HW225293   2.657   2.692   1.328
 8132SOL     OW25294   6.230   6.823   4.369
 8132SOL    HW125295   6.196   6.890   4.304
 8132SOL    HW225296   6.258   6.869   4.453
 8133SOL     OW25297   3.908   5.153   2.425
 8133SOL    HW125298   3.811   5.151   2.449
 8133SOL    HW225299   3.930   5.239   2.379
 8134SOL     OW25300   6.443   1.034   5.999
 8134SOL    HW125301   6.474   1.127   5.976
 8134SOL    HW225302   6.468   1.014   6.094
 8135SOL     OW25303   1.607   0.567   1.497
 8135SOL    HW125304   1.619   0.626   1.417
 8135SOL    HW225305   1.632   0.617   1.580
 8136SOL     OW25306   5.313   5.273   2.354
 8136SOL    HW125307   5.281   5.368   2.347
 8136SOL    HW225308   5.382   5.256   2.285
 8137SOL     OW25309   2.763   1.077   4.999
 8137SOL    HW125310   2.704   1.019   5.056
 8137SOL    HW225311   2.705   1.137   4.943
 8138SOL     OW25312   5.549   1.437   1.664
 8138SOL    HW125313   5.556   1.340   1.688
 8138SOL    HW225314   5.631   1.466   1.617
 8139SOL     OW25315   0.553   1.163   2.052
 8139SOL    HW125316   0.480   1.139   2.115
 8139SOL    HW225317   0.638   1.178   2.103
 8140SOL     OW25318   4.518   1.081   4.356
 8140SOL    HW125319   4.608   1.124   4.347
 8140SOL    HW225320   4.472   1.115   4.438
 8141SOL     OW25321   4.069   5.222   5.874
 8141SOL    HW125322   4.043   5.273   5.792
 8141SOL    HW225323   4.018   5.136   5.878
 8142SOL     OW25324   6.109   5.140   0.168
 8142SOL    HW125325   6.193   5.189   0.143
 8142SOL    HW225326   6.096   5.064   0.104
 8143SOL     OW25327   6.191   5.042   6.753
 8143SOL    HW125328   6.137   5.063   6.672
 8143SOL    HW225329   6.185   4.945   6.775
 8144SOL     OW25330   5.645   0.079   6.873
 8144SOL    HW125331   5.681   0.055   6.963
 8144SOL    HW225332   5.561   0.028   6.855
 8145SOL     OW25333   5.599   6.263   2.583
 8145SOL    HW125334   5.599   6.200   2.505
 8145SOL    HW225335   5.549   6.222   2.659
 8146SOL     OW25336   3.446   1.167   5.801
 8146SOL    HW125337   3.512   1.121   5.742
 8146SOL    HW225338   3.354   1.155   5.764
 8147SOL     OW25339   5.131   1.832   3.244
 8147SOL    HW125340   5.111   1.813   3.148
 8147SOL    HW225341   5.139   1.746   3.294
 8148SOL     OW25342   5.598   3.341   2.523
 8148SOL    HW125343   5.554   3.424   2.489
 8148SOL    HW225344   5.573   3.328   2.619
 8149SOL     OW25345   2.543   6.087   3.123
 8149SOL    HW125346   2.608   6.158   3.098
 8149SOL    HW225347   2.592   6.007   3.158
 8150SOL     OW25348   0.493   4.774   0.862
 8150SOL    HW125349   0.520   4.743   0.953
 8150SOL    HW225350   0.396   4.752   0.848
 8151SOL     OW25351   0.777   2.212   3.232
 8151SOL    HW125352   0.758   2.252   3.322
 8151SOL    HW225353   0.810   2.284   3.171
 8152SOL     OW25354   1.723   1.346   2.848
 8152SOL    HW125355   1.669   1.364   2.930
 8152SOL    HW225356   1.686   1.267   2.800
 8153SOL     OW25357   2.882   7.025   2.652
 8153SOL    HW125358   2.905   0.048   2.571
 8153SOL    HW225359   2.950   6.952   2.662
 8154SOL     OW25360   2.374   5.966   4.685
 8154SOL    HW125361   2.434   5.918   4.748
 8154SOL    HW225362   2.404   5.948   4.591
 8155SOL     OW25363   3.296   2.922   2.514
 8155SOL    HW125364   3.347   2.842   2.482
 8155SOL    HW225365   3.252   2.966   2.436
 8156SOL     OW25366   5.885   0.385   5.089
 8156SOL    HW125367   5.976   0.386   5.131
 8156SOL    HW225368   5.889   0.333   5.003
 8157SOL     OW25369   5.328   5.154   6.998
 8157SOL    HW125370   5.258   5.219   6.969
 8157SOL    HW225371   5.332   5.150   0.066
 8158SOL     OW25372   1.030   5.962   0.618
 8158SOL    HW125373   1.117   5.917   0.598
 8158SOL    HW225374   1.002   5.941   0.712
 8159SOL     OW25375   2.081   5.384   2.217
 8159SOL    HW125376   2.067   5.333   2.302
 8159SOL    HW225377   2.161   5.347   2.169
 8160SOL     OW25378   4.742   1.797   1.065
 8160SOL    HW125379   4.665   1.855   1.037
 8160SOL    HW225380   4.759   1.729   0.994
 8161SOL     OW25381   4.991   1.290   0.860
 8161SOL    HW125382   4.964   1.309   0.954
 8161SOL    HW225383   4.987   1.375   0.806
 8162SOL     OW25384   6.196   6.613   0.572
 8162SOL    HW125385   6.127   6.565   0.518
 8162SOL    HW225386   6.165   6.706   0.590
 8163SOL     OW25387   2.710   4.062   5.423
 8163SOL    HW125388   2.671   4.117   5.497
 8163SOL    HW225389   2.643   3.994   5.394
 8164SOL     OW25390   5.427   3.012   1.540
 8164SOL    HW125391   5.468   2.945   1.602
 8164SOL    HW225392   5.390   3.088   1.593
 8165SOL     OW25393   2.176   4.401   1.392
 8165SOL    HW125394   2.109   4.473   1.378
 8165SOL    HW225395   2.130   4.312   1.394
 8166SOL     OW25396   2.157   0.466   1.946
 8166SOL    HW125397   2.149   0.472   2.045
 8166SOL    HW225398   2.119   0.379   1.914
 8167SOL     OW25399   6.103   2.513   3.975
 8167SOL    HW125400   6.108   2.461   4.060
 8167SOL    HW225401   6.051   2.597   3.990
 8168SOL     OW25402   3.344   1.566   2.856
 8168SOL    HW125403   3.271   1.587   2.791
 8168SOL    HW225404   3.343   1.632   2.930
 8169SOL     OW25405   4.446   4.030   0.963
 8169SOL    HW125406   4.407   3.939   0.949
 8169SOL    HW225407   4.451   4.077   0.875
 8170SOL     OW25408   1.542   5.863   3.734
 8170SOL    HW125409   1.557   5.778   3.683
 8170SOL    HW225410   1.464   5.852   3.795
 8171SOL     OW25411   0.492   2.257   6.454
 8171SOL    HW125412   0.518   2.163   6.431
 8171SOL    HW225413   0.535   2.282   6.541
 8172SOL     OW25414   0.193   6.952   0.544
 8172SOL    HW125415   0.153   7.016   0.608
 8172SOL    HW225416   0.230   7.001   0.465
 8173SOL     OW25417   3.686   2.582   6.874
 8173SOL    HW125418   3.632   2.523   6.934
 8173SOL    HW225419   3.702   2.535   6.787
 8174SOL     OW25420   5.834   1.955   1.178
 8174SOL    HW125421   5.786   2.038   1.208
 8174SOL    HW225422   5.822   1.943   1.080
 8175SOL     OW25423   6.770   2.307   6.389
 8175SOL    HW125424   6.714   2.238   6.435
 8175SOL    HW225425   6.845   2.335   6.448
 8176SOL     OW25426   2.606   5.891   2.211
 8176SOL    HW125427   2.560   5.847   2.288
 8176SOL    HW225428   2.616   5.825   2.136
 8177SOL     OW25429   1.118   5.910   4.334
 8177SOL    HW125430   1.122   5.824   4.285
 8177SOL    HW225431   1.084   5.982   4.274
 8178SOL     OW25432   2.470   6.876   6.215
 8178SOL    HW125433   2.398   6.923   6.266
 8178SOL    HW225434   2.540   6.942   6.188
 8179SOL     OW25435   3.157   2.784   0.120
 8179SOL    HW125436   3.142   2.698   0.072
 8179SOL    HW225437   3.173   2.857   0.054
 8180SOL     OW25438   0.385   0.002   4.403
 8180SOL    HW125439   0.445   0.058   4.460
 8180SOL    HW225440   0.295   0.044   4.398
 8181SOL     OW25441   2.647   2.416   2.723
 8181SOL    HW125442   2.624   2.446   2.630
 8181SOL    HW225443   2.727   2.356   2.719
 8182SOL     OW25444   3.085   2.539   5.932
 8182SOL    HW125445   3.139   2.484   5.869
 8182SOL    HW225446   3.037   2.479   5.996
 8183SOL     OW25447   0.679   3.673   5.062
 8183SOL    HW125448   0.719   3.588   5.027
 8183SOL    HW225449   0.742   3.749   5.044
 8184SOL     OW25450   6.869   0.601   5.678
 8184SOL    HW125451   6.935   0.675   5.691
 8184SOL    HW225452   6.832   0.606   5.585
 8185SOL     OW25453   2.829   0.739   1.164
 8185SOL    HW125454   2.919   0.773   1.192
 8185SOL    HW225455   2.794   0.793   1.088
 8186SOL     OW25456   3.540   6.156   5.918
 8186SOL    HW125457   3.569   6.107   6.000
 8186SOL    HW225458   3.444   6.183   5.928
 8187SOL     OW25459   1.625   1.679   5.142
 8187SOL    HW125460   1.621   1.738   5.061
 8187SOL    HW225461   1.558   1.709   5.209
 8188SOL     OW25462   5.334   1.920   2.388
 8188SOL    HW125463   5.237   1.925   2.411
 8188SOL    HW225464   5.388   1.957   2.463
 8189SOL     OW25465   5.670   4.610   2.390
 8189SOL    HW125466   5.720   4.663   2.458
 8189SOL    HW225467   5.637   4.525   2.431
 8190SOL     OW25468   5.326   3.820   4.320
 8190SOL    HW125469   5.256   3.788   4.383
 8190SOL    HW225470   5.396   3.750   4.308
 8191SOL     OW25471   1.018   5.770   4.028
 8191SOL    HW125472   1.068   5.712   4.092
 8191SOL    HW225473   0.924   5.783   4.060
 8192SOL     OW25474   2.658   5.695   1.555
 8192SOL    HW125475   2.739   5.643   1.580
 8192SOL    HW225476   2.681   5.792   1.548
 8193SOL     OW25477   5.112   6.565   5.033
 8193SOL    HW125478   5.042   6.616   4.983
 8193SOL    HW225479   5.114   6.596   5.129
 8194SOL     OW25480   6.509   1.464   6.880
 8194SOL    HW125481   6.467   1.433   6.965
 8194SOL    HW225482   6.444   1.456   6.805
 8195SOL     OW25483   6.838   0.278   0.270
 8195SOL    HW125484   6.777   0.347   0.231
 8195SOL    HW225485   6.932   0.298   0.243
 8196SOL     OW25486   3.729   6.824   6.253
 8196SOL    HW125487   3.674   6.862   6.179
 8196SOL    HW225488   3.705   6.869   6.339
 8197SOL     OW25489   6.666   0.748   6.247
 8197SOL    HW125490   6.666   0.716   6.342
 8197SOL    HW225491   6.756   0.732   6.206
 8198SOL     OW25492   2.716   6.673   2.951
 8198SOL    HW125493   2.665   6.738   2.895
 8198SOL    HW225494   2.789   6.632   2.897
 8199SOL     OW25495   0.638   4.262   0.185
 8199SOL    HW125496   0.725   4.271   0.136
 8199SOL    HW225497   0.634   4.331   0.257
 8200SOL     OW25498   4.671   4.000   1.734
 8200SOL    HW125499   4.648   4.097   1.726
 8200SOL    HW225500   4.594   3.945   1.701
 8201SOL     OW25501   5.407   0.389   3.999
 8201SOL    HW125502   5.383   0.481   3.967
 8201SOL    HW225503   5.360   0.321   3.942
 8202SOL     OW25504   1.704   4.812   3.757
 8202SOL    HW125505   1.606   4.812   3.779
 8202SOL    HW225506   1.721   4.877   3.683
 8203SOL     OW25507   5.057   3.739   1.468
 8203SOL    HW125508   4.980   3.735   1.404
 8203SOL    HW225509   5.026   3.710   1.558
 8204SOL     OW25510   3.312   6.773   2.387
 8204SOL    HW125511   3.298   6.695   2.327
 8204SOL    HW225512   3.366   6.745   2.466
 8205SOL     OW25513   5.370   5.318   1.892
 8205SOL    HW125514   5.366   5.415   1.869
 8205SOL    HW225515   5.302   5.268   1.839
 8206SOL     OW25516   4.099   2.077   5.509
 8206SOL    HW125517   4.074   1.997   5.456
 8206SOL    HW225518   4.166   2.132   5.459
 8207SOL     OW25519   3.430   5.036   5.884
 8207SOL    HW125520   3.469   4.991   5.964
 8207SOL    HW225521   3.474   5.125   5.871
 8208SOL     OW25522   1.925   5.131   1.925
 8208SOL    HW125523   1.928   5.043   1.878
 8208SOL    HW225524   1.971   5.200   1.870
 8209SOL     OW25525   1.478   1.008   5.096
 8209SOL    HW125526   1.455   1.024   5.000
 8209SOL    HW225527   1.477   1.094   5.146
 8210SOL     OW25528   1.975   1.137   0.450
 8210SOL    HW125529   2.000   1.112   0.544
 8210SOL    HW225530   2.055   1.172   0.402
 8211SOL     OW25531   3.006   3.823   4.063
 8211SOL    HW125532   3.023   3.916   4.030
 8211SOL    HW225533   2.978   3.765   3.986
 8212SOL     OW25534   2.148   6.887   1.526
 8212SOL    HW125535   2.149   6.868   1.427
 8212SOL    HW225536   2.199   6.817   1.574
 8213SOL     OW25537   4.310   4.490   1.781
 8213SOL    HW125538   4.224   4.465   1.737
 8213SOL    HW225539   4.358   4.407   1.811
 8214SOL     OW25540   3.146   5.291   4.380
 8214SOL    HW125541   3.210   5.299   4.457
 8214SOL    HW225542   3.196   5.298   4.294
 8215SOL     OW25543   3.665   6.261   0.398
 8215SOL    HW125544   3.628   6.170   0.380
 8215SOL    HW225545   3.685   6.307   0.312
 8216SOL     OW25546   4.676   6.383   2.484
 8216SOL    HW125547   4.583   6.356   2.510
 8216SOL    HW225548   4.733   6.301   2.476
 8217SOL     OW25549   2.495   5.088   3.604
 8217SOL    HW125550   2.454   5.060   3.517
 8217SOL    HW225551   2.592   5.064   3.605
 8218SOL     OW25552   1.886   0.182   4.719
 8218SOL    HW125553   1.789   0.170   4.741
 8218SOL    HW225554   1.926   0.094   4.695
 8219SOL     OW25555   4.108   3.407   0.887
 8219SOL    HW125556   4.150   3.336   0.831
 8219SOL    HW225557   4.112   3.380   0.983
 8220SOL     OW25558   3.822   4.149   4.841
 8220SOL    HW125559   3.879   4.227   4.867
 8220SOL    HW225560   3.879   4.066   4.838
 8221SOL     OW25561   5.974   3.097   3.913
 8221SOL    HW125562   5.896   3.076   3.854
 8221SOL    HW225563   5.941   3.128   4.002
 8222SOL     OW25564   5.953   2.288   1.546
 8222SOL    HW125565   6.019   2.362   1.561
 8222SOL    HW225566   5.861   2.319   1.569
 8223SOL     OW25567   6.830   5.741   5.460
 8223SOL    HW125568   6.808   5.703   5.370
 8223SOL    HW225569   6.824   5.670   5.530
 8224SOL     OW25570   5.182   1.796   6.955
 8224SOL    HW125571   5.117   1.756   6.891
 8224SOL    HW225572   5.133   1.835   0.001
 8225SOL     OW25573   4.718   1.579   0.202
 8225SOL    HW125574   4.688   1.614   0.113
 8225SOL    HW225575   4.664   1.499   0.227
 8226SOL     OW25576   3.596   0.662   0.209
 8226SOL    HW125577   3.502   0.666   0.178
 8226SOL    HW225578   3.658   0.684   0.133
 8227SOL     OW25579   5.507   1.883   2.881
 8227SOL    HW125580   5.466   1.961   2.928
 8227SOL    HW225581   5.501   1.802   2.940
 8228SOL     OW25582   0.770   1.008   5.516
 8228SOL    HW125583   0.728   1.087   5.471
 8228SOL    HW225584   0.709   0.974   5.588
 8229SOL     OW25585   4.347   4.668   1.329
 8229SOL    HW125586   4.424   4.701   1.276
 8229SOL    HW225587   4.328   4.573   1.303
 8230SOL     OW25588   4.351   0.842   6.121
 8230SOL    HW125589   4.395   0.919   6.168
 8230SOL    HW225590   4.253   0.843   6.141
 8231SOL     OW25591   3.143   1.539   1.953
 8231SOL    HW125592   3.232   1.540   1.906
 8231SOL    HW225593   3.079   1.481   1.903
 8232SOL     OW25594   4.313   0.109   2.673
 8232SOL    HW125595   4.234   0.076   2.622
 8232SOL    HW225596   4.380   0.148   2.609
 8233SOL     OW25597   0.463   0.907   5.371
 8233SOL    HW125598   0.392   0.928   5.303
 8233SOL    HW225599   0.552   0.937   5.336
 8234SOL     OW25600   2.482   2.369   0.131
 8234SOL    HW125601   2.536   2.415   0.202
 8234SOL    HW225602   2.385   2.377   0.152
 8235SOL     OW25603   7.018   5.481   0.423
 8235SOL    HW125604   6.977   5.572   0.430
 8235SOL    HW225605   0.084   5.486   0.444
 8236SOL     OW25606   1.182   6.582   5.963
 8236SOL    HW125607   1.130   6.498   5.948
 8236SOL    HW225608   1.134   6.659   5.921
 8237SOL     OW25609   4.520   5.336   5.910
 8237SOL    HW125610   4.585   5.409   5.890
 8237SOL    HW225611   4.474   5.308   5.826
 8238SOL     OW25612   2.162   4.686   0.683
 8238SOL    HW125613   2.161   4.586   0.681
 8238SOL    HW225614   2.241   4.718   0.735
 8239SOL     OW25615   0.547   1.904   5.374
 8239SOL    HW125616   0.595   1.992   5.380
 8239SOL    HW225617   0.533   1.880   5.278
 8240SOL     OW25618   3.489   3.952   5.062
 8240SOL    HW125619   3.537   4.026   5.016
 8240SOL    HW225620   3.555   3.883   5.093
 8241SOL     OW25621   1.741   3.647   6.474
 8241SOL    HW125622   1.758   3.552   6.448
 8241SOL    HW225623   1.643   3.665   6.472
 8242SOL     OW25624   1.201   4.071   4.281
 8242SOL    HW125625   1.188   4.133   4.358
 8242SOL    HW225626   1.222   4.124   4.199
 8243SOL     OW25627   0.519   4.747   4.815
 8243SOL    HW125628   0.553   4.819   4.876
 8243SOL    HW225629   0.424   4.766   4.792
 8244SOL     OW25630   1.767   0.255   3.651
 8244SOL    HW125631   1.845   0.312   3.625
 8244SOL    HW225632   1.686   0.313   3.662
 8245SOL     OW25633   5.471   1.113   4.150
 8245SOL    HW125634   5.390   1.171   4.144
 8245SOL    HW225635   5.521   1.133   4.235
 8246SOL     OW25636   1.507   4.442   6.913
 8246SOL    HW125637   1.483   4.345   6.921
 8246SOL    HW225638   1.428   4.498   6.938
 8247SOL     OW25639   2.968   5.612   3.493
 8247SOL    HW125640   2.909   5.567   3.560
 8247SOL    HW225641   3.024   5.543   3.447
 8248SOL     OW25642   0.902   5.076   3.021
 8248SOL    HW125643   0.901   5.013   3.098
 8248SOL    HW225644   0.808   5.087   2.986
 8249SOL     OW25645   2.455   2.110   6.183
 8249SOL    HW125646   2.458   2.180   6.112
 8249SOL    HW225647   2.364   2.068   6.185
 8250SOL     OW25648   1.770   1.501   6.243
 8250SOL    HW125649   1.730   1.559   6.172
 8250SOL    HW225650   1.763   1.547   6.332
 8251SOL     OW25651   0.054   2.673   4.819
 8251SOL    HW125652   0.106   2.657   4.735
 8251SOL    HW225653   0.013   2.587   4.849
 8252SOL     OW25654   1.606   2.377   6.590
 8252SOL    HW125655   1.625   2.458   6.646
 8252SOL    HW225656   1.621   2.399   6.494
 8253SOL     OW25657   3.900   5.812   0.437
 8253SOL    HW125658   3.808   5.829   0.472
 8253SOL    HW225659   3.898   5.810   0.337
 8254SOL     OW25660   5.373   5.327   0.655
 8254SOL    HW125661   5.398   5.316   0.751
 8254SOL    HW225662   5.455   5.322   0.598
 8255SOL     OW25663   0.520   6.503   6.190
 8255SOL    HW125664   0.471   6.458   6.115
 8255SOL    HW225665   0.619   6.497   6.174
 8256SOL     OW25666   1.750   5.780   2.764
 8256SOL    HW125667   1.733   5.804   2.668
 8256SOL    HW225668   1.707   5.692   2.784
 8257SOL     OW25669   4.740   4.110   4.135
 8257SOL    HW125670   4.697   4.020   4.147
 8257SOL    HW225671   4.798   4.108   4.054
 8258SOL     OW25672   6.381   3.543   2.001
 8258SOL    HW125673   6.445   3.617   2.025
 8258SOL    HW225674   6.363   3.488   2.082
 8259SOL     OW25675   4.413   1.856   3.898
 8259SOL    HW125676   4.465   1.840   3.982
 8259SOL    HW225677   4.412   1.772   3.844
 8260SOL     OW25678   3.028   0.513   0.986
 8260SOL    HW125679   3.033   0.612   0.999
 8260SOL    HW225680   3.000   0.470   1.072
 8261SOL     OW25681   5.277   0.559   3.564
 8261SOL    HW125682   5.252   0.580   3.470
 8261SOL    HW225683   5.211   0.495   3.603
 8262SOL     OW25684   0.034   3.778   1.664
 8262SOL    HW125685   0.035   3.877   1.647
 8262SOL    HW225686   0.045   3.729   1.577
 8263SOL     OW25687   0.009   2.329   6.531
 8263SOL    HW125688   0.100   2.301   6.501
 8263SOL    HW225689   7.028   2.426   6.509
 8264SOL     OW25690   1.421   6.366   3.356
 8264SOL    HW125691   1.416   6.389   3.453
 8264SOL    HW225692   1.329   6.369   3.317
 8265SOL     OW25693   5.566   0.740   0.919
 8265SOL    HW125694   5.505   0.810   0.883
 8265SOL    HW225695   5.602   0.770   1.008
 8266SOL     OW25696   2.321   0.140   3.982
 8266SOL    HW125697   2.311   0.215   4.047
 8266SOL    HW225698   2.310   0.053   4.031
 8267SOL     OW25699   1.784   3.793   3.185
 8267SOL    HW125700   1.689   3.820   3.201
 8267SOL    HW225701   1.790   3.740   3.101
 8268SOL     OW25702   3.363   4.356   6.313
 8268SOL    HW125703   3.450   4.334   6.269
 8268SOL    HW225704   3.338   4.282   6.377
 8269SOL     OW25705   4.552   2.159   3.251
 8269SOL    HW125706   4.472   2.155   3.311
 8269SOL    HW225707   4.627   2.205   3.298
 8270SOL     OW25708   3.898   0.024   6.107
 8270SOL    HW125709   3.977   7.012   6.064
 8270SOL    HW225710   3.929   0.097   6.168
 8271SOL     OW25711   4.553   6.331   5.180
 8271SOL    HW125712   4.622   6.400   5.203
 8271SOL    HW225713   4.550   6.318   5.081
 8272SOL     OW25714   0.437   6.913   1.414
 8272SOL    HW125715   0.431   7.006   1.378
 8272SOL    HW225716   0.428   6.915   1.514
 8273SOL     OW25717   2.950   6.450   6.843
 8273SOL    HW125718   2.939   6.493   6.754
 8273SOL    HW225719   3.031   6.488   6.889
 8274SOL     OW25720   4.932   6.409   6.448
 8274SOL    HW125721   4.957   6.500   6.480
 8274SOL    HW225722   4.873   6.365   6.517
 8275SOL     OW25723   5.947   1.056   4.810
 8275SOL    HW125724   5.983   1.094   4.895
 8275SOL    HW225725   6.014   1.067   4.737
 8276SOL     OW25726   6.521   3.218   6.652
 8276SOL    HW125727   6.496   3.208   6.748
 8276SOL    HW225728   6.571   3.137   6.622
 8277SOL     OW25729   0.994   5.303   6.208
 8277SOL    HW125730   1.066   5.298   6.139
 8277SOL    HW225731   1.035   5.292   6.299
 8278SOL     OW25732   3.881   1.276   0.111
 8278SOL    HW125733   3.812   1.337   0.150
 8278SOL    HW225734   3.839   1.189   0.086
 8279SOL     OW25735   4.966   5.718   5.990
 8279SOL    HW125736   5.055   5.724   5.944
 8279SOL    HW225737   4.899   5.675   5.928
 8280SOL     OW25738   5.480   3.082   0.223
 8280SOL    HW125739   5.381   3.068   0.229
 8280SOL    HW225740   5.516   3.102   0.314
 8281SOL     OW25741   2.099   4.748   6.895
 8281SOL    HW125742   2.128   4.657   6.925
 8281SOL    HW225743   2.040   4.788   6.965
 8282SOL     OW25744   3.014   2.970   0.871
 8282SOL    HW125745   3.047   2.891   0.819
 8282SOL    HW225746   2.934   2.943   0.925
 8283SOL     OW25747   0.111   4.782   3.147
 8283SOL    HW125748   0.038   4.784   3.215
 8283SOL    HW225749   0.126   4.875   3.113
 8284SOL     OW25750   2.067   2.285   2.056
 8284SOL    HW125751   1.977   2.292   2.100
 8284SOL    HW225752   2.138   2.316   2.120
 8285SOL     OW25753   3.247   4.265   5.870
 8285SOL    HW125754   3.254   4.359   5.903
 8285SOL    HW225755   3.194   4.211   5.936
 8286SOL     OW25756   5.420   0.940   4.948
 8286SOL    HW125757   5.502   0.998   4.952
 8286SOL    HW225758   5.436   0.858   5.004
 8287SOL     OW25759   2.009   0.403   3.620
 8287SOL    HW125760   2.018   0.461   3.701
 8287SOL    HW225761   1.991   0.459   3.540
 8288SOL     OW25762   1.307   1.334   2.544
 8288SOL    HW125763   1.342   1.284   2.624
 8288SOL    HW225764   1.211   1.358   2.560
 8289SOL     OW25765   6.549   1.517   5.367
 8289SOL    HW125766   6.495   1.583   5.419
 8289SOL    HW225767   6.554   1.431   5.418
 8290SOL     OW25768   3.574   2.560   1.734
 8290SOL    HW125769   3.562   2.606   1.822
 8290SOL    HW225770   3.638   2.483   1.745
 8291SOL     OW25771   6.035   5.890   6.230
 8291SOL    HW125772   6.098   5.936   6.292
 8291SOL    HW225773   6.078   5.806   6.195
 8292SOL     OW25774   1.367   3.774   4.594
 8292SOL    HW125775   1.361   3.735   4.686
 8292SOL    HW225776   1.276   3.776   4.553
 8293SOL     OW25777   2.649   5.584   3.137
 8293SOL    HW125778   2.702   5.655   3.091
 8293SOL    HW225779   2.711   5.525   3.190
 8294SOL     OW25780   6.409   3.826   5.965
 8294SOL    HW125781   6.452   3.760   6.026
 8294SOL    HW225782   6.322   3.790   5.932
 8295SOL     OW25783   4.612   4.328   2.282
 8295SOL    HW125784   4.669   4.410   2.275
 8295SOL    HW225785   4.559   4.317   2.198
 8296SOL     OW25786   3.736   6.671   1.269
 8296SOL    HW125787   3.645   6.657   1.231
 8296SOL    HW225788   3.758   6.596   1.333
 8297SOL     OW25789   6.159   4.641   2.902
 8297SOL    HW125790   6.220   4.565   2.879
 8297SOL    HW225791   6.139   4.694   2.819
 8298SOL     OW25792   6.621   0.398   6.407
 8298SOL    HW125793   6.696   0.370   6.346
 8298SOL    HW225794   6.538   0.348   6.383
 8299SOL     OW25795   0.855   3.995   1.715
 8299SOL    HW125796   0.866   3.941   1.799
 8299SOL    HW225797   0.814   3.938   1.644
 8300SOL     OW25798   6.000   5.062   3.230
 8300SOL    HW125799   6.006   5.153   3.189
 8300SOL    HW225800   6.001   5.070   3.330
 8301SOL     OW25801   4.105   6.507   0.711
 8301SOL    HW125802   4.042   6.581   0.734
 8301SOL    HW225803   4.188   6.545   0.670
 8302SOL     OW25804   3.540   6.886   5.265
 8302SOL    HW125805   3.460   6.843   5.221
 8302SOL    HW225806   3.619   6.825   5.257
 8303SOL     OW25807   6.500   6.500   2.951
 8303SOL    HW125808   6.592   6.529   2.925
 8303SOL    HW225809   6.432   6.554   2.900
 8304SOL     OW25810   5.887   4.187   3.291
 8304SOL    HW125811   5.816   4.129   3.330
 8304SOL    HW225812   5.845   4.262   3.240
 8305SOL     OW25813   5.348   5.731   4.327
 8305SOL    HW125814   5.265   5.763   4.373
 8305SOL    HW225815   5.377   5.799   4.260
 8306SOL     OW25816   6.210   1.057   2.360
 8306SOL    HW125817   6.160   0.989   2.308
 8306SOL    HW225818   6.226   1.138   2.304
 8307SOL     OW25819   2.366   4.771   2.393
 8307SOL    HW125820   2.273   4.763   2.429
 8307SOL    HW225821   2.403   4.680   2.375
 8308SOL     OW25822   1.415   5.084   0.053
 8308SOL    HW125823   1.446   5.178   0.070
 8308SOL    HW225824   1.338   5.063   0.114
 8309SOL     OW25825   6.095   4.263   4.361
 8309SOL    HW125826   6.177   4.295   4.313
 8309SOL    HW225827   6.043   4.202   4.301
 8310SOL     OW25828   0.732   6.544   0.166
 8310SOL    HW125829   0.693   6.574   0.079
 8310SOL    HW225830   0.828   6.571   0.171
 8311SOL     OW25831   5.280   0.148   4.249
 8311SOL    HW125832   5.284   0.096   4.335
 8311SOL    HW225833   5.315   0.240   4.265
 8312SOL     OW25834   5.356   1.389   6.522
 8312SOL    HW125835   5.446   1.432   6.512
 8312SOL    HW225836   5.341   1.324   6.447
 8313SOL     OW25837   4.417   1.499   4.818
 8313SOL    HW125838   4.430   1.406   4.853
 8313SOL    HW225839   4.504   1.546   4.816
 8314SOL     OW25840   4.989   6.242   5.784
 8314SOL    HW125841   5.086   6.263   5.778
 8314SOL    HW225842   4.938   6.325   5.807
 8315SOL     OW25843   3.704   3.547   4.839
 8315SOL    HW125844   3.677   3.463   4.888
 8315SOL    HW225845   3.680   3.538   4.742
 8316SOL     OW25846   1.581   2.583   6.915
 8316SOL    HW125847   1.646   2.578   6.840
 8316SOL    HW225848   1.604   2.514   6.984
 8317SOL     OW25849   1.574   1.425   3.399
 8317SOL    HW125850   1.613   1.513   3.426
 8317SOL    HW225851   1.480   1.439   3.366
 8318SOL     OW25852   4.341   6.902   0.042
 8318SOL    HW125853   4.261   6.846   0.067
 8318SOL    HW225854   4.381   6.868   6.989
 8319SOL     OW25855   2.203   6.992   6.305
 8319SOL    HW125856   2.129   6.997   6.238
 8319SOL    HW225857   2.165   6.990   6.397
 8320SOL     OW25858   2.970   3.665   4.406
 8320SOL    HW125859   2.918   3.726   4.346
 8320SOL    HW225860   3.024   3.719   4.470
 8321SOL     OW25861   6.321   6.325   0.505
 8321SOL    HW125862   6.373   6.405   0.536
 8321SOL    HW225863   6.296   6.269   0.584
 8322SOL     OW25864   7.011   0.655   0.019
 8322SOL    HW125865   7.024   0.718   6.974
 8322SOL    HW225866   0.029   0.688   0.099
 8323SOL     OW25867   4.596   4.741   1.210
 8323SOL    HW125868   4.668   4.676   1.235
 8323SOL    HW225869   4.616   4.830   1.251
 8324SOL     OW25870   5.744   6.548   6.569
 8324SOL    HW125871   5.658   6.502   6.548
 8324SOL    HW225872   5.752   6.630   6.512
 8325SOL     OW25873   0.944   5.759   5.670
 8325SOL    HW125874   1.030   5.790   5.629
 8325SOL    HW225875   0.916   5.823   5.741
 8326SOL     OW25876   1.796   3.756   1.878
 8326SOL    HW125877   1.798   3.770   1.977
 8326SOL    HW225878   1.881   3.711   1.849
 8327SOL     OW25879   0.922   0.012   4.762
 8327SOL    HW125880   0.970   7.006   4.683
 8327SOL    HW225881   0.824   0.007   4.747
 8328SOL     OW25882   1.731   0.223   6.502
 8328SOL    HW125883   1.780   0.298   6.546
 8328SOL    HW225884   1.636   0.249   6.488
 8329SOL     OW25885   1.279   2.499   4.903
 8329SOL    HW125886   1.296   2.486   4.805
 8329SOL    HW225887   1.350   2.451   4.955
 8330SOL     OW25888   3.110   1.184   6.727
 8330SOL    HW125889   3.030   1.241   6.745
 8330SOL    HW225890   3.181   1.205   6.795
 8331SOL     OW25891   1.839   2.195   6.806
 8331SOL    HW125892   1.835   2.295   6.811
 8331SOL    HW225893   1.747   2.158   6.814
 8332SOL     OW25894   5.972   4.784   2.172
 8332SOL    HW125895   5.923   4.786   2.084
 8332SOL    HW225896   5.937   4.708   2.227
 8333SOL     OW25897   2.756   4.589   1.181
 8333SOL    HW125898   2.729   4.599   1.276
 8333SOL    HW225899   2.856   4.591   1.174
 8334SOL     OW25900   3.660   1.778   6.601
 8334SOL    HW125901   3.670   1.808   6.506
 8334SOL    HW225902   3.568   1.740   6.614
 8335SOL     OW25903   5.088   3.528   5.805
 8335SOL    HW125904   5.144   3.520   5.888
 8335SOL    HW225905   5.123   3.466   5.735
 8336SOL     OW25906   1.174   3.470   3.393
 8336SOL    HW125907   1.082   3.508   3.382
 8336SOL    HW225908   1.179   3.421   3.480
 8337SOL     OW25909   0.610   1.474   4.041
 8337SOL    HW125910   0.619   1.461   3.942
 8337SOL    HW225911   0.701   1.487   4.081
 8338SOL     OW25912   4.226   5.293   2.690
 8338SOL    HW125913   4.287   5.337   2.757
 8338SOL    HW225914   4.131   5.316   2.711
 8339SOL     OW25915   6.760   7.031   0.510
 8339SOL    HW125916   6.743   0.092   0.477
 8339SOL    HW225917   6.691   7.006   0.578
 8340SOL     OW25918   5.714   2.686   0.220
 8340SOL    HW125919   5.799   2.708   0.172
 8340SOL    HW225920   5.639   2.736   0.178
 8341SOL     OW25921   3.343   0.788   0.115
 8341SOL    HW125922   3.276   0.801   0.042
 8341SOL    HW225923   3.401   0.869   0.122
 8342SOL     OW25924   4.719   0.401   0.218
 8342SOL    HW125925   4.755   0.471   0.280
 8342SOL    HW225926   4.792   0.337   0.194
 8343SOL     OW25927   6.185   4.016   3.959
 8343SOL    HW125928   6.211   4.081   3.888
 8343SOL    HW225929   6.243   3.935   3.953
 8344SOL     OW25930   1.259   5.420   5.375
 8344SOL    HW125931   1.220   5.510   5.391
 8344SOL    HW225932   1.358   5.428   5.362
 8345SOL     OW25933   4.539   0.532   2.218
 8345SOL    HW125934   4.532   0.478   2.302
 8345SOL    HW225935   4.466   0.507   2.155
 8346SOL     OW25936   4.741   3.143   5.231
 8346SOL    HW125937   4.770   3.237   5.247
 8346SOL    HW225938   4.676   3.116   5.302
 8347SOL     OW25939   2.319   0.271   5.985
 8347SOL    HW125940   2.372   0.295   6.067
 8347SOL    HW225941   2.250   0.341   5.968
 8348SOL     OW25942   3.682   6.682   2.131
 8348SOL    HW125943   3.777   6.660   2.108
 8348SOL    HW225944   3.640   6.734   2.057
 8349SOL     OW25945   1.254   6.174   1.890
 8349SOL    HW125946   1.205   6.229   1.959
 8349SOL    HW225947   1.348   6.159   1.920
 8350SOL     OW25948   2.680   6.936   6.795
 8350SOL    HW125949   2.608   6.998   6.824
 8350SOL    HW225950   2.680   6.929   6.695
 8351SOL     OW25951   7.014   4.091   3.844
 8351SOL    HW125952   6.942   4.047   3.790
 8351SOL    HW225953   0.066   4.097   3.789
 8352SOL     OW25954   2.789   5.259   1.638
 8352SOL    HW125955   2.716   5.327   1.633
 8352SOL    HW225956   2.872   5.302   1.675
 8353SOL     OW25957   1.711   3.926   2.864
 8353SOL    HW125958   1.723   3.832   2.897
 8353SOL    HW225959   1.790   3.980   2.891
 8354SOL     OW25960   3.243   0.125   3.775
 8354SOL    HW125961   3.148   0.153   3.783
 8354SOL    HW225962   3.292   0.150   3.859
 8355SOL     OW25963   1.993   6.148   5.658
 8355SOL    HW125964   1.948   6.202   5.729
 8355SOL    HW225965   1.964   6.053   5.665
 8356SOL     OW25966   1.417   5.446   1.018
 8356SOL    HW125967   1.365   5.504   0.956
 8356SOL    HW225968   1.489   5.500   1.062
 8357SOL     OW25969   4.550   6.303   6.055
 8357SOL    HW125970   4.565   6.269   5.962
 8357SOL    HW225971   4.469   6.360   6.058
 8358SOL     OW25972   1.087   2.281   4.780
 8358SOL    HW125973   1.101   2.363   4.836
 8358SOL    HW225974   1.150   2.210   4.809
 8359SOL     OW25975   3.145   2.004   5.364
 8359SOL    HW125976   3.052   1.999   5.400
 8359SOL    HW225977   3.165   1.921   5.311
 8360SOL     OW25978   4.992   0.024   0.720
 8360SOL    HW125979   5.023   7.022   0.630
 8360SOL    HW225980   4.944   6.982   0.767
 8361SOL     OW25981   3.194   0.117   0.689
 8361SOL    HW125982   3.276   0.142   0.638
 8361SOL    HW225983   3.129   0.193   0.688
 8362SOL     OW25984   6.769   3.828   1.365
 8362SOL    HW125985   6.734   3.769   1.292
 8362SOL    HW225986   6.722   3.807   1.451
 8363SOL     OW25987   2.874   2.526   0.059
 8363SOL    HW125988   2.871   2.471   7.007
 8363SOL    HW225989   2.966   2.563   0.071
 8364SOL     OW25990   0.081   2.508   3.859
 8364SOL    HW125991   0.006   2.473   3.803
 8364SOL    HW225992   0.168   2.473   3.825
 8365SOL     OW25993   2.041   2.475   2.818
 8365SOL    HW125994   2.084   2.492   2.906
 8365SOL    HW225995   2.042   2.377   2.799
 8366SOL     OW25996   5.078   5.964   1.059
 8366SOL    HW125997   5.137   5.970   1.140
 8366SOL    HW225998   5.003   5.900   1.076
 8367SOL     OW25999   4.056   5.300   4.658
 8367SOL    HW126000   3.970   5.256   4.634
 8367SOL    HW226001   4.132   5.251   4.615
 8368SOL     OW26002   0.639   6.139   0.422
 8368SOL    HW126003   0.579   6.076   0.373
 8368SOL    HW226004   0.583   6.200   0.479
 8369SOL     OW26005   1.409   1.246   6.752
 8369SOL    HW126006   1.355   1.240   6.835
 8369SOL    HW226007   1.384   1.328   6.701
 8370SOL     OW26008   2.930   2.489   0.432
 8370SOL    HW126009   2.883   2.427   0.495
 8370SOL    HW226010   3.026   2.462   0.424
 8371SOL     OW26011   1.990   4.482   6.026
 8371SOL    HW126012   1.924   4.525   6.088
 8371SOL    HW226013   1.953   4.482   5.933
 8372SOL     OW26014   1.645   6.112   2.375
 8372SOL    HW126015   1.651   6.045   2.301
 8372SOL    HW226016   1.624   6.065   2.461
 8373SOL     OW26017   0.226   1.078   4.322
 8373SOL    HW126018   0.237   0.981   4.342
 8373SOL    HW226019   0.316   1.121   4.318
 8374SOL     OW26020   1.679   0.884   4.882
 8374SOL    HW126021   1.643   0.870   4.974
 8374SOL    HW226022   1.657   0.805   4.825
 8375SOL     OW26023   4.106   1.311   4.731
 8375SOL    HW126024   4.042   1.363   4.788
 8375SOL    HW226025   4.200   1.335   4.756
 8376SOL     OW26026   1.976   0.630   2.960
 8376SOL    HW126027   1.900   0.568   2.943
 8376SOL    HW226028   2.060   0.578   2.973
 8377SOL     OW26029   5.210   5.448   6.479
 8377SOL    HW126030   5.211   5.458   6.380
 8377SOL    HW226031   5.277   5.510   6.520
 8378SOL     OW26032   6.445   5.831   3.640
 8378SOL    HW126033   6.393   5.915   3.656
 8378SOL    HW226034   6.497   5.809   3.722
 8379SOL     OW26035   5.778   1.404   2.295
 8379SOL    HW126036   5.807   1.485   2.245
 8379SOL    HW226037   5.833   1.326   2.268
 8380SOL     OW26038   6.490   5.560   0.728
 8380SOL    HW126039   6.409   5.563   0.786
 8380SOL    HW226040   6.463   5.539   0.634
 8381SOL     OW26041   0.126   1.626   2.688
 8381SOL    HW126042   0.069   1.698   2.649
 8381SOL    HW226043   0.209   1.616   2.633
 8382SOL     OW26044   2.682   0.468   0.512
 8382SOL    HW126045   2.694   0.368   0.506
 8382SOL    HW226046   2.594   0.493   0.473
 8383SOL     OW26047   2.898   6.297   5.190
 8383SOL    HW126048   2.992   6.312   5.159
 8383SOL    HW226049   2.844   6.259   5.115
 8384SOL     OW26050   0.532   2.688   0.919
 8384SOL    HW126051   0.434   2.709   0.910
 8384SOL    HW226052   0.551   2.602   0.872
 8385SOL     OW26053   4.519   3.446   0.620
 8385SOL    HW126054   4.601   3.503   0.628
 8385SOL    HW226055   4.491   3.441   0.524
 8386SOL     OW26056   1.765   5.619   1.977
 8386SOL    HW126057   1.766   5.710   1.934
 8386SOL    HW226058   1.858   5.593   2.000
 8387SOL     OW26059   1.776   1.214   1.506
 8387SOL    HW126060   1.772   1.127   1.557
 8387SOL    HW226061   1.819   1.198   1.417
 8388SOL     OW26062   3.191   6.509   0.689
 8388SOL    HW126063   3.287   6.525   0.715
 8388SOL    HW226064   3.131   6.552   0.757
 8389SOL     OW26065   1.171   2.222   4.479
 8389SOL    HW126066   1.182   2.283   4.557
 8389SOL    HW226067   1.201   2.130   4.504
 8390SOL     OW26068   1.821   0.617   5.890
 8390SOL    HW126069   1.873   0.573   5.963
 8390SOL    HW226070   1.864   0.703   5.864
 8391SOL     OW26071   4.885   5.591   1.713
 8391SOL    HW126072   4.947   5.566   1.638
 8391SOL    HW226073   4.842   5.508   1.748
 8392SOL     OW26074   5.746   6.416   5.067
 8392SOL    HW126075   5.658   6.408   5.114
 8392SOL    HW226076   5.763   6.333   5.013
 8393SOL     OW26077   0.312   6.001   3.077
 8393SOL    HW126078   0.226   5.958   3.051
 8393SOL    HW226079   0.295   6.071   3.146
 8394SOL     OW26080   0.805   1.655   3.358
 8394SOL    HW126081   0.724   1.606   3.327
 8394SOL    HW226082   0.853   1.692   3.279
 8395SOL     OW26083   0.148   6.586   4.600
 8395SOL    HW126084   0.231   6.537   4.572
 8395SOL    HW226085   0.077   6.521   4.624
 8396SOL     OW26086   4.584   4.323   2.542
 8396SOL    HW126087   4.525   4.401   2.564
 8396SOL    HW226088   4.578   4.303   2.444
 8397SOL     OW26089   1.644   6.055   2.702
 8397SOL    HW126090   1.684   5.971   2.738
 8397SOL    HW226091   1.547   6.059   2.727
 8398SOL     OW26092   4.343   1.593   0.050
 8398SOL    HW126093   4.258   1.559   0.090
 8398SOL    HW226094   4.375   1.672   0.103
 8399SOL     OW26095   5.663   6.344   0.313
 8399SOL    HW126096   5.717   6.267   0.348
 8399SOL    HW226097   5.566   6.321   0.318
 8400SOL     OW26098   0.177   0.170   2.635
 8400SOL    HW126099   0.136   0.079   2.642
 8400SOL    HW226100   0.129   0.223   2.565
 8401SOL     OW26101   3.774   3.923   6.272
 8401SOL    HW126102   3.873   3.908   6.264
 8401SOL    HW226103   3.726   3.868   6.204
 8402SOL     OW26104   3.737   1.932   6.364
 8402SOL    HW126105   3.651   1.882   6.352
 8402SOL    HW226106   3.720   2.030   6.351
 8403SOL     OW26107   1.484   1.476   4.297
 8403SOL    HW126108   1.509   1.388   4.339
 8403SOL    HW226109   1.388   1.496   4.316
 8404SOL     OW26110   4.724   6.006   5.733
 8404SOL    HW126111   4.756   5.933   5.672
 8404SOL    HW226112   4.745   5.982   5.827
 8405SOL     OW26113   0.297   2.626   6.348
 8405SOL    HW126114   0.384   2.579   6.360
 8405SOL    HW226115   0.276   2.679   6.430
 8406SOL     OW26116   4.811   2.212   1.049
 8406SOL    HW126117   4.841   2.117   1.056
 8406SOL    HW226118   4.714   2.219   1.072
 8407SOL     OW26119   5.595   4.249   4.041
 8407SOL    HW126120   5.626   4.209   4.128
 8407SOL    HW226121   5.636   4.198   3.965
 8408SOL     OW26122   4.952   1.126   4.153
 8408SOL    HW126123   4.910   1.061   4.089
 8408SOL    HW226124   4.955   1.217   4.112
 8409SOL     OW26125   1.210   1.467   4.075
 8409SOL    HW126126   1.285   1.402   4.062
 8409SOL    HW226127   1.241   1.558   4.048
 8410SOL     OW26128   4.189   6.954   1.633
 8410SOL    HW126129   4.234   0.000   1.591
 8410SOL    HW226130   4.254   6.905   1.691
 8411SOL     OW26131   1.690   4.541   4.347
 8411SOL    HW126132   1.641   4.511   4.266
 8411SOL    HW226133   1.788   4.541   4.330
 8412SOL     OW26134   4.466   2.446   1.934
 8412SOL    HW126135   4.450   2.512   1.862
 8412SOL    HW226136   4.380   2.404   1.962
 8413SOL     OW26137   3.475   5.190   0.500
 8413SOL    HW126138   3.553   5.146   0.456
 8413SOL    HW226139   3.418   5.121   0.544
 8414SOL     OW26140   3.993   5.986   3.389
 8414SOL    HW126141   3.986   5.886   3.395
 8414SOL    HW226142   3.969   6.026   3.477
 8415SOL     OW26143   7.020   4.051   3.496
 8415SOL    HW126144   0.083   4.067   3.523
 8415SOL    HW226145   6.985   4.130   3.447
 8416SOL     OW26146   5.139   3.944   2.579
 8416SOL    HW126147   5.214   3.915   2.520
 8416SOL    HW226148   5.097   4.027   2.542
 8417SOL     OW26149   2.178   6.222   6.370
 8417SOL    HW126150   2.142   6.132   6.392
 8417SOL    HW226151   2.268   6.213   6.327
 8418SOL     OW26152   6.109   5.850   2.660
 8418SOL    HW126153   6.067   5.940   2.671
 8418SOL    HW226154   6.197   5.849   2.708
 8419SOL     OW26155   4.273   0.332   2.385
 8419SOL    HW126156   4.351   0.276   2.412
 8419SOL    HW226157   4.234   0.294   2.301
 8420SOL     OW26158   3.870   0.449   6.662
 8420SOL    HW126159   3.843   0.441   6.566
 8420SOL    HW226160   3.961   0.410   6.675
 8421SOL     OW26161   1.838   6.805   2.166
 8421SOL    HW126162   1.874   6.863   2.093
 8421SOL    HW226163   1.762   6.851   2.211
 8422SOL     OW26164   4.999   6.958   0.460
 8422SOL    HW126165   4.991   6.863   0.428
 8422SOL    HW226166   4.949   7.018   0.398
 8423SOL     OW26167   3.592   4.838   0.248
 8423SOL    HW126168   3.635   4.748   0.245
 8423SOL    HW226169   3.540   4.853   0.164
 8424SOL     OW26170   3.338   1.742   2.544
 8424SOL    HW126171   3.285   1.765   2.462
 8424SOL    HW226172   3.277   1.702   2.613
 8425SOL     OW26173   6.224   5.044   1.627
 8425SOL    HW126174   6.194   4.962   1.675
 8425SOL    HW226175   6.273   5.103   1.691
 8426SOL     OW26176   3.833   3.508   3.775
 8426SOL    HW126177   3.785   3.467   3.697
 8426SOL    HW226178   3.786   3.592   3.801
 8427SOL     OW26179   1.783   3.746   6.827
 8427SOL    HW126180   1.807   3.677   6.895
 8427SOL    HW226181   1.818   3.719   6.738
 8428SOL     OW26182   0.488   4.479   2.276
 8428SOL    HW126183   0.511   4.463   2.180
 8428SOL    HW226184   0.404   4.532   2.282
 8429SOL     OW26185   2.288   5.528   3.728
 8429SOL    HW126186   2.356   5.458   3.706
 8429SOL    HW226187   2.216   5.488   3.785
 8430SOL     OW26188   4.704   4.585   2.904
 8430SOL    HW126189   4.800   4.567   2.883
 8430SOL    HW226190   4.691   4.684   2.911
 8431SOL     OW26191   3.653   4.696   1.186
 8431SOL    HW126192   3.561   4.731   1.206
 8431SOL    HW226193   3.675   4.716   1.090
 8432SOL     OW26194   4.267   5.460   6.289
 8432SOL    HW126195   4.207   5.441   6.211
 8432SOL    HW226196   4.333   5.531   6.263
 8433SOL     OW26197   1.036   3.020   6.647
 8433SOL    HW126198   1.067   3.008   6.553
 8433SOL    HW226199   1.042   2.933   6.695
 8434SOL     OW26200   4.820   6.438   5.865
 8434SOL    HW126201   4.773   6.525   5.851
 8434SOL    HW226202   4.759   6.375   5.912
 8435SOL     OW26203   4.255   2.118   1.046
 8435SOL    HW126204   4.298   2.207   1.035
 8435SOL    HW226205   4.296   2.071   1.125
 8436SOL     OW26206   4.116   4.778   2.452
 8436SOL    HW126207   4.165   4.863   2.476
 8436SOL    HW226208   4.108   4.771   2.353
 8437SOL     OW26209   0.439   0.873   0.857
 8437SOL    HW126210   0.356   0.817   0.854
 8437SOL    HW226211   0.443   0.930   0.775
 8438SOL     OW26212   2.762   4.712   2.512
 8438SOL    HW126213   2.709   4.796   2.527
 8438SOL    HW226214   2.757   4.687   2.415
 8439SOL     OW26215   6.875   5.310   2.185
 8439SOL    HW126216   6.803   5.337   2.249
 8439SOL    HW226217   6.964   5.326   2.227
 8440SOL     OW26218   6.841   0.647   1.402
 8440SOL    HW126219   6.935   0.651   1.369
 8440SOL    HW226220   6.837   0.685   1.495
 8441SOL     OW26221   5.355   5.885   6.933
 8441SOL    HW126222   5.271   5.831   6.943
 8441SOL    HW226223   5.346   5.970   6.984
 8442SOL     OW26224   2.683   4.478   0.184
 8442SOL    HW126225   2.735   4.425   0.117
 8442SOL    HW226226   2.665   4.570   0.149
 8443SOL     OW26227   0.808   0.614   3.280
 8443SOL    HW126228   0.810   0.644   3.375
 8443SOL    HW226229   0.845   0.521   3.274
 8444SOL     OW26230   3.914   6.444   4.249
 8444SOL    HW126231   3.984   6.509   4.219
 8444SOL    HW226232   3.835   6.448   4.187
 8445SOL     OW26233   3.569   5.417   3.198
 8445SOL    HW126234   3.479   5.402   3.155
 8445SOL    HW226235   3.634   5.447   3.129
 8446SOL     OW26236   5.373   5.454   3.210
 8446SOL    HW126237   5.275   5.459   3.230
 8446SOL    HW226238   5.387   5.452   3.111
 8447SOL     OW26239   5.188   2.581   1.569
 8447SOL    HW126240   5.195   2.576   1.669
 8447SOL    HW226241   5.096   2.610   1.543
 8448SOL     OW26242   0.161   3.982   6.118
 8448SOL    HW126243   0.101   3.933   6.055
 8448SOL    HW226244   0.218   3.916   6.167
 8449SOL     OW26245   0.403   3.413   4.774
 8449SOL    HW126246   0.366   3.505   4.786
 8449SOL    HW226247   0.398   3.364   4.862
 8450SOL     OW26248   1.449   5.911   2.964
 8450SOL    HW126249   1.440   6.009   2.945
 8450SOL    HW226250   1.546   5.887   2.968
 8451SOL     OW26251   3.529   3.176   1.073
 8451SOL    HW126252   3.447   3.153   1.125
 8451SOL    HW226253   3.609   3.167   1.131
 8452SOL     OW26254   6.610   0.595   0.874
 8452SOL    HW126255   6.627   0.679   0.925
 8452SOL    HW226256   6.516   0.565   0.890
 8453SOL     OW26257   6.373   4.590   6.723
 8453SOL    HW126258   6.376   4.569   6.625
 8453SOL    HW226259   6.447   4.653   6.746
 8454SOL     OW26260   1.344   6.555   2.925
 8454SOL    HW126261   1.417   6.617   2.955
 8454SOL    HW226262   1.324   6.570   2.829
 8455SOL     OW26263   4.653   1.448   1.261
 8455SOL    HW126264   4.681   1.470   1.167
 8455SOL    HW226265   4.599   1.524   1.298
 8456SOL     OW26266   5.540   5.249   3.914
 8456SOL    HW126267   5.572   5.280   3.825
 8456SOL    HW226268   5.440   5.254   3.917
 8457SOL     OW26269   6.860   0.226   5.519
 8457SOL    HW126270   6.791   0.196   5.585
 8457SOL    HW226271   6.939   0.263   5.568
 8458SOL     OW26272   2.092   1.799   7.003
 8458SOL    HW126273   2.011   1.746   6.977
 8458SOL    HW226274   2.170   1.738   7.013
 8459SOL     OW26275   3.835   5.898   2.567
 8459SOL    HW126276   3.879   5.891   2.477
 8459SOL    HW226277   3.806   5.993   2.582
 8460SOL     OW26278   4.729   2.437   6.816
 8460SOL    HW126279   4.752   2.384   6.734
 8460SOL    HW226280   4.631   2.433   6.831
 8461SOL     OW26281   0.428   3.885   1.620
 8461SOL    HW126282   0.454   3.980   1.607
 8461SOL    HW226283   0.482   3.827   1.558
 8462SOL     OW26284   3.771   3.789   6.885
 8462SOL    HW126285   3.762   3.768   6.788
 8462SOL    HW226286   3.720   3.721   6.938
 8463SOL     OW26287   6.948   2.285   0.183
 8463SOL    HW126288   6.935   2.190   0.210
 8463SOL    HW226289   6.871   2.315   0.126
 8464SOL     OW26290   0.177   3.636   6.520
 8464SOL    HW126291   0.111   3.562   6.533
 8464SOL    HW226292   0.270   3.600   6.528
 8465SOL     OW26293   3.343   2.372   0.953
 8465SOL    HW126294   3.380   2.332   1.037
 8465SOL    HW226295   3.244   2.357   0.949
 8466SOL     OW26296   5.403   0.524   5.480
 8466SOL    HW126297   5.411   0.468   5.397
 8466SOL    HW226298   5.462   0.604   5.471
 8467SOL     OW26299   3.616   0.818   0.435
 8467SOL    HW126300   3.582   0.747   0.373
 8467SOL    HW226301   3.545   0.888   0.447
 8468SOL     OW26302   6.080   3.678   6.633
 8468SOL    HW126303   6.164   3.647   6.589
 8468SOL    HW226304   6.071   3.633   6.722
 8469SOL     OW26305   4.145   2.666   5.586
 8469SOL    HW126306   4.112   2.640   5.676
 8469SOL    HW226307   4.079   2.637   5.517
 8470SOL     OW26308   0.902   4.878   1.190
 8470SOL    HW126309   0.820   4.883   1.247
 8470SOL    HW226310   0.934   4.970   1.169
 8471SOL     OW26311   2.890   0.538   4.982
 8471SOL    HW126312   2.916   0.468   5.049
 8471SOL    HW226313   2.790   0.546   4.980
 8472SOL     OW26314   5.570   1.397   6.328
 8472SOL    HW126315   5.612   1.483   6.298
 8472SOL    HW226316   5.629   1.320   6.303
 8473SOL     OW26317   4.625   4.708   0.005
 8473SOL    HW126318   4.593   4.787   0.056
 8473SOL    HW226319   4.644   4.734   6.942
 8474SOL     OW26320   3.081   3.091   3.215
 8474SOL    HW126321   3.171   3.075   3.173
 8474SOL    HW226322   3.018   3.019   3.188
 8475SOL     OW26323   0.419   3.797   1.208
 8475SOL    HW126324   0.366   3.879   1.225
 8475SOL    HW226325   0.508   3.822   1.169
 8476SOL     OW26326   6.334   0.405   1.605
 8476SOL    HW126327   6.411   0.369   1.658
 8476SOL    HW226328   6.288   0.329   1.558
 8477SOL     OW26329   5.096   6.602   1.482
 8477SOL    HW126330   5.058   6.525   1.431
 8477SOL    HW226331   5.195   6.603   1.469
 8478SOL     OW26332   1.089   0.816   5.618
 8478SOL    HW126333   1.024   0.874   5.669
 8478SOL    HW226334   1.058   0.721   5.621
 8479SOL     OW26335   1.930   2.192   1.096
 8479SOL    HW126336   1.917   2.139   1.012
 8479SOL    HW226337   1.841   2.213   1.136
 8480SOL     OW26338   4.656   2.780   0.139
 8480SOL    HW126339   4.660   2.735   0.228
 8480SOL    HW226340   4.748   2.789   0.101
 8481SOL     OW26341   3.906   2.122   4.495
 8481SOL    HW126342   3.998   2.153   4.518
 8481SOL    HW226343   3.869   2.070   4.573
 8482SOL     OW26344   4.676   1.329   6.848
 8482SOL    HW126345   4.581   1.358   6.839
 8482SOL    HW226346   4.693   1.300   6.942
 8483SOL     OW26347   3.390   6.282   3.685
 8483SOL    HW126348   3.443   6.232   3.617
 8483SOL    HW226349   3.333   6.351   3.640
 8484SOL     OW26350   6.346   6.091   5.202
 8484SOL    HW126351   6.390   6.086   5.112
 8484SOL    HW226352   6.404   6.046   5.270
 8485SOL     OW26353   3.404   2.262   0.206
 8485SOL    HW126354   3.467   2.248   0.282
 8485SOL    HW226355   3.440   2.216   0.124
 8486SOL     OW26356   1.871   1.362   2.188
 8486SOL    HW126357   1.824   1.338   2.104
 8486SOL    HW226358   1.967   1.384   2.168
 8487SOL     OW26359   5.205   1.830   6.005
 8487SOL    HW126360   5.292   1.829   5.955
 8487SOL    HW226361   5.223   1.812   6.102
 8488SOL     OW26362   5.647   5.258   2.683
 8488SOL    HW126363   5.681   5.186   2.744
 8488SOL    HW226364   5.548   5.248   2.672
 8489SOL     OW26365   5.328   0.993   1.502
 8489SOL    HW126366   5.377   0.993   1.590
 8489SOL    HW226367   5.252   1.058   1.506
 8490SOL     OW26368   2.777   0.057   6.267
 8490SOL    HW126369   2.861   0.094   6.229
 8490SOL    HW226370   2.749   0.110   6.346
 8491SOL     OW26371   1.944   5.915   2.888
 8491SOL    HW126372   1.895   5.977   2.949
 8491SOL    HW226373   1.879   5.850   2.848
 8492SOL     OW26374   5.914   3.815   4.427
 8492SOL    HW126375   5.992   3.861   4.469
 8492SOL    HW226376   5.945   3.757   4.352
 8493SOL     OW26377   2.952   1.223   0.389
 8493SOL    HW126378   2.954   1.136   0.438
 8493SOL    HW226379   2.877   1.279   0.424
 8494SOL     OW26380   5.841   4.797   1.929
 8494SOL    HW126381   5.753   4.843   1.935
 8494SOL    HW226382   5.849   4.750   1.841
 8495SOL     OW26383   6.132   5.477   0.651
 8495SOL    HW126384   6.075   5.396   0.646
 8495SOL    HW226385   6.104   5.542   0.580
 8496SOL     OW26386   5.538   1.239   1.990
 8496SOL    HW126387   5.562   1.264   2.084
 8496SOL    HW226388   5.445   1.203   1.988
 8497SOL     OW26389   0.168   0.278   3.548
 8497SOL    HW126390   0.262   0.288   3.516
 8497SOL    HW226391   0.152   0.339   3.625
 8498SOL     OW26392   5.060   6.712   3.669
 8498SOL    HW126393   5.011   6.761   3.741
 8498SOL    HW226394   5.105   6.779   3.609
 8499SOL     OW26395   0.431   5.660   0.608
 8499SOL    HW126396   0.451   5.688   0.514
 8499SOL    HW226397   0.502   5.598   0.641
 8500SOL     OW26398   1.608   0.675   5.749
 8500SOL    HW126399   1.608   0.773   5.731
 8500SOL    HW226400   1.687   0.651   5.806
 8501SOL     OW26401   0.459   2.237   0.018
 8501SOL    HW126402   0.479   2.150   0.065
 8501SOL    HW226403   0.361   2.257   0.027
 8502SOL     OW26404   0.363   3.152   6.896
 8502SOL    HW126405   0.406   3.124   6.982
 8502SOL    HW226406   0.325   3.244   6.905
 8503SOL     OW26407   6.554   6.259   4.298
 8503SOL    HW126408   6.465   6.237   4.258
 8503SOL    HW226409   6.607   6.175   4.309
 8504SOL     OW26410   2.437   5.230   2.469
 8504SOL    HW126411   2.451   5.188   2.558
 8504SOL    HW226412   2.458   5.328   2.474
 8505SOL     OW26413   5.601   3.751   2.564
 8505SOL    HW126414   5.552   3.673   2.527
 8505SOL    HW226415   5.568   3.835   2.521
 8506SOL     OW26416   1.770   0.668   6.579
 8506SOL    HW126417   1.700   0.737   6.567
 8506SOL    HW226418   1.859   0.706   6.553
 8507SOL     OW26419   4.534   0.134   5.374
 8507SOL    HW126420   4.470   0.097   5.441
 8507SOL    HW226421   4.491   0.134   5.283
 8508SOL     OW26422   4.053   2.079   6.608
 8508SOL    HW126423   3.970   2.034   6.642
 8508SOL    HW226424   4.073   2.159   6.664
 8509SOL     OW26425   5.582   0.356   3.118
 8509SOL    HW126426   5.680   0.337   3.125
 8509SOL    HW226427   5.541   0.290   3.055
 8510SOL     OW26428   5.284   2.778   4.231
 8510SOL    HW126429   5.275   2.726   4.316
 8510SOL    HW226430   5.341   2.728   4.166
 8511SOL     OW26431   5.685   3.200   2.273
 8511SOL    HW126432   5.737   3.136   2.330
 8511SOL    HW226433   5.641   3.268   2.331
 8512SOL     OW26434   2.270   0.339   3.697
 8512SOL    HW126435   2.182   0.363   3.656
 8512SOL    HW226436   2.335   0.413   3.682
 8513SOL     OW26437   6.012   6.187   0.149
 8513SOL    HW126438   6.100   6.152   0.181
 8513SOL    HW226439   6.025   6.278   0.110
 8514SOL     OW26440   3.393   6.515   3.321
 8514SOL    HW126441   3.457   6.440   3.301
 8514SOL    HW226442   3.438   6.602   3.302
 8515SOL     OW26443   5.947   2.534   0.953
 8515SOL    HW126444   6.016   2.594   0.910
 8515SOL    HW226445   5.972   2.439   0.937
 8516SOL     OW26446   6.580   2.178   2.448
 8516SOL    HW126447   6.511   2.224   2.505
 8516SOL    HW226448   6.667   2.177   2.497
 8517SOL     OW26449   0.920   2.559   6.752
 8517SOL    HW126450   0.899   2.469   6.713
 8517SOL    HW226451   0.878   2.566   6.843
 8518SOL     OW26452   3.501   5.451   0.391
 8518SOL    HW126453   3.544   5.447   0.301
 8518SOL    HW226454   3.506   5.361   0.435
 8519SOL     OW26455   1.623   5.897   2.189
 8519SOL    HW126456   1.575   5.911   2.102
 8519SOL    HW226457   1.565   5.844   2.251
 8520SOL     OW26458   4.138   1.079   0.210
 8520SOL    HW126459   4.212   1.014   0.228
 8520SOL    HW226460   4.145   1.113   0.117
 8521SOL     OW26461   0.268   6.594   5.845
 8521SOL    HW126462   0.191   6.533   5.825
 8521SOL    HW226463   0.332   6.547   5.906
 8522SOL     OW26464   0.912   6.797   3.801
 8522SOL    HW126465   0.992   6.781   3.858
 8522SOL    HW226466   0.912   6.891   3.769
 8523SOL     OW26467   2.461   6.661   6.021
 8523SOL    HW126468   2.446   6.728   6.094
 8523SOL    HW226469   2.511   6.704   5.946
 8524SOL     OW26470   1.127   3.561   5.175
 8524SOL    HW126471   1.165   3.652   5.185
 8524SOL    HW226472   1.041   3.555   5.225
 8525SOL     OW26473   5.791   3.342   3.134
 8525SOL    HW126474   5.792   3.415   3.066
 8525SOL    HW226475   5.771   3.255   3.089
 8526SOL     OW26476   2.368   2.894   1.797
 8526SOL    HW126477   2.291   2.938   1.751
 8526SOL    HW226478   2.453   2.915   1.748
 8527SOL     OW26479   4.475   0.414   4.412
 8527SOL    HW126480   4.499   0.450   4.502
 8527SOL    HW226481   4.556   0.414   4.354
 8528SOL     OW26482   4.844   3.021   5.943
 8528SOL    HW126483   4.747   3.044   5.940
 8528SOL    HW226484   4.893   3.086   6.001
 8529SOL     OW26485   1.537   4.869   0.108
 8529SOL    HW126486   1.504   4.960   0.084
 8529SOL    HW226487   1.534   4.857   0.207
 8530SOL     OW26488   1.534   4.438   5.420
 8530SOL    HW126489   1.595   4.414   5.495
 8530SOL    HW226490   1.452   4.482   5.457
 8531SOL     OW26491   5.212   4.778   2.775
 8531SOL    HW126492   5.229   4.773   2.874
 8531SOL    HW226493   5.124   4.734   2.755
 8532SOL     OW26494   3.517   5.258   5.272
 8532SOL    HW126495   3.517   5.164   5.305
 8532SOL    HW226496   3.521   5.259   5.172
 8533SOL     OW26497   3.116   1.281   4.451
 8533SOL    HW126498   3.158   1.271   4.541
 8533SOL    HW226499   3.017   1.267   4.458
 8534SOL     OW26500   1.386   3.507   3.193
 8534SOL    HW126501   1.399   3.606   3.201
 8534SOL    HW226502   1.335   3.473   3.271
 8535SOL     OW26503   0.720   2.099   4.478
 8535SOL    HW126504   0.753   2.193   4.477
 8535SOL    HW226505   0.772   2.045   4.413
 8536SOL     OW26506   6.724   1.801   5.788
 8536SOL    HW126507   6.725   1.889   5.836
 8536SOL    HW226508   6.722   1.816   5.690
 8537SOL     OW26509   5.659   0.594   1.486
 8537SOL    HW126510   5.575   0.547   1.459
 8537SOL    HW226511   5.671   0.587   1.585
 8538SOL     OW26512   6.876   0.562   4.681
 8538SOL    HW126513   6.873   0.610   4.593
 8538SOL    HW226514   6.791   0.578   4.731
 8539SOL     OW26515   0.384   2.623   1.969
 8539SOL    HW126516   0.294   2.646   1.933
 8539SOL    HW226517   0.447   2.604   1.894
 8540SOL     OW26518   3.217   0.803   0.649
 8540SOL    HW126519   3.224   0.703   0.646
 8540SOL    HW226520   3.130   0.829   0.691
 8541SOL     OW26521   3.005   1.351   4.766
 8541SOL    HW126522   2.921   1.365   4.713
 8541SOL    HW226523   3.041   1.260   4.747
 8542SOL     OW26524   1.905   4.190   6.688
 8542SOL    HW126525   1.886   4.264   6.752
 8542SOL    HW226526   1.999   4.160   6.699
 8543SOL     OW26527   2.235   2.468   5.274
 8543SOL    HW126528   2.223   2.497   5.179
 8543SOL    HW226529   2.330   2.442   5.289
 8544SOL     OW26530   5.159   3.953   5.493
 8544SOL    HW126531   5.258   3.967   5.489
 8544SOL    HW226532   5.119   4.014   5.561
 8545SOL     OW26533   3.600   6.840   5.802
 8545SOL    HW126534   3.569   6.892   5.723
 8545SOL    HW226535   3.654   6.898   5.862
 8546SOL     OW26536   5.294   0.703   1.863
 8546SOL    HW126537   5.378   0.740   1.823
 8546SOL    HW226538   5.310   0.610   1.894
 8547SOL     OW26539   6.701   6.450   5.640
 8547SOL    HW126540   6.768   6.478   5.572
 8547SOL    HW226541   6.692   6.350   5.639
 8548SOL     OW26542   0.851   3.219   5.889
 8548SOL    HW126543   0.914   3.187   5.960
 8548SOL    HW226544   0.759   3.228   5.928
 8549SOL     OW26545   2.090   0.856   3.114
 8549SOL    HW126546   2.089   0.913   3.032
 8549SOL    HW226547   2.092   0.759   3.087
 8550SOL     OW26548   0.889   4.621   6.948
 8550SOL    HW126549   0.952   4.640   6.872
 8550SOL    HW226550   0.823   4.552   6.919
 8551SOL     OW26551   2.203   1.971   6.325
 8551SOL    HW126552   2.281   1.911   6.308
 8551SOL    HW226553   2.169   1.956   6.418
 8552SOL     OW26554   2.505   1.468   2.857
 8552SOL    HW126555   2.563   1.506   2.786
 8552SOL    HW226556   2.470   1.542   2.915
 8553SOL     OW26557   4.696   2.837   0.913
 8553SOL    HW126558   4.738   2.914   0.865
 8553SOL    HW226559   4.764   2.793   0.971
 8554SOL     OW26560   0.846   6.523   0.888
 8554SOL    HW126561   0.941   6.495   0.876
 8554SOL    HW226562   0.813   6.564   0.803
 8555SOL     OW26563   4.701   1.369   3.658
 8555SOL    HW126564   4.627   1.301   3.650
 8555SOL    HW226565   4.693   1.435   3.583
 8556SOL     OW26566   1.961   6.401   0.113
 8556SOL    HW126567   1.916   6.365   0.194
 8556SOL    HW226568   2.058   6.415   0.131
 8557SOL     OW26569   6.730   0.786   6.715
 8557SOL    HW126570   6.661   0.858   6.729
 8557SOL    HW226571   6.699   0.723   6.644
 8558SOL     OW26572   3.107   4.925   3.450
 8558SOL    HW126573   3.148   4.974   3.527
 8558SOL    HW226574   3.025   4.877   3.482
 8559SOL     OW26575   0.936   5.393   2.754
 8559SOL    HW126576   0.850   5.348   2.733
 8559SOL    HW226577   0.938   5.419   2.851
 8560SOL     OW26578   2.348   4.766   1.364
 8560SOL    HW126579   2.382   4.672   1.359
 8560SOL    HW226580   2.425   4.830   1.359
 8561SOL     OW26581   3.706   0.181   2.548
 8561SOL    HW126582   3.785   0.187   2.487
 8561SOL    HW226583   3.715   0.248   2.622
 8562SOL     OW26584   4.128   1.235   7.021
 8562SOL    HW126585   4.182   1.312   0.024
 8562SOL    HW226586   4.035   1.241   0.025
 8563SOL     OW26587   1.496   5.541   3.494
 8563SOL    HW126588   1.397   5.548   3.509
 8563SOL    HW226589   1.521   5.591   3.412
 8564SOL     OW26590   3.866   7.002   0.031
 8564SOL    HW126591   3.834   0.059   7.031
 8564SOL    HW226592   3.905   6.951   6.985
 8565SOL     OW26593   3.014   5.334   1.197
 8565SOL    HW126594   3.103   5.290   1.195
 8565SOL    HW226595   3.022   5.427   1.159
 8566SOL     OW26596   3.008   1.121   3.114
 8566SOL    HW126597   3.052   1.171   3.189
 8566SOL    HW226598   2.940   1.180   3.071
 8567SOL     OW26599   1.824   1.850   1.338
 8567SOL    HW126600   1.790   1.802   1.257
 8567SOL    HW226601   1.774   1.819   1.418
 8568SOL     OW26602   0.160   1.672   0.080
 8568SOL    HW126603   0.081   1.732   0.067
 8568SOL    HW226604   0.220   1.709   0.151
 8569SOL     OW26605   5.344   2.466   6.044
 8569SOL    HW126606   5.435   2.505   6.029
 8569SOL    HW226607   5.296   2.520   6.114
 8570SOL     OW26608   1.065   2.222   4.237
 8570SOL    HW126609   1.039   2.132   4.202
 8570SOL    HW226610   1.101   2.212   4.330
 8571SOL     OW26611   2.168   0.645   4.138
 8571SOL    HW126612   2.158   0.744   4.130
 8571SOL    HW226613   2.103   0.610   4.205
 8572SOL     OW26614   3.306   4.060   5.695
 8572SOL    HW126615   3.294   4.145   5.748
 8572SOL    HW226616   3.268   4.073   5.604
 8573SOL     OW26617   3.709   5.926   0.982
 8573SOL    HW126618   3.767   5.880   0.915
 8573SOL    HW226619   3.676   6.012   0.945
 8574SOL     OW26620   6.953   6.524   5.525
 8574SOL    HW126621   6.948   6.461   5.448
 8574SOL    HW226622   7.013   6.487   5.595
 8575SOL     OW26623   3.331   6.552   2.721
 8575SOL    HW126624   3.309   6.590   2.811
 8575SOL    HW226625   3.392   6.614   2.672
 8576SOL     OW26626   0.712   3.849   3.952
 8576SOL    HW126627   0.728   3.902   4.036
 8576SOL    HW226628   0.797   3.804   3.925
 8577SOL     OW26629   1.551   1.339   6.247
 8577SOL    HW126630   1.568   1.244   6.275
 8577SOL    HW226631   1.636   1.391   6.255
 8578SOL     OW26632   6.231   6.913   5.145
 8578SOL    HW126633   6.133   6.906   5.160
 8578SOL    HW226634   6.260   6.841   5.082
 8579SOL     OW26635   2.524   6.286   2.554
 8579SOL    HW126636   2.602   6.241   2.598
 8579SOL    HW226637   2.484   6.224   2.486
 8580SOL     OW26638   1.352   6.540   1.281
 8580SOL    HW126639   1.273   6.480   1.288
 8580SOL    HW226640   1.353   6.604   1.358
 8581SOL     OW26641   3.685   4.898   1.426
 8581SOL    HW126642   3.743   4.919   1.347
 8581SOL    HW226643   3.613   4.834   1.399
 8582SOL     OW26644   4.312   4.722   5.397
 8582SOL    HW126645   4.296   4.624   5.406
 8582SOL    HW226646   4.271   4.770   5.475
 8583SOL     OW26647   4.097   0.639   2.694
 8583SOL    HW126648   4.116   0.660   2.598
 8583SOL    HW226649   4.004   0.669   2.717
 8584SOL     OW26650   6.526   0.899   4.458
 8584SOL    HW126651   6.571   0.906   4.369
 8584SOL    HW226652   6.576   0.955   4.525
 8585SOL     OW26653   5.983   1.879   1.410
 8585SOL    HW126654   5.909   1.889   1.343
 8585SOL    HW226655   5.952   1.820   1.485
 8586SOL     OW26656   5.503   6.393   1.286
 8586SOL    HW126657   5.551   6.465   1.236
 8586SOL    HW226658   5.561   6.357   1.359
 8587SOL     OW26659   1.079   1.258   5.795
 8587SOL    HW126660   1.094   1.353   5.824
 8587SOL    HW226661   1.030   1.258   5.708
 8588SOL     OW26662   2.969   1.710   0.001
 8588SOL    HW126663   3.032   1.741   6.960
 8588SOL    HW226664   2.894   1.775   0.009
 8589SOL     OW26665   0.380   3.343   5.740
 8589SOL    HW126666   0.428   3.413   5.686
 8589SOL    HW226667   0.366   3.377   5.833
 8590SOL     OW26668   0.113   2.010   2.813
 8590SOL    HW126669   0.090   1.972   2.723
 8590SOL    HW226670   0.211   2.029   2.817
 8591SOL     OW26671   6.858   5.272   0.330
 8591SOL    HW126672   6.901   5.355   0.364
 8591SOL    HW226673   6.820   5.220   0.407
 8592SOL     OW26674   0.833   2.645   7.018
 8592SOL    HW126675   0.887   2.564   0.009
 8592SOL    HW226676   0.879   2.726   0.023
 8593SOL     OW26677   2.497   0.199   6.441
 8593SOL    HW126678   2.561   0.139   6.489
 8593SOL    HW226679   2.404   0.177   6.469
 8594SOL     OW26680   6.026   2.618   6.179
 8594SOL    HW126681   6.056   2.713   6.169
 8594SOL    HW226682   6.002   2.581   6.089
 8595SOL     OW26683   4.914   6.648   2.172
 8595SOL    HW126684   4.993   6.694   2.211
 8595SOL    HW226685   4.937   6.553   2.151
 8596SOL     OW26686   1.191   3.303   3.635
 8596SOL    HW126687   1.250   3.249   3.695
 8596SOL    HW226688   1.095   3.288   3.661
 8597SOL     OW26689   6.243   3.396   1.261
 8597SOL    HW126690   6.176   3.382   1.334
 8597SOL    HW226691   6.196   3.404   1.173
 8598SOL     OW26692   5.559   0.535   4.658
 8598SOL    HW126693   5.650   0.494   4.648
 8598SOL    HW226694   5.547   0.565   4.753
 8599SOL     OW26695   1.627   2.805   3.304
 8599SOL    HW126696   1.588   2.744   3.374
 8599SOL    HW226697   1.628   2.899   3.338
 8600SOL     OW26698   4.364   3.526   0.851
 8600SOL    HW126699   4.272   3.486   0.855
 8600SOL    HW226700   4.409   3.498   0.766
 8601SOL     OW26701   0.824   0.724   3.554
 8601SOL    HW126702   0.852   0.820   3.544
 8601SOL    HW226703   0.725   0.717   3.549
 8602SOL     OW26704   2.614   6.840   4.373
 8602SOL    HW126705   2.589   6.745   4.388
 8602SOL    HW226706   2.713   6.848   4.361
 8603SOL     OW26707   7.021   0.365   0.094
 8603SOL    HW126708   7.007   0.445   0.036
 8603SOL    HW226709   0.068   0.382   0.155
 8604SOL     OW26710   1.184   4.439   5.924
 8604SOL    HW126711   1.104   4.419   5.866
 8604SOL    HW226712   1.174   4.391   6.011
 8605SOL     OW26713   6.963   4.676   4.726
 8605SOL    HW126714   6.899   4.737   4.772
 8605SOL    HW226715   6.913   4.601   4.684
 8606SOL     OW26716   1.960   2.369   6.556
 8606SOL    HW126717   1.985   2.380   6.460
 8606SOL    HW226718   1.863   2.345   6.563
 8607SOL     OW26719   2.146   4.755   1.566
 8607SOL    HW126720   2.126   4.657   1.569
 8607SOL    HW226721   2.219   4.772   1.500
 8608SOL     OW26722   2.756   4.769   3.298
 8608SOL    HW126723   2.664   4.771   3.338
 8608SOL    HW226724   2.751   4.733   3.205
 8609SOL     OW26725   5.158   1.573   3.346
 8609SOL    HW126726   5.244   1.534   3.378
 8609SOL    HW226727   5.140   1.542   3.253
 8610SOL     OW26728   0.114   6.321   3.122
 8610SOL    HW126729   0.037   6.379   3.149
 8610SOL    HW226730   0.161   6.287   3.203
 8611SOL     OW26731   3.005   1.185   3.630
 8611SOL    HW126732   3.029   1.262   3.690
 8611SOL    HW226733   3.069   1.110   3.646
 8612SOL     OW26734   3.976   3.486   3.171
 8612SOL    HW126735   3.946   3.424   3.244
 8612SOL    HW226736   3.896   3.532   3.132
 8613SOL     OW26737   3.010   2.531   1.499
 8613SOL    HW126738   3.075   2.499   1.430
 8613SOL    HW226739   2.945   2.457   1.520
 8614SOL     OW26740   1.028   2.066   1.227
 8614SOL    HW126741   1.107   2.121   1.202
 8614SOL    HW226742   0.990   2.023   1.145
 8615SOL     OW26743   4.606   2.202   3.688
 8615SOL    HW126744   4.532   2.173   3.748
 8615SOL    HW226745   4.683   2.139   3.698
 8616SOL     OW26746   4.404   4.954   2.379
 8616SOL    HW126747   4.473   4.947   2.451
 8616SOL    HW226748   4.408   4.872   2.321
 8617SOL     OW26749   4.983   6.913   3.830
 8617SOL    HW126750   5.041   6.974   3.884
 8617SOL    HW226751   4.947   6.962   3.751
 8618SOL     OW26752   5.870   3.928   1.615
 8618SOL    HW126753   5.813   3.971   1.545
 8618SOL    HW226754   5.812   3.887   1.686
 8619SOL     OW26755   5.324   4.882   2.217
 8619SOL    HW126756   5.350   4.915   2.127
 8619SOL    HW226757   5.241   4.930   2.247
 8620SOL     OW26758   2.335   0.617   4.966
 8620SOL    HW126759   2.261   0.587   5.027
 8620SOL    HW226760   2.311   0.707   4.927
 8621SOL     OW26761   4.936   2.590   1.883
 8621SOL    HW126762   4.899   2.497   1.883
 8621SOL    HW226763   4.961   2.617   1.790
 8622SOL     OW26764   6.622   5.354   2.627
 8622SOL    HW126765   6.649   5.441   2.670
 8622SOL    HW226766   6.654   5.278   2.683
 8623SOL     OW26767   6.898   3.240   5.045
 8623SOL    HW126768   6.988   3.277   5.067
 8623SOL    HW226769   6.858   3.291   4.969
 8624SOL     OW26770   3.404   3.588   6.219
 8624SOL    HW126771   3.340   3.598   6.295
 8624SOL    HW226772   3.453   3.501   6.227
 8625SOL     OW26773   3.356   1.528   5.312
 8625SOL    HW126774   3.355   1.504   5.409
 8625SOL    HW226775   3.291   1.470   5.263
 8626SOL     OW26776   4.529   3.290   0.359
 8626SOL    HW126777   4.509   3.215   0.296
 8626SOL    HW226778   4.612   3.269   0.411
 8627SOL     OW26779   1.614   1.254   2.432
 8627SOL    HW126780   1.646   1.160   2.441
 8627SOL    HW226781   1.577   1.269   2.340
 8628SOL     OW26782   0.142   6.470   0.038
 8628SOL    HW126783   0.223   6.496   0.091
 8628SOL    HW226784   0.099   6.389   0.079
 8629SOL     OW26785   0.970   7.018   4.307
 8629SOL    HW126786   0.907   0.062   4.288
 8629SOL    HW226787   0.919   6.933   4.313
 8630SOL     OW26788   4.911   3.539   3.418
 8630SOL    HW126789   4.826   3.587   3.398
 8630SOL    HW226790   4.890   3.448   3.455
 8631SOL     OW26791   2.568   6.178   0.217
 8631SOL    HW126792   2.490   6.131   0.175
 8631SOL    HW226793   2.646   6.175   0.154
 8632SOL     OW26794   4.514   4.741   5.177
 8632SOL    HW126795   4.465   4.771   5.095
 8632SOL    HW226796   4.459   4.762   5.258
 8633SOL     OW26797   5.452   4.045   5.897
 8633SOL    HW126798   5.360   4.055   5.934
 8633SOL    HW226799   5.519   4.048   5.971
 8634SOL     OW26800   5.642   5.206   0.892
 8634SOL    HW126801   5.724   5.263   0.891
 8634SOL    HW226802   5.668   5.111   0.908
 8635SOL     OW26803   6.364   2.991   6.986
 8635SOL    HW126804   6.314   2.904   6.980
 8635SOL    HW226805   6.431   2.985   0.029
 8636SOL     OW26806   4.346   6.112   0.938
 8636SOL    HW126807   4.315   6.123   0.844
 8636SOL    HW226808   4.309   6.187   0.994
 8637SOL     OW26809   1.713   1.652   6.474
 8637SOL    HW126810   1.636   1.698   6.518
 8637SOL    HW226811   1.790   1.715   6.468
 8638SOL     OW26812   4.174   2.906   5.392
 8638SOL    HW126813   4.267   2.938   5.371
 8638SOL    HW226814   4.177   2.844   5.470
 8639SOL     OW26815   4.631   3.178   6.648
 8639SOL    HW126816   4.662   3.091   6.608
 8639SOL    HW226817   4.611   3.165   6.745
 8640SOL     OW26818   3.145   3.312   1.077
 8640SOL    HW126819   3.223   3.362   1.039
 8640SOL    HW226820   3.162   3.214   1.072
 8641SOL     OW26821   4.526   5.316   2.821
 8641SOL    HW126822   4.513   5.318   2.722
 8641SOL    HW226823   4.512   5.408   2.859
 8642SOL     OW26824   0.892   6.323   4.380
 8642SOL    HW126825   0.827   6.272   4.324
 8642SOL    HW226826   0.910   6.273   4.465
 8643SOL     OW26827   3.582   6.762   0.825
 8643SOL    HW126828   3.558   6.746   0.921
 8643SOL    HW226829   3.594   6.860   0.810
 8644SOL     OW26830   6.201   2.238   6.651
 8644SOL    HW126831   6.268   2.227   6.724
 8644SOL    HW226832   6.249   2.244   6.563
 8645SOL     OW26833   5.871   4.259   1.821
 8645SOL    HW126834   5.932   4.181   1.837
 8645SOL    HW226835   5.905   4.338   1.872
 8646SOL     OW26836   0.556   2.276   5.640
 8646SOL    HW126837   0.611   2.313   5.715
 8646SOL    HW226838   0.499   2.348   5.601
 8647SOL     OW26839   2.557   4.961   1.327
 8647SOL    HW126840   2.589   4.984   1.419
 8647SOL    HW226841   2.598   5.023   1.261
 8648SOL     OW26842   5.936   6.150   1.414
 8648SOL    HW126843   5.852   6.201   1.432
 8648SOL    HW226844   5.942   6.129   1.316
 8649SOL     OW26845   4.597   0.045   0.428
 8649SOL    HW126846   4.620   6.982   0.448
 8649SOL    HW226847   4.679   0.094   0.397
 8650SOL     OW26848   2.087   0.324   4.822
 8650SOL    HW126849   2.021   0.279   4.762
 8650SOL    HW226850   2.154   0.258   4.854
 8651SOL     OW26851   2.552   1.283   0.843
 8651SOL    HW126852   2.641   1.293   0.886
 8651SOL    HW226853   2.484   1.335   0.895
 8652SOL     OW26854   1.462   4.476   4.175
 8652SOL    HW126855   1.487   4.391   4.129
 8652SOL    HW226856   1.423   4.455   4.265
 8653SOL     OW26857   6.926   2.179   5.822
 8653SOL    HW126858   6.995   2.221   5.882
 8653SOL    HW226859   6.922   2.080   5.841
 8654SOL     OW26860   1.121   4.653   2.379
 8654SOL    HW126861   1.215   4.632   2.403
 8654SOL    HW226862   1.066   4.570   2.384
 8655SOL     OW26863   6.704   1.304   5.205
 8655SOL    HW126864   6.732   1.284   5.111
 8655SOL    HW226865   6.631   1.373   5.204
 8656SOL     OW26866   4.931   6.925   1.587
 8656SOL    HW126867   4.938   7.003   1.649
 8656SOL    HW226868   5.018   6.875   1.586
 8657SOL     OW26869   5.504   0.397   2.370
 8657SOL    HW126870   5.501   0.494   2.394
 8657SOL    HW226871   5.595   0.373   2.338
 8658SOL     OW26872   6.403   4.912   1.500
 8658SOL    HW126873   6.351   4.985   1.544
 8658SOL    HW226874   6.344   4.863   1.436
 8659SOL     OW26875   4.957   1.633   2.459
 8659SOL    HW126876   4.877   1.675   2.504
 8659SOL    HW226877   4.982   1.687   2.379
 8660SOL     OW26878   0.694   2.627   1.228
 8660SOL    HW126879   0.696   2.716   1.183
 8660SOL    HW226880   0.779   2.578   1.210
 8661SOL     OW26881   6.015   3.060   3.186
 8661SOL    HW126882   5.962   3.067   3.270
 8661SOL    HW226883   5.963   3.011   3.117
 8662SOL     OW26884   3.110   5.824   2.416
 8662SOL    HW126885   3.169   5.870   2.351
 8662SOL    HW226886   3.158   5.746   2.457
 8663SOL     OW26887   3.291   5.663   3.311
 8663SOL    HW126888   3.364   5.626   3.369
 8663SOL    HW226889   3.252   5.744   3.355
 8664SOL     OW26890   2.418   6.014   3.540
 8664SOL    HW126891   2.344   6.025   3.605
 8664SOL    HW226892   2.416   6.089   3.474
 8665SOL     OW26893   6.003   4.808   6.040
 8665SOL    HW126894   5.939   4.884   6.050
 8665SOL    HW226895   6.093   4.843   6.015
 8666SOL     OW26896   5.660   0.318   3.548
 8666SOL    HW126897   5.615   0.387   3.604
 8666SOL    HW226898   5.660   0.231   3.597
 8667SOL     OW26899   4.879   1.377   4.010
 8667SOL    HW126900   4.922   1.455   4.057
 8667SOL    HW226901   4.786   1.401   3.985
 8668SOL     OW26902   5.534   2.621   5.307
 8668SOL    HW126903   5.451   2.642   5.359
 8668SOL    HW226904   5.524   2.532   5.263
 8669SOL     OW26905   5.983   6.526   6.177
 8669SOL    HW126906   5.974   6.519   6.078
 8669SOL    HW226907   6.028   6.444   6.213
 8670SOL     OW26908   5.754   5.144   5.968
 8670SOL    HW126909   5.854   5.135   5.965
 8670SOL    HW226910   5.716   5.070   6.024
 8671SOL     OW26911   0.324   2.438   2.684
 8671SOL    HW126912   0.287   2.465   2.595
 8671SOL    HW226913   0.396   2.501   2.711
 8672SOL     OW26914   6.945   0.271   3.396
 8672SOL    HW126915   0.001   0.259   3.441
 8672SOL    HW226916   6.948   0.227   3.306
 8673SOL     OW26917   0.485   0.979   6.788
 8673SOL    HW126918   0.552   0.950   6.857
 8673SOL    HW226919   0.531   0.993   6.700
 8674SOL     OW26920   0.589   4.228   3.055
 8674SOL    HW126921   0.686   4.201   3.061
 8674SOL    HW226922   0.582   4.327   3.060
 8675SOL     OW26923   3.208   1.626   6.156
 8675SOL    HW126924   3.286   1.649   6.099
 8675SOL    HW226925   3.175   1.534   6.133
 8676SOL     OW26926   5.768   1.264   1.138
 8676SOL    HW126927   5.694   1.320   1.099
 8676SOL    HW226928   5.781   1.182   1.083
 8677SOL     OW26929   1.450   6.648   5.780
 8677SOL    HW126930   1.361   6.658   5.736
 8677SOL    HW226931   1.452   6.563   5.833
 8678SOL     OW26932   1.253   0.219   0.421
 8678SOL    HW126933   1.168   0.181   0.458
 8678SOL    HW226934   1.331   0.177   0.467
 8679SOL     OW26935   2.416   1.084   4.079
 8679SOL    HW126936   2.316   1.086   4.074
 8679SOL    HW226937   2.446   0.991   4.098
 8680SOL     OW26938   6.318   2.646   6.417
 8680SOL    HW126939   6.245   2.712   6.438
 8680SOL    HW226940   6.344   2.655   6.320
 8681SOL     OW26941   5.276   6.016   0.724
 8681SOL    HW126942   5.177   6.018   0.709
 8681SOL    HW226943   5.321   5.980   0.642
 8682SOL     OW26944   6.867   0.232   0.832
 8682SOL    HW126945   6.923   0.313   0.814
 8682SOL    HW226946   6.782   0.238   0.779
 8683SOL     OW26947   1.893   3.453   5.057
 8683SOL    HW126948   1.846   3.430   4.972
 8683SOL    HW226949   1.990   3.471   5.037
 8684SOL     OW26950   0.846   4.072   4.835
 8684SOL    HW126951   0.788   4.150   4.808
 8684SOL    HW226952   0.907   4.048   4.760
 8685SOL     OW26953   4.896   2.381   5.845
 8685SOL    HW126954   4.875   2.333   5.760
 8685SOL    HW226955   4.996   2.390   5.854
 8686SOL     OW26956   6.546   6.475   2.281
 8686SOL    HW126957   6.564   6.570   2.304
 8686SOL    HW226958   6.475   6.439   2.342
 8687SOL     OW26959   6.190   3.149   3.456
 8687SOL    HW126960   6.180   3.185   3.364
 8687SOL    HW226961   6.285   3.119   3.470
 8688SOL     OW26962   1.466   4.284   6.187
 8688SOL    HW126963   1.557   4.266   6.225
 8688SOL    HW226964   1.466   4.373   6.141
 8689SOL     OW26965   4.276   2.902   0.484
 8689SOL    HW126966   4.288   2.870   0.579
 8689SOL    HW226967   4.365   2.904   0.439
 8690SOL     OW26968   1.149   1.866   2.867
 8690SOL    HW126969   1.200   1.936   2.916
 8690SOL    HW226970   1.176   1.866   2.771
 8691SOL     OW26971   2.786   2.182   4.533
 8691SOL    HW126972   2.844   2.206   4.455
 8691SOL    HW226973   2.827   2.216   4.617
 8692SOL     OW26974   4.541   2.266   5.896
 8692SOL    HW126975   4.480   2.283   5.819
 8692SOL    HW226976   4.602   2.344   5.909
 8693SOL     OW26977   6.318   1.049   6.865
 8693SOL    HW126978   6.313   0.951   6.886
 8693SOL    HW226979   6.407   1.068   6.823
 8694SOL     OW26980   5.854   3.258   4.170
 8694SOL    HW126981   5.787   3.247   4.097
 8694SOL    HW226982   5.817   3.319   4.240
 8695SOL     OW26983   4.170   3.704   6.907
 8695SOL    HW126984   4.148   3.686   6.811
 8695SOL    HW226985   4.243   3.643   6.936
 8696SOL     OW26986   2.822   5.682   5.795
 8696SOL    HW126987   2.883   5.723   5.863
 8696SOL    HW226988   2.809   5.585   5.816
 8697SOL     OW26989   1.611   4.301   5.715
 8697SOL    HW126990   1.577   4.212   5.746
 8697SOL    HW226991   1.683   4.287   5.647
 8698SOL     OW26992   5.373   6.005   5.814
 8698SOL    HW126993   5.442   6.069   5.781
 8698SOL    HW226994   5.415   5.941   5.878
 8699SOL     OW26995   2.514   2.626   6.858
 8699SOL    HW126996   2.478   2.556   6.795
 8699SOL    HW226997   2.576   2.687   6.808
 8700SOL     OW26998   0.421   0.512   5.188
 8700SOL    HW126999   0.401   0.591   5.131
 8700SOL    HW227000   0.493   0.535   5.253
 8701SOL     OW27001   0.803   2.035   6.555
 8701SOL    HW127002   0.723   2.066   6.607
 8701SOL    HW227003   0.773   1.994   6.469
 8702SOL     OW27004   5.323   4.838   1.635
 8702SOL    HW127005   5.223   4.840   1.644
 8702SOL    HW227006   5.364   4.882   1.714
 8703SOL     OW27007   2.482   4.536   0.514
 8703SOL    HW127008   2.580   4.517   0.503
 8703SOL    HW227009   2.452   4.506   0.605
 8704SOL     OW27010   0.792   2.212   3.936
 8704SOL    HW127011   0.844   2.214   3.851
 8704SOL    HW227012   0.819   2.290   3.993
 8705SOL     OW27013   4.401   2.819   6.759
 8705SOL    HW127014   4.378   2.771   6.844
 8705SOL    HW227015   4.326   2.878   6.733
 8706SOL     OW27016   5.236   3.137   0.004
 8706SOL    HW127017   5.258   3.228   0.038
 8706SOL    HW227018   5.320   3.088   7.014
 8707SOL     OW27019   1.507   1.774   4.524
 8707SOL    HW127020   1.550   1.827   4.597
 8707SOL    HW227021   1.483   1.834   4.448
 8708SOL     OW27022   5.607   2.223   3.053
 8708SOL    HW127023   5.643   2.268   2.971
 8708SOL    HW227024   5.522   2.176   3.030
 8709SOL     OW27025   6.543   0.115   6.163
 8709SOL    HW127026   6.638   0.141   6.152
 8709SOL    HW227027   6.491   0.143   6.082
 8710SOL     OW27028   2.068   0.973   2.862
 8710SOL    HW127029   2.041   1.064   2.891
 8710SOL    HW227030   2.163   0.976   2.828
 8711SOL     OW27031   1.507   0.928   1.690
 8711SOL    HW127032   1.506   0.830   1.709
 8711SOL    HW227033   1.415   0.966   1.701
 8712SOL     OW27034   2.200   2.686   5.423
 8712SOL    HW127035   2.196   2.593   5.387
 8712SOL    HW227036   2.295   2.714   5.433
 8713SOL     OW27037   1.142   4.331   2.234
 8713SOL    HW127038   1.208   4.380   2.176
 8713SOL    HW227039   1.182   4.245   2.264
 8714SOL     OW27040   0.204   6.080   6.827
 8714SOL    HW127041   0.282   6.130   6.789
 8714SOL    HW227042   0.119   6.131   6.807
 8715SOL     OW27043   2.858   1.841   0.411
 8715SOL    HW127044   2.908   1.756   0.431
 8715SOL    HW227045   2.763   1.831   0.440
 8716SOL     OW27046   6.941   6.613   1.424
 8716SOL    HW127047   6.853   6.648   1.457
 8716SOL    HW227048   6.933   6.516   1.404
 8717SOL     OW27049   2.392   4.371   6.945
 8717SOL    HW127050   2.456   4.351   7.019
 8717SOL    HW227051   2.355   4.285   6.910
 8718SOL     OW27052   1.806   4.008   6.356
 8718SOL    HW127053   1.905   4.020   6.365
 8718SOL    HW227054   1.768   3.972   6.441
 8719SOL     OW27055   3.522   0.816   6.208
 8719SOL    HW127056   3.538   0.906   6.249
 8719SOL    HW227057   3.450   0.769   6.258
 8720SOL     OW27058   6.454   4.364   5.317
 8720SOL    HW127059   6.453   4.336   5.413
 8720SOL    HW227060   6.512   4.301   5.265
 8721SOL     OW27061   0.037   6.635   6.463
 8721SOL    HW127062   7.029   6.556   6.510
 8721SOL    HW227063   0.091   6.689   6.527
 8722SOL     OW27064   3.918   0.791   1.130
 8722SOL    HW127065   3.819   0.777   1.127
 8722SOL    HW227066   3.945   0.824   1.220
 8723SOL     OW27067   4.971   0.279   2.028
 8723SOL    HW127068   4.934   0.344   2.094
 8723SOL    HW227069   4.984   0.190   2.072
 8724SOL     OW27070   3.984   0.388   4.444
 8724SOL    HW127071   3.969   0.327   4.522
 8724SOL    HW227072   3.960   0.481   4.471
 8725SOL     OW27073   0.363   6.184   4.527
 8725SOL    HW127074   0.363   6.163   4.429
 8725SOL    HW227075   0.279   6.150   4.569
 8726SOL     OW27076   0.778   0.821   0.167
 8726SOL    HW127077   0.805   0.738   0.118
 8726SOL    HW227078   0.681   0.839   0.152
 8727SOL     OW27079   5.739   5.876   6.737
 8727SOL    HW127080   5.763   5.972   6.754
 8727SOL    HW227081   5.810   5.834   6.681
 8728SOL     OW27082   5.754   0.747   3.144
 8728SOL    HW127083   5.687   0.822   3.141
 8728SOL    HW227084   5.734   0.688   3.222
 8729SOL     OW27085   3.637   5.455   6.081
 8729SOL    HW127086   3.550   5.499   6.057
 8729SOL    HW227087   3.711   5.495   6.026
 8730SOL     OW27088   5.473   4.644   2.729
 8730SOL    HW127089   5.535   4.606   2.798
 8730SOL    HW227090   5.393   4.683   2.774
 8731SOL     OW27091   0.422   1.986   3.370
 8731SOL    HW127092   0.461   2.007   3.280
 8731SOL    HW227093   0.331   1.947   3.357
 8732SOL     OW27094   4.966   5.498   0.899
 8732SOL    HW127095   4.961   5.440   0.981
 8732SOL    HW227096   4.890   5.562   0.900
 8733SOL     OW27097   0.889   4.869   1.532
 8733SOL    HW127098   0.892   4.812   1.450
 8733SOL    HW227099   0.862   4.813   1.611
 8734SOL     OW27100   6.854   3.871   2.137
 8734SOL    HW127101   6.920   3.851   2.064
 8734SOL    HW227102   6.838   3.970   2.141
 8735SOL     OW27103   2.003   4.240   5.307
 8735SOL    HW127104   2.036   4.146   5.297
 8735SOL    HW227105   2.075   4.304   5.279
 8736SOL     OW27106   0.661   5.568   2.428
 8736SOL    HW127107   0.584   5.568   2.491
 8736SOL    HW227108   0.644   5.634   2.354
 8737SOL     OW27109   1.248   5.574   6.355
 8737SOL    HW127110   1.262   5.663   6.397
 8737SOL    HW227111   1.198   5.515   6.418
 8738SOL     OW27112   0.878   4.004   3.726
 8738SOL    HW127113   0.826   4.088   3.737
 8738SOL    HW227114   0.945   3.996   3.800
 8739SOL     OW27115   5.503   4.272   5.218
 8739SOL    HW127116   5.574   4.207   5.190
 8739SOL    HW227117   5.414   4.226   5.216
 8740SOL     OW27118   3.683   1.722   3.725
 8740SOL    HW127119   3.723   1.807   3.758
 8740SOL    HW227120   3.652   1.667   3.803
 8741SOL     OW27121   1.145   6.862   2.771
 8741SOL    HW127122   1.098   6.786   2.725
 8741SOL    HW227123   1.231   6.881   2.724
 8742SOL     OW27124   3.585   1.439   2.726
 8742SOL    HW127125   3.621   1.374   2.793
 8742SOL    HW227126   3.516   1.497   2.769
 8743SOL     OW27127   1.726   0.658   1.725
 8743SOL    HW127128   1.820   0.624   1.713
 8743SOL    HW227129   1.703   0.659   1.822
 8744SOL     OW27130   3.953   3.725   0.052
 8744SOL    HW127131   3.873   3.750   7.031
 8744SOL    HW227132   4.034   3.725   7.024
 8745SOL     OW27133   6.540   1.765   6.440
 8745SOL    HW127134   6.499   1.841   6.390
 8745SOL    HW227135   6.476   1.689   6.444
 8746SOL     OW27136   5.053   5.381   4.156
 8746SOL    HW127137   5.089   5.474   4.146
 8746SOL    HW227138   5.079   5.326   4.077
 8747SOL     OW27139   6.458   0.809   2.167
 8747SOL    HW127140   6.469   0.907   2.180
 8747SOL    HW227141   6.394   0.793   2.091
 8748SOL     OW27142   0.460   2.022   3.890
 8748SOL    HW127143   0.452   2.053   3.795
 8748SOL    HW227144   0.391   2.068   3.946
 8749SOL     OW27145   2.784   1.342   5.637
 8749SOL    HW127146   2.699   1.289   5.636
 8749SOL    HW227147   2.800   1.380   5.546
 8750SOL     OW27148   4.469   2.700   5.901
 8750SOL    HW127149   4.536   2.625   5.898
 8750SOL    HW227150   4.481   2.752   5.985
 8751SOL     OW27151   0.205   6.406   1.644
 8751SOL    HW127152   0.291   6.439   1.683
 8751SOL    HW227153   0.157   6.482   1.601
 8752SOL     OW27154   4.825   3.195   0.538
 8752SOL    HW127155   4.877   3.277   0.513
 8752SOL    HW227156   4.853   3.119   0.480
 8753SOL     OW27157   1.776   2.887   0.128
 8753SOL    HW127158   1.761   2.933   0.216
 8753SOL    HW227159   1.806   2.793   0.145
 8754SOL     OW27160   2.715   4.642   6.760
 8754SOL    HW127161   2.669   4.728   6.781
 8754SOL    HW227162   2.662   4.565   6.797
 8755SOL     OW27163   0.630   1.538   1.822
 8755SOL    HW127164   0.616   1.439   1.828
 8755SOL    HW227165   0.581   1.574   1.743
 8756SOL     OW27166   2.339   2.715   3.665
 8756SOL    HW127167   2.267   2.771   3.623
 8756SOL    HW227168   2.370   2.758   3.749
 8757SOL     OW27169   4.939   6.526   5.468
 8757SOL    HW127170   5.021   6.551   5.416
 8757SOL    HW227171   4.952   6.551   5.564
 8758SOL     OW27172   3.493   6.439   3.890
 8758SOL    HW127173   3.468   6.518   3.833
 8758SOL    HW227174   3.471   6.355   3.841
 8759SOL     OW27175   5.915   0.942   6.919
 8759SOL    HW127176   5.989   0.880   6.944
 8759SOL    HW227177   5.930   1.031   6.962
 8760SOL     OW27178   2.181   1.761   4.000
 8760SOL    HW127179   2.268   1.743   3.954
 8760SOL    HW227180   2.137   1.840   3.958
 8761SOL     OW27181   4.734   1.179   1.961
 8761SOL    HW127182   4.667   1.252   1.976
 8761SOL    HW227183   4.721   1.108   2.030
 8762SOL     OW27184   1.622   5.014   3.981
 8762SOL    HW127185   1.602   4.932   3.928
 8762SOL    HW227186   1.721   5.022   3.995
 8763SOL     OW27187   0.301   1.193   5.709
 8763SOL    HW127188   0.325   1.216   5.614
 8763SOL    HW227189   0.288   1.095   5.716
 8764SOL     OW27190   4.250   5.037   5.739
 8764SOL    HW127191   4.213   5.108   5.799
 8764SOL    HW227192   4.176   4.994   5.688
 8765SOL     OW27193   5.191   0.367   5.487
 8765SOL    HW127194   5.265   0.434   5.497
 8765SOL    HW227195   5.147   0.379   5.398
 8766SOL     OW27196   5.035   4.558   6.009
 8766SOL    HW127197   5.055   4.462   5.991
 8766SOL    HW227198   4.961   4.589   5.950
 8767SOL     OW27199   2.894   0.466   3.835
 8767SOL    HW127200   2.881   0.406   3.914
 8767SOL    HW227201   2.853   0.423   3.754
 8768SOL     OW27202   6.798   2.976   0.458
 8768SOL    HW127203   6.847   2.905   0.408
 8768SOL    HW227204   6.723   2.936   0.510
 8769SOL     OW27205   6.647   1.119   1.315
 8769SOL    HW127206   6.733   1.151   1.356
 8769SOL    HW227207   6.646   1.019   1.314
 8770SOL     OW27208   5.296   3.382   2.273
 8770SOL    HW127209   5.306   3.390   2.174
 8770SOL    HW227210   5.295   3.285   2.299
 8771SOL     OW27211   0.613   3.631   6.006
 8771SOL    HW127212   0.612   3.726   5.973
 8771SOL    HW227213   0.538   3.618   6.071
 8772SOL     OW27214   5.339   0.381   4.579
 8772SOL    HW127215   5.385   0.468   4.595
 8772SOL    HW227216   5.246   0.398   4.548
 8773SOL     OW27217   6.954   2.054   4.252
 8773SOL    HW127218   6.960   1.975   4.191
 8773SOL    HW227219   6.906   2.028   4.336
 8774SOL     OW27220   1.313   7.024   6.964
 8774SOL    HW127221   1.285   0.023   0.023
 8774SOL    HW227222   1.343   6.928   6.968
 8775SOL     OW27223   5.492   1.691   4.073
 8775SOL    HW127224   5.469   1.789   4.079
 8775SOL    HW227225   5.407   1.638   4.068
 8776SOL     OW27226   4.976   2.522   0.422
 8776SOL    HW127227   4.965   2.511   0.521
 8776SOL    HW227228   5.027   2.444   0.385
 8777SOL     OW27229   1.191   2.899   2.685
 8777SOL    HW127230   1.199   2.874   2.781
 8777SOL    HW227231   1.254   2.975   2.665
 8778SOL     OW27232   4.801   4.449   5.699
 8778SOL    HW127233   4.701   4.441   5.707
 8778SOL    HW227234   4.828   4.543   5.720
 8779SOL     OW27235   3.270   5.123   2.940
 8779SOL    HW127236   3.223   5.183   2.874
 8779SOL    HW227237   3.204   5.062   2.983
 8780SOL     OW27238   0.255   5.581   2.356
 8780SOL    HW127239   0.241   5.638   2.275
 8780SOL    HW227240   0.168   5.568   2.403
 8781SOL     OW27241   3.801   6.349   2.270
 8781SOL    HW127242   3.830   6.419   2.206
 8781SOL    HW227243   3.706   6.324   2.251
 8782SOL     OW27244   4.838   1.060   1.538
 8782SOL    HW127245   4.814   1.079   1.633
 8782SOL    HW227246   4.796   1.129   1.478
 8783SOL     OW27247   4.938   3.404   4.868
 8783SOL    HW127248   5.024   3.387   4.916
 8783SOL    HW227249   4.885   3.471   4.919
 8784SOL     OW27250   5.745   6.656   0.841
 8784SOL    HW127251   5.836   6.668   0.882
 8784SOL    HW227252   5.689   6.736   0.861
 8785SOL     OW27253   0.296   5.756   6.410
 8785SOL    HW127254   0.277   5.742   6.507
 8785SOL    HW227255   0.340   5.674   6.372
 8786SOL     OW27256   4.231   2.322   2.046
 8786SOL    HW127257   4.224   2.326   2.146
 8786SOL    HW227258   4.162   2.381   2.005
 8787SOL     OW27259   3.637   0.617   1.466
 8787SOL    HW127260   3.670   0.708   1.442
 8787SOL    HW227261   3.550   0.600   1.421
 8788SOL     OW27262   0.197   0.421   5.040
 8788SOL    HW127263   0.214   0.448   5.135
 8788SOL    HW227264   0.274   0.451   4.983
 8789SOL     OW27265   0.382   4.003   4.971
 8789SOL    HW127266   0.473   4.039   4.949
 8789SOL    HW227267   0.321   4.078   4.994
 8790SOL     OW27268   5.804   2.878   6.956
 8790SOL    HW127269   5.864   2.819   7.009
 8790SOL    HW227270   5.744   2.821   6.898
 8791SOL     OW27271   4.698   5.695   5.385
 8791SOL    HW127272   4.741   5.688   5.475
 8791SOL    HW227273   4.645   5.613   5.367
 8792SOL     OW27274   4.553   5.440   1.500
 8792SOL    HW127275   4.548   5.504   1.576
 8792SOL    HW227276   4.619   5.473   1.433
 8793SOL     OW27277   0.859   5.021   4.434
 8793SOL    HW127278   0.893   5.057   4.347
 8793SOL    HW227279   0.920   5.050   4.508
 8794SOL     OW27280   0.093   0.434   1.853
 8794SOL    HW127281   0.089   0.464   1.948
 8794SOL    HW227282   0.001   0.429   1.815
 8795SOL     OW27283   1.591   5.124   5.362
 8795SOL    HW127284   1.639   5.134   5.450
 8795SOL    HW227285   1.647   5.163   5.289
 8796SOL     OW27286   6.357   3.407   3.642
 8796SOL    HW127287   6.431   3.469   3.668
 8796SOL    HW227288   6.309   3.443   3.562
 8797SOL     OW27289   6.328   0.181   3.195
 8797SOL    HW127290   6.407   0.125   3.218
 8797SOL    HW227291   6.249   0.152   3.250
 8798SOL     OW27292   4.561   6.800   5.466
 8798SOL    HW127293   4.655   6.800   5.499
 8798SOL    HW227294   4.500   6.836   5.537
 8799SOL     OW27295   2.480   4.911   2.164
 8799SOL    HW127296   2.438   4.874   2.247
 8799SOL    HW227297   2.440   4.865   2.084
 8800SOL     OW27298   0.027   5.771   5.157
 8800SOL    HW127299   0.065   5.783   5.249
 8800SOL    HW227300   7.028   5.860   5.122
 8801SOL     OW27301   6.038   1.858   4.913
 8801SOL    HW127302   6.135   1.880   4.913
 8801SOL    HW227303   6.025   1.761   4.892
 8802SOL     OW27304   0.801   5.883   5.900
 8802SOL    HW127305   0.780   5.949   5.972
 8802SOL    HW227306   0.791   5.790   5.935
 8803SOL     OW27307   6.116   0.649   6.729
 8803SOL    HW127308   6.044   0.710   6.696
 8803SOL    HW227309   6.088   0.606   6.815
 8804SOL     OW27310   1.846   5.874   1.912
 8804SOL    HW127311   1.903   5.914   1.983
 8804SOL    HW227312   1.840   5.936   1.834
 8805SOL     OW27313   4.371   5.759   2.447
 8805SOL    HW127314   4.384   5.809   2.362
 8805SOL    HW227315   4.289   5.793   2.493
 8806SOL     OW27316   2.224   6.467   0.361
 8806SOL    HW127317   2.258   6.498   0.272
 8806SOL    HW227318   2.294   6.480   0.431
 8807SOL     OW27319   5.147   1.953   0.942
 8807SOL    HW127320   5.117   1.875   0.998
 8807SOL    HW227321   5.066   2.003   0.911
 8808SOL     OW27322   2.371   2.151   0.334
 8808SOL    HW127323   2.330   2.235   0.298
 8808SOL    HW227324   2.467   2.167   0.355
 8809SOL     OW27325   1.922   3.934   3.973
 8809SOL    HW127326   1.917   4.020   3.922
 8809SOL    HW227327   2.008   3.931   4.024
 8810SOL     OW27328   6.744   1.876   5.526
 8810SOL    HW127329   6.838   1.843   5.519
 8810SOL    HW227330   6.684   1.818   5.471
 8811SOL     OW27331   4.185   6.294   2.212
 8811SOL    HW127332   4.125   6.226   2.170
 8811SOL    HW227333   4.277   6.256   2.220
 8812SOL     OW27334   3.476   1.565   6.877
 8812SOL    HW127335   3.574   1.575   6.893
 8812SOL    HW227336   3.459   1.540   6.782
 8813SOL     OW27337   2.522   4.426   3.497
 8813SOL    HW127338   2.610   4.404   3.454
 8813SOL    HW227339   2.530   4.513   3.547
 8814SOL     OW27340   5.907   0.073   0.228
 8814SOL    HW127341   5.983   0.015   0.255
 8814SOL    HW227342   5.830   0.060   0.291
 8815SOL     OW27343   5.295   1.366   0.581
 8815SOL    HW127344   5.316   1.287   0.639
 8815SOL    HW227345   5.306   1.450   0.633
 8816SOL     OW27346   0.506   6.610   5.700
 8816SOL    HW127347   0.486   6.540   5.631
 8816SOL    HW227348   0.420   6.640   5.742
 8817SOL     OW27349   0.991   3.493   4.671
 8817SOL    HW127350   0.997   3.404   4.715
 8817SOL    HW227351   1.083   3.522   4.642
 8818SOL     OW27352   2.441   6.677   4.140
 8818SOL    HW127353   2.404   6.587   4.162
 8818SOL    HW227354   2.538   6.669   4.120
 8819SOL     OW27355   5.192   4.381   5.714
 8819SOL    HW127356   5.110   4.365   5.769
 8819SOL    HW227357   5.166   4.398   5.619
 8820SOL     OW27358   3.079   0.794   4.579
 8820SOL    HW127359   3.149   0.848   4.533
 8820SOL    HW227360   3.029   0.852   4.643
 8821SOL     OW27361   1.626   4.971   0.382
 8821SOL    HW127362   1.726   4.975   0.381
 8821SOL    HW227363   1.589   5.062   0.404
 8822SOL     OW27364   6.593   6.701   3.828
 8822SOL    HW127365   6.598   6.608   3.865
 8822SOL    HW227366   6.676   6.751   3.851
 8823SOL     OW27367   3.505   1.405   3.243
 8823SOL    HW127368   3.497   1.361   3.332
 8823SOL    HW227369   3.520   1.503   3.255
 8824SOL     OW27370   1.655   0.811   0.971
 8824SOL    HW127371   1.748   0.826   0.936
 8824SOL    HW227372   1.605   0.751   0.908
 8825SOL     OW27373   0.280   0.038   0.290
 8825SOL    HW127374   0.357   0.060   0.229
 8825SOL    HW227375   0.203   0.005   0.235
 8826SOL     OW27376   0.999   3.357   1.087
 8826SOL    HW127377   0.991   3.275   1.030
 8826SOL    HW227378   1.007   3.437   1.027
 8827SOL     OW27379   3.951   0.175   2.758
 8827SOL    HW127380   4.001   0.228   2.689
 8827SOL    HW227381   3.880   0.121   2.712
 8828SOL     OW27382   4.238   3.836   6.438
 8828SOL    HW127383   4.281   3.908   6.383
 8828SOL    HW227384   4.187   3.774   6.378
 8829SOL     OW27385   0.309   1.846   2.152
 8829SOL    HW127386   0.361   1.776   2.103
 8829SOL    HW227387   0.213   1.841   2.126
 8830SOL     OW27388   2.448   1.985   3.114
 8830SOL    HW127389   2.521   1.986   3.046
 8830SOL    HW227390   2.483   2.019   3.201
 8831SOL     OW27391   0.981   1.660   2.237
 8831SOL    HW127392   0.949   1.597   2.307
 8831SOL    HW227393   0.936   1.639   2.150
 8832SOL     OW27394   7.011   6.699   4.028
 8832SOL    HW127395   0.061   6.695   4.086
 8832SOL    HW227396   0.004   6.674   3.935
 8833SOL     OW27397   3.698   2.688   1.279
 8833SOL    HW127398   3.679   2.674   1.182
 8833SOL    HW227399   3.765   2.619   1.310
 8834SOL     OW27400   5.773   3.848   5.630
 8834SOL    HW127401   5.718   3.769   5.605
 8834SOL    HW227402   5.839   3.822   5.701
 8835SOL     OW27403   6.351   0.487   5.695
 8835SOL    HW127404   6.279   0.547   5.661
 8835SOL    HW227405   6.426   0.542   5.731
 8836SOL     OW27406   5.191   2.605   6.214
 8836SOL    HW127407   5.200   2.691   6.264
 8836SOL    HW227408   5.101   2.565   6.230
 8837SOL     OW27409   5.996   6.869   1.953
 8837SOL    HW127410   5.996   6.809   2.032
 8837SOL    HW227411   6.007   6.964   1.983
 8838SOL     OW27412   6.988   4.319   2.861
 8838SOL    HW127413   0.012   4.250   2.814
 8838SOL    HW227414   7.004   4.408   2.818
 8839SOL     OW27415   5.512   6.114   2.798
 8839SOL    HW127416   5.491   6.020   2.770
 8839SOL    HW227417   5.461   6.136   2.881
 8840SOL     OW27418   0.258   1.092   1.281
 8840SOL    HW127419   0.202   1.044   1.214
 8840SOL    HW227420   0.332   1.033   1.312
 8841SOL     OW27421   3.633   1.237   2.410
 8841SOL    HW127422   3.644   1.141   2.385
 8841SOL    HW227423   3.665   1.295   2.335
 8842SOL     OW27424   2.968   3.676   3.834
 8842SOL    HW127425   2.958   3.765   3.789
 8842SOL    HW227426   2.938   3.604   3.772
 8843SOL     OW27427   1.918   3.527   5.339
 8843SOL    HW127428   1.890   3.535   5.243
 8843SOL    HW227429   1.957   3.436   5.354
 8844SOL     OW27430   5.499   1.939   5.287
 8844SOL    HW127431   5.558   1.882   5.230
 8844SOL    HW227432   5.435   1.990   5.229
 8845SOL     OW27433   1.562   4.917   1.185
 8845SOL    HW127434   1.553   5.013   1.160
 8845SOL    HW227435   1.516   4.900   1.272
 8846SOL     OW27436   5.142   4.645   3.698
 8846SOL    HW127437   5.152   4.629   3.796
 8846SOL    HW227438   5.066   4.590   3.663
 8847SOL     OW27439   2.486   2.558   2.888
 8847SOL    HW127440   2.561   2.516   2.838
 8847SOL    HW227441   2.423   2.603   2.824
 8848SOL     OW27442   2.970   1.681   1.221
 8848SOL    HW127443   2.964   1.773   1.184
 8848SOL    HW227444   3.041   1.630   1.172
 8849SOL     OW27445   3.775   6.245   4.771
 8849SOL    HW127446   3.683   6.207   4.770
 8849SOL    HW227447   3.787   6.304   4.851
 8850SOL     OW27448   2.919   2.057   0.613
 8850SOL    HW127449   2.998   2.117   0.599
 8850SOL    HW227450   2.892   2.016   0.526
 8851SOL     OW27451   1.236   4.345   3.426
 8851SOL    HW127452   1.323   4.306   3.398
 8851SOL    HW227453   1.241   4.445   3.420
 8852SOL     OW27454   5.455   3.006   5.736
 8852SOL    HW127455   5.464   2.964   5.827
 8852SOL    HW227456   5.375   3.065   5.734
 8853SOL     OW27457   3.913   1.874   5.336
 8853SOL    HW127458   3.961   1.798   5.380
 8853SOL    HW227459   3.863   1.927   5.404
 8854SOL     OW27460   1.228   1.140   5.968
 8854SOL    HW127461   1.221   1.181   6.059
 8854SOL    HW227462   1.171   1.190   5.903
 8855SOL     OW27463   6.375   5.869   6.965
 8855SOL    HW127464   6.432   5.885   6.885
 8855SOL    HW227465   6.303   5.803   6.943
 8856SOL     OW27466   6.078   0.665   5.124
 8856SOL    HW127467   6.098   0.595   5.055
 8856SOL    HW227468   5.987   0.702   5.108
 8857SOL     OW27469   6.520   2.180   3.363
 8857SOL    HW127470   6.612   2.218   3.373
 8857SOL    HW227471   6.516   2.125   3.279
 8858SOL     OW27472   0.595   3.898   5.432
 8858SOL    HW127473   0.538   3.924   5.354
 8858SOL    HW227474   0.544   3.913   5.517
 8859SOL     OW27475   1.187   6.655   4.818
 8859SOL    HW127476   1.249   6.710   4.762
 8859SOL    HW227477   1.162   6.706   4.900
 8860SOL     OW27478   1.516   2.243   2.675
 8860SOL    HW127479   1.559   2.231   2.764
 8860SOL    HW227480   1.586   2.240   2.603
 8861SOL     OW27481   3.670   3.130   6.969
 8861SOL    HW127482   3.753   3.107   7.021
 8861SOL    HW227483   3.673   3.226   6.943
 8862SOL     OW27484   5.894   1.483   4.951
 8862SOL    HW127485   5.899   1.523   5.042
 8862SOL    HW227486   5.982   1.439   4.929
 8863SOL     OW27487   2.260   5.724   5.115
 8863SOL    HW127488   2.182   5.752   5.172
 8863SOL    HW227489   2.329   5.797   5.115
 8864SOL     OW27490   2.290   3.403   6.534
 8864SOL    HW127491   2.285   3.349   6.450
 8864SOL    HW227492   2.251   3.493   6.519
 8865SOL     OW27493   2.771   2.023   5.079
 8865SOL    HW127494   2.868   2.030   5.056
 8865SOL    HW227495   2.717   2.018   4.995
 8866SOL     OW27496   3.724   6.670   3.254
 8866SOL    HW127497   3.712   6.753   3.201
 8866SOL    HW227498   3.723   6.591   3.193
 8867SOL     OW27499   5.802   1.944   2.925
 8867SOL    HW127500   5.702   1.944   2.932
 8867SOL    HW227501   5.830   1.878   2.856
 8868SOL     OW27502   4.710   3.839   0.604
 8868SOL    HW127503   4.808   3.855   0.611
 8868SOL    HW227504   4.674   3.812   0.693
 8869SOL     OW27505   4.933   3.904   3.363
 8869SOL    HW127506   4.978   3.895   3.274
 8869SOL    HW227507   4.996   3.874   3.435
 8870SOL     OW27508   3.667   1.149   0.795
 8870SOL    HW127509   3.665   1.166   0.697
 8870SOL    HW227510   3.761   1.153   0.828
 8871SOL     OW27511   1.826   1.083   3.848
 8871SOL    HW127512   1.921   1.090   3.877
 8871SOL    HW227513   1.819   1.022   3.769
 8872SOL     OW27514   2.235   4.215   4.133
 8872SOL    HW127515   2.261   4.261   4.219
 8872SOL    HW227516   2.214   4.119   4.152
 8873SOL     OW27517   0.509   5.772   3.928
 8873SOL    HW127518   0.553   5.821   3.853
 8873SOL    HW227519   0.578   5.717   3.976
 8874SOL     OW27520   2.412   0.154   1.113
 8874SOL    HW127521   2.319   0.131   1.142
 8874SOL    HW227522   2.415   0.250   1.086
 8875SOL     OW27523   1.448   2.783   4.236
 8875SOL    HW127524   1.450   2.854   4.166
 8875SOL    HW227525   1.537   2.779   4.282
 8876SOL     OW27526   0.176   1.344   4.676
 8876SOL    HW127527   0.124   1.423   4.707
 8876SOL    HW227528   0.235   1.370   4.600
 8877SOL     OW27529   3.211   0.624   4.088
 8877SOL    HW127530   3.239   0.713   4.123
 8877SOL    HW227531   3.190   0.632   3.991
 8878SOL     OW27532   0.045   4.534   0.619
 8878SOL    HW127533   0.119   4.581   0.667
 8878SOL    HW227534   0.084   4.477   0.546
 8879SOL     OW27535   4.974   5.955   0.461
 8879SOL    HW127536   5.015   5.917   0.377
 8879SOL    HW227537   4.999   5.898   0.539
 8880SOL     OW27538   6.472   5.371   4.498
 8880SOL    HW127539   6.391   5.400   4.447
 8880SOL    HW227540   6.552   5.419   4.462
 8881SOL     OW27541   6.809   1.112   2.188
 8881SOL    HW127542   6.843   1.047   2.255
 8881SOL    HW227543   6.792   1.200   2.233
 8882SOL     OW27544   5.406   1.856   6.812
 8882SOL    HW127545   5.397   1.845   6.713
 8882SOL    HW227546   5.325   1.817   6.857
 8883SOL     OW27547   6.537   0.985   6.247
 8883SOL    HW127548   6.461   1.002   6.309
 8883SOL    HW227549   6.554   0.887   6.241
 8884SOL     OW27550   5.645   0.174   6.461
 8884SOL    HW127551   5.578   0.143   6.528
 8884SOL    HW227552   5.637   0.118   6.378
 8885SOL     OW27553   6.043   4.037   1.838
 8885SOL    HW127554   6.034   4.012   1.741
 8885SOL    HW227555   6.119   3.986   1.878
 8886SOL     OW27556   2.829   6.523   6.018
 8886SOL    HW127557   2.813   6.506   6.115
 8886SOL    HW227558   2.745   6.508   5.967
 8887SOL     OW27559   2.542   1.273   1.436
 8887SOL    HW127560   2.477   1.207   1.472
 8887SOL    HW227561   2.548   1.352   1.497
 8888SOL     OW27562   1.599   1.433   1.013
 8888SOL    HW127563   1.670   1.397   1.074
 8888SOL    HW227564   1.552   1.509   1.057
 8889SOL     OW27565   4.881   0.226   4.762
 8889SOL    HW127566   4.916   0.315   4.790
 8889SOL    HW227567   4.792   0.237   4.717
 8890SOL     OW27568   6.990   5.820   4.499
 8890SOL    HW127569   0.044   5.774   4.522
 8890SOL    HW227570   6.920   5.799   4.568
 8891SOL     OW27571   5.731   3.107   6.537
 8891SOL    HW127572   5.718   3.094   6.439
 8891SOL    HW227573   5.646   3.140   6.578
 8892SOL     OW27574   1.978   6.942   3.409
 8892SOL    HW127575   1.922   6.974   3.486
 8892SOL    HW227576   2.031   7.018   3.372
 8893SOL     OW27577   0.087   0.941   1.145
 8893SOL    HW127578   0.017   0.873   1.169
 8893SOL    HW227579   0.045   1.014   1.091
 8894SOL     OW27580   4.316   2.418   5.753
 8894SOL    HW127581   4.272   2.453   5.836
 8894SOL    HW227582   4.303   2.483   5.678
 8895SOL     OW27583   0.366   6.761   1.219
 8895SOL    HW127584   0.266   6.767   1.227
 8895SOL    HW227585   0.408   6.817   1.290
 8896SOL     OW27586   1.745   3.845   5.104
 8896SOL    HW127587   1.701   3.827   5.016
 8896SOL    HW227588   1.841   3.866   5.089
 8897SOL     OW27589   1.539   1.410   1.656
 8897SOL    HW127590   1.620   1.356   1.630
 8897SOL    HW227591   1.568   1.488   1.711
 8898SOL     OW27592   5.977   3.481   4.529
 8898SOL    HW127593   6.069   3.460   4.498
 8898SOL    HW227594   5.978   3.565   4.583
 8899SOL     OW27595   2.310   4.125   6.856
 8899SOL    HW127596   2.245   4.101   6.784
 8899SOL    HW227597   2.360   4.044   6.884
 8900SOL     OW27598   4.778   2.980   3.257
 8900SOL    HW127599   4.833   2.966   3.339
 8900SOL    HW227600   4.835   3.020   3.185
 8901SOL     OW27601   1.492   0.731   2.800
 8901SOL    HW127602   1.488   0.685   2.888
 8901SOL    HW227603   1.451   0.673   2.730
 8902SOL     OW27604   1.968   5.502   6.595
 8902SOL    HW127605   1.948   5.599   6.584
 8902SOL    HW227606   1.943   5.472   6.687
 8903SOL     OW27607   2.454   1.671   3.623
 8903SOL    HW127608   2.420   1.682   3.530
 8903SOL    HW227609   2.526   1.602   3.625
 8904SOL     OW27610   0.306   5.835   4.072
 8904SOL    HW127611   0.383   5.815   4.012
 8904SOL    HW227612   0.244   5.899   4.027
 8905SOL     OW27613   2.213   3.182   5.408
 8905SOL    HW127614   2.122   3.212   5.380
 8905SOL    HW227615   2.222   3.084   5.393
 8906SOL     OW27616   6.594   6.267   6.211
 8906SOL    HW127617   6.499   6.297   6.215
 8906SOL    HW227618   6.644   6.324   6.146
 8907SOL     OW27619   3.296   2.504   5.311
 8907SOL    HW127620   3.289   2.427   5.247
 8907SOL    HW227621   3.309   2.589   5.259
 8908SOL     OW27622   1.429   2.115   0.961
 8908SOL    HW127623   1.473   2.027   0.946
 8908SOL    HW227624   1.401   2.154   0.873
 8909SOL     OW27625   3.238   0.322   6.079
 8909SOL    HW127626   3.274   0.243   6.030
 8909SOL    HW227627   3.184   0.379   6.016
 8910SOL     OW27628   3.076   3.233   6.502
 8910SOL    HW127629   2.984   3.221   6.466
 8910SOL    HW227630   3.085   3.325   6.541
 8911SOL     OW27631   3.157   2.155   4.538
 8911SOL    HW127632   3.089   2.146   4.611
 8911SOL    HW227633   3.249   2.147   4.577
 8912SOL     OW27634   4.466   1.883   5.848
 8912SOL    HW127635   4.384   1.863   5.794
 8912SOL    HW227636   4.547   1.853   5.799
 8913SOL     OW27637   5.070   4.032   1.853
 8913SOL    HW127638   5.160   4.021   1.897
 8913SOL    HW227639   5.057   4.128   1.828
 8914SOL     OW27640   3.970   1.497   4.908
 8914SOL    HW127641   4.004   1.576   4.857
 8914SOL    HW227642   3.890   1.523   4.961
 8915SOL     OW27643   1.940   3.234   3.910
 8915SOL    HW127644   1.993   3.170   3.853
 8915SOL    HW227645   1.963   3.219   4.006
 8916SOL     OW27646   0.049   4.582   2.771
 8916SOL    HW127647   0.137   4.628   2.757
 8916SOL    HW227648   0.005   4.567   2.682
 8917SOL     OW27649   6.039   5.817   6.627
 8917SOL    HW127650   6.071   5.893   6.570
 8917SOL    HW227651   6.099   5.808   6.707
 8918SOL     OW27652   5.655   6.400   6.850
 8918SOL    HW127653   5.624   6.486   6.891
 8918SOL    HW227654   5.605   6.384   6.765
 8919SOL     OW27655   3.380   4.241   1.044
 8919SOL    HW127656   3.317   4.314   1.071
 8919SOL    HW227657   3.454   4.279   0.990
 8920SOL     OW27658   5.988   5.485   6.321
 8920SOL    HW127659   5.940   5.563   6.282
 8920SOL    HW227660   5.923   5.410   6.338
 8921SOL     OW27661   1.626   0.691   3.827
 8921SOL    HW127662   1.680   0.615   3.864
 8921SOL    HW227663   1.686   0.769   3.808
 8922SOL     OW27664   1.967   4.970   1.013
 8922SOL    HW127665   2.040   4.928   1.066
 8922SOL    HW227666   2.005   5.039   0.952
 8923SOL     OW27667   1.968   3.776   6.578
 8923SOL    HW127668   1.895   3.725   6.533
 8923SOL    HW227669   2.057   3.743   6.547
 8924SOL     OW27670   2.948   4.784   5.943
 8924SOL    HW127671   2.923   4.737   5.858
 8924SOL    HW227672   3.035   4.832   5.929
 8925SOL     OW27673   6.896   6.745   2.399
 8925SOL    HW127674   6.892   6.645   2.396
 8925SOL    HW227675   6.906   6.775   2.494
 8926SOL     OW27676   5.593   2.173   2.149
 8926SOL    HW127677   5.627   2.256   2.194
 8926SOL    HW227678   5.646   2.158   2.065
 8927SOL     OW27679   2.404   2.745   5.113
 8927SOL    HW127680   2.404   2.816   5.043
 8927SOL    HW227681   2.442   2.781   5.198
 8928SOL     OW27682   0.417   0.730   5.762
 8928SOL    HW127683   0.399   0.782   5.846
 8928SOL    HW227684   0.367   0.644   5.765
 8929SOL     OW27685   6.703   3.856   4.135
 8929SOL    HW127686   6.692   3.956   4.127
 8929SOL    HW227687   6.799   3.835   4.152
 8930SOL     OW27688   1.330   5.742   4.916
 8930SOL    HW127689   1.250   5.799   4.899
 8930SOL    HW227690   1.313   5.684   4.996
 8931SOL     OW27691   5.244   1.934   1.357
 8931SOL    HW127692   5.333   1.927   1.313
 8931SOL    HW227693   5.187   2.001   1.308
 8932SOL     OW27694   5.985   0.373   6.581
 8932SOL    HW127695   5.957   0.343   6.490
 8932SOL    HW227696   5.932   0.454   6.607
 8933SOL     OW27697   1.223   1.215   4.904
 8933SOL    HW127698   1.147   1.159   4.934
 8933SOL    HW227699   1.304   1.158   4.889
 8934SOL     OW27700   3.542   5.506   3.435
 8934SOL    HW127701   3.555   5.475   3.341
 8934SOL    HW227702   3.515   5.429   3.493
 8935SOL     OW27703   4.743   2.640   2.679
 8935SOL    HW127704   4.747   2.725   2.731
 8935SOL    HW227705   4.670   2.582   2.715
 8936SOL     OW27706   0.382   4.623   1.156
 8936SOL    HW127707   0.330   4.549   1.113
 8936SOL    HW227708   0.332   4.709   1.146
 8937SOL     OW27709   0.493   6.848   4.055
 8937SOL    HW127710   0.481   6.787   4.133
 8937SOL    HW227711   0.517   6.940   4.088
 8938SOL     OW27712   6.142   0.897   0.699
 8938SOL    HW127713   6.140   0.815   0.642
 8938SOL    HW227714   6.049   0.920   0.728
 8939SOL     OW27715   0.042   2.956   4.304
 8939SOL    HW127716   0.056   3.050   4.271
 8939SOL    HW227717   6.976   2.939   4.316
 8940SOL     OW27718   6.899   3.544   1.100
 8940SOL    HW127719   6.817   3.588   1.136
 8940SOL    HW227720   6.886   3.527   1.002
 8941SOL     OW27721   4.939   2.586   2.174
 8941SOL    HW127722   4.846   2.624   2.183
 8941SOL    HW227723   4.984   2.628   2.095
 8942SOL     OW27724   6.458   5.069   3.892
 8942SOL    HW127725   6.386   5.044   3.827
 8942SOL    HW227726   6.468   4.996   3.960
 8943SOL     OW27727   4.291   3.444   0.189
 8943SOL    HW127728   4.216   3.498   0.229
 8943SOL    HW227729   4.315   3.369   0.251
 8944SOL     OW27730   4.488   5.492   4.664
 8944SOL    HW127731   4.552   5.451   4.729
 8944SOL    HW227732   4.421   5.547   4.714
 8945SOL     OW27733   6.349   3.308   4.848
 8945SOL    HW127734   6.398   3.250   4.783
 8945SOL    HW227735   6.368   3.404   4.827
 8946SOL     OW27736   5.055   1.042   4.378
 8946SOL    HW127737   5.036   1.065   4.282
 8946SOL    HW227738   5.144   0.996   4.384
 8947SOL     OW27739   1.418   4.935   6.173
 8947SOL    HW127740   1.382   5.005   6.111
 8947SOL    HW227741   1.346   4.907   6.236
 8948SOL     OW27742   6.495   7.027   3.674
 8948SOL    HW127743   6.503   0.040   3.762
 8948SOL    HW227744   6.585   6.995   3.644
 8949SOL     OW27745   3.327   6.098   0.466
 8949SOL    HW127746   3.242   6.126   0.422
 8949SOL    HW227747   3.376   6.178   0.499
 8950SOL     OW27748   4.722   4.717   1.546
 8950SOL    HW127749   4.651   4.678   1.604
 8950SOL    HW227750   4.752   4.648   1.480
 8951SOL     OW27751   2.583   1.281   4.137
 8951SOL    HW127752   2.608   1.313   4.045
 8951SOL    HW227753   2.524   1.200   4.129
 8952SOL     OW27754   2.494   4.768   3.315
 8952SOL    HW127755   2.459   4.715   3.238
 8952SOL    HW227756   2.417   4.807   3.366
 8953SOL     OW27757   2.709   5.318   2.264
 8953SOL    HW127758   2.678   5.228   2.232
 8953SOL    HW227759   2.631   5.370   2.298
 8954SOL     OW27760   0.979   5.796   4.982
 8954SOL    HW127761   1.028   5.876   4.946
 8954SOL    HW227762   1.029   5.757   5.059
 8955SOL     OW27763   5.582   2.850   3.619
 8955SOL    HW127764   5.552   2.935   3.577
 8955SOL    HW227765   5.641   2.800   3.554
 8956SOL     OW27766   0.940   6.364   5.948
 8956SOL    HW127767   0.947   6.269   5.979
 8956SOL    HW227768   0.871   6.371   5.876
 8957SOL     OW27769   1.522   5.231   2.142
 8957SOL    HW127770   1.582   5.158   2.176
 8957SOL    HW227771   1.560   5.270   2.059
 8958SOL     OW27772   1.931   3.244   5.430
 8958SOL    HW127773   1.972   3.230   5.521
 8958SOL    HW227774   1.835   3.271   5.441
 8959SOL     OW27775   0.543   3.312   2.255
 8959SOL    HW127776   0.609   3.237   2.255
 8959SOL    HW227777   0.572   3.381   2.189
 8960SOL     OW27778   5.768   3.895   4.104
 8960SOL    HW127779   5.746   3.890   4.007
 8960SOL    HW227780   5.812   3.809   4.132
 8961SOL     OW27781   3.302   6.835   5.126
 8961SOL    HW127782   3.228   6.878   5.178
 8961SOL    HW227783   3.265   6.759   5.073
 8962SOL     OW27784   0.692   5.689   1.383
 8962SOL    HW127785   0.605   5.681   1.432
 8962SOL    HW227786   0.758   5.737   1.441
 8963SOL     OW27787   3.618   6.477   4.699
 8963SOL    HW127788   3.634   6.566   4.658
 8963SOL    HW227789   3.705   6.430   4.712
 8964SOL     OW27790   6.377   3.853   3.896
 8964SOL    HW127791   6.404   3.853   3.799
 8964SOL    HW227792   6.458   3.869   3.952
 8965SOL     OW27793   4.186   5.026   0.126
 8965SOL    HW127794   4.126   4.976   0.065
 8965SOL    HW227795   4.138   5.048   0.211
 8966SOL     OW27796   5.254   5.724   6.540
 8966SOL    HW127797   5.160   5.740   6.509
 8966SOL    HW227798   5.269   5.771   6.627
 8967SOL     OW27799   3.428   0.918   3.311
 8967SOL    HW127800   3.381   0.927   3.223
 8967SOL    HW227801   3.521   0.954   3.303
 8968SOL     OW27802   3.563   5.064   2.010
 8968SOL    HW127803   3.481   5.054   2.066
 8968SOL    HW227804   3.629   5.121   2.058
 8969SOL     OW27805   6.993   0.654   2.547
 8969SOL    HW127806   6.929   0.608   2.485
 8969SOL    HW227807   6.964   0.640   2.641
 8970SOL     OW27808   1.285   1.344   6.267
 8970SOL    HW127809   1.266   1.424   6.322
 8970SOL    HW227810   1.382   1.343   6.243
 8971SOL     OW27811   4.378   5.689   0.738
 8971SOL    HW127812   4.464   5.738   0.754
 8971SOL    HW227813   4.394   5.591   0.743
 8972SOL     OW27814   5.653   4.821   0.738
 8972SOL    HW127815   5.696   4.731   0.737
 8972SOL    HW227816   5.680   4.872   0.656
 8973SOL     OW27817   0.666   2.331   1.952
 8973SOL    HW127818   0.651   2.425   1.984
 8973SOL    HW227819   0.606   2.313   1.875
 8974SOL     OW27820   2.516   4.509   4.331
 8974SOL    HW127821   2.440   4.445   4.337
 8974SOL    HW227822   2.534   4.550   4.420
 8975SOL     OW27823   0.483   0.758   6.593
 8975SOL    HW127824   0.571   0.723   6.561
 8975SOL    HW227825   0.486   0.858   6.594
 8976SOL     OW27826   6.612   0.166   1.413
 8976SOL    HW127827   6.697   0.218   1.404
 8976SOL    HW227828   6.546   0.198   1.345
 8977SOL     OW27829   6.828   4.962   6.274
 8977SOL    HW127830   6.867   4.922   6.192
 8977SOL    HW227831   6.873   5.048   6.294
 8978SOL     OW27832   6.031   5.841   5.919
 8978SOL    HW127833   6.115   5.892   5.899
 8978SOL    HW227834   6.046   5.782   5.998
 8979SOL     OW27835   0.743   5.607   5.959
 8979SOL    HW127836   0.756   5.551   5.877
 8979SOL    HW227837   0.814   5.586   6.026
 8980SOL     OW27838   3.653   1.104   4.795
 8980SOL    HW127839   3.709   1.026   4.766
 8980SOL    HW227840   3.712   1.173   4.837
 8981SOL     OW27841   4.442   2.640   6.304
 8981SOL    HW127842   4.346   2.625   6.282
 8981SOL    HW227843   4.470   2.730   6.270
 8982SOL     OW27844   6.689   1.270   1.056
 8982SOL    HW127845   6.668   1.206   0.983
 8982SOL    HW227846   6.687   1.221   1.144
 8983SOL     OW27847   0.636   5.597   2.816
 8983SOL    HW127848   0.710   5.596   2.749
 8983SOL    HW227849   0.647   5.519   2.878
 8984SOL     OW27850   5.915   0.477   4.144
 8984SOL    HW127851   5.981   0.534   4.192
 8984SOL    HW227852   5.857   0.536   4.087
 8985SOL     OW27853   5.064   2.158   0.555
 8985SOL    HW127854   5.091   2.220   0.481
 8985SOL    HW227855   5.023   2.076   0.517
 8986SOL     OW27856   6.406   4.507   1.503
 8986SOL    HW127857   6.416   4.583   1.567
 8986SOL    HW227858   6.406   4.421   1.554
 8987SOL     OW27859   2.245   6.570   1.371
 8987SOL    HW127860   2.236   6.594   1.274
 8987SOL    HW227861   2.219   6.474   1.384
 8988SOL     OW27862   1.890   4.771   1.215
 8988SOL    HW127863   1.988   4.777   1.201
 8988SOL    HW227864   1.842   4.791   1.130
 8989SOL     OW27865   5.660   1.832   2.062
 8989SOL    HW127866   5.694   1.924   2.041
 8989SOL    HW227867   5.561   1.836   2.074
 8990SOL     OW27868   3.150   6.750   1.675
 8990SOL    HW127869   3.082   6.817   1.704
 8990SOL    HW227870   3.233   6.797   1.646
 8991SOL     OW27871   1.997   2.170   0.667
 8991SOL    HW127872   2.022   2.096   0.604
 8991SOL    HW227873   2.071   2.238   0.669
 8992SOL     OW27874   0.553   3.588   6.704
 8992SOL    HW127875   0.578   3.598   6.607
 8992SOL    HW227876   0.590   3.503   6.740
 8993SOL     OW27877   5.706   2.479   3.504
 8993SOL    HW127878   5.615   2.442   3.521
 8993SOL    HW227879   5.765   2.458   3.582
 8994SOL     OW27880   1.157   5.062   3.745
 8994SOL    HW127881   1.238   5.114   3.717
 8994SOL    HW227882   1.162   4.970   3.707
 8995SOL     OW27883   1.843   3.182   5.185
 8995SOL    HW127884   1.835   3.250   5.112
 8995SOL    HW227885   1.907   3.215   5.254
 8996SOL     OW27886   0.558   3.931   2.502
 8996SOL    HW127887   0.585   3.854   2.560
 8996SOL    HW227888   0.638   3.962   2.450
 8997SOL     OW27889   4.149   1.292   5.234
 8997SOL    HW127890   4.120   1.374   5.185
 8997SOL    HW227891   4.083   1.218   5.218
 8998SOL     OW27892   1.574   2.786   5.878
 8998SOL    HW127893   1.509   2.757   5.948
 8998SOL    HW227894   1.624   2.706   5.844
 8999SOL     OW27895   5.314   1.426   5.492
 8999SOL    HW127896   5.389   1.488   5.513
 8999SOL    HW227897   5.247   1.474   5.435
 9000SOL     OW27898   3.575   4.131   0.603
 9000SOL    HW127899   3.586   4.105   0.699
 9000SOL    HW227900   3.517   4.064   0.557
 9001SOL     OW27901   2.176   4.838   3.922
 9001SOL    HW127902   2.264   4.860   3.880
 9001SOL    HW227903   2.178   4.863   4.019
 9002SOL     OW27904   6.059   4.655   6.281
 9002SOL    HW127905   6.029   4.720   6.211
 9002SOL    HW227906   6.048   4.562   6.247
 9003SOL     OW27907   6.571   2.979   0.211
 9003SOL    HW127908   6.659   2.936   0.191
 9003SOL    HW227909   6.505   2.909   0.238
 9004SOL     OW27910   4.614   6.468   1.359
 9004SOL    HW127911   4.549   6.537   1.392
 9004SOL    HW227912   4.625   6.396   1.428
 9005SOL     OW27913   4.924   2.248   3.352
 9005SOL    HW127914   4.949   2.268   3.257
 9005SOL    HW227915   4.826   2.265   3.365
 9006SOL     OW27916   1.468   5.182   1.131
 9006SOL    HW127917   1.418   5.174   1.217
 9006SOL    HW227918   1.458   5.275   1.096
 9007SOL     OW27919   3.430   5.486   4.001
 9007SOL    HW127920   3.524   5.476   3.971
 9007SOL    HW227921   3.428   5.539   4.087
 9008SOL     OW27922   0.048   4.036   1.613
 9008SOL    HW127923   0.130   4.084   1.645
 9008SOL    HW227924   7.002   4.098   1.614
 9009SOL     OW27925   2.684   6.232   0.865
 9009SOL    HW127926   2.766   6.265   0.911
 9009SOL    HW227927   2.677   6.275   0.775
 9010SOL     OW27928   0.435   6.480   5.064
 9010SOL    HW127929   0.454   6.562   5.010
 9010SOL    HW227930   0.521   6.433   5.084
 9011SOL     OW27931   4.039   1.913   1.051
 9011SOL    HW127932   4.122   1.969   1.046
 9011SOL    HW227933   4.029   1.861   0.966
 9012SOL     OW27934   0.738   5.081   1.968
 9012SOL    HW127935   0.742   5.025   2.051
 9012SOL    HW227936   0.651   5.129   1.964
 9013SOL     OW27937   6.348   5.799   3.166
 9013SOL    HW127938   6.426   5.821   3.224
 9013SOL    HW227939   6.381   5.770   3.076
 9014SOL     OW27940   1.500   0.691   0.747
 9014SOL    HW127941   1.553   0.608   0.727
 9014SOL    HW227942   1.437   0.710   0.672
 9015SOL     OW27943   0.397   1.278   5.968
 9015SOL    HW127944   0.359   1.259   5.878
 9015SOL    HW227945   0.481   1.224   5.981
 9016SOL     OW27946   6.359   5.876   5.941
 9016SOL    HW127947   6.309   5.954   5.903
 9016SOL    HW227948   6.392   5.900   6.033
 9017SOL     OW27949   6.298   2.248   3.982
 9017SOL    HW127950   6.285   2.290   4.072
 9017SOL    HW227951   6.306   2.321   3.913
 9018SOL     OW27952   3.208   1.844   5.160
 9018SOL    HW127953   3.140   1.907   5.122
 9018SOL    HW227954   3.278   1.825   5.091
 9019SOL     OW27955   3.005   5.981   0.415
 9019SOL    HW127956   2.988   6.060   0.474
 9019SOL    HW227957   3.031   6.013   0.324
 9020SOL     OW27958   1.861   4.376   2.834
 9020SOL    HW127959   1.873   4.281   2.862
 9020SOL    HW227960   1.766   4.392   2.809
 9021SOL     OW27961   0.037   5.345   4.351
 9021SOL    HW127962   0.077   5.430   4.383
 9021SOL    HW227963   0.103   5.296   4.294
 9022SOL     OW27964   2.473   0.515   0.329
 9022SOL    HW127965   2.547   0.457   0.296
 9022SOL    HW227966   2.465   0.596   0.272
 9023SOL     OW27967   3.370   3.385   3.813
 9023SOL    HW127968   3.396   3.350   3.903
 9023SOL    HW227969   3.357   3.483   3.818
 9024SOL     OW27970   1.501   6.392   5.927
 9024SOL    HW127971   1.598   6.408   5.941
 9024SOL    HW227972   1.460   6.354   6.010
 9025SOL     OW27973   6.101   4.878   1.798
 9025SOL    HW127974   6.147   4.812   1.858
 9025SOL    HW227975   6.010   4.897   1.833
 9026SOL     OW27976   3.703   2.970   4.698
 9026SOL    HW127977   3.731   2.874   4.703
 9026SOL    HW227978   3.669   3.000   4.787
 9027SOL     OW27979   2.804   2.261   2.990
 9027SOL    HW127980   2.755   2.313   3.060
 9027SOL    HW227981   2.807   2.314   2.905
 9028SOL     OW27982   2.625   4.623   5.242
 9028SOL    HW127983   2.619   4.544   5.304
 9028SOL    HW227984   2.711   4.619   5.192
 9029SOL     OW27985   5.142   5.762   3.513
 9029SOL    HW127986   5.114   5.667   3.532
 9029SOL    HW227987   5.143   5.777   3.414
 9030SOL     OW27988   2.256   0.896   2.420
 9030SOL    HW127989   2.172   0.948   2.438
 9030SOL    HW227990   2.290   0.857   2.506
 9031SOL     OW27991   2.510   6.398   6.069
 9031SOL    HW127992   2.533   6.370   6.162
 9031SOL    HW227993   2.504   6.498   6.064
 9032SOL     OW27994   2.469   2.147   1.831
 9032SOL    HW127995   2.430   2.113   1.745
 9032SOL    HW227996   2.555   2.193   1.813
 9033SOL     OW27997   1.570   3.257   3.977
 9033SOL    HW127998   1.594   3.202   4.057
 9033SOL    HW227999   1.640   3.328   3.964
 9034SOL     OW28000   2.881   6.280   5.794
 9034SOL    HW128001   2.941   6.360   5.795
 9034SOL    HW228002   2.786   6.310   5.790
 9035SOL     OW28003   6.916   0.955   4.131
 9035SOL    HW128004   6.965   1.040   4.150
 9035SOL    HW228005   6.894   0.950   4.034
 9036SOL     OW28006   1.299   2.695   5.722
 9036SOL    HW128007   1.385   2.742   5.743
 9036SOL    HW228008   1.251   2.745   5.649
 9037SOL     OW28009   2.820   4.375   7.018
 9037SOL    HW128010   2.909   4.329   7.013
 9037SOL    HW228011   2.757   4.332   6.953
 9038SOL     OW28012   4.896   6.645   4.882
 9038SOL    HW128013   4.824   6.645   4.812
 9038SOL    HW228014   4.880   6.720   4.946
 9039SOL     OW28015   2.111   5.017   4.905
 9039SOL    HW128016   2.039   5.078   4.872
 9039SOL    HW228017   2.145   5.049   4.993
 9040SOL     OW28018   2.200   1.996   2.468
 9040SOL    HW128019   2.158   1.927   2.526
 9040SOL    HW228020   2.285   2.028   2.510
 9041SOL     OW28021   1.221   2.753   0.916
 9041SOL    HW128022   1.181   2.754   0.824
 9041SOL    HW228023   1.148   2.769   0.983
 9042SOL     OW28024   2.927   5.104   3.276
 9042SOL    HW128025   2.897   5.058   3.193
 9042SOL    HW228026   3.007   5.056   3.313
 9043SOL     OW28027   1.244   2.767   5.996
 9043SOL    HW128028   1.276   2.862   5.991
 9043SOL    HW228029   1.238   2.729   5.904
 9044SOL     OW28030   5.961   0.419   0.684
 9044SOL    HW128031   6.005   0.427   0.774
 9044SOL    HW228032   5.955   0.322   0.658
 9045SOL     OW28033   3.184   0.361   3.289
 9045SOL    HW128034   3.109   0.427   3.288
 9045SOL    HW228035   3.197   0.328   3.383
 9046SOL     OW28036   3.474   4.299   5.643
 9046SOL    HW128037   3.524   4.245   5.711
 9046SOL    HW228038   3.388   4.331   5.681
 9047SOL     OW28039   1.506   4.244   4.055
 9047SOL    HW128040   1.414   4.205   4.055
 9047SOL    HW228041   1.571   4.177   4.018
 9048SOL     OW28042   1.662   3.734   4.832
 9048SOL    HW128043   1.700   3.676   4.759
 9048SOL    HW228044   1.564   3.716   4.841
 9049SOL     OW28045   5.599   6.400   5.813
 9049SOL    HW128046   5.600   6.487   5.764
 9049SOL    HW228047   5.592   6.416   5.911
 9050SOL     OW28048   0.016   4.892   0.073
 9050SOL    HW128049   0.079   4.897   7.027
 9050SOL    HW228050   6.990   4.974   0.075
 9051SOL     OW28051   5.216   6.347   0.036
 9051SOL    HW128052   5.229   6.404   0.118
 9051SOL    HW228053   5.227   6.403   6.986
 9052SOL     OW28054   2.648   4.931   4.786
 9052SOL    HW128055   2.568   4.961   4.838
 9052SOL    HW228056   2.679   5.005   4.727
 9053SOL     OW28057   2.353   2.811   3.971
 9053SOL    HW128058   2.419   2.741   3.997
 9053SOL    HW228059   2.263   2.788   4.010
 9054SOL     OW28060   1.590   0.654   1.980
 9054SOL    HW128061   1.517   0.718   1.956
 9054SOL    HW228062   1.628   0.679   2.069
 9055SOL     OW28063   0.937   2.629   3.907
 9055SOL    HW128064   0.936   2.572   3.989
 9055SOL    HW228065   1.032   2.648   3.881
 9056SOL     OW28066   4.734   0.329   2.538
 9056SOL    HW128067   4.813   0.377   2.575
 9056SOL    HW228068   4.764   0.248   2.488
 9057SOL     OW28069   6.215   5.716   0.384
 9057SOL    HW128070   6.121   5.717   0.418
 9057SOL    HW228071   6.214   5.698   0.286
 9058SOL     OW28072   1.926   2.875   5.019
 9058SOL    HW128073   1.974   2.887   5.106
 9058SOL    HW228074   1.871   2.956   5.000
 9059SOL     OW28075   6.741   1.895   3.251
 9059SOL    HW128076   6.687   1.949   3.187
 9059SOL    HW228077   6.700   1.901   3.342
 9060SOL     OW28078   6.822   3.316   2.129
 9060SOL    HW128079   6.733   3.336   2.170
 9060SOL    HW228080   6.866   3.402   2.101
 9061SOL     OW28081   4.735   6.126   2.537
 9061SOL    HW128082   4.756   6.162   2.627
 9061SOL    HW228083   4.694   6.035   2.546
 9062SOL     OW28084   0.919   4.275   3.455
 9062SOL    HW128085   0.824   4.271   3.485
 9062SOL    HW228086   0.969   4.340   3.512
 9063SOL     OW28087   2.943   1.137   2.573
 9063SOL    HW128088   3.016   1.077   2.606
 9063SOL    HW228089   2.948   1.225   2.619
 9064SOL     OW28090   0.226   4.091   3.715
 9064SOL    HW128091   0.298   4.153   3.684
 9064SOL    HW228092   0.263   4.031   3.786
 9065SOL     OW28093   2.944   6.019   4.878
 9065SOL    HW128094   3.036   5.990   4.904
 9065SOL    HW228095   2.878   5.948   4.903
 9066SOL     OW28096   5.830   5.724   6.501
 9066SOL    HW128097   5.912   5.735   6.558
 9066SOL    HW228098   5.825   5.798   6.435
 9067SOL     OW28099   6.379   0.110   4.409
 9067SOL    HW128100   6.434   0.107   4.493
 9067SOL    HW228101   6.334   0.199   4.402
 9068SOL     OW28102   5.129   0.375   5.215
 9068SOL    HW128103   5.140   0.472   5.190
 9068SOL    HW228104   5.198   0.321   5.167
 9069SOL     OW28105   4.615   1.993   1.998
 9069SOL    HW128106   4.554   2.012   2.076
 9069SOL    HW228107   4.677   1.919   2.022
 9070SOL     OW28108   1.234   2.072   5.924
 9070SOL    HW128109   1.159   2.020   5.884
 9070SOL    HW228110   1.231   2.064   6.023
 9071SOL     OW28111   4.368   1.516   5.889
 9071SOL    HW128112   4.314   1.536   5.971
 9071SOL    HW228113   4.462   1.545   5.903
 9072SOL     OW28114   5.197   0.074   1.604
 9072SOL    HW128115   5.108   0.095   1.645
 9072SOL    HW228116   5.183   0.018   1.522
 9073SOL     OW28117   3.925   0.506   6.963
 9073SOL    HW128118   3.904   0.470   6.872
 9073SOL    HW228119   3.917   0.432   7.030
 9074SOL     OW28120   1.296   0.351   1.272
 9074SOL    HW128121   1.221   0.293   1.240
 9074SOL    HW228122   1.363   0.361   1.199
 9075SOL     OW28123   6.404   0.704   1.766
 9075SOL    HW128124   6.491   0.699   1.816
 9075SOL    HW228125   6.403   0.634   1.695
 9076SOL     OW28126   4.998   0.434   2.620
 9076SOL    HW128127   5.074   0.389   2.574
 9076SOL    HW228128   5.008   0.424   2.719
 9077SOL     OW28129   5.215   0.955   5.996
 9077SOL    HW128130   5.302   0.926   5.956
 9077SOL    HW228131   5.232   1.030   6.060
 9078SOL     OW28132   4.711   5.497   7.026
 9078SOL    HW128133   4.718   5.597   7.028
 9078SOL    HW228134   4.696   5.463   0.087
 9079SOL     OW28135   1.347   0.559   5.574
 9079SOL    HW128136   1.355   0.567   5.474
 9079SOL    HW228137   1.406   0.485   5.606
 9080SOL     OW28138   6.469   3.930   0.612
 9080SOL    HW128139   6.394   3.990   0.586
 9080SOL    HW228140   6.499   3.877   0.532
 9081SOL     OW28141   3.718   1.617   1.933
 9081SOL    HW128142   3.753   1.686   1.996
 9081SOL    HW228143   3.619   1.625   1.926
 9082SOL     OW28144   3.266   5.889   6.129
 9082SOL    HW128145   3.286   5.977   6.172
 9082SOL    HW228146   3.330   5.820   6.162
 9083SOL     OW28147   5.127   4.820   6.062
 9083SOL    HW128148   5.207   4.849   6.009
 9083SOL    HW228149   5.095   4.731   6.027
 9084SOL     OW28150   0.670   2.776   5.555
 9084SOL    HW128151   0.706   2.867   5.575
 9084SOL    HW228152   0.587   2.761   5.609
 9085SOL     OW28153   3.376   4.926   0.025
 9085SOL    HW128154   3.398   4.901   6.963
 9085SOL    HW228155   3.319   4.854   0.066
 9086SOL     OW28156   6.674   4.218   0.737
 9086SOL    HW128157   6.696   4.148   0.805
 9086SOL    HW228158   6.574   4.229   0.731
 9087SOL     OW28159   5.859   2.802   2.275
 9087SOL    HW128160   5.834   2.839   2.186
 9087SOL    HW228161   5.895   2.709   2.264
 9088SOL     OW28162   6.115   0.531   1.696
 9088SOL    HW128163   6.184   0.469   1.660
 9088SOL    HW228164   6.034   0.529   1.638
 9089SOL     OW28165   4.348   5.493   3.990
 9089SOL    HW128166   4.283   5.556   4.032
 9089SOL    HW228167   4.372   5.421   4.055
 9090SOL     OW28168   5.798   6.292   4.245
 9090SOL    HW128169   5.742   6.336   4.315
 9090SOL    HW228170   5.740   6.266   4.167
 9091SOL     OW28171   3.518   2.299   0.480
 9091SOL    HW128172   3.567   2.257   0.557
 9091SOL    HW228173   3.489   2.391   0.504
 9092SOL     OW28174   1.175   0.130   5.856
 9092SOL    HW128175   1.106   0.110   5.786
 9092SOL    HW228176   1.173   0.060   5.926
 9093SOL     OW28177   1.490   5.985   0.207
 9093SOL    HW128178   1.574   5.949   0.247
 9093SOL    HW228179   1.483   6.083   0.226
 9094SOL     OW28180   0.230   6.128   2.036
 9094SOL    HW128181   0.329   6.119   2.030
 9094SOL    HW228182   0.187   6.072   1.966
 9095SOL     OW28183   5.042   3.206   6.614
 9095SOL    HW128184   4.975   3.280   6.615
 9095SOL    HW228185   5.011   3.131   6.672
 9096SOL     OW28186   5.513   3.113   2.816
 9096SOL    HW128187   5.594   3.138   2.869
 9096SOL    HW228188   5.443   3.076   2.878
 9097SOL     OW28189   0.978   3.663   6.655
 9097SOL    HW128190   0.975   3.760   6.634
 9097SOL    HW228191   1.067   3.626   6.629
 9098SOL     OW28192   4.009   3.710   1.865
 9098SOL    HW128193   3.917   3.692   1.899
 9098SOL    HW228194   4.029   3.647   1.790
 9099SOL     OW28195   3.413   3.423   1.044
 9099SOL    HW128196   3.428   3.491   1.116
 9099SOL    HW228197   3.467   3.341   1.065
 9100SOL     OW28198   0.584   3.063   2.043
 9100SOL    HW128199   0.639   3.088   2.122
 9100SOL    HW228200   0.588   2.964   2.030
 9101SOL     OW28201   1.989   3.053   3.069
 9101SOL    HW128202   1.900   3.098   3.063
 9101SOL    HW228203   2.003   2.995   2.989
 9102SOL     OW28204   3.868   5.787   2.811
 9102SOL    HW128205   3.784   5.752   2.852
 9102SOL    HW228206   3.851   5.810   2.715
 9103SOL     OW28207   0.132   3.420   0.807
 9103SOL    HW128208   0.050   3.381   0.764
 9103SOL    HW228209   0.210   3.409   0.746
 9104SOL     OW28210   3.765   6.092   2.108
 9104SOL    HW128211   3.717   6.167   2.063
 9104SOL    HW228212   3.864   6.101   2.091
 9105SOL     OW28213   1.684   0.415   6.713
 9105SOL    HW128214   1.704   0.505   6.675
 9105SOL    HW228215   1.598   0.381   6.676
 9106SOL     OW28216   6.047   4.681   0.443
 9106SOL    HW128217   6.075   4.586   0.453
 9106SOL    HW228218   6.037   4.703   0.346
 9107SOL     OW28219   4.517   6.778   6.871
 9107SOL    HW128220   4.542   6.866   6.830
 9107SOL    HW228221   4.429   6.748   6.836
 9108SOL     OW28222   5.088   4.588   5.160
 9108SOL    HW128223   5.121   4.498   5.188
 9108SOL    HW228224   5.165   4.643   5.127
 9109SOL     OW28225   1.738   2.190   2.883
 9109SOL    HW128226   1.743   2.102   2.835
 9109SOL    HW228227   1.827   2.211   2.925
 9110SOL     OW28228   2.567   4.572   3.931
 9110SOL    HW128229   2.521   4.487   3.959
 9110SOL    HW228230   2.635   4.597   4.000
 9111SOL     OW28231   3.973   3.750   0.831
 9111SOL    HW128232   3.961   3.700   0.745
 9111SOL    HW228233   3.960   3.688   0.908
 9112SOL     OW28234   0.444   3.705   3.401
 9112SOL    HW128235   0.485   3.693   3.311
 9112SOL    HW228236   0.486   3.641   3.466
 9113SOL     OW28237   4.670   0.861   0.256
 9113SOL    HW128238   4.622   0.885   0.340
 9113SOL    HW228239   4.767   0.884   0.264
 9114SOL     OW28240   1.906   4.659   2.470
 9114SOL    HW128241   1.982   4.718   2.498
 9114SOL    HW228242   1.827   4.677   2.528
 9115SOL     OW28243   1.145   5.336   4.947
 9115SOL    HW128244   1.070   5.378   4.896
 9115SOL    HW228245   1.214   5.302   4.882
 9116SOL     OW28246   6.955   1.806   0.050
 9116SOL    HW128247   6.943   1.843   6.989
 9116SOL    HW228248   6.880   1.743   0.069
 9117SOL     OW28249   6.189   3.110   6.794
 9117SOL    HW128250   6.104   3.105   6.847
 9117SOL    HW228251   6.265   3.081   6.852
 9118SOL     OW28252   5.603   6.618   0.594
 9118SOL    HW128253   5.640   6.598   0.684
 9118SOL    HW228254   5.678   6.621   0.527
 9119SOL     OW28255   5.981   1.401   2.755
 9119SOL    HW128256   5.974   1.444   2.665
 9119SOL    HW228257   5.920   1.322   2.760
 9120SOL     OW28258   5.810   3.009   5.796
 9120SOL    HW128259   5.804   2.913   5.768
 9120SOL    HW228260   5.773   3.067   5.723
 9121SOL     OW28261   0.753   3.030   5.716
 9121SOL    HW128262   0.758   3.101   5.786
 9121SOL    HW228263   0.815   2.955   5.739
 9122SOL     OW28264   2.045   2.386   1.597
 9122SOL    HW128265   1.959   2.356   1.556
 9122SOL    HW228266   2.033   2.399   1.696
 9123SOL     OW28267   3.448   0.048   5.412
 9123SOL    HW128268   3.490   7.024   5.340
 9123SOL    HW228269   3.373   0.102   5.373
 9124SOL     OW28270   5.781   5.985   5.856
 9124SOL    HW128271   5.861   5.930   5.881
 9124SOL    HW228272   5.725   6.000   5.936
 9125SOL     OW28273   4.404   4.663   3.937
 9125SOL    HW128274   4.430   4.634   4.029
 9125SOL    HW228275   4.465   4.621   3.870
 9126SOL     OW28276   5.944   1.482   2.486
 9126SOL    HW128277   5.889   1.464   2.405
 9126SOL    HW228278   6.029   1.429   2.481
 9127SOL     OW28279   6.362   0.207   5.934
 9127SOL    HW128280   6.313   0.294   5.936
 9127SOL    HW228281   6.296   0.131   5.931
 9128SOL     OW28282   3.647   2.043   5.173
 9128SOL    HW128283   3.661   1.945   5.159
 9128SOL    HW228284   3.550   2.064   5.164
 9129SOL     OW28285   1.893   3.216   0.911
 9129SOL    HW128286   1.987   3.200   0.941
 9129SOL    HW228287   1.847   3.275   0.977
 9130SOL     OW28288   0.240   3.909   0.018
 9130SOL    HW128289   0.254   4.007   0.031
 9130SOL    HW228290   0.302   3.858   0.077
 9131SOL     OW28291   0.369   4.417   5.071
 9131SOL    HW128292   0.379   4.448   5.166
 9131SOL    HW228293   0.323   4.329   5.070
 9132SOL     OW28294   0.126   4.480   3.987
 9132SOL    HW128295   0.150   4.418   4.061
 9132SOL    HW228296   0.110   4.572   4.023
 9133SOL     OW28297   3.266   5.578   0.955
 9133SOL    HW128298   3.283   5.505   0.889
 9133SOL    HW228299   3.313   5.557   1.040
 9134SOL     OW28300   3.274   6.887   0.941
 9134SOL    HW128301   3.312   6.975   0.914
 9134SOL    HW228302   3.239   6.839   0.860
 9135SOL     OW28303   0.089   6.228   1.806
 9135SOL    HW128304   0.123   6.241   1.899
 9135SOL    HW228305   0.126   6.300   1.747
 9136SOL     OW28306   4.822   5.414   5.511
 9136SOL    HW128307   4.895   5.473   5.475
 9136SOL    HW228308   4.844   5.319   5.489
 9137SOL     OW28309   5.325   1.854   0.743
 9137SOL    HW128310   5.270   1.912   0.803
 9137SOL    HW228311   5.413   1.897   0.726
 9138SOL     OW28312   6.580   4.630   6.227
 9138SOL    HW128313   6.493   4.582   6.214
 9138SOL    HW228314   6.563   4.721   6.265
 9139SOL     OW28315   2.322   1.354   4.231
 9139SOL    HW128316   2.309   1.301   4.315
 9139SOL    HW228317   2.412   1.335   4.193
 9140SOL     OW28318   6.576   2.930   2.937
 9140SOL    HW128319   6.676   2.926   2.931
 9140SOL    HW228320   6.546   2.899   3.027
 9141SOL     OW28321   5.509   0.444   6.701
 9141SOL    HW128322   5.452   0.398   6.769
 9141SOL    HW228323   5.465   0.439   6.612
 9142SOL     OW28324   0.540   2.830   6.440
 9142SOL    HW128325   0.548   2.884   6.524
 9142SOL    HW228326   0.627   2.832   6.391
 9143SOL     OW28327   5.035   3.991   0.266
 9143SOL    HW128328   5.115   3.972   0.323
 9143SOL    HW228329   4.964   3.923   0.284
 9144SOL     OW28330   2.370   5.506   5.935
 9144SOL    HW128331   2.442   5.448   5.897
 9144SOL    HW228332   2.315   5.543   5.860
 9145SOL     OW28333   6.902   5.248   0.902
 9145SOL    HW128334   6.981   5.302   0.874
 9145SOL    HW228335   6.911   5.225   0.999
 9146SOL     OW28336   4.966   1.813   1.938
 9146SOL    HW128337   4.958   1.817   1.838
 9146SOL    HW228338   4.875   1.804   1.979
 9147SOL     OW28339   5.812   0.223   4.214
 9147SOL    HW128340   5.823   0.316   4.179
 9147SOL    HW228341   5.824   0.157   4.140
 9148SOL     OW28342   5.209   0.114   1.117
 9148SOL    HW128343   5.161   0.049   1.057
 9148SOL    HW228344   5.142   0.165   1.171
 9149SOL     OW28345   5.093   3.041   3.808
 9149SOL    HW128346   4.998   3.061   3.786
 9149SOL    HW228347   5.120   3.092   3.889
 9150SOL     OW28348   3.385   5.338   3.580
 9150SOL    HW128349   3.303   5.285   3.557
 9150SOL    HW228350   3.464   5.277   3.584
 9151SOL     OW28351   1.185   3.991   3.160
 9151SOL    HW128352   1.255   4.027   3.098
 9151SOL    HW228353   1.158   4.061   3.225
 9152SOL     OW28354   2.997   5.378   4.815
 9152SOL    HW128355   3.057   5.308   4.776
 9152SOL    HW228356   2.905   5.341   4.825
 9153SOL     OW28357   1.359   3.376   1.382
 9153SOL    HW128358   1.448   3.331   1.393
 9153SOL    HW228359   1.286   3.313   1.407
 9154SOL     OW28360   3.279   5.176   0.101
 9154SOL    HW128361   3.301   5.103   0.036
 9154SOL    HW228362   3.361   5.199   0.154
 9155SOL     OW28363   2.090   3.113   0.510
 9155SOL    HW128364   2.018   3.123   0.441
 9155SOL    HW228365   2.052   3.070   0.592
 9156SOL     OW28366   2.538   3.092   0.958
 9156SOL    HW128367   2.496   3.064   0.872
 9156SOL    HW228368   2.541   3.192   0.964
 9157SOL     OW28369   5.891   4.887   6.372
 9157SOL    HW128370   5.800   4.923   6.395
 9157SOL    HW228371   5.881   4.795   6.334
 9158SOL     OW28372   6.087   3.361   4.872
 9158SOL    HW128373   6.182   3.355   4.903
 9158SOL    HW228374   6.084   3.399   4.779
 9159SOL     OW28375   1.042   6.992   3.439
 9159SOL    HW128376   1.036   6.893   3.423
 9159SOL    HW228377   0.994   0.008   3.364
 9160SOL     OW28378   6.481   0.187   5.231
 9160SOL    HW128379   6.542   0.254   5.273
 9160SOL    HW228380   6.503   0.096   5.266
 9161SOL     OW28381   4.799   4.211   4.388
 9161SOL    HW128382   4.739   4.291   4.381
 9161SOL    HW228383   4.811   4.171   4.297
 9162SOL     OW28384   4.989   1.406   3.748
 9162SOL    HW128385   4.973   1.423   3.846
 9162SOL    HW228386   4.902   1.381   3.704
 9163SOL     OW28387   2.143   3.448   4.273
 9163SOL    HW128388   2.235   3.482   4.290
 9163SOL    HW228389   2.123   3.451   4.175
 9164SOL     OW28390   2.468   0.442   0.010
 9164SOL    HW128391   2.481   0.343   0.007
 9164SOL    HW228392   2.372   0.464   7.023
 9165SOL     OW28393   5.785   1.564   5.453
 9165SOL    HW128394   5.869   1.512   5.468
 9165SOL    HW228395   5.735   1.526   5.375
 9166SOL     OW28396   4.639   6.123   0.826
 9166SOL    HW128397   4.549   6.164   0.813
 9166SOL    HW228398   4.701   6.189   0.868
 9167SOL     OW28399   1.583   2.727   6.355
 9167SOL    HW128400   1.677   2.751   6.330
 9167SOL    HW228401   1.584   2.665   6.433
 9168SOL     OW28402   0.530   0.566   6.110
 9168SOL    HW128403   0.456   0.572   6.043
 9168SOL    HW228404   0.605   0.625   6.081
 9169SOL     OW28405   6.427   1.249   5.109
 9169SOL    HW128406   6.381   1.284   5.190
 9169SOL    HW228407   6.489   1.175   5.136
 9170SOL     OW28408   0.899   4.988   0.718
 9170SOL    HW128409   0.988   5.029   0.697
 9170SOL    HW228410   0.912   4.912   0.782
 9171SOL     OW28411   3.413   4.825   1.248
 9171SOL    HW128412   3.370   4.846   1.336
 9171SOL    HW228413   3.453   4.909   1.210
 9172SOL     OW28414   3.130   0.223   4.974
 9172SOL    HW128415   3.174   0.291   5.032
 9172SOL    HW228416   3.034   0.216   4.997
 9173SOL     OW28417   6.078   4.267   4.829
 9173SOL    HW128418   6.044   4.205   4.758
 9173SOL    HW228419   6.096   4.357   4.789
 9174SOL     OW28420   5.763   4.911   0.993
 9174SOL    HW128421   5.834   4.845   1.019
 9174SOL    HW228422   5.696   4.867   0.934
 9175SOL     OW28423   1.269   6.714   4.335
 9175SOL    HW128424   1.197   6.645   4.343
 9175SOL    HW228425   1.250   6.773   4.256
 9176SOL     OW28426   2.940   0.954   4.817
 9176SOL    HW128427   2.976   0.864   4.839
 9176SOL    HW228428   2.908   0.999   4.900
 9177SOL     OW28429   1.496   4.644   5.050
 9177SOL    HW128430   1.537   4.729   5.081
 9177SOL    HW228431   1.530   4.568   5.107
 9178SOL     OW28432   2.304   5.817   0.100
 9178SOL    HW128433   2.326   5.912   0.078
 9178SOL    HW228434   2.368   5.756   0.054
 9179SOL     OW28435   3.228   5.292   4.091
 9179SOL    HW128436   3.294   5.355   4.050
 9179SOL    HW228437   3.258   5.198   4.077
 9180SOL     OW28438   5.488   2.173   3.318
 9180SOL    HW128439   5.443   2.253   3.359
 9180SOL    HW228440   5.534   2.201   3.234
 9181SOL     OW28441   3.862   2.104   4.002
 9181SOL    HW128442   3.915   2.158   3.935
 9181SOL    HW228443   3.896   2.124   4.094
 9182SOL     OW28444   2.177   6.484   2.318
 9182SOL    HW128445   2.121   6.544   2.261
 9182SOL    HW228446   2.127   6.462   2.402
 9183SOL     OW28447   5.355   6.626   0.445
 9183SOL    HW128448   5.324   6.720   0.435
 9183SOL    HW228449   5.430   6.622   0.512
 9184SOL     OW28450   5.056   1.965   0.111
 9184SOL    HW128451   4.994   1.916   0.172
 9184SOL    HW228452   5.014   2.051   0.083
 9185SOL     OW28453   3.968   6.995   5.212
 9185SOL    HW128454   4.063   6.975   5.188
 9185SOL    HW228455   3.907   6.944   5.152
 9186SOL     OW28456   5.654   0.296   3.922
 9186SOL    HW128457   5.733   0.357   3.928
 9186SOL    HW228458   5.590   0.318   3.996
 9187SOL     OW28459   2.794   1.253   1.239
 9187SOL    HW128460   2.703   1.265   1.277
 9187SOL    HW228461   2.794   1.282   1.143
 9188SOL     OW28462   1.763   6.651   1.820
 9188SOL    HW128463   1.782   6.732   1.764
 9188SOL    HW228464   1.684   6.669   1.879
 9189SOL     OW28465   4.674   5.981   1.109
 9189SOL    HW128466   4.598   5.923   1.079
 9189SOL    HW228467   4.682   6.060   1.049
 9190SOL     OW28468   2.152   4.088   0.072
 9190SOL    HW128469   2.140   4.057   7.009
 9190SOL    HW228470   2.103   4.026   0.134
 9191SOL     OW28471   5.804   1.133   5.949
 9191SOL    HW128472   5.716   1.169   5.918
 9191SOL    HW228473   5.830   1.056   5.890
 9192SOL     OW28474   0.665   3.916   5.952
 9192SOL    HW128475   0.629   3.999   5.995
 9192SOL    HW228476   0.758   3.899   5.985
 9193SOL     OW28477   4.214   4.291   0.579
 9193SOL    HW128478   4.259   4.243   0.654
 9193SOL    HW228479   4.280   4.308   0.506
 9194SOL     OW28480   2.937   0.477   3.298
 9194SOL    HW128481   2.943   0.542   3.374
 9194SOL    HW228482   2.864   0.504   3.236
 9195SOL     OW28483   2.118   2.157   4.362
 9195SOL    HW128484   2.066   2.096   4.421
 9195SOL    HW228485   2.165   2.226   4.418
 9196SOL     OW28486   4.334   0.286   4.227
 9196SOL    HW128487   4.256   0.225   4.241
 9196SOL    HW228488   4.374   0.310   4.316
 9197SOL     OW28489   2.102   4.611   2.023
 9197SOL    HW128490   2.150   4.575   1.943
 9197SOL    HW228491   2.121   4.552   2.102
 9198SOL     OW28492   6.714   5.046   6.528
 9198SOL    HW128493   6.776   4.988   6.475
 9198SOL    HW228494   6.670   5.113   6.468
 9199SOL     OW28495   1.529   3.994   5.793
 9199SOL    HW128496   1.618   3.954   5.816
 9199SOL    HW228497   1.492   4.042   5.873
 9200SOL     OW28498   2.889   6.935   0.809
 9200SOL    HW128499   2.879   0.002   0.822
 9200SOL    HW228500   2.961   6.917   0.742
 9201SOL     OW28501   0.338   2.849   0.539
 9201SOL    HW128502   0.302   2.928   0.587
 9201SOL    HW228503   0.438   2.854   0.536
 9202SOL     OW28504   1.488   6.190   2.979
 9202SOL    HW128505   1.537   6.210   3.064
 9202SOL    HW228506   1.395   6.226   2.984
 9203SOL     OW28507   0.575   4.946   0.118
 9203SOL    HW128508   0.538   4.860   0.153
 9203SOL    HW228509   0.664   4.964   0.160
 9204SOL     OW28510   4.204   2.623   5.958
 9204SOL    HW128511   4.221   2.582   6.047
 9204SOL    HW228512   4.287   2.668   5.925
 9205SOL     OW28513   6.650   4.528   2.408
 9205SOL    HW128514   6.600   4.601   2.456
 9205SOL    HW228515   6.597   4.443   2.413
 9206SOL     OW28516   4.439   5.396   1.847
 9206SOL    HW128517   4.498   5.321   1.875
 9206SOL    HW228518   4.414   5.451   1.927
 9207SOL     OW28519   4.560   5.028   6.277
 9207SOL    HW128520   4.485   5.000   6.337
 9207SOL    HW228521   4.530   5.106   6.221
 9208SOL     OW28522   6.013   4.054   4.189
 9208SOL    HW128523   5.944   3.983   4.201
 9208SOL    HW228524   6.076   4.028   4.116
 9209SOL     OW28525   2.904   0.562   6.708
 9209SOL    HW128526   2.992   0.531   6.672
 9209SOL    HW228527   2.908   0.567   6.807
 9210SOL     OW28528   0.217   0.776   2.866
 9210SOL    HW128529   0.124   0.801   2.837
 9210SOL    HW228530   0.279   0.782   2.788
 9211SOL     OW28531   0.110   2.601   4.545
 9211SOL    HW128532   0.020   2.609   4.503
 9211SOL    HW228533   0.151   2.513   4.519
 9212SOL     OW28534   4.398   5.292   4.483
 9212SOL    HW128535   4.341   5.213   4.503
 9212SOL    HW228536   4.419   5.341   4.568
 9213SOL     OW28537   5.368   3.795   5.798
 9213SOL    HW128538   5.378   3.865   5.869
 9213SOL    HW228539   5.300   3.727   5.828
 9214SOL     OW28540   0.045   4.629   6.081
 9214SOL    HW128541   0.138   4.665   6.090
 9214SOL    HW228542   0.032   4.553   6.144
 9215SOL     OW28543   1.298   2.319   0.252
 9215SOL    HW128544   1.371   2.269   0.205
 9215SOL    HW228545   1.314   2.317   0.350
 9216SOL     OW28546   2.550   0.329   2.447
 9216SOL    HW128547   2.563   0.235   2.478
 9216SOL    HW228548   2.493   0.379   2.512
 9217SOL     OW28549   0.601   1.760   6.465
 9217SOL    HW128550   0.700   1.744   6.472
 9217SOL    HW228551   0.553   1.674   6.481
 9218SOL     OW28552   2.896   6.651   0.791
 9218SOL    HW128553   2.964   6.622   0.858
 9218SOL    HW228554   2.894   6.751   0.787
 9219SOL     OW28555   6.947   2.517   1.627
 9219SOL    HW128556   6.968   2.419   1.627
 9219SOL    HW228557   0.000   2.569   1.628
 9220SOL     OW28558   1.368   6.522   0.608
 9220SOL    HW128559   1.382   6.620   0.603
 9220SOL    HW228560   1.391   6.490   0.700
 9221SOL     OW28561   2.820   1.360   4.292
 9221SOL    HW128562   2.740   1.382   4.236
 9221SOL    HW228563   2.820   1.263   4.314
 9222SOL     OW28564   2.259   6.894   6.610
 9222SOL    HW128565   2.262   6.828   6.535
 9222SOL    HW228566   2.182   6.956   6.597
 9223SOL     OW28567   1.674   1.303   3.925
 9223SOL    HW128568   1.698   1.220   3.876
 9223SOL    HW228569   1.731   1.312   4.007
 9224SOL     OW28570   2.215   5.089   5.133
 9224SOL    HW128571   2.315   5.085   5.135
 9224SOL    HW228572   2.180   5.097   5.226
 9225SOL     OW28573   3.728   6.544   6.203
 9225SOL    HW128574   3.698   6.640   6.204
 9225SOL    HW228575   3.740   6.513   6.297
 9226SOL     OW28576   5.435   6.969   1.642
 9226SOL    HW128577   5.353   7.024   1.627
 9226SOL    HW228578   5.454   6.965   1.740
 9227SOL     OW28579   1.191   5.118   1.200
 9227SOL    HW128580   1.258   5.064   1.251
 9227SOL    HW228581   1.106   5.124   1.252
 9228SOL     OW28582   1.613   1.107   5.824
 9228SOL    HW128583   1.531   1.056   5.852
 9228SOL    HW228584   1.679   1.106   5.899
 9229SOL     OW28585   1.358   5.227   4.771
 9229SOL    HW128586   1.310   5.267   4.693
 9229SOL    HW228587   1.383   5.132   4.749
 9230SOL     OW28588   5.627   1.334   3.210
 9230SOL    HW128589   5.706   1.395   3.204
 9230SOL    HW228590   5.604   1.319   3.306
 9231SOL     OW28591   1.027   4.739   4.721
 9231SOL    HW128592   1.109   4.751   4.776
 9231SOL    HW228593   1.011   4.642   4.705
 9232SOL     OW28594   3.544   5.409   7.021
 9232SOL    HW128595   3.597   5.343   0.043
 9232SOL    HW228596   3.446   5.391   0.003
 9233SOL     OW28597   5.672   5.029   1.859
 9233SOL    HW128598   5.692   5.058   1.952
 9233SOL    HW228599   5.723   5.086   1.794
 9234SOL     OW28600   3.398   5.501   5.317
 9234SOL    HW128601   3.320   5.497   5.255
 9234SOL    HW228602   3.458   5.423   5.301
 9235SOL     OW28603   1.161   2.650   3.742
 9235SOL    HW128604   1.239   2.708   3.720
 9235SOL    HW228605   1.194   2.565   3.783
 9236SOL     OW28606   3.108   4.011   5.465
 9236SOL    HW128607   3.104   4.030   5.367
 9236SOL    HW228608   3.123   3.913   5.479
 9237SOL     OW28609   1.924   5.331   4.995
 9237SOL    HW128610   1.950   5.301   4.903
 9237SOL    HW228611   2.004   5.366   5.042
 9238SOL     OW28612   3.811   1.536   6.467
 9238SOL    HW128613   3.806   1.503   6.561
 9238SOL    HW228614   3.718   1.556   6.434
 9239SOL     OW28615   0.483   4.125   0.507
 9239SOL    HW128616   0.479   4.209   0.454
 9239SOL    HW228617   0.527   4.053   0.453
 9240SOL     OW28618   4.806   1.869   0.749
 9240SOL    HW128619   4.866   1.941   0.783
 9240SOL    HW228620   4.830   1.782   0.794
 9241SOL     OW28621   0.694   5.310   6.254
 9241SOL    HW128622   0.790   5.283   6.249
 9241SOL    HW228623   0.657   5.286   6.343
 9242SOL     OW28624   0.246   5.491   0.430
 9242SOL    HW128625   0.294   5.562   0.378
 9242SOL    HW228626   0.312   5.437   0.482
 9243SOL     OW28627   5.435   6.971   2.448
 9243SOL    HW128628   5.388   6.923   2.522
 9243SOL    HW228629   5.484   0.019   2.484
 9244SOL     OW28630   4.725   4.832   6.192
 9244SOL    HW128631   4.666   4.900   6.235
 9244SOL    HW228632   4.821   4.857   6.207
 9245SOL     OW28633   2.096   5.146   3.737
 9245SOL    HW128634   2.088   5.046   3.734
 9245SOL    HW228635   2.140   5.178   3.653
 9246SOL     OW28636   0.181   4.356   3.042
 9246SOL    HW128637   0.228   4.269   3.033
 9246SOL    HW228638   0.101   4.357   2.981
 9247SOL     OW28639   1.202   0.105   3.589
 9247SOL    HW128640   1.164   0.025   3.541
 9247SOL    HW228641   1.263   0.073   3.662
 9248SOL     OW28642   2.018   2.616   6.121
 9248SOL    HW128643   2.088   2.642   6.055
 9248SOL    HW228644   2.060   2.605   6.211
 9249SOL     OW28645   4.834   3.380   6.619
 9249SOL    HW128646   4.753   3.326   6.596
 9249SOL    HW228647   4.806   3.470   6.650
 9250SOL     OW28648   5.576   3.505   5.112
 9250SOL    HW128649   5.522   3.426   5.142
 9250SOL    HW228650   5.546   3.533   5.021
 9251SOL     OW28651   3.851   2.013   3.137
 9251SOL    HW128652   3.937   2.027   3.089
 9251SOL    HW228653   3.778   1.996   3.070
 9252SOL     OW28654   6.003   0.249   3.923
 9252SOL    HW128655   6.023   0.264   4.020
 9252SOL    HW228656   5.983   0.336   3.880
 9253SOL     OW28657   5.448   6.258   6.388
 9253SOL    HW128658   5.534   6.226   6.348
 9253SOL    HW228659   5.389   6.179   6.405
 9254SOL     OW28660   6.522   4.297   2.403
 9254SOL    HW128661   6.435   4.246   2.401
 9254SOL    HW228662   6.598   4.233   2.391
 9255SOL     OW28663   4.970   3.881   0.617
 9255SOL    HW128664   5.035   3.951   0.645
 9255SOL    HW228665   4.974   3.869   0.517
 9256SOL     OW28666   4.024   5.226   3.093
 9256SOL    HW128667   3.945   5.195   3.041
 9256SOL    HW228668   4.009   5.321   3.122
 9257SOL     OW28669   0.871   3.121   2.786
 9257SOL    HW128670   0.878   3.036   2.839
 9257SOL    HW228671   0.892   3.101   2.690
 9258SOL     OW28672   3.855   2.986   3.372
 9258SOL    HW128673   3.787   2.924   3.332
 9258SOL    HW228674   3.928   3.003   3.306
 9259SOL     OW28675   1.593   1.886   0.892
 9259SOL    HW128676   1.529   1.813   0.867
 9259SOL    HW228677   1.631   1.927   0.809
 9260SOL     OW28678   4.842   1.532   5.255
 9260SOL    HW128679   4.783   1.611   5.274
 9260SOL    HW228680   4.905   1.519   5.331
 9261SOL     OW28681   4.924   0.863   6.600
 9261SOL    HW128682   4.977   0.891   6.520
 9261SOL    HW228683   4.834   0.907   6.596
 9262SOL     OW28684   6.821   3.158   5.359
 9262SOL    HW128685   6.869   3.233   5.403
 9262SOL    HW228686   6.835   3.074   5.411
 9263SOL     OW28687   5.935   4.775   1.381
 9263SOL    HW128688   5.857   4.774   1.319
 9263SOL    HW228689   5.963   4.681   1.400
 9264SOL     OW28690   5.502   4.225   0.417
 9264SOL    HW128691   5.561   4.235   0.497
 9264SOL    HW228692   5.407   4.212   0.447
 9265SOL     OW28693   2.591   1.386   0.159
 9265SOL    HW128694   2.674   1.330   0.164
 9265SOL    HW228695   2.616   1.479   0.131
 9266SOL     OW28696   2.062   6.296   2.533
 9266SOL    HW128697   2.064   6.231   2.609
 9266SOL    HW228698   2.003   6.261   2.460
 9267SOL     OW28699   6.899   4.352   5.638
 9267SOL    HW128700   6.991   4.389   5.643
 9267SOL    HW228701   6.834   4.427   5.624
 9268SOL     OW28702   1.392   5.610   0.792
 9268SOL    HW128703   1.359   5.638   0.702
 9268SOL    HW228704   1.491   5.596   0.788
 9269SOL     OW28705   3.252   2.760   5.993
 9269SOL    HW128706   3.185   2.691   5.968
 9269SOL    HW228707   3.208   2.850   5.998
 9270SOL     OW28708   5.296   0.101   5.832
 9270SOL    HW128709   5.312   0.199   5.826
 9270SOL    HW228710   5.247   0.080   5.916
 9271SOL     OW28711   1.799   4.995   6.392
 9271SOL    HW128712   1.798   4.956   6.300
 9271SOL    HW228713   1.731   5.068   6.398
 9272SOL     OW28714   2.112   5.504   5.563
 9272SOL    HW128715   2.079   5.462   5.648
 9272SOL    HW228716   2.069   5.594   5.552
 9273SOL     OW28717   5.607   6.249   4.048
 9273SOL    HW128718   5.650   6.287   3.966
 9273SOL    HW228719   5.602   6.150   4.039
 9274SOL     OW28720   6.642   3.240   0.201
 9274SOL    HW128721   6.551   3.282   0.204
 9274SOL    HW228722   6.636   3.144   0.226
 9275SOL     OW28723   0.309   2.285   6.737
 9275SOL    HW128724   0.337   2.272   6.642
 9275SOL    HW228725   0.348   2.213   6.794
 9276SOL     OW28726   2.847   4.812   3.872
 9276SOL    HW128727   2.794   4.877   3.818
 9276SOL    HW228728   2.784   4.752   3.923
 9277SOL     OW28729   4.770   3.547   0.553
 9277SOL    HW128730   4.820   3.520   0.471
 9277SOL    HW228731   4.766   3.647   0.559
 9278SOL     OW28732   1.633   0.702   4.387
 9278SOL    HW128733   1.568   0.630   4.410
 9278SOL    HW228734   1.713   0.696   4.447
 9279SOL     OW28735   4.075   0.526   1.418
 9279SOL    HW128736   4.094   0.589   1.343
 9279SOL    HW228737   4.027   0.575   1.491
 9280SOL     OW28738   1.555   0.440   3.055
 9280SOL    HW128739   1.470   0.427   3.005
 9280SOL    HW228740   1.537   0.495   3.137
 9281SOL     OW28741   3.400   4.287   1.658
 9281SOL    HW128742   3.317   4.308   1.607
 9281SOL    HW228743   3.467   4.246   1.597
 9282SOL     OW28744   4.611   1.865   4.759
 9282SOL    HW128745   4.537   1.922   4.793
 9282SOL    HW228746   4.685   1.923   4.726
 9283SOL     OW28747   5.640   0.649   3.470
 9283SOL    HW128748   5.568   0.616   3.409
 9283SOL    HW228749   5.620   0.621   3.564
 9284SOL     OW28750   3.605   5.232   5.916
 9284SOL    HW128751   3.603   5.268   5.823
 9284SOL    HW228752   3.611   5.307   5.981
 9285SOL     OW28753   4.911   2.904   0.520
 9285SOL    HW128754   4.859   2.839   0.576
 9285SOL    HW228755   4.977   2.952   0.579
 9286SOL     OW28756   5.487   0.151   6.058
 9286SOL    HW128757   5.395   0.129   6.092
 9286SOL    HW228758   5.502   0.250   6.064
 9287SOL     OW28759   3.025   5.218   0.306
 9287SOL    HW128760   2.943   5.263   0.270
 9287SOL    HW228761   3.051   5.142   0.247
 9288SOL     OW28762   2.991   1.170   5.179
 9288SOL    HW128763   2.950   1.246   5.230
 9288SOL    HW228764   2.925   1.136   5.112
 9289SOL     OW28765   3.737   1.832   2.449
 9289SOL    HW128766   3.716   1.930   2.451
 9289SOL    HW228767   3.729   1.799   2.355
 9290SOL     OW28768   5.173   1.595   3.666
 9290SOL    HW128769   5.188   1.584   3.568
 9290SOL    HW228770   5.112   1.522   3.699
 9291SOL     OW28771   2.472   0.067   5.466
 9291SOL    HW128772   2.560   0.020   5.462
 9291SOL    HW228773   2.462   0.126   5.387
 9292SOL     OW28774   0.064   3.306   6.158
 9292SOL    HW128775   0.152   3.316   6.111
 9292SOL    HW228776   0.016   3.225   6.123
 9293SOL     OW28777   6.132   3.951   0.497
 9293SOL    HW128778   6.103   3.975   0.590
 9293SOL    HW228779   6.182   4.027   0.457
 9294SOL     OW28780   3.427   6.814   5.542
 9294SOL    HW128781   3.428   6.885   5.471
 9294SOL    HW228782   3.502   6.750   5.526
 9295SOL     OW28783   5.767   2.303   4.187
 9295SOL    HW128784   5.732   2.238   4.120
 9295SOL    HW228785   5.836   2.258   4.244
 9296SOL     OW28786   0.655   6.107   6.483
 9296SOL    HW128787   0.721   6.104   6.408
 9296SOL    HW228788   0.590   6.181   6.468
 9297SOL     OW28789   6.834   0.869   0.695
 9297SOL    HW128790   6.734   0.863   0.690
 9297SOL    HW228791   6.864   0.959   0.663
 9298SOL     OW28792   1.235   0.335   5.328
 9298SOL    HW128793   1.258   0.314   5.233
 9298SOL    HW228794   1.253   0.255   5.385
 9299SOL     OW28795   0.953   2.815   4.552
 9299SOL    HW128796   0.882   2.785   4.489
 9299SOL    HW228797   0.916   2.822   4.644
 9300SOL     OW28798   0.021   4.819   5.121
 9300SOL    HW128799   0.083   4.748   5.087
 9300SOL    HW228800   6.963   4.778   5.140
 9301SOL     OW28801   4.847   4.242   3.674
 9301SOL    HW128802   4.940   4.229   3.707
 9301SOL    HW228803   4.823   4.168   3.611
 9302SOL     OW28804   2.148   2.947   4.348
 9302SOL    HW128805   2.164   2.985   4.440
 9302SOL    HW228806   2.059   2.977   4.314
 9303SOL     OW28807   3.910   6.153   0.840
 9303SOL    HW128808   3.953   6.236   0.875
 9303SOL    HW228809   3.811   6.167   0.832
 9304SOL     OW28810   4.714   4.360   0.768
 9304SOL    HW128811   4.771   4.289   0.808
 9304SOL    HW228812   4.653   4.397   0.839
 9305SOL     OW28813   3.754   1.864   2.132
 9305SOL    HW128814   3.711   1.951   2.154
 9305SOL    HW228815   3.852   1.878   2.115
 9306SOL     OW28816   0.585   4.478   4.906
 9306SOL    HW128817   0.523   4.421   4.961
 9306SOL    HW228818   0.560   4.574   4.917
 9307SOL     OW28819   1.192   3.299   1.969
 9307SOL    HW128820   1.284   3.309   2.007
 9307SOL    HW228821   1.191   3.332   1.875
 9308SOL     OW28822   1.345   3.695   0.825
 9308SOL    HW128823   1.272   3.756   0.855
 9308SOL    HW228824   1.418   3.693   0.893
 9309SOL     OW28825   3.503   5.005   5.371
 9309SOL    HW128826   3.500   4.916   5.417
 9309SOL    HW228827   3.428   5.062   5.405
 9310SOL     OW28828   4.635   5.362   6.358
 9310SOL    HW128829   4.577   5.316   6.425
 9310SOL    HW228830   4.689   5.294   6.309
 9311SOL     OW28831   5.403   4.911   1.885
 9311SOL    HW128832   5.409   4.815   1.913
 9311SOL    HW228833   5.494   4.947   1.867
 9312SOL     OW28834   1.047   3.770   1.725
 9312SOL    HW128835   0.994   3.803   1.803
 9312SOL    HW228836   1.142   3.756   1.752
 9313SOL     OW28837   0.107   0.881   0.538
 9313SOL    HW128838   0.170   0.816   0.580
 9313SOL    HW228839   0.031   0.831   0.497
 9314SOL     OW28840   4.417   5.681   6.174
 9314SOL    HW128841   4.400   5.652   6.080
 9314SOL    HW228842   4.513   5.662   6.197
 9315SOL     OW28843   6.749   0.744   5.136
 9315SOL    HW128844   6.816   0.816   5.118
 9315SOL    HW228845   6.790   0.655   5.113
 9316SOL     OW28846   3.767   5.539   5.480
 9316SOL    HW128847   3.699   5.610   5.500
 9316SOL    HW228848   3.834   5.575   5.415
 9317SOL     OW28849   6.611   5.486   3.249
 9317SOL    HW128850   6.579   5.515   3.339
 9317SOL    HW228851   6.532   5.461   3.192
 9318SOL     OW28852   6.311   0.796   5.217
 9318SOL    HW128853   6.218   0.780   5.183
 9318SOL    HW228854   6.343   0.716   5.267
 9319SOL     OW28855   0.772   2.916   6.096
 9319SOL    HW128856   0.858   2.897   6.048
 9319SOL    HW228857   0.783   2.894   6.193
 9320SOL     OW28858   4.181   1.235   6.132
 9320SOL    HW128859   4.260   1.174   6.135
 9320SOL    HW228860   4.120   1.214   6.208
 9321SOL     OW28861   6.408   0.051   2.501
 9321SOL    HW128862   6.321   0.022   2.542
 9321SOL    HW228863   6.450   0.121   2.559
 9322SOL     OW28864   0.158   5.214   6.621
 9322SOL    HW128865   0.122   5.300   6.658
 9322SOL    HW228866   0.085   5.145   6.621
 9323SOL     OW28867   1.548   0.157   5.357
 9323SOL    HW128868   1.515   0.138   5.450
 9323SOL    HW228869   1.580   0.252   5.352
 9324SOL     OW28870   2.104   5.256   0.389
 9324SOL    HW128871   2.125   5.210   0.302
 9324SOL    HW228872   2.179   5.241   0.453
 9325SOL     OW28873   4.948   1.433   0.031
 9325SOL    HW128874   4.874   1.404   0.092
 9325SOL    HW228875   4.917   1.512   7.009
 9326SOL     OW28876   1.989   6.859   0.906
 9326SOL    HW128877   1.924   6.889   0.975
 9326SOL    HW228878   1.948   6.785   0.852
 9327SOL     OW28879   5.088   6.961   2.480
 9327SOL    HW128880   5.098   6.939   2.383
 9327SOL    HW228881   5.068   6.877   2.531
 9328SOL     OW28882   3.453   1.146   6.096
 9328SOL    HW128883   3.439   1.213   6.024
 9328SOL    HW228884   3.416   1.057   6.067
 9329SOL     OW28885   6.840   4.168   2.081
 9329SOL    HW128886   6.874   4.246   2.134
 9329SOL    HW228887   6.779   4.202   2.009
 9330SOL     OW28888   0.480   6.334   6.946
 9330SOL    HW128889   0.485   6.272   7.024
 9330SOL    HW228890   0.573   6.358   6.917
 9331SOL     OW28891   1.391   1.814   5.908
 9331SOL    HW128892   1.354   1.906   5.919
 9331SOL    HW228893   1.491   1.818   5.910
 9332SOL     OW28894   3.492   4.074   2.660
 9332SOL    HW128895   3.563   4.126   2.613
 9332SOL    HW228896   3.526   4.044   2.749
 9333SOL     OW28897   4.406   3.967   1.372
 9333SOL    HW128898   4.324   4.015   1.402
 9333SOL    HW228899   4.481   4.032   1.361
 9334SOL     OW28900   4.360   6.491   3.918
 9334SOL    HW128901   4.369   6.484   4.017
 9334SOL    HW228902   4.381   6.585   3.890
 9335SOL     OW28903   1.107   1.539   5.829
 9335SOL    HW128904   1.122   1.595   5.747
 9335SOL    HW228905   1.171   1.566   5.900
 9336SOL     OW28906   3.647   5.272   5.614
 9336SOL    HW128907   3.688   5.288   5.524
 9336SOL    HW228908   3.555   5.236   5.603
 9337SOL     OW28909   4.862   0.615   3.509
 9337SOL    HW128910   4.885   0.630   3.605
 9337SOL    HW228911   4.798   0.685   3.479
 9338SOL     OW28912   3.899   0.382   2.011
 9338SOL    HW128913   3.943   0.330   2.085
 9338SOL    HW228914   3.807   0.347   1.995
 9339SOL     OW28915   5.098   6.912   0.984
 9339SOL    HW128916   5.071   6.879   0.893
 9339SOL    HW228917   5.080   6.841   1.052
 9340SOL     OW28918   5.651   4.077   5.110
 9340SOL    HW128919   5.707   4.110   5.034
 9340SOL    HW228920   5.593   4.002   5.079
 9341SOL     OW28921   0.430   5.920   6.638
 9341SOL    HW128922   0.447   6.017   6.617
 9341SOL    HW228923   0.426   5.868   6.552
 9342SOL     OW28924   2.128   0.743   3.589
 9342SOL    HW128925   2.112   0.709   3.682
 9342SOL    HW228926   2.167   0.670   3.534
 9343SOL     OW28927   5.985   4.453   3.029
 9343SOL    HW128928   6.058   4.498   2.978
 9343SOL    HW228929   5.947   4.378   2.974
 9344SOL     OW28930   4.759   6.069   1.622
 9344SOL    HW128931   4.807   6.072   1.535
 9344SOL    HW228932   4.818   6.103   1.695
 9345SOL     OW28933   6.534   3.749   2.132
 9345SOL    HW128934   6.495   3.722   2.220
 9345SOL    HW228935   6.632   3.765   2.142
 9346SOL     OW28936   6.327   0.797   0.901
 9346SOL    HW128937   6.323   0.700   0.925
 9346SOL    HW228938   6.249   0.820   0.843
 9347SOL     OW28939   1.108   5.099   0.896
 9347SOL    HW128940   1.203   5.070   0.907
 9347SOL    HW228941   1.105   5.192   0.861
 9348SOL     OW28942   3.792   5.518   1.929
 9348SOL    HW128943   3.714   5.530   1.990
 9348SOL    HW228944   3.761   5.482   1.841
 9349SOL     OW28945   0.955   6.500   2.388
 9349SOL    HW128946   0.972   6.403   2.403
 9349SOL    HW228947   1.005   6.530   2.306
 9350SOL     OW28948   0.621   3.441   5.345
 9350SOL    HW128949   0.552   3.493   5.395
 9350SOL    HW228950   0.577   3.390   5.271
 9351SOL     OW28951   3.012   1.123   6.233
 9351SOL    HW128952   3.055   1.156   6.317
 9351SOL    HW228953   3.063   1.045   6.198
 9352SOL     OW28954   2.584   2.446   0.377
 9352SOL    HW128955   2.557   2.351   0.393
 9352SOL    HW228956   2.582   2.497   0.463
 9353SOL     OW28957   0.494   5.356   1.304
 9353SOL    HW128958   0.454   5.273   1.264
 9353SOL    HW228959   0.566   5.390   1.244
 9354SOL     OW28960   6.440   2.263   0.001
 9354SOL    HW128961   6.454   2.276   6.934
 9354SOL    HW228962   6.438   2.165   0.022
 9355SOL     OW28963   0.308   2.208   4.975
 9355SOL    HW128964   0.392   2.155   4.961
 9355SOL    HW228965   0.291   2.220   5.072
 9356SOL     OW28966   3.767   0.170   0.915
 9356SOL    HW128967   3.758   0.170   1.015
 9356SOL    HW228968   3.850   0.122   0.889
 9357SOL     OW28969   1.161   3.360   5.877
 9357SOL    HW128970   1.239   3.412   5.839
 9357SOL    HW228971   1.093   3.346   5.805
 9358SOL     OW28972   0.039   4.123   1.922
 9358SOL    HW128973   0.054   4.064   2.001
 9358SOL    HW228974   6.978   4.161   1.925
 9359SOL     OW28975   1.847   4.406   6.488
 9359SOL    HW128976   1.918   4.454   6.436
 9359SOL    HW228977   1.889   4.336   6.545
 9360SOL     OW28978   1.467   6.083   6.217
 9360SOL    HW128979   1.448   6.112   6.311
 9360SOL    HW228980   1.426   5.993   6.201
 9361SOL     OW28981   2.093   5.303   3.221
 9361SOL    HW128982   2.021   5.317   3.289
 9361SOL    HW228983   2.091   5.377   3.154
 9362SOL     OW28984   1.578   1.696   2.541
 9362SOL    HW128985   1.660   1.753   2.545
 9362SOL    HW228986   1.532   1.697   2.629
 9363SOL     OW28987   3.475   5.566   1.626
 9363SOL    HW128988   3.391   5.533   1.584
 9363SOL    HW228989   3.497   5.657   1.589
 9364SOL     OW28990   2.325   1.550   1.274
 9364SOL    HW128991   2.404   1.539   1.334
 9364SOL    HW228992   2.249   1.588   1.325
 9365SOL     OW28993   2.938   2.124   3.698
 9365SOL    HW128994   2.940   2.217   3.737
 9365SOL    HW228995   3.023   2.107   3.648
 9366SOL     OW28996   3.054   6.028   0.138
 9366SOL    HW128997   2.991   6.078   0.078
 9366SOL    HW228998   3.145   6.027   0.097
 9367SOL     OW28999   6.181   0.035   1.153
 9367SOL    HW129000   6.226   6.978   1.139
 9367SOL    HW229001   6.139   0.065   1.067
 9368SOL     OW29002   3.923   6.927   2.620
 9368SOL    HW129003   3.843   6.903   2.564
 9368SOL    HW229004   3.994   6.857   2.607
 9369SOL     OW29005   0.279   5.923   5.117
 9369SOL    HW129006   0.190   5.878   5.123
 9369SOL    HW229007   0.280   5.983   5.037
 9370SOL     OW29008   5.107   1.139   3.427
 9370SOL    HW129009   5.149   1.181   3.347
 9370SOL    HW229010   5.151   1.173   3.510
 9371SOL     OW29011   3.033   5.595   1.119
 9371SOL    HW129012   3.040   5.691   1.146
 9371SOL    HW229013   3.099   5.576   1.046
 9372SOL     OW29014   3.974   6.759   1.913
 9372SOL    HW129015   4.050   6.712   1.869
 9372SOL    HW229016   3.896   6.762   1.850
 9373SOL     OW29017   6.142   2.672   0.419
 9373SOL    HW129018   6.219   2.616   0.450
 9373SOL    HW229019   6.077   2.616   0.369
 9374SOL     OW29020   0.175   3.619   6.190
 9374SOL    HW129021   0.185   3.533   6.241
 9374SOL    HW229022   0.223   3.691   6.240
 9375SOL     OW29023   0.062   1.781   0.750
 9375SOL    HW129024   0.113   1.698   0.770
 9375SOL    HW229025   0.015   1.812   0.832
 9376SOL     OW29026   2.164   3.178   2.030
 9376SOL    HW129027   2.216   3.150   1.949
 9376SOL    HW229028   2.159   3.278   2.034
 9377SOL     OW29029   2.968   5.354   3.170
 9377SOL    HW129030   3.034   5.409   3.221
 9377SOL    HW229031   2.988   5.257   3.183
 9378SOL     OW29032   3.324   1.369   3.930
 9378SOL    HW129033   3.368   1.455   3.958
 9378SOL    HW229034   3.229   1.368   3.961
 9379SOL     OW29035   4.613   0.431   4.938
 9379SOL    HW129036   4.704   0.449   4.974
 9379SOL    HW229037   4.547   0.430   5.014
 9380SOL     OW29038   3.433   5.798   5.855
 9380SOL    HW129039   3.492   5.799   5.775
 9380SOL    HW229040   3.347   5.845   5.835
 9381SOL     OW29041   5.271   2.170   4.185
 9381SOL    HW129042   5.182   2.124   4.187
 9381SOL    HW229043   5.277   2.236   4.260
 9382SOL     OW29044   4.214   0.773   4.527
 9382SOL    HW129045   4.312   0.794   4.535
 9382SOL    HW229046   4.186   0.779   4.432
 9383SOL     OW29047   4.611   4.346   4.137
 9383SOL    HW129048   4.626   4.248   4.152
 9383SOL    HW229049   4.619   4.366   4.040
 9384SOL     OW29050   2.302   6.917   1.869
 9384SOL    HW129051   2.289   6.840   1.806
 9384SOL    HW229052   2.267   6.892   1.959
 9385SOL     OW29053   4.047   1.792   4.441
 9385SOL    HW129054   4.078   1.852   4.367
 9385SOL    HW229055   4.012   1.707   4.402
 9386SOL     OW29056   3.461   6.258   5.348
 9386SOL    HW129057   3.432   6.164   5.369
 9386SOL    HW229058   3.501   6.260   5.257
 9387SOL     OW29059   3.796   2.043   0.104
 9387SOL    HW129060   3.767   1.948   0.122
 9387SOL    HW229061   3.793   2.094   0.190
 9388SOL     OW29062   1.593   6.266   4.067
 9388SOL    HW129063   1.578   6.177   4.025
 9388SOL    HW229064   1.644   6.325   4.004
 9389SOL     OW29065   3.045   5.576   2.211
 9389SOL    HW129066   2.947   5.597   2.215
 9389SOL    HW229067   3.064   5.497   2.269
 9390SOL     OW29068   5.440   4.449   5.832
 9390SOL    HW129069   5.448   4.472   5.929
 9390SOL    HW229070   5.343   4.443   5.806
 9391SOL     OW29071   0.560   0.337   5.000
 9391SOL    HW129072   0.496   0.377   5.066
 9391SOL    HW229073   0.617   0.270   5.047
 9392SOL     OW29074   4.858   4.515   3.644
 9392SOL    HW129075   4.861   4.418   3.665
 9392SOL    HW229076   4.804   4.529   3.561
 9393SOL     OW29077   3.332   6.145   6.205
 9393SOL    HW129078   3.265   6.208   6.245
 9393SOL    HW229079   3.421   6.189   6.202
 9394SOL     OW29080   5.279   0.690   1.563
 9394SOL    HW129081   5.331   0.774   1.575
 9394SOL    HW229082   5.229   0.669   1.647
 9395SOL     OW29083   2.358   1.515   0.840
 9395SOL    HW129084   2.323   1.585   0.902
 9395SOL    HW229085   2.310   1.520   0.753
 9396SOL     OW29086   2.012   5.890   5.840
 9396SOL    HW129087   1.955   5.868   5.919
 9396SOL    HW229088   2.108   5.873   5.862
 9397SOL     OW29089   3.385   6.573   6.238
 9397SOL    HW129090   3.326   6.649   6.267
 9397SOL    HW229091   3.419   6.591   6.146
 9398SOL     OW29092   6.225   1.411   6.179
 9398SOL    HW129093   6.305   1.365   6.218
 9398SOL    HW229094   6.176   1.348   6.118
 9399SOL     OW29095   1.266   2.549   4.002
 9399SOL    HW129096   1.205   2.610   4.053
 9399SOL    HW229097   1.247   2.455   4.027
 9400SOL     OW29098   4.891   1.606   0.551
 9400SOL    HW129099   4.793   1.623   0.563
 9400SOL    HW229100   4.917   1.630   0.458
 9401SOL     OW29101   0.259   3.163   2.131
 9401SOL    HW129102   0.345   3.151   2.181
 9401SOL    HW229103   0.242   3.082   2.074
 9402SOL     OW29104   1.935   5.635   3.576
 9402SOL    HW129105   1.937   5.724   3.531
 9402SOL    HW229106   1.969   5.643   3.669
 9403SOL     OW29107   0.062   1.235   2.216
 9403SOL    HW129108   0.023   1.216   2.306
 9403SOL    HW229109   0.144   1.180   2.203
 9404SOL     OW29110   0.770   3.161   1.390
 9404SOL    HW129111   0.766   3.205   1.301
 9404SOL    HW229112   0.749   3.227   1.461
 9405SOL     OW29113   0.258   4.857   4.773
 9405SOL    HW129114   0.222   4.786   4.833
 9405SOL    HW229115   0.194   4.935   4.771
 9406SOL     OW29116   0.542   3.167   6.525
 9406SOL    HW129117   0.451   3.198   6.553
 9406SOL    HW229118   0.552   3.175   6.426
 9407SOL     OW29119   2.889   5.148   5.059
 9407SOL    HW129120   2.835   5.064   5.059
 9407SOL    HW229121   2.863   5.205   4.981
 9408SOL     OW29122   6.671   3.291   5.635
 9408SOL    HW129123   6.632   3.210   5.590
 9408SOL    HW229124   6.608   3.324   5.705
 9409SOL     OW29125   6.370   5.880   2.449
 9409SOL    HW129126   6.431   5.807   2.480
 9409SOL    HW229127   6.420   5.941   2.387
 9410SOL     OW29128   4.791   0.859   1.870
 9410SOL    HW129129   4.831   0.895   1.954
 9410SOL    HW229130   4.693   0.844   1.883
 9411SOL     OW29131   3.309   3.252   3.596
 9411SOL    HW129132   3.232   3.188   3.602
 9411SOL    HW229133   3.321   3.297   3.685
 9412SOL     OW29134   0.644   0.690   0.866
 9412SOL    HW129135   0.561   0.739   0.893
 9412SOL    HW229136   0.700   0.749   0.808
 9413SOL     OW29137   4.484   4.995   4.740
 9413SOL    HW129138   4.445   4.946   4.817
 9413SOL    HW229139   4.536   4.932   4.682
 9414SOL     OW29140   2.186   2.517   4.979
 9414SOL    HW129141   2.184   2.600   4.923
 9414SOL    HW229142   2.236   2.445   4.931
 9415SOL     OW29143   3.312   0.607   2.074
 9415SOL    HW129144   3.373   0.681   2.103
 9415SOL    HW229145   3.219   0.644   2.061
 9416SOL     OW29146   0.504   6.978   5.863
 9416SOL    HW129147   0.470   6.966   5.770
 9416SOL    HW229148   0.459   6.912   5.924
 9417SOL     OW29149   3.564   6.433   1.430
 9417SOL    HW129150   3.653   6.417   1.387
 9417SOL    HW229151   3.499   6.364   1.398
 9418SOL     OW29152   3.137   1.895   3.960
 9418SOL    HW129153   3.221   1.887   3.907
 9418SOL    HW229154   3.155   1.949   4.043
 9419SOL     OW29155   2.684   2.602   6.506
 9419SOL    HW129156   2.647   2.643   6.422
 9419SOL    HW229157   2.770   2.557   6.485
 9420SOL     OW29158   5.630   4.030   0.252
 9420SOL    HW129159   5.722   4.044   0.287
 9420SOL    HW229160   5.565   4.087   0.302
 9421SOL     OW29161   3.819   6.387   4.980
 9421SOL    HW129162   3.886   6.352   5.045
 9421SOL    HW229163   3.761   6.455   5.025
 9422SOL     OW29164   2.792   5.811   4.498
 9422SOL    HW129165   2.784   5.903   4.538
 9422SOL    HW229166   2.762   5.743   4.565
 9423SOL     OW29167   3.834   5.773   3.272
 9423SOL    HW129168   3.813   5.685   3.314
 9423SOL    HW229169   3.923   5.767   3.225
 9424SOL     OW29170   5.509   1.670   4.381
 9424SOL    HW129171   5.417   1.642   4.410
 9424SOL    HW229172   5.513   1.672   4.281
 9425SOL     OW29173   6.085   4.529   1.446
 9425SOL    HW129174   6.163   4.591   1.459
 9425SOL    HW229175   6.084   4.460   1.518
 9426SOL     OW29176   0.746   2.413   6.257
 9426SOL    HW129177   0.825   2.436   6.313
 9426SOL    HW229178   0.665   2.459   6.295
 9427SOL     OW29179   3.166   5.558   2.773
 9427SOL    HW129180   3.186   5.461   2.763
 9427SOL    HW229181   3.201   5.590   2.862
 9428SOL     OW29182   6.298   6.117   7.008
 9428SOL    HW129183   6.322   6.177   0.053
 9428SOL    HW229184   6.358   6.037   7.008
 9429SOL     OW29185   1.520   2.461   3.961
 9429SOL    HW129186   1.423   2.484   3.970
 9429SOL    HW229187   1.542   2.386   4.023
 9430SOL     OW29188   0.618   2.105   4.134
 9430SOL    HW129189   0.581   2.013   4.120
 9430SOL    HW229190   0.672   2.132   4.054
 9431SOL     OW29191   0.135   4.264   0.592
 9431SOL    HW129192   0.056   4.262   0.532
 9431SOL    HW229193   0.107   4.241   0.685
 9432SOL     OW29194   6.936   1.487   3.628
 9432SOL    HW129195   6.978   1.530   3.548
 9432SOL    HW229196   6.855   1.435   3.599
 9433SOL     OW29197   4.114   5.777   2.928
 9433SOL    HW129198   4.040   5.799   2.865
 9433SOL    HW229199   4.191   5.839   2.913
 9434SOL     OW29200   5.570   5.328   4.303
 9434SOL    HW129201   5.624   5.269   4.243
 9434SOL    HW229202   5.477   5.293   4.309
 9435SOL     OW29203   0.761   2.736   2.366
 9435SOL    HW129204   0.810   2.734   2.453
 9435SOL    HW229205   0.812   2.789   2.299
 9436SOL     OW29206   0.581   0.952   2.399
 9436SOL    HW129207   0.517   1.011   2.449
 9436SOL    HW229208   0.551   0.942   2.304
 9437SOL     OW29209   0.051   5.196   3.690
 9437SOL    HW129210   6.989   5.228   3.702
 9437SOL    HW229211   0.115   5.271   3.710
 9438SOL     OW29212   2.233   6.302   1.922
 9438SOL    HW129213   2.234   6.370   1.849
 9438SOL    HW229214   2.244   6.211   1.882
 9439SOL     OW29215   1.184   3.085   0.304
 9439SOL    HW129216   1.243   3.159   0.273
 9439SOL    HW229217   1.094   3.121   0.327
 9440SOL     OW29218   3.257   5.080   3.614
 9440SOL    HW129219   3.354   5.062   3.596
 9440SOL    HW229220   3.235   5.050   3.707
 9441SOL     OW29221   6.617   5.778   4.486
 9441SOL    HW129222   6.681   5.769   4.563
 9441SOL    HW229223   6.613   5.692   4.436
 9442SOL     OW29224   4.995   3.428   1.382
 9442SOL    HW129225   5.007   3.386   1.293
 9442SOL    HW229226   5.030   3.366   1.453
 9443SOL     OW29227   3.269   5.203   1.891
 9443SOL    HW129228   3.197   5.262   1.855
 9443SOL    HW229229   3.346   5.259   1.920
 9444SOL     OW29230   2.200   3.796   0.269
 9444SOL    HW129231   2.228   3.789   0.365
 9444SOL    HW229232   2.108   3.836   0.264
 9445SOL     OW29233   0.670   1.481   3.752
 9445SOL    HW129234   0.629   1.572   3.748
 9445SOL    HW229235   0.757   1.481   3.701
 9446SOL     OW29236   6.219   4.923   3.779
 9446SOL    HW129237   6.225   4.949   3.683
 9446SOL    HW229238   6.161   4.989   3.828
 9447SOL     OW29239   5.350   5.250   2.637
 9447SOL    HW129240   5.338   5.160   2.678
 9447SOL    HW229241   5.334   5.245   2.538
 9448SOL     OW29242   5.782   6.823   5.906
 9448SOL    HW129243   5.880   6.844   5.906
 9448SOL    HW229244   5.730   6.906   5.887
 9449SOL     OW29245   5.323   0.160   0.655
 9449SOL    HW129246   5.309   0.210   0.570
 9449SOL    HW229247   5.288   0.214   0.732
 9450SOL     OW29248   1.528   5.877   4.569
 9450SOL    HW129249   1.622   5.867   4.535
 9450SOL    HW229250   1.530   5.890   4.668
 9451SOL     OW29251   3.855   5.835   5.948
 9451SOL    HW129252   3.763   5.863   5.973
 9451SOL    HW229253   3.922   5.893   5.995
 9452SOL     OW29254   0.681   4.236   1.061
 9452SOL    HW129255   0.746   4.182   1.009
 9452SOL    HW229256   0.603   4.259   1.003
 9453SOL     OW29257   3.617   5.134   3.208
 9453SOL    HW129258   3.702   5.117   3.258
 9453SOL    HW229259   3.608   5.233   3.191
 9454SOL     OW29260   4.529   4.399   0.958
 9454SOL    HW129261   4.555   4.366   1.048
 9454SOL    HW229262   4.481   4.487   0.966
 9455SOL     OW29263   2.883   2.237   2.322
 9455SOL    HW129264   2.905   2.294   2.243
 9455SOL    HW229265   2.963   2.184   2.349
 9456SOL     OW29266   6.445   3.706   2.402
 9456SOL    HW129267   6.531   3.678   2.444
 9456SOL    HW229268   6.372   3.702   2.471
 9457SOL     OW29269   1.640   4.873   4.381
 9457SOL    HW129270   1.725   4.838   4.343
 9457SOL    HW229271   1.632   4.845   4.477
 9458SOL     OW29272   6.981   4.242   0.422
 9458SOL    HW129273   6.919   4.292   0.362
 9458SOL    HW229274   6.931   4.173   0.473
 9459SOL     OW29275   5.054   4.826   4.876
 9459SOL    HW129276   5.086   4.886   4.949
 9459SOL    HW229277   5.127   4.814   4.809
 9460SOL     OW29278   1.431   3.153   3.754
 9460SOL    HW129279   1.496   3.182   3.825
 9460SOL    HW229280   1.471   3.170   3.664
 9461SOL     OW29281   1.165   2.439   0.882
 9461SOL    HW129282   1.081   2.385   0.889
 9461SOL    HW229283   1.146   2.525   0.834
 9462SOL     OW29284   2.038   1.949   3.887
 9462SOL    HW129285   1.979   2.001   3.949
 9462SOL    HW229286   2.017   1.973   3.793
 9463SOL     OW29287   5.372   6.604   1.460
 9463SOL    HW129288   5.421   6.538   1.402
 9463SOL    HW229289   5.417   6.693   1.453
 9464SOL     OW29290   6.824   0.731   1.676
 9464SOL    HW129291   6.922   0.741   1.696
 9464SOL    HW229292   6.774   0.715   1.761
 9465SOL     OW29293   0.527   3.940   0.989
 9465SOL    HW129294   0.541   3.885   0.908
 9465SOL    HW229295   0.431   3.966   0.996
 9466SOL     OW29296   4.106   5.510   6.497
 9466SOL    HW129297   4.169   5.487   6.571
 9466SOL    HW229298   4.155   5.506   6.410
 9467SOL     OW29299   1.520   2.773   0.844
 9467SOL    HW129300   1.441   2.753   0.900
 9467SOL    HW229301   1.582   2.694   0.844
 9468SOL     OW29302   6.872   4.157   0.145
 9468SOL    HW129303   6.813   4.149   0.226
 9468SOL    HW229304   6.901   4.066   0.115
 9469SOL     OW29305   6.874   6.191   0.308
 9469SOL    HW129306   6.842   6.139   0.229
 9469SOL    HW229307   6.959   6.238   0.285
 9470SOL     OW29308   4.805   3.687   6.943
 9470SOL    HW129309   4.867   3.760   6.973
 9470SOL    HW229310   4.840   3.599   6.974
 9471SOL     OW29311   6.105   2.201   5.362
 9471SOL    HW129312   6.064   2.167   5.447
 9471SOL    HW229313   6.033   2.242   5.305
 9472SOL     OW29314   1.485   4.601   6.069
 9472SOL    HW129315   1.430   4.585   5.987
 9472SOL    HW229316   1.487   4.699   6.088
 9473SOL     OW29317   3.039   4.221   0.069
 9473SOL    HW129318   2.950   4.178   0.088
 9473SOL    HW229319   3.108   4.181   0.129
 9474SOL     OW29320   5.955   3.702   1.838
 9474SOL    HW129321   5.857   3.714   1.824
 9474SOL    HW229322   5.989   3.773   1.900
 9475SOL     OW29323   4.853   3.641   5.702
 9475SOL    HW129324   4.863   3.698   5.621
 9475SOL    HW229325   4.943   3.622   5.741
 9476SOL     OW29326   3.984   4.352   5.707
 9476SOL    HW129327   3.887   4.340   5.683
 9476SOL    HW229328   4.019   4.434   5.664
 9477SOL     OW29329   2.024   3.603   1.845
 9477SOL    HW129330   2.085   3.550   1.905
 9477SOL    HW229331   2.073   3.629   1.762
 9478SOL     OW29332   4.784   2.710   0.682
 9478SOL    HW129333   4.771   2.734   0.779
 9478SOL    HW229334   4.818   2.616   0.675
 9479SOL     OW29335   4.450   1.143   1.454
 9479SOL    HW129336   4.510   1.193   1.391
 9479SOL    HW229337   4.438   1.196   1.538
 9480SOL     OW29338   5.926   5.737   6.997
 9480SOL    HW129339   5.896   5.830   7.019
 9480SOL    HW229340   5.974   5.698   0.044
 9481SOL     OW29341   4.689   1.554   3.456
 9481SOL    HW129342   4.605   1.607   3.446
 9481SOL    HW229343   4.767   1.615   3.466
 9482SOL     OW29344   5.721   1.026   1.017
 9482SOL    HW129345   5.642   0.990   1.067
 9482SOL    HW229346   5.689   1.084   0.942
 9483SOL     OW29347   0.822   0.773   6.893
 9483SOL    HW129348   0.894   0.799   6.829
 9483SOL    HW229349   0.863   0.731   6.974
 9484SOL     OW29350   2.393   6.494   4.663
 9484SOL    HW129351   2.313   6.524   4.714
 9484SOL    HW229352   2.468   6.474   4.726
 9485SOL     OW29353   6.315   1.241   0.462
 9485SOL    HW129354   6.241   1.286   0.513
 9485SOL    HW229355   6.362   1.309   0.406
 9486SOL     OW29356   4.590   5.794   0.462
 9486SOL    HW129357   4.505   5.750   0.431
 9486SOL    HW229358   4.665   5.769   0.401
 9487SOL     OW29359   3.250   4.027   4.386
 9487SOL    HW129360   3.161   4.025   4.432
 9487SOL    HW229361   3.286   3.934   4.377
 9488SOL     OW29362   1.527   1.442   1.299
 9488SOL    HW129363   1.608   1.442   1.239
 9488SOL    HW229364   1.507   1.349   1.328
 9489SOL     OW29365   5.147   4.441   1.081
 9489SOL    HW129366   5.064   4.493   1.061
 9489SOL    HW229367   5.122   4.357   1.129
 9490SOL     OW29368   6.029   5.097   3.884
 9490SOL    HW129369   5.935   5.087   3.853
 9490SOL    HW229370   6.067   5.182   3.850
 9491SOL     OW29371   5.288   6.373   3.922
 9491SOL    HW129372   5.210   6.383   3.860
 9491SOL    HW229373   5.370   6.411   3.879
 9492SOL     OW29374   4.698   2.804   4.949
 9492SOL    HW129375   4.660   2.772   5.035
 9492SOL    HW229376   4.769   2.872   4.966
 9493SOL     OW29377   3.553   6.355   4.316
 9493SOL    HW129378   3.507   6.332   4.402
 9493SOL    HW229379   3.509   6.306   4.241
 9494SOL     OW29380   5.426   2.913   1.990
 9494SOL    HW129381   5.348   2.932   2.050
 9494SOL    HW229382   5.444   2.815   1.989
 9495SOL     OW29383   0.134   0.812   2.031
 9495SOL    HW129384   0.152   0.723   2.074
 9495SOL    HW229385   0.125   0.800   1.932
 9496SOL     OW29386   4.448   2.098   2.198
 9496SOL    HW129387   4.411   2.064   2.112
 9496SOL    HW229388   4.439   2.198   2.202
 9497SOL     OW29389   5.770   5.830   5.272
 9497SOL    HW129390   5.682   5.874   5.254
 9497SOL    HW229391   5.754   5.738   5.308
 9498SOL     OW29392   6.599   4.916   4.498
 9498SOL    HW129393   6.548   4.994   4.533
 9498SOL    HW229394   6.688   4.912   4.543
 9499SOL     OW29395   6.741   5.377   5.028
 9499SOL    HW129396   6.660   5.320   5.027
 9499SOL    HW229397   6.732   5.448   5.098
 9500SOL     OW29398   4.146   0.113   1.166
 9500SOL    HW129399   4.139   0.099   1.067
 9500SOL    HW229400   4.223   0.060   1.202
 9501SOL     OW29401   1.913   1.603   4.251
 9501SOL    HW129402   1.923   1.630   4.155
 9501SOL    HW229403   2.001   1.609   4.297
 9502SOL     OW29404   5.291   4.744   5.076
 9502SOL    HW129405   5.331   4.814   5.135
 9502SOL    HW229406   5.337   4.746   4.987
 9503SOL     OW29407   0.785   2.294   0.333
 9503SOL    HW129408   0.735   2.380   0.322
 9503SOL    HW229409   0.883   2.313   0.333
 9504SOL     OW29410   0.501   4.130   1.530
 9504SOL    HW129411   0.489   4.225   1.557
 9504SOL    HW229412   0.543   4.126   1.439
 9505SOL     OW29413   4.711   5.155   5.957
 9505SOL    HW129414   4.623   5.202   5.947
 9505SOL    HW229415   4.705   5.064   5.917
 9506SOL     OW29416   2.252   2.087   1.073
 9506SOL    HW129417   2.200   2.093   1.159
 9506SOL    HW229418   2.192   2.054   1.000
 9507SOL     OW29419   5.852   0.286   1.087
 9507SOL    HW129420   5.784   0.343   1.134
 9507SOL    HW229421   5.825   0.190   1.096
 9508SOL     OW29422   4.628   1.532   2.182
 9508SOL    HW129423   4.537   1.505   2.153
 9508SOL    HW229424   4.684   1.451   2.197
 9509SOL     OW29425   6.552   0.821   2.768
 9509SOL    HW129426   6.564   0.815   2.867
 9509SOL    HW229427   6.490   0.749   2.738
 9510SOL     OW29428   0.570   3.501   3.500
 9510SOL    HW129429   0.668   3.484   3.507
 9510SOL    HW229430   0.522   3.456   3.575
 9511SOL     OW29431   1.169   1.030   0.677
 9511SOL    HW129432   1.206   1.074   0.759
 9511SOL    HW229433   1.079   1.069   0.656
 9512SOL     OW29434   6.434   3.109   1.130
 9512SOL    HW129435   6.374   3.075   1.203
 9512SOL    HW229436   6.516   3.051   1.125
 9513SOL     OW29437   4.075   4.843   6.292
 9513SOL    HW129438   4.024   4.802   6.368
 9513SOL    HW229439   4.028   4.924   6.260
 9514SOL     OW29440   3.277   2.991   6.923
 9514SOL    HW129441   3.357   2.990   6.863
 9514SOL    HW229442   3.196   3.018   6.872
 9515SOL     OW29443   2.681   5.263   3.869
 9515SOL    HW129444   2.626   5.184   3.844
 9515SOL    HW229445   2.776   5.236   3.881
 9516SOL     OW29446   6.299   4.681   0.632
 9516SOL    HW129447   6.210   4.725   0.629
 9516SOL    HW229448   6.367   4.739   0.587
 9517SOL     OW29449   1.194   4.649   1.315
 9517SOL    HW129450   1.123   4.581   1.334
 9517SOL    HW229451   1.162   4.739   1.345
 9518SOL     OW29452   2.724   0.909   0.531
 9518SOL    HW129453   2.683   1.000   0.526
 9518SOL    HW229454   2.796   0.908   0.601
 9519SOL     OW29455   1.322   2.305   5.385
 9519SOL    HW129456   1.418   2.331   5.377
 9519SOL    HW229457   1.283   2.345   5.468
 9520SOL     OW29458   2.322   0.124   2.803
 9520SOL    HW129459   2.310   0.045   2.743
 9520SOL    HW229460   2.317   0.208   2.748
 9521SOL     OW29461   6.042   6.025   4.083
 9521SOL    HW129462   6.008   6.117   4.102
 9521SOL    HW229463   6.021   5.965   4.160
 9522SOL     OW29464   3.351   6.132   1.095
 9522SOL    HW129465   3.335   6.087   1.007
 9522SOL    HW229466   3.264   6.166   1.131
 9523SOL     OW29467   3.585   5.113   4.211
 9523SOL    HW129468   3.653   5.041   4.193
 9523SOL    HW229469   3.525   5.084   4.286
 9524SOL     OW29470   3.309   2.871   1.205
 9524SOL    HW129471   3.244   2.931   1.253
 9524SOL    HW229472   3.284   2.775   1.221
 9525SOL     OW29473   2.023   1.386   6.274
 9525SOL    HW129474   2.082   1.442   6.216
 9525SOL    HW229475   1.930   1.422   6.272
 9526SOL     OW29476   4.962   6.160   3.235
 9526SOL    HW129477   4.949   6.135   3.331
 9526SOL    HW229478   4.967   6.259   3.227
 9527SOL     OW29479   0.726   0.654   2.043
 9527SOL    HW129480   0.806   0.704   2.011
 9527SOL    HW229481   0.701   0.585   1.974
 9528SOL     OW29482   6.609   6.756   0.831
 9528SOL    HW129483   6.626   6.848   0.797
 9528SOL    HW229484   6.621   6.754   0.931
 9529SOL     OW29485   1.128   3.331   6.388
 9529SOL    HW129486   1.212   3.368   6.428
 9529SOL    HW229487   1.051   3.388   6.414
 9530SOL     OW29488   1.881   2.674   2.520
 9530SOL    HW129489   1.828   2.750   2.481
 9530SOL    HW229490   1.822   2.622   2.582
 9531SOL     OW29491   3.937   6.375   3.209
 9531SOL    HW129492   3.951   6.282   3.176
 9531SOL    HW229493   3.883   6.426   3.143
 9532SOL     OW29494   1.631   6.326   0.992
 9532SOL    HW129495   1.664   6.238   1.026
 9532SOL    HW229496   1.656   6.398   1.057
 9533SOL     OW29497   0.639   1.093   4.962
 9533SOL    HW129498   0.609   1.181   4.926
 9533SOL    HW229499   0.591   1.019   4.915
 9534SOL     OW29500   5.276   1.765   4.495
 9534SOL    HW129501   5.317   1.759   4.586
 9534SOL    HW229502   5.309   1.847   4.449
 9535SOL     OW29503   2.819   1.004   5.959
 9535SOL    HW129504   2.797   1.086   6.011
 9535SOL    HW229505   2.838   1.028   5.864
 9536SOL     OW29506   1.962   5.754   5.576
 9536SOL    HW129507   1.978   5.805   5.661
 9536SOL    HW229508   1.870   5.715   5.577
 9537SOL     OW29509   3.208   0.371   2.371
 9537SOL    HW129510   3.152   0.300   2.413
 9537SOL    HW229511   3.273   0.329   2.308
 9538SOL     OW29512   6.407   2.347   4.304
 9538SOL    HW129513   6.469   2.269   4.304
 9538SOL    HW229514   6.452   2.424   4.350
 9539SOL     OW29515   1.381   5.604   6.706
 9539SOL    HW129516   1.386   5.677   6.638
 9539SOL    HW229517   1.388   5.515   6.660
 9540SOL     OW29518   4.586   5.070   5.440
 9540SOL    HW129519   4.542   5.125   5.511
 9540SOL    HW229520   4.596   4.976   5.473
 9541SOL     OW29521   1.670   2.764   4.387
 9541SOL    HW129522   1.765   2.736   4.378
 9541SOL    HW229523   1.649   2.783   4.483
 9542SOL     OW29524   4.859   3.147   4.774
 9542SOL    HW129525   4.847   3.115   4.867
 9542SOL    HW229526   4.874   3.246   4.774
 9543SOL     OW29527   4.712   1.044   3.788
 9543SOL    HW129528   4.769   0.992   3.852
 9543SOL    HW229529   4.616   1.034   3.815
 9544SOL     OW29530   5.582   0.533   2.075
 9544SOL    HW129531   5.578   0.632   2.089
 9544SOL    HW229532   5.643   0.492   2.143
 9545SOL     OW29533   6.558   0.029   3.245
 9545SOL    HW129534   6.610   7.019   3.170
 9545SOL    HW229535   6.569   7.006   3.328
 9546SOL     OW29536   2.906   5.451   6.677
 9546SOL    HW129537   2.918   5.376   6.612
 9546SOL    HW229538   2.812   5.450   6.711
 9547SOL     OW29539   1.293   6.305   4.356
 9547SOL    HW129540   1.314   6.213   4.387
 9547SOL    HW229541   1.236   6.351   4.424
 9548SOL     OW29542   6.061   5.739   4.598
 9548SOL    HW129543   6.110   5.772   4.517
 9548SOL    HW229544   5.976   5.696   4.570
 9549SOL     OW29545   3.206   5.301   0.527
 9549SOL    HW129546   3.292   5.286   0.478
 9549SOL    HW229547   3.130   5.263   0.475
 9550SOL     OW29548   0.609   1.359   0.373
 9550SOL    HW129549   0.657   1.357   0.286
 9550SOL    HW229550   0.621   1.448   0.417
 9551SOL     OW29551   0.353   0.282   4.814
 9551SOL    HW129552   0.371   0.297   4.716
 9551SOL    HW229553   0.436   0.302   4.866
 9552SOL     OW29554   1.685   6.340   3.800
 9552SOL    HW129555   1.686   6.243   3.825
 9552SOL    HW229556   1.591   6.369   3.782
 9553SOL     OW29557   5.672   4.853   6.650
 9553SOL    HW129558   5.685   4.916   6.727
 9553SOL    HW229559   5.658   4.905   6.566
 9554SOL     OW29560   2.432   1.042   2.277
 9554SOL    HW129561   2.411   0.986   2.197
 9554SOL    HW229562   2.372   1.017   2.353
 9555SOL     OW29563   6.792   2.512   0.848
 9555SOL    HW129564   6.761   2.607   0.857
 9555SOL    HW229565   6.746   2.455   0.916
 9556SOL     OW29566   2.301   0.885   1.150
 9556SOL    HW129567   2.297   0.860   1.246
 9556SOL    HW229568   2.229   0.950   1.129
 9557SOL     OW29569   6.108   0.386   2.096
 9557SOL    HW129570   6.037   0.330   2.138
 9557SOL    HW229571   6.197   0.365   2.137
 9558SOL     OW29572   6.600   4.904   3.057
 9558SOL    HW129573   6.515   4.880   3.010
 9558SOL    HW229574   6.678   4.870   3.004
 9559SOL     OW29575   6.916   3.421   2.452
 9559SOL    HW129576   7.007   3.441   2.489
 9559SOL    HW229577   6.925   3.371   2.367
 9560SOL     OW29578   2.621   1.078   3.180
 9560SOL    HW129579   2.568   0.998   3.208
 9560SOL    HW229580   2.710   1.076   3.224
 9561SOL     OW29581   3.771   6.453   0.707
 9561SOL    HW129582   3.819   6.389   0.648
 9561SOL    HW229583   3.788   6.431   0.803
 9562SOL     OW29584   4.503   5.504   2.570
 9562SOL    HW129585   4.582   5.565   2.558
 9562SOL    HW229586   4.419   5.555   2.552
 9563SOL     OW29587   6.875   5.930   6.014
 9563SOL    HW129588   6.888   5.954   5.918
 9563SOL    HW229589   6.857   5.832   6.022
 9564SOL     OW29590   3.084   6.771   6.663
 9564SOL    HW129591   3.087   6.797   6.760
 9564SOL    HW229592   3.094   6.672   6.655
 9565SOL     OW29593   3.815   6.666   4.658
 9565SOL    HW129594   3.829   6.708   4.569
 9565SOL    HW229595   3.904   6.641   4.697
 9566SOL     OW29596   2.993   4.437   5.869
 9566SOL    HW129597   3.084   4.412   5.836
 9566SOL    HW229598   2.962   4.519   5.821
 9567SOL     OW29599   6.501   5.799   6.700
 9567SOL    HW129600   6.593   5.761   6.685
 9567SOL    HW229601   6.446   5.786   6.618
 9568SOL     OW29602   5.006   3.694   6.598
 9568SOL    HW129603   5.040   3.773   6.650
 9568SOL    HW229604   4.907   3.688   6.606
 9569SOL     OW29605   6.368   0.592   0.075
 9569SOL    HW129606   6.442   0.658   0.088
 9569SOL    HW229607   6.393   0.528   0.003
 9570SOL     OW29608   0.460   1.519   0.211
 9570SOL    HW129609   0.405   1.436   0.227
 9570SOL    HW229610   0.417   1.596   0.258
 9571SOL     OW29611   1.969   3.003   6.996
 9571SOL    HW129612   2.050   2.945   6.983
 9571SOL    HW229613   1.902   2.955   0.020
 9572SOL     OW29614   1.402   4.355   2.130
 9572SOL    HW129615   1.425   4.449   2.104
 9572SOL    HW229616   1.441   4.335   2.220
 9573SOL     OW29617   1.834   1.354   7.017
 9573SOL    HW129618   1.849   1.410   6.936
 9573SOL    HW229619   1.743   1.314   7.015
 9574SOL     OW29620   3.603   3.385   5.793
 9574SOL    HW129621   3.576   3.470   5.837
 9574SOL    HW229622   3.524   3.324   5.787
 9575SOL     OW29623   5.258   1.165   1.992
 9575SOL    HW129624   5.205   1.249   1.978
 9575SOL    HW229625   5.204   1.086   1.963
 9576SOL     OW29626   3.394   1.476   4.659
 9576SOL    HW129627   3.384   1.452   4.562
 9576SOL    HW229628   3.389   1.576   4.668
 9577SOL     OW29629   0.721   5.908   2.760
 9577SOL    HW129630   0.788   5.861   2.817
 9577SOL    HW229631   0.633   5.910   2.808
 9578SOL     OW29632   6.694   3.033   2.052
 9578SOL    HW129633   6.688   3.098   1.976
 9578SOL    HW229634   6.789   3.027   2.084
 9579SOL     OW29635   1.373   6.842   2.595
 9579SOL    HW129636   1.377   6.743   2.582
 9579SOL    HW229637   1.454   6.873   2.646
 9580SOL     OW29638   4.544   3.781   7.010
 9580SOL    HW129639   4.629   3.796   6.959
 9580SOL    HW229640   4.483   3.859   6.996
 9581SOL     OW29641   1.174   4.653   6.270
 9581SOL    HW129642   1.115   4.662   6.190
 9581SOL    HW229643   1.186   4.743   6.312
 9582SOL     OW29644   4.048   4.827   4.434
 9582SOL    HW129645   4.117   4.764   4.470
 9582SOL    HW229646   4.046   4.820   4.335
 9583SOL     OW29647   2.044   3.518   2.226
 9583SOL    HW129648   2.061   3.602   2.278
 9583SOL    HW229649   2.101   3.518   2.144
 9584SOL     OW29650   6.047   5.402   0.180
 9584SOL    HW129651   6.041   5.302   0.176
 9584SOL    HW229652   6.015   5.433   0.270
 9585SOL     OW29653   6.110   0.033   3.383
 9585SOL    HW129654   6.054   0.096   3.436
 9585SOL    HW229655   6.056   7.026   3.308
 9586SOL     OW29656   5.439   3.569   3.462
 9586SOL    HW129657   5.457   3.665   3.440
 9586SOL    HW229658   5.343   3.558   3.486
 9587SOL     OW29659   5.102   0.521   2.217
 9587SOL    HW129660   5.041   0.579   2.271
 9587SOL    HW229661   5.172   0.578   2.174
 9588SOL     OW29662   0.288   0.563   1.100
 9588SOL    HW129663   0.236   0.544   1.183
 9588SOL    HW229664   0.234   0.623   1.040
 9589SOL     OW29665   2.548   0.743   6.116
 9589SOL    HW129666   2.524   0.820   6.056
 9589SOL    HW229667   2.529   0.768   6.211
 9590SOL     OW29668   6.887   4.245   3.343
 9590SOL    HW129669   6.863   4.335   3.307
 9590SOL    HW229670   6.820   4.178   3.313
 9591SOL     OW29671   1.695   5.117   0.940
 9591SOL    HW129672   1.609   5.078   0.972
 9591SOL    HW229673   1.759   5.044   0.918
 9592SOL     OW29674   4.388   5.535   2.102
 9592SOL    HW129675   4.362   5.626   2.134
 9592SOL    HW229676   4.485   5.535   2.078
 9593SOL     OW29677   6.839   2.772   4.293
 9593SOL    HW129678   6.855   2.720   4.376
 9593SOL    HW229679   6.879   2.724   4.215
 9594SOL     OW29680   6.630   6.756   2.358
 9594SOL    HW129681   6.615   6.784   2.453
 9594SOL    HW229682   6.728   6.746   2.341
 9595SOL     OW29683   2.154   5.777   4.546
 9595SOL    HW129684   2.112   5.747   4.632
 9595SOL    HW229685   2.235   5.832   4.567
 9596SOL     OW29686   6.133   5.968   5.549
 9596SOL    HW129687   6.217   5.970   5.602
 9596SOL    HW229688   6.148   6.010   5.460
 9597SOL     OW29689   1.761   4.165   1.562
 9597SOL    HW129690   1.779   4.100   1.636
 9597SOL    HW229691   1.663   4.172   1.547
 9598SOL     OW29692   0.316   5.425   5.929
 9598SOL    HW129693   0.317   5.329   5.958
 9598SOL    HW229694   0.225   5.463   5.942
 9599SOL     OW29695   4.618   1.449   5.475
 9599SOL    HW129696   4.633   1.356   5.509
 9599SOL    HW229697   4.581   1.445   5.383
 9600SOL     OW29698   1.489   0.288   6.385
 9600SOL    HW129699   1.459   0.256   6.295
 9600SOL    HW229700   1.418   0.346   6.426
 9601SOL     OW29701   0.617   5.002   5.778
 9601SOL    HW129702   0.662   5.013   5.689
 9601SOL    HW229703   0.656   5.068   5.843
 9602SOL     OW29704   1.075   5.466   6.535
 9602SOL    HW129705   1.026   5.553   6.539
 9602SOL    HW229706   1.106   5.440   6.627
 9603SOL     OW29707   1.919   6.050   4.768
 9603SOL    HW129708   1.841   6.110   4.749
 9603SOL    HW229709   1.887   5.969   4.817
 9604SOL     OW29710   5.813   1.732   6.770
 9604SOL    HW129711   5.876   1.738   6.848
 9604SOL    HW229712   5.841   1.799   6.700
 9605SOL     OW29713   1.982   5.730   6.414
 9605SOL    HW129714   2.081   5.743   6.409
 9605SOL    HW229715   1.952   5.672   6.339
 9606SOL     OW29716   0.306   6.771   3.896
 9606SOL    HW129717   0.244   6.720   3.956
 9606SOL    HW229718   0.377   6.814   3.951
 9607SOL     OW29719   1.441   1.570   2.049
 9607SOL    HW129720   1.518   1.592   2.109
 9607SOL    HW229721   1.355   1.577   2.101
 9608SOL     OW29722   0.605   6.961   2.354
 9608SOL    HW129723   0.597   6.926   2.447
 9608SOL    HW229724   0.563   6.897   2.290
 9609SOL     OW29725   2.128   4.655   4.424
 9609SOL    HW129726   2.151   4.751   4.438
 9609SOL    HW229727   2.158   4.625   4.334
 9610SOL     OW29728   2.197   1.910   6.027
 9610SOL    HW129729   2.293   1.886   6.039
 9610SOL    HW229730   2.143   1.871   6.102
 9611SOL     OW29731   6.194   6.930   0.839
 9611SOL    HW129732   6.172   6.903   0.746
 9611SOL    HW229733   6.182   7.029   0.849
 9612SOL     OW29734   6.157   3.060   1.928
 9612SOL    HW129735   6.158   3.058   1.828
 9612SOL    HW229736   6.086   3.124   1.959
 9613SOL     OW29737   6.357   6.746   4.987
 9613SOL    HW129738   6.284   6.704   4.933
 9613SOL    HW229739   6.442   6.744   4.935
 9614SOL     OW29740   3.514   3.762   2.174
 9614SOL    HW129741   3.537   3.675   2.218
 9614SOL    HW229742   3.419   3.760   2.145
 9615SOL     OW29743   1.356   5.818   2.663
 9615SOL    HW129744   1.367   5.913   2.693
 9615SOL    HW229745   1.271   5.780   2.701
 9616SOL     OW29746   3.588   2.612   1.043
 9616SOL    HW129747   3.568   2.703   1.006
 9616SOL    HW229748   3.559   2.542   0.976
 9617SOL     OW29749   0.859   3.014   3.799
 9617SOL    HW129750   0.892   2.983   3.888
 9617SOL    HW229751   0.919   2.981   3.727
 9618SOL     OW29752   3.634   6.283   6.583
 9618SOL    HW129753   3.597   6.308   6.672
 9618SOL    HW229754   3.654   6.184   6.582
 9619SOL     OW29755   2.925   6.337   0.933
 9619SOL    HW129756   2.937   6.392   1.016
 9619SOL    HW229757   3.014   6.306   0.900
 9620SOL     OW29758   3.419   1.583   6.608
 9620SOL    HW129759   3.396   1.500   6.557
 9620SOL    HW229760   3.352   1.655   6.586
 9621SOL     OW29761   0.456   0.584   1.484
 9621SOL    HW129762   0.477   0.614   1.391
 9621SOL    HW229763   0.477   0.657   1.548
 9622SOL     OW29764   6.055   0.672   6.367
 9622SOL    HW129765   5.981   0.664   6.300
 9622SOL    HW229766   6.025   0.730   6.443
 9623SOL     OW29767   4.708   6.100   6.463
 9623SOL    HW129768   4.801   6.137   6.454
 9623SOL    HW229769   4.666   6.094   6.373
 9624SOL     OW29770   4.371   5.379   4.932
 9624SOL    HW129771   4.290   5.320   4.938
 9624SOL    HW229772   4.439   5.337   4.872
 9625SOL     OW29773   5.096   4.331   6.493
 9625SOL    HW129774   5.148   4.416   6.489
 9625SOL    HW229775   5.012   4.345   6.544
 9626SOL     OW29776   1.792   4.189   6.021
 9626SOL    HW129777   1.698   4.170   5.990
 9626SOL    HW229778   1.789   4.260   6.091
 9627SOL     OW29779   0.736   4.903   6.904
 9627SOL    HW129780   0.661   4.909   6.969
 9627SOL    HW229781   0.796   4.826   6.928
 9628SOL     OW29782   5.579   3.511   0.113
 9628SOL    HW129783   5.587   3.607   0.088
 9628SOL    HW229784   5.651   3.487   0.178
 9629SOL     OW29785   0.204   5.748   3.221
 9629SOL    HW129786   0.142   5.671   3.239
 9629SOL    HW229787   0.283   5.742   3.283
 9630SOL     OW29788   6.670   5.735   5.831
 9630SOL    HW129789   6.735   5.789   5.778
 9630SOL    HW229790   6.578   5.748   5.795
 9631SOL     OW29791   4.229   1.420   0.749
 9631SOL    HW129792   4.250   1.323   0.741
 9631SOL    HW229793   4.249   1.466   0.663
 9632SOL     OW29794   3.782   6.352   1.269
 9632SOL    HW129795   3.854   6.291   1.302
 9632SOL    HW229796   3.761   6.329   1.174
 9633SOL     OW29797   3.819   3.001   2.878
 9633SOL    HW129798   3.751   3.017   2.949
 9633SOL    HW229799   3.892   3.069   2.886
 9634SOL     OW29800   5.291   4.551   2.255
 9634SOL    HW129801   5.255   4.519   2.343
 9634SOL    HW229802   5.339   4.638   2.269
 9635SOL     OW29803   0.782   3.855   3.519
 9635SOL    HW129804   0.825   3.899   3.598
 9635SOL    HW229805   0.685   3.877   3.518
 9636SOL     OW29806   4.408   2.353   4.579
 9636SOL    HW129807   4.480   2.384   4.643
 9636SOL    HW229808   4.426   2.259   4.552
 9637SOL     OW29809   2.424   2.967   0.750
 9637SOL    HW129810   2.333   2.929   0.738
 9637SOL    HW229811   2.459   2.999   0.662
 9638SOL     OW29812   0.099   4.604   5.393
 9638SOL    HW129813   0.040   4.622   5.315
 9638SOL    HW229814   0.141   4.514   5.382
 9639SOL     OW29815   4.505   1.565   1.725
 9639SOL    HW129816   4.562   1.508   1.785
 9639SOL    HW229817   4.514   1.661   1.752
 9640SOL     OW29818   3.544   0.576   2.506
 9640SOL    HW129819   3.495   0.515   2.568
 9640SOL    HW229820   3.550   0.668   2.546
 9641SOL     OW29821   6.129   4.069   2.835
 9641SOL    HW129822   6.116   3.970   2.841
 9641SOL    HW229823   6.043   4.115   2.856
 9642SOL     OW29824   2.299   0.530   3.442
 9642SOL    HW129825   2.258   0.445   3.409
 9642SOL    HW229826   2.396   0.533   3.416
 9643SOL     OW29827   5.185   4.180   4.394
 9643SOL    HW129828   5.176   4.100   4.454
 9643SOL    HW229829   5.125   4.169   4.315
 9644SOL     OW29830   1.510   5.275   5.035
 9644SOL    HW129831   1.458   5.244   4.956
 9644SOL    HW229832   1.584   5.210   5.054
 9645SOL     OW29833   1.341   5.817   6.485
 9645SOL    HW129834   1.253   5.856   6.510
 9645SOL    HW229835   1.413   5.885   6.499
 9646SOL     OW29836   3.294   6.582   5.693
 9646SOL    HW129837   3.346   6.654   5.646
 9646SOL    HW229838   3.252   6.522   5.625
 9647SOL     OW29839   6.202   6.077   3.327
 9647SOL    HW129840   6.294   6.110   3.344
 9647SOL    HW229841   6.149   6.145   3.277
 9648SOL     OW29842   4.739   2.493   0.973
 9648SOL    HW129843   4.795   2.415   1.000
 9648SOL    HW229844   4.787   2.578   0.992
 9649SOL     OW29845   2.656   3.484   0.562
 9649SOL    HW129846   2.744   3.512   0.524
 9649SOL    HW229847   2.583   3.535   0.518
 9650SOL     OW29848   0.082   4.813   4.513
 9650SOL    HW129849   0.038   4.772   4.593
 9650SOL    HW229850   0.174   4.843   4.537
 9651SOL     OW29851   3.220   1.212   0.286
 9651SOL    HW129852   3.282   1.235   0.361
 9651SOL    HW229853   3.126   1.223   0.316
 9652SOL     OW29854   0.121   3.823   0.806
 9652SOL    HW129855   0.190   3.857   0.743
 9652SOL    HW229856   0.037   3.802   0.756
 9653SOL     OW29857   4.711   4.019   6.091
 9653SOL    HW129858   4.722   4.053   6.184
 9653SOL    HW229859   4.728   4.093   6.026
 9654SOL     OW29860   3.458   3.318   4.054
 9654SOL    HW129861   3.520   3.255   4.100
 9654SOL    HW229862   3.380   3.338   4.113
 9655SOL     OW29863   5.369   1.029   2.253
 9655SOL    HW129864   5.322   1.104   2.206
 9655SOL    HW229865   5.455   1.062   2.291
 9656SOL     OW29866   5.472   4.091   1.510
 9656SOL    HW129867   5.550   4.117   1.567
 9656SOL    HW229868   5.408   4.038   1.565
 9657SOL     OW29869   6.357   3.748   3.359
 9657SOL    HW129870   6.295   3.672   3.378
 9657SOL    HW229871   6.421   3.722   3.287
 9658SOL     OW29872   4.780   1.308   2.248
 9658SOL    HW129873   4.759   1.212   2.230
 9658SOL    HW229874   4.726   1.340   2.325
 9659SOL     OW29875   3.019   2.749   1.307
 9659SOL    HW129876   3.006   2.683   1.382
 9659SOL    HW229877   2.986   2.709   1.222
 9660SOL     OW29878   0.988   5.919   0.921
 9660SOL    HW129879   1.002   5.953   1.013
 9660SOL    HW229880   0.961   5.823   0.925
 9661SOL     OW29881   4.968   4.833   1.346
 9661SOL    HW129882   4.930   4.743   1.370
 9661SOL    HW229883   4.940   4.900   1.414
 9662SOL     OW29884   5.125   4.207   6.830
 9662SOL    HW129885   5.054   4.272   6.803
 9662SOL    HW229886   5.113   4.184   6.927
 9663SOL     OW29887   0.539   4.478   3.149
 9663SOL    HW129888   0.587   4.536   3.216
 9663SOL    HW229889   0.450   4.519   3.128
 9664SOL     OW29890   5.591   4.362   3.539
 9664SOL    HW129891   5.576   4.448   3.588
 9664SOL    HW229892   5.516   4.299   3.559
 9665SOL     OW29893   5.825   6.264   6.552
 9665SOL    HW129894   5.826   6.203   6.631
 9665SOL    HW229895   5.869   6.351   6.576
 9666SOL     OW29896   6.119   4.415   1.185
 9666SOL    HW129897   6.123   4.451   1.278
 9666SOL    HW229898   6.178   4.470   1.125
 9667SOL     OW29899   5.012   5.342   1.126
 9667SOL    HW129900   5.103   5.305   1.144
 9667SOL    HW229901   4.974   5.381   1.210
 9668SOL     OW29902   0.999   6.110   6.022
 9668SOL    HW129903   1.019   6.015   6.047
 9668SOL    HW229904   1.084   6.155   5.994
 9669SOL     OW29905   3.128   6.493   0.429
 9669SOL    HW129906   3.123   6.492   0.529
 9669SOL    HW229907   3.078   6.573   0.395
 9670SOL     OW29908   0.072   0.139   6.183
 9670SOL    HW129909   0.032   0.047   6.187
 9670SOL    HW229910   0.124   0.149   6.098
 9671SOL     OW29911   1.295   5.044   6.822
 9671SOL    HW129912   1.352   5.073   6.745
 9671SOL    HW229913   1.345   5.057   6.908
 9672SOL     OW29914   0.604   4.595   3.988
 9672SOL    HW129915   0.687   4.552   4.025
 9672SOL    HW229916   0.556   4.643   4.062
 9673SOL     OW29917   2.718   4.103   1.304
 9673SOL    HW129918   2.801   4.063   1.264
 9673SOL    HW229919   2.741   4.190   1.348
 9674SOL     OW29920   3.199   5.898   2.954
 9674SOL    HW129921   3.293   5.932   2.945
 9674SOL    HW229922   3.140   5.946   2.889
 9675SOL     OW29923   4.811   4.014   1.493
 9675SOL    HW129924   4.837   3.940   1.430
 9675SOL    HW229925   4.765   3.975   1.573
 9676SOL     OW29926   1.398   3.348   5.685
 9676SOL    HW129927   1.352   3.266   5.652
 9676SOL    HW229928   1.412   3.411   5.609
 9677SOL     OW29929   6.281   4.978   0.737
 9677SOL    HW129930   6.356   5.002   0.676
 9677SOL    HW229931   6.263   4.880   0.731
 9678SOL     OW29932   3.285   4.104   4.924
 9678SOL    HW129933   3.369   4.064   4.961
 9678SOL    HW229934   3.291   4.109   4.825
 9679SOL     OW29935   2.065   1.567   4.634
 9679SOL    HW129936   1.989   1.562   4.700
 9679SOL    HW229937   2.077   1.479   4.590
 9680SOL     OW29938   4.600   6.497   3.149
 9680SOL    HW129939   4.655   6.417   3.126
 9680SOL    HW229940   4.661   6.575   3.164
 9681SOL     OW29941   1.822   0.409   1.161
 9681SOL    HW129942   1.879   0.429   1.081
 9681SOL    HW229943   1.745   0.473   1.164
 9682SOL     OW29944   5.780   5.841   4.659
 9682SOL    HW129945   5.685   5.867   4.675
 9682SOL    HW229946   5.795   5.748   4.692
 9683SOL     OW29947   2.231   6.915   0.984
 9683SOL    HW129948   2.221   6.969   1.068
 9683SOL    HW229949   2.142   6.906   0.940
 9684SOL     OW29950   1.611   4.408   5.178
 9684SOL    HW129951   1.554   4.413   5.260
 9684SOL    HW229952   1.671   4.328   5.185
 9685SOL     OW29953   3.941   3.670   0.508
 9685SOL    HW129954   3.915   3.586   0.556
 9685SOL    HW229955   3.895   3.748   0.549
 9686SOL     OW29956   6.363   2.420   5.966
 9686SOL    HW129957   6.405   2.438   5.877
 9686SOL    HW229958   6.286   2.357   5.955
 9687SOL     OW29959   6.314   0.095   2.240
 9687SOL    HW129960   6.331   0.084   2.337
 9687SOL    HW229961   6.236   0.039   2.213
 9688SOL     OW29962   1.759   4.788   1.458
 9688SOL    HW129963   1.811   4.801   1.373
 9688SOL    HW229964   1.665   4.819   1.444
 9689SOL     OW29965   1.364   6.280   6.966
 9689SOL    HW129966   1.399   6.188   6.947
 9689SOL    HW229967   1.283   6.273   7.024
 9690SOL     OW29968   5.912   6.086   5.177
 9690SOL    HW129969   5.882   6.003   5.224
 9690SOL    HW229970   5.834   6.126   5.129
 9691SOL     OW29971   2.946   3.626   1.917
 9691SOL    HW129972   2.959   3.715   1.963
 9691SOL    HW229973   2.980   3.632   1.824
 9692SOL     OW29974   4.242   4.729   0.253
 9692SOL    HW129975   4.235   4.820   0.210
 9692SOL    HW229976   4.260   4.740   0.351
 9693SOL     OW29977   5.968   3.923   3.818
 9693SOL    HW129978   6.054   3.939   3.866
 9693SOL    HW229979   5.964   3.979   3.735
 9694SOL     OW29980   2.830   6.739   1.974
 9694SOL    HW129981   2.833   6.790   1.888
 9694SOL    HW229982   2.735   6.717   1.996
 9695SOL     OW29983   6.966   3.805   4.186
 9695SOL    HW129984   6.999   3.734   4.124
 9695SOL    HW229985   0.003   3.877   4.194
 9696SOL     OW29986   6.028   2.127   2.917
 9696SOL    HW129987   5.956   2.059   2.929
 9696SOL    HW229988   6.009   2.207   2.974
 9697SOL     OW29989   0.034   5.820   0.161
 9697SOL    HW129990   6.969   5.845   0.155
 9697SOL    HW229991   0.057   5.798   0.255
 9698SOL     OW29992   5.099   3.336   0.628
 9698SOL    HW129993   5.099   3.303   0.533
 9698SOL    HW229994   5.139   3.427   0.631
 9699SOL     OW29995   1.227   5.042   0.243
 9699SOL    HW129996   1.294   5.075   0.310
 9699SOL    HW229997   1.147   5.103   0.243
 9700SOL     OW29998   6.042   6.714   4.062
 9700SOL    HW129999   6.016   6.776   4.136
 9700SOL    HW230000   6.138   6.729   4.037
 9701SOL     OW30001   4.911   2.784   6.525
 9701SOL    HW130002   4.963   2.699   6.514
 9701SOL    HW230003   4.941   2.831   6.608
 9702SOL     OW30004   3.573   2.997   0.518
 9702SOL    HW130005   3.618   3.059   0.581
 9702SOL    HW230006   3.479   3.028   0.501
 9703SOL     OW30007   6.207   4.275   5.212
 9703SOL    HW130008   6.281   4.328   5.255
 9703SOL    HW230009   6.229   4.177   5.218
 9704SOL     OW30010   2.799   4.750   2.808
 9704SOL    HW130011   2.700   4.764   2.801
 9704SOL    HW230012   2.838   4.746   2.716
 9705SOL     OW30013   6.180   4.423   5.644
 9705SOL    HW130014   6.133   4.360   5.583
 9705SOL    HW230015   6.116   4.455   5.714
 9706SOL     OW30016   1.184   1.339   1.768
 9706SOL    HW130017   1.104   1.306   1.817
 9706SOL    HW230018   1.184   1.439   1.769
 9707SOL     OW30019   6.174   4.761   2.431
 9707SOL    HW130020   6.099   4.824   2.412
 9707SOL    HW230021   6.142   4.667   2.417
 9708SOL     OW30022   1.319   0.695   2.286
 9708SOL    HW130023   1.392   0.725   2.348
 9708SOL    HW230024   1.281   0.608   2.318
 9709SOL     OW30025   5.898   3.035   2.421
 9709SOL    HW130026   5.873   2.944   2.386
 9709SOL    HW230027   5.986   3.062   2.383
 9710SOL     OW30028   5.911   6.452   5.920
 9710SOL    HW130029   5.933   6.517   5.847
 9710SOL    HW230030   5.919   6.359   5.885
 9711SOL     OW30031   4.025   6.221   6.835
 9711SOL    HW130032   4.103   6.199   6.776
 9711SOL    HW230033   4.013   6.320   6.840
 9712SOL     OW30034   6.099   3.076   0.738
 9712SOL    HW130035   6.004   3.089   0.710
 9712SOL    HW230036   6.106   3.083   0.837
 9713SOL     OW30037   1.745   6.039   3.568
 9713SOL    HW130038   1.659   6.006   3.609
 9713SOL    HW230039   1.727   6.120   3.512
 9714SOL     OW30040   3.849   5.205   4.520
 9714SOL    HW130041   3.804   5.134   4.465
 9714SOL    HW230042   3.827   5.295   4.483
 9715SOL     OW30043   6.017   4.677   1.023
 9715SOL    HW130044   6.087   4.607   1.010
 9715SOL    HW230045   5.927   4.633   1.032
 9716SOL     OW30046   3.828   4.298   6.881
 9716SOL    HW130047   3.918   4.309   6.838
 9716SOL    HW230048   3.786   4.213   6.849
 9717SOL     OW30049   4.526   0.838   5.926
 9717SOL    HW130050   4.439   0.815   5.970
 9717SOL    HW230051   4.524   0.808   5.830
 9718SOL     OW30052   3.273   1.947   0.408
 9718SOL    HW130053   3.352   2.001   0.377
 9718SOL    HW230054   3.192   1.976   0.357
 9719SOL     OW30055   4.544   6.243   4.907
 9719SOL    HW130056   4.567   6.145   4.914
 9719SOL    HW230057   4.588   6.281   4.827
 9720SOL     OW30058   1.861   4.036   3.193
 9720SOL    HW130059   1.876   4.057   3.289
 9720SOL    HW230060   1.845   3.938   3.183
 9721SOL     OW30061   1.006   1.678   0.111
 9721SOL    HW130062   0.987   1.637   0.200
 9721SOL    HW230063   1.006   1.778   0.119
 9722SOL     OW30064   3.702   2.558   5.386
 9722SOL    HW130065   3.706   2.657   5.399
 9722SOL    HW230066   3.607   2.527   5.397
 9723SOL     OW30067   6.113   4.539   4.734
 9723SOL    HW130068   6.112   4.579   4.826
 9723SOL    HW230069   6.176   4.592   4.676
 9724SOL     OW30070   1.717   5.489   0.095
 9724SOL    HW130071   1.650   5.554   0.058
 9724SOL    HW230072   1.736   5.419   0.026
 9725SOL     OW30073   3.502   5.514   5.729
 9725SOL    HW130074   3.590   5.467   5.724
 9725SOL    HW230075   3.483   5.538   5.825
 9726SOL     OW30076   5.737   0.606   3.941
 9726SOL    HW130077   5.637   0.614   3.945
 9726SOL    HW230078   5.777   0.695   3.921
 9727SOL     OW30079   0.660   2.351   6.918
 9727SOL    HW130080   0.742   2.360   6.974
 9727SOL    HW230081   0.582   2.327   6.976
 9728SOL     OW30082   5.827   0.631   6.241
 9728SOL    HW130083   5.820   0.597   6.148
 9728SOL    HW230084   5.774   0.573   6.302
 9729SOL     OW30085   0.407   4.060   3.268
 9729SOL    HW130086   0.440   4.145   3.228
 9729SOL    HW230087   0.480   3.992   3.267
 9730SOL     OW30088   0.308   4.598   3.027
 9730SOL    HW130089   0.270   4.506   3.023
 9730SOL    HW230090   0.236   4.664   3.050
 9731SOL     OW30091   4.994   3.675   2.682
 9731SOL    HW130092   5.019   3.596   2.627
 9731SOL    HW230093   5.028   3.759   2.639
 9732SOL     OW30094   1.718   2.825   2.351
 9732SOL    HW130095   1.651   2.871   2.292
 9732SOL    HW230096   1.776   2.766   2.295
 9733SOL     OW30097   6.088   5.623   2.935
 9733SOL    HW130098   6.043   5.711   2.922
 9733SOL    HW230099   6.018   5.551   2.940
 9734SOL     OW30100   6.177   6.338   6.403
 9734SOL    HW130101   6.190   6.256   6.459
 9734SOL    HW230102   6.200   6.419   6.456
 9735SOL     OW30103   1.520   1.619   2.818
 9735SOL    HW130104   1.534   1.690   2.888
 9735SOL    HW230105   1.591   1.549   2.827
 9736SOL     OW30106   5.027   1.851   4.978
 9736SOL    HW130107   5.028   1.773   4.914
 9736SOL    HW230108   4.998   1.933   4.929
 9737SOL     OW30109   6.003   1.776   2.492
 9737SOL    HW130110   5.947   1.694   2.484
 9737SOL    HW230111   6.058   1.772   2.575
 9738SOL     OW30112   2.286   5.877   0.849
 9738SOL    HW130113   2.349   5.869   0.926
 9738SOL    HW230114   2.206   5.931   0.876
 9739SOL     OW30115   4.844   6.957   6.963
 9739SOL    HW130116   4.796   6.996   6.884
 9739SOL    HW230117   4.780   6.946   0.007
 9740SOL     OW30118   6.018   1.128   2.545
 9740SOL    HW130119   6.088   1.068   2.504
 9740SOL    HW230120   6.056   1.220   2.557
 9741SOL     OW30121   3.103   1.605   4.390
 9741SOL    HW130122   3.124   1.601   4.292
 9741SOL    HW230123   3.102   1.512   4.427
 9742SOL     OW30124   4.286   1.372   6.485
 9742SOL    HW130125   4.248   1.446   6.430
 9742SOL    HW230126   4.213   1.328   6.537
 9743SOL     OW30127   6.764   3.092   3.419
 9743SOL    HW130128   6.702   3.169   3.433
 9743SOL    HW230129   6.783   3.081   3.321
 9744SOL     OW30130   2.154   6.794   3.556
 9744SOL    HW130131   2.095   6.841   3.490
 9744SOL    HW230132   2.170   6.701   3.525
 9745SOL     OW30133   5.850   1.608   5.726
 9745SOL    HW130134   5.798   1.567   5.801
 9745SOL    HW230135   5.809   1.581   5.639
 9746SOL     OW30136   4.761   6.392   6.844
 9746SOL    HW130137   4.715   6.367   6.929
 9746SOL    HW230138   4.702   6.372   6.767
 9747SOL     OW30139   2.308   1.790   2.032
 9747SOL    HW130140   2.293   1.889   2.033
 9747SOL    HW230141   2.372   1.765   2.105
 9748SOL     OW30142   6.931   0.397   3.040
 9748SOL    HW130143   6.975   0.366   2.955
 9748SOL    HW230144   6.954   0.335   3.115
 9749SOL     OW30145   0.414   1.658   1.995
 9749SOL    HW130146   0.512   1.670   2.010
 9749SOL    HW230147   0.398   1.629   1.901
 9750SOL     OW30148   6.072   4.733   4.399
 9750SOL    HW130149   6.117   4.795   4.334
 9750SOL    HW230150   5.979   4.714   4.367
 9751SOL     OW30151   2.402   0.176   1.492
 9751SOL    HW130152   2.314   0.224   1.487
 9751SOL    HW230153   2.477   0.242   1.482
 9752SOL     OW30154   4.395   2.363   0.223
 9752SOL    HW130155   4.480   2.359   0.275
 9752SOL    HW230156   4.333   2.430   0.264
 9753SOL     OW30157   0.308   5.924   6.188
 9753SOL    HW130158   0.215   5.955   6.169
 9753SOL    HW230159   0.308   5.869   6.272
 9754SOL     OW30160   3.967   0.672   0.760
 9754SOL    HW130161   4.019   0.596   0.722
 9754SOL    HW230162   3.876   0.675   0.719
 9755SOL     OW30163   3.390   4.237   5.370
 9755SOL    HW130164   3.476   4.240   5.319
 9755SOL    HW230165   3.407   4.263   5.465
 9756SOL     OW30166   5.380   1.535   6.190
 9756SOL    HW130167   5.292   1.490   6.173
 9756SOL    HW230168   5.430   1.484   6.261
 9757SOL     OW30169   5.594   4.045   4.261
 9757SOL    HW130170   5.501   4.024   4.232
 9757SOL    HW230171   5.659   4.001   4.200
 9758SOL     OW30172   0.950   0.802   0.382
 9758SOL    HW130173   0.976   0.705   0.376
 9758SOL    HW230174   0.889   0.824   0.306
 9759SOL     OW30175   0.985   1.351   0.499
 9759SOL    HW130176   0.961   1.301   0.416
 9759SOL    HW230177   0.981   1.450   0.480
 9760SOL     OW30178   4.859   2.489   0.051
 9760SOL    HW130179   4.798   2.566   0.071
 9760SOL    HW230180   4.828   2.443   6.999
 9761SOL     OW30181   1.271   1.051   1.723
 9761SOL    HW130182   1.176   1.028   1.701
 9761SOL    HW230183   1.289   1.145   1.695
 9762SOL     OW30184   2.884   1.629   4.849
 9762SOL    HW130185   2.921   1.568   4.780
 9762SOL    HW230186   2.801   1.588   4.888
 9763SOL     OW30187   6.710   1.559   1.669
 9763SOL    HW130188   6.628   1.575   1.722
 9763SOL    HW230189   6.769   1.639   1.672
 9764SOL     OW30190   5.746   2.408   2.313
 9764SOL    HW130191   5.807   2.465   2.367
 9764SOL    HW230192   5.800   2.344   2.258
 9765SOL     OW30193   6.468   1.357   2.052
 9765SOL    HW130194   6.470   1.446   2.097
 9765SOL    HW230195   6.523   1.361   1.969
 9766SOL     OW30196   2.621   0.828   3.587
 9766SOL    HW130197   2.577   0.741   3.605
 9766SOL    HW230198   2.720   0.820   3.603
 9767SOL     OW30199   2.234   3.278   5.915
 9767SOL    HW130200   2.224   3.274   5.816
 9767SOL    HW230201   2.180   3.354   5.951
 9768SOL     OW30202   5.742   2.707   0.486
 9768SOL    HW130203   5.756   2.609   0.501
 9768SOL    HW230204   5.737   2.725   0.387
 9769SOL     OW30205   3.091   1.269   5.514
 9769SOL    HW130206   3.070   1.211   5.592
 9769SOL    HW230207   3.181   1.245   5.478
 9770SOL     OW30208   3.744   2.443   6.218
 9770SOL    HW130209   3.694   2.472   6.137
 9770SOL    HW230210   3.789   2.522   6.260
 9771SOL     OW30211   2.414   6.669   2.295
 9771SOL    HW130212   2.437   6.575   2.271
 9771SOL    HW230213   2.318   6.673   2.325
 9772SOL     OW30214   1.475   5.916   1.933
 9772SOL    HW130215   1.492   5.875   1.844
 9772SOL    HW230216   1.379   5.901   1.959
 9773SOL     OW30217   5.341   5.710   2.946
 9773SOL    HW130218   5.420   5.731   2.888
 9773SOL    HW230219   5.365   5.726   3.041
 9774SOL     OW30220   0.886   5.364   3.797
 9774SOL    HW130221   0.952   5.308   3.848
 9774SOL    HW230222   0.935   5.419   3.730
 9775SOL     OW30223   2.862   0.705   3.657
 9775SOL    HW130224   2.921   0.760   3.716
 9775SOL    HW230225   2.851   0.614   3.697
 9776SOL     OW30226   1.827   5.288   6.100
 9776SOL    HW130227   1.890   5.337   6.161
 9776SOL    HW230228   1.850   5.190   6.100
 9777SOL     OW30229   5.428   6.956   6.854
 9777SOL    HW130230   5.331   6.964   6.829
 9777SOL    HW230231   5.472   6.889   6.793
 9778SOL     OW30232   0.306   2.117   4.587
 9778SOL    HW130233   0.324   2.058   4.509
 9778SOL    HW230234   0.378   2.106   4.656
 9779SOL     OW30235   0.591   2.045   3.105
 9779SOL    HW130236   0.676   2.088   3.137
 9779SOL    HW230237   0.613   1.966   3.048
 9780SOL     OW30238   1.429   1.624   1.480
 9780SOL    HW130239   1.432   1.551   1.548
 9780SOL    HW230240   1.463   1.591   1.393
 9781SOL     OW30241   1.287   3.715   3.886
 9781SOL    HW130242   1.232   3.700   3.804
 9781SOL    HW230243   1.315   3.626   3.924
 9782SOL     OW30244   0.442   2.569   0.587
 9782SOL    HW130245   0.402   2.661   0.588
 9782SOL    HW230246   0.380   2.506   0.540
 9783SOL     OW30247   4.079   1.839   3.268
 9783SOL    HW130248   4.067   1.896   3.350
 9783SOL    HW230249   3.990   1.824   3.225
 9784SOL     OW30250   2.992   0.943   6.695
 9784SOL    HW130251   3.043   1.029   6.697
 9784SOL    HW230252   2.894   0.962   6.697
 9785SOL     OW30253   6.875   2.610   4.502
 9785SOL    HW130254   6.856   2.512   4.503
 9785SOL    HW230255   6.859   2.648   4.593
 9786SOL     OW30256   3.144   4.254   0.526
 9786SOL    HW130257   3.180   4.205   0.606
 9786SOL    HW230258   3.105   4.341   0.556
 9787SOL     OW30259   3.661   3.739   3.831
 9787SOL    HW130260   3.614   3.690   3.905
 9787SOL    HW230261   3.602   3.742   3.751
 9788SOL     OW30262   0.833   5.676   2.072
 9788SOL    HW130263   0.819   5.729   2.155
 9788SOL    HW230264   0.866   5.735   1.999
 9789SOL     OW30265   3.011   0.068   6.816
 9789SOL    HW130266   3.000   7.004   6.841
 9789SOL    HW230267   3.052   0.118   6.892
 9790SOL     OW30268   6.564   4.160   5.171
 9790SOL    HW130269   6.635   4.089   5.180
 9790SOL    HW230270   6.497   4.131   5.103
 9791SOL     OW30271   0.301   6.506   0.252
 9791SOL    HW130272   0.388   6.457   0.257
 9791SOL    HW230273   0.287   6.556   0.338
 9792SOL     OW30274   3.275   5.356   0.809
 9792SOL    HW130275   3.206   5.291   0.841
 9792SOL    HW230276   3.300   5.334   0.715
 9793SOL     OW30277   4.206   1.189   1.710
 9793SOL    HW130278   4.133   1.163   1.773
 9793SOL    HW230279   4.167   1.206   1.619
 9794SOL     OW30280   4.997   4.618   4.616
 9794SOL    HW130281   4.926   4.658   4.558
 9794SOL    HW230282   5.011   4.522   4.589
 9795SOL     OW30283   0.940   3.433   3.982
 9795SOL    HW130284   0.847   3.468   3.972
 9795SOL    HW230285   0.939   3.346   4.031
 9796SOL     OW30286   4.083   3.639   3.795
 9796SOL    HW130287   4.162   3.580   3.779
 9796SOL    HW230288   4.004   3.583   3.821
 9797SOL     OW30289   3.361   6.106   6.537
 9797SOL    HW130290   3.346   6.205   6.531
 9797SOL    HW230291   3.274   6.060   6.554
 9798SOL     OW30292   2.347   2.495   1.181
 9798SOL    HW130293   2.263   2.472   1.133
 9798SOL    HW230294   2.327   2.510   1.278
 9799SOL     OW30295   2.934   5.183   6.574
 9799SOL    HW130296   2.903   5.094   6.607
 9799SOL    HW230297   2.957   5.177   6.477
 9800SOL     OW30298   5.616   2.875   4.223
 9800SOL    HW130299   5.632   2.846   4.129
 9800SOL    HW230300   5.544   2.943   4.226
 9801SOL     OW30301   5.169   4.715   6.991
 9801SOL    HW130302   5.109   4.663   0.020
 9801SOL    HW230303   5.265   4.698   7.015
 9802SOL     OW30304   3.902   4.830   0.545
 9802SOL    HW130305   3.881   4.739   0.582
 9802SOL    HW230306   3.909   4.895   0.621
 9803SOL     OW30307   1.720   3.068   6.458
 9803SOL    HW130308   1.781   3.127   6.404
 9803SOL    HW230309   1.775   3.000   6.507
 9804SOL     OW30310   6.366   5.674   2.943
 9804SOL    HW130311   6.278   5.627   2.951
 9804SOL    HW230312   6.360   5.744   2.872
 9805SOL     OW30313   1.044   6.539   3.262
 9805SOL    HW130314   0.999   6.552   3.173
 9805SOL    HW230315   0.983   6.571   3.334
 9806SOL     OW30316   3.660   2.166   6.006
 9806SOL    HW130317   3.683   2.145   6.101
 9806SOL    HW230318   3.680   2.262   5.988
 9807SOL     OW30319   3.356   2.948   2.769
 9807SOL    HW130320   3.332   2.946   2.672
 9807SOL    HW230321   3.443   2.899   2.782
 9808SOL     OW30322   4.008   6.009   3.985
 9808SOL    HW130323   3.999   6.085   3.920
 9808SOL    HW230324   4.105   5.987   3.997
 9809SOL     OW30325   0.549   3.218   0.456
 9809SOL    HW130326   0.584   3.268   0.377
 9809SOL    HW230327   0.455   3.189   0.438
 9810SOL     OW30328   2.691   2.016   4.815
 9810SOL    HW130329   2.687   1.958   4.734
 9810SOL    HW230330   2.771   2.075   4.809
 9811SOL     OW30331   6.592   3.593   4.185
 9811SOL    HW130332   6.620   3.686   4.164
 9811SOL    HW230333   6.517   3.595   4.251
 9812SOL     OW30334   2.637   6.709   4.782
 9812SOL    HW130335   2.720   6.716   4.727
 9812SOL    HW230336   2.629   6.790   4.841
 9813SOL     OW30337   5.566   2.715   0.680
 9813SOL    HW130338   5.628   2.703   0.602
 9813SOL    HW230339   5.619   2.719   0.765
 9814SOL     OW30340   5.675   2.040   0.257
 9814SOL    HW130341   5.623   2.114   0.300
 9814SOL    HW230342   5.618   1.957   0.254
 9815SOL     OW30343   4.538   2.534   4.117
 9815SOL    HW130344   4.568   2.576   4.203
 9815SOL    HW230345   4.460   2.474   4.134
 9816SOL     OW30346   1.158   6.917   6.024
 9816SOL    HW130347   1.206   6.850   6.081
 9816SOL    HW230348   1.096   6.971   6.080
 9817SOL     OW30349   0.929   6.592   3.008
 9817SOL    HW130350   0.943   6.684   2.970
 9817SOL    HW230351   0.891   6.532   2.938
 9818SOL     OW30352   5.792   1.625   4.755
 9818SOL    HW130353   5.837   1.565   4.822
 9818SOL    HW230354   5.770   1.572   4.673
 9819SOL     OW30355   4.273   2.356   3.147
 9819SOL    HW130356   4.363   2.333   3.110
 9819SOL    HW230357   4.284   2.425   3.219
 9820SOL     OW30358   3.329   3.996   6.533
 9820SOL    HW130359   3.352   4.011   6.437
 9820SOL    HW230360   3.413   3.996   6.588
 9821SOL     OW30361   6.067   6.458   6.792
 9821SOL    HW130362   5.979   6.471   6.746
 9821SOL    HW230363   6.141   6.482   6.728
 9822SOL     OW30364   0.521   6.941   3.016
 9822SOL    HW130365   0.561   6.996   2.943
 9822SOL    HW230366   0.589   6.877   3.052
 9823SOL     OW30367   3.390   0.608   1.261
 9823SOL    HW130368   3.454   0.553   1.208
 9823SOL    HW230369   3.332   0.548   1.316
 9824SOL     OW30370   1.070   4.145   5.997
 9824SOL    HW130371   1.111   4.191   6.075
 9824SOL    HW230372   1.111   4.055   5.985
 9825SOL     OW30373   3.424   5.994   5.350
 9825SOL    HW130374   3.376   5.921   5.397
 9825SOL    HW230375   3.514   5.961   5.320
 9826SOL     OW30376   4.616   6.082   6.201
 9826SOL    HW130377   4.577   6.161   6.153
 9826SOL    HW230378   4.647   6.015   6.135
 9827SOL     OW30379   1.835   4.371   4.618
 9827SOL    HW130380   1.742   4.392   4.590
 9827SOL    HW230381   1.869   4.444   4.678
 9828SOL     OW30382   3.542   2.910   6.294
 9828SOL    HW130383   3.604   2.902   6.216
 9828SOL    HW230384   3.448   2.923   6.262
 9829SOL     OW30385   3.465   6.508   0.791
 9829SOL    HW130386   3.452   6.494   0.889
 9829SOL    HW230387   3.532   6.581   0.777
 9830SOL     OW30388   5.946   1.932   1.812
 9830SOL    HW130389   6.012   1.976   1.750
 9830SOL    HW230390   5.893   1.864   1.762
 9831SOL     OW30391   1.230   6.108   0.436
 9831SOL    HW130392   1.279   6.194   0.444
 9831SOL    HW230393   1.131   6.125   0.428
 9832SOL     OW30394   4.713   5.188   2.557
 9832SOL    HW130395   4.733   5.201   2.460
 9832SOL    HW230396   4.772   5.247   2.611
 9833SOL     OW30397   3.399   3.155   5.132
 9833SOL    HW130398   3.447   3.076   5.171
 9833SOL    HW230399   3.301   3.145   5.147
 9834SOL     OW30400   2.730   3.874   5.648
 9834SOL    HW130401   2.630   3.878   5.660
 9834SOL    HW230402   2.755   3.919   5.563
 9835SOL     OW30403   4.511   2.100   5.027
 9835SOL    HW130404   4.542   2.079   5.120
 9835SOL    HW230405   4.480   2.017   4.982
 9836SOL     OW30406   6.451   3.868   3.595
 9836SOL    HW130407   6.423   3.823   3.510
 9836SOL    HW230408   6.432   3.966   3.588
 9837SOL     OW30409   1.517   6.719   3.363
 9837SOL    HW130410   1.560   6.808   3.346
 9837SOL    HW230411   1.455   6.697   3.288
 9838SOL     OW30412   0.465   0.089   5.541
 9838SOL    HW130413   0.381   0.127   5.501
 9838SOL    HW230414   0.451   7.024   5.562
 9839SOL     OW30415   6.862   1.640   2.773
 9839SOL    HW130416   6.849   1.555   2.825
 9839SOL    HW230417   6.847   1.622   2.675
 9840SOL     OW30418   0.116   0.375   0.618
 9840SOL    HW130419   0.098   0.395   0.715
 9840SOL    HW230420   0.093   0.280   0.599
 9841SOL     OW30421   1.505   4.514   4.805
 9841SOL    HW130422   1.563   4.442   4.842
 9841SOL    HW230423   1.484   4.581   4.876
 9842SOL     OW30424   3.300   3.826   3.319
 9842SOL    HW130425   3.390   3.790   3.343
 9842SOL    HW230426   3.239   3.750   3.296
 9843SOL     OW30427   6.829   1.914   1.479
 9843SOL    HW130428   6.733   1.889   1.478
 9843SOL    HW230429   6.863   1.920   1.385
 9844SOL     OW30430   4.851   0.018   3.126
 9844SOL    HW130431   4.751   0.009   3.126
 9844SOL    HW230432   4.892   6.963   3.154
 9845SOL     OW30433   2.180   1.242   5.132
 9845SOL    HW130434   2.186   1.336   5.096
 9845SOL    HW230435   2.097   1.232   5.186
 9846SOL     OW30436   3.927   3.918   2.973
 9846SOL    HW130437   3.873   4.002   2.967
 9846SOL    HW230438   3.947   3.899   3.069
 9847SOL     OW30439   2.434   2.282   5.990
 9847SOL    HW130440   2.482   2.289   5.903
 9847SOL    HW230441   2.337   2.265   5.974
 9848SOL     OW30442   3.499   2.568   6.505
 9848SOL    HW130443   3.462   2.493   6.561
 9848SOL    HW230444   3.439   2.583   6.426
 9849SOL     OW30445   6.000   0.575   6.986
 9849SOL    HW130446   6.072   0.627   7.031
 9849SOL    HW230447   5.914   0.627   6.990
 9850SOL     OW30448   5.079   5.914   2.389
 9850SOL    HW130449   5.059   5.828   2.343
 9850SOL    HW230450   5.036   5.915   2.479
 9851SOL     OW30451   4.407   1.986   5.541
 9851SOL    HW130452   4.350   1.951   5.615
 9851SOL    HW230453   4.364   1.966   5.453
 9852SOL     OW30454   3.958   2.190   3.366
 9852SOL    HW130455   3.888   2.208   3.297
 9852SOL    HW230456   3.962   2.092   3.386
 9853SOL     OW30457   4.751   4.062   3.510
 9853SOL    HW130458   4.685   4.114   3.456
 9853SOL    HW230459   4.790   3.990   3.453
 9854SOL     OW30460   6.077   5.213   5.193
 9854SOL    HW130461   6.059   5.230   5.096
 9854SOL    HW230462   6.032   5.283   5.249
 9855SOL     OW30463   1.497   4.258   1.428
 9855SOL    HW130464   1.497   4.355   1.452
 9855SOL    HW230465   1.405   4.229   1.402
 9856SOL     OW30466   4.731   4.010   6.996
 9856SOL    HW130467   4.816   4.051   0.000
 9856SOL    HW230468   4.655   4.036   0.024
 9857SOL     OW30469   5.297   2.430   3.195
 9857SOL    HW130470   5.355   2.458   3.119
 9857SOL    HW230471   5.225   2.369   3.162
 9858SOL     OW30472   6.032   0.347   1.312
 9858SOL    HW130473   5.971   0.317   1.239
 9858SOL    HW230474   6.086   0.269   1.344
 9859SOL     OW30475   6.567   6.528   1.179
 9859SOL    HW130476   6.598   6.470   1.104
 9859SOL    HW230477   6.634   6.600   1.195
 9860SOL     OW30478   0.243   0.890   1.613
 9860SOL    HW130479   0.232   0.962   1.682
 9860SOL    HW230480   0.326   0.906   1.561
 9861SOL     OW30481   3.232   6.893   3.715
 9861SOL    HW130482   3.147   6.874   3.666
 9861SOL    HW230483   3.236   6.989   3.741
 9862SOL     OW30484   2.882   3.742   0.693
 9862SOL    HW130485   2.820   3.686   0.748
 9862SOL    HW230486   2.923   3.686   0.622
 9863SOL     OW30487   3.248   6.984   3.302
 9863SOL    HW130488   3.333   6.970   3.352
 9863SOL    HW230489   3.263   6.966   3.205
 9864SOL     OW30490   3.798   5.903   3.772
 9864SOL    HW130491   3.786   6.002   3.779
 9864SOL    HW230492   3.877   5.875   3.826
 9865SOL     OW30493   1.008   0.907   4.341
 9865SOL    HW130494   1.085   0.880   4.284
 9865SOL    HW230495   0.971   0.994   4.308
 9866SOL     OW30496   5.017   4.345   4.569
 9866SOL    HW130497   4.951   4.341   4.494
 9866SOL    HW230498   5.095   4.285   4.549
 9867SOL     OW30499   4.966   0.659   1.493
 9867SOL    HW130500   4.886   0.624   1.543
 9867SOL    HW230501   5.000   0.741   1.538
 9868SOL     OW30502   1.697   4.581   5.771
 9868SOL    HW130503   1.761   4.508   5.798
 9868SOL    HW230504   1.606   4.561   5.807
 9869SOL     OW30505   2.036   3.897   2.982
 9869SOL    HW130506   2.017   3.802   2.957
 9869SOL    HW230507   2.077   3.900   3.073
 9870SOL     OW30508   4.132   5.787   2.605
 9870SOL    HW130509   4.152   5.872   2.653
 9870SOL    HW230510   4.035   5.766   2.612
 9871SOL     OW30511   0.749   6.446   5.765
 9871SOL    HW130512   0.670   6.506   5.753
 9871SOL    HW230513   0.744   6.371   5.699
 9872SOL     OW30514   3.256   5.195   3.357
 9872SOL    HW130515   3.257   5.138   3.275
 9872SOL    HW230516   3.256   5.137   3.439
 9873SOL     OW30517   2.048   2.476   1.105
 9873SOL    HW130518   2.022   2.383   1.132
 9873SOL    HW230519   1.970   2.537   1.115
 9874SOL     OW30520   0.942   2.955   4.312
 9874SOL    HW130521   0.935   2.927   4.408
 9874SOL    HW230522   0.851   2.975   4.276
 9875SOL     OW30523   0.212   6.668   2.175
 9875SOL    HW130524   0.283   6.605   2.208
 9875SOL    HW230525   0.187   6.643   2.081
 9876SOL     OW30526   6.991   1.183   1.948
 9876SOL    HW130527   6.971   1.157   2.042
 9876SOL    HW230528   6.925   1.250   1.916
 9877SOL     OW30529   0.691   5.513   3.176
 9877SOL    HW130530   0.754   5.495   3.252
 9877SOL    HW230531   0.704   5.606   3.144
 9878SOL     OW30532   2.508   5.345   4.962
 9878SOL    HW130533   2.544   5.426   5.009
 9878SOL    HW230534   2.488   5.274   5.030
 9879SOL     OW30535   5.962   5.273   4.942
 9879SOL    HW130536   5.899   5.198   4.922
 9879SOL    HW230537   6.024   5.286   4.864
 9880SOL     OW30538   1.984   2.155   5.199
 9880SOL    HW130539   2.061   2.096   5.175
 9880SOL    HW230540   1.914   2.101   5.246
 9881SOL     OW30541   1.930   1.409   4.939
 9881SOL    HW130542   1.859   1.361   4.990
 9881SOL    HW230543   1.889   1.484   4.886
 9882SOL     OW30544   0.713   2.099   3.648
 9882SOL    HW130545   0.788   2.140   3.700
 9882SOL    HW230546   0.732   2.002   3.632
 9883SOL     OW30547   1.619   5.648   0.326
 9883SOL    HW130548   1.543   5.615   0.269
 9883SOL    HW230549   1.703   5.647   0.273
 9884SOL     OW30550   4.292   1.686   3.202
 9884SOL    HW130551   4.259   1.599   3.165
 9884SOL    HW230552   4.214   1.747   3.218
 9885SOL     OW30553   6.989   3.431   5.388
 9885SOL    HW130554   0.015   3.406   5.311
 9885SOL    HW230555   0.005   3.498   5.446
 9886SOL     OW30556   1.040   4.239   1.681
 9886SOL    HW130557   0.990   4.163   1.724
 9886SOL    HW230558   1.107   4.274   1.746
 9887SOL     OW30559   3.214   1.762   6.568
 9887SOL    HW130560   3.167   1.696   6.509
 9887SOL    HW230561   3.153   1.839   6.587
 9888SOL     OW30562   6.796   4.193   1.575
 9888SOL    HW130563   6.813   4.291   1.560
 9888SOL    HW230564   6.732   4.160   1.505
 9889SOL     OW30565   6.600   4.882   1.315
 9889SOL    HW130566   6.535   4.882   1.391
 9889SOL    HW230567   6.580   4.960   1.254
 9890SOL     OW30568   1.580   2.206   0.496
 9890SOL    HW130569   1.653   2.260   0.538
 9890SOL    HW230570   1.492   2.235   0.531
 9891SOL     OW30571   6.034   3.377   1.437
 9891SOL    HW130572   5.979   3.437   1.496
 9891SOL    HW230573   5.974   3.333   1.370
 9892SOL     OW30574   6.785   5.137   0.585
 9892SOL    HW130575   6.702   5.115   0.638
 9892SOL    HW230576   6.866   5.110   0.637
 9893SOL     OW30577   1.072   0.260   1.142
 9893SOL    HW130578   1.077   0.304   1.052
 9893SOL    HW230579   0.997   0.300   1.194
 9894SOL     OW30580   1.732   2.134   1.542
 9894SOL    HW130581   1.772   2.061   1.597
 9894SOL    HW230582   1.686   2.095   1.462
 9895SOL     OW30583   6.129   3.559   5.513
 9895SOL    HW130584   6.203   3.492   5.506
 9895SOL    HW230585   6.043   3.511   5.531
 9896SOL     OW30586   6.277   0.441   6.618
 9896SOL    HW130587   6.327   0.522   6.649
 9896SOL    HW230588   6.181   0.464   6.603
 9897SOL     OW30589   6.090   5.532   3.656
 9897SOL    HW130590   6.109   5.527   3.558
 9897SOL    HW230591   6.084   5.628   3.684
 9898SOL     OW30592   2.091   6.620   5.350
 9898SOL    HW130593   2.112   6.714   5.323
 9898SOL    HW230594   2.048   6.619   5.440
 9899SOL     OW30595   0.606   5.600   6.838
 9899SOL    HW130596   0.638   5.514   6.878
 9899SOL    HW230597   0.509   5.591   6.815
 9900SOL     OW30598   1.735   3.900   3.441
 9900SOL    HW130599   1.823   3.871   3.404
 9900SOL    HW230600   1.709   3.840   3.517
 9901SOL     OW30601   3.022   1.618   6.380
 9901SOL    HW130602   3.091   1.646   6.313
 9901SOL    HW230603   2.931   1.625   6.340
 9902SOL     OW30604   3.251   4.585   0.376
 9902SOL    HW130605   3.154   4.592   0.400
 9902SOL    HW230606   3.276   4.488   0.365
 9903SOL     OW30607   4.716   1.257   1.404
 9903SOL    HW130608   4.677   1.333   1.352
 9903SOL    HW230609   4.737   1.287   1.497
 9904SOL     OW30610   0.794   3.797   0.093
 9904SOL    HW130611   0.768   3.706   0.125
 9904SOL    HW230612   0.798   3.798   7.025
 9905SOL     OW30613   2.568   0.518   6.500
 9905SOL    HW130614   2.545   0.423   6.521
 9905SOL    HW230615   2.660   0.523   6.462
 9906SOL     OW30616   2.612   3.038   1.702
 9906SOL    HW130617   2.616   3.138   1.711
 9906SOL    HW230618   2.705   3.002   1.694
 9907SOL     OW30619   6.481   0.421   0.690
 9907SOL    HW130620   6.427   0.430   0.774
 9907SOL    HW230621   6.504   0.511   0.654
 9908SOL     OW30622   5.228   1.306   4.176
 9908SOL    HW130623   5.241   1.398   4.142
 9908SOL    HW230624   5.204   1.309   4.273
 9909SOL     OW30625   4.236   0.498   4.017
 9909SOL    HW130626   4.322   0.453   4.041
 9909SOL    HW230627   4.165   0.429   4.006
 9910SOL     OW30628   1.801   3.677   2.954
 9910SOL    HW130629   1.751   3.631   2.881
 9910SOL    HW230630   1.890   3.634   2.966
 9911SOL     OW30631   2.950   6.381   1.676
 9911SOL    HW130632   2.952   6.424   1.766
 9911SOL    HW230633   2.880   6.309   1.675
 9912SOL     OW30634   3.885   1.279   1.635
 9912SOL    HW130635   3.950   1.287   1.559
 9912SOL    HW230636   3.866   1.370   1.672
 9913SOL     OW30637   6.398   4.212   0.711
 9913SOL    HW130638   6.335   4.210   0.789
 9913SOL    HW230639   6.348   4.190   0.627
 9914SOL     OW30640   5.842   2.203   4.563
 9914SOL    HW130641   5.805   2.285   4.605
 9914SOL    HW230642   5.878   2.225   4.472
 9915SOL     OW30643   5.525   0.810   4.233
 9915SOL    HW130644   5.563   0.729   4.277
 9915SOL    HW230645   5.596   0.881   4.227
 9916SOL     OW30646   1.694   2.690   2.890
 9916SOL    HW130647   1.692   2.634   2.973
 9916SOL    HW230648   1.700   2.630   2.809
 9917SOL     OW30649   5.439   4.087   0.052
 9917SOL    HW130650   5.519   4.089   0.112
 9917SOL    HW230651   5.375   4.017   0.085
 9918SOL     OW30652   3.122   1.194   3.354
 9918SOL    HW130653   3.173   1.280   3.361
 9918SOL    HW230654   3.084   1.171   3.444
 9919SOL     OW30655   6.569   5.121   1.164
 9919SOL    HW130656   6.629   5.187   1.120
 9919SOL    HW230657   6.484   5.166   1.191
 9920SOL     OW30658   4.983   1.496   2.114
 9920SOL    HW130659   5.005   1.580   2.164
 9920SOL    HW230660   4.904   1.452   2.156
 9921SOL     OW30661   4.386   0.193   6.241
 9921SOL    HW130662   4.322   0.261   6.205
 9921SOL    HW230663   4.335   0.113   6.272
 9922SOL     OW30664   2.754   4.536   0.439
 9922SOL    HW130665   2.741   4.550   0.341
 9922SOL    HW230666   2.841   4.575   0.468
 9923SOL     OW30667   4.798   4.499   0.291
 9923SOL    HW130668   4.894   4.488   0.316
 9923SOL    HW230669   4.783   4.460   0.200
 9924SOL     OW30670   6.394   1.803   5.128
 9924SOL    HW130671   6.404   1.708   5.100
 9924SOL    HW230672   6.333   1.809   5.207
 9925SOL     OW30673   6.233   3.384   3.907
 9925SOL    HW130674   6.203   3.289   3.923
 9925SOL    HW230675   6.242   3.400   3.809
 9926SOL     OW30676   4.075   2.625   0.785
 9926SOL    HW130677   4.087   2.565   0.706
 9926SOL    HW230678   4.040   2.573   0.863
 9927SOL     OW30679   6.741   6.680   0.320
 9927SOL    HW130680   6.676   6.750   0.290
 9927SOL    HW230681   6.781   6.708   0.408
 9928SOL     OW30682   5.213   5.753   1.988
 9928SOL    HW130683   5.255   5.793   2.070
 9928SOL    HW230684   5.135   5.809   1.960
 9929SOL     OW30685   3.268   4.924   5.558
 9929SOL    HW130686   3.187   4.955   5.508
 9929SOL    HW230687   3.260   4.827   5.579
 9930SOL     OW30688   6.973   0.016   4.473
 9930SOL    HW130689   6.961   6.975   4.405
 9930SOL    HW230690   6.943   7.014   4.563
 9931SOL     OW30691   1.122   4.879   4.185
 9931SOL    HW130692   1.191   4.918   4.124
 9931SOL    HW230693   1.166   4.818   4.250
 9932SOL     OW30694   2.482   5.645   7.004
 9932SOL    HW130695   2.449   5.567   6.951
 9932SOL    HW230696   2.581   5.638   7.015
 9933SOL     OW30697   0.652   5.501   3.931
 9933SOL    HW130698   0.573   5.440   3.931
 9933SOL    HW230699   0.734   5.448   3.906
 9934SOL     OW30700   5.082   1.596   5.378
 9934SOL    HW130701   5.097   1.630   5.470
 9934SOL    HW230702   5.095   1.670   5.312
 9935SOL     OW30703   2.600   6.552   0.264
 9935SOL    HW130704   2.663   6.474   0.255
 9935SOL    HW230705   2.573   6.562   0.359
 9936SOL     OW30706   6.662   5.349   6.762
 9936SOL    HW130707   6.593   5.381   6.697
 9936SOL    HW230708   6.681   5.421   6.828
 9937SOL     OW30709   6.936   1.997   0.232
 9937SOL    HW130710   6.891   1.943   0.302
 9937SOL    HW230711   6.972   1.937   0.161
 9938SOL     OW30712   6.870   5.148   2.471
 9938SOL    HW130713   6.795   5.193   2.519
 9938SOL    HW230714   6.876   5.184   2.378
 9939SOL     OW30715   4.485   2.560   1.092
 9939SOL    HW130716   4.523   2.610   1.169
 9939SOL    HW230717   4.551   2.560   1.016
 9940SOL     OW30718   0.812   0.378   1.183
 9940SOL    HW130719   0.738   0.331   1.135
 9940SOL    HW230720   0.795   0.476   1.183
 9941SOL     OW30721   3.181   3.744   5.539
 9941SOL    HW130722   3.179   3.683   5.460
 9941SOL    HW230723   3.109   3.717   5.603
 9942SOL     OW30724   2.464   5.499   2.079
 9942SOL    HW130725   2.446   5.407   2.046
 9942SOL    HW230726   2.550   5.532   2.040
 9943SOL     OW30727   6.794   5.145   5.341
 9943SOL    HW130728   6.807   5.134   5.242
 9943SOL    HW230729   6.825   5.236   5.368
 9944SOL     OW30730   1.714   4.254   6.316
 9944SOL    HW130731   1.763   4.307   6.384
 9944SOL    HW230732   1.734   4.157   6.328
 9945SOL     OW30733   6.200   5.492   6.529
 9945SOL    HW130734   6.177   5.480   6.626
 9945SOL    HW230735   6.118   5.475   6.474
 9946SOL     OW30736   4.880   0.943   3.970
 9946SOL    HW130737   4.945   0.897   3.909
 9946SOL    HW230738   4.817   0.876   4.008
 9947SOL     OW30739   1.323   2.924   5.063
 9947SOL    HW130740   1.302   2.887   5.153
 9947SOL    HW230741   1.369   2.853   5.008
 9948SOL     OW30742   5.271   4.780   4.727
 9948SOL    HW130743   5.236   4.711   4.665
 9948SOL    HW230744   5.370   4.789   4.715
 9949SOL     OW30745   5.611   4.922   4.295
 9949SOL    HW130746   5.696   4.877   4.322
 9949SOL    HW230747   5.598   5.005   4.350
 9950SOL     OW30748   5.692   6.159   4.949
 9950SOL    HW130749   5.610   6.185   4.899
 9950SOL    HW230750   5.758   6.117   4.886
 9951SOL     OW30751   6.500   0.975   5.136
 9951SOL    HW130752   6.580   0.927   5.171
 9951SOL    HW230753   6.419   0.946   5.186
 9952SOL     OW30754   0.542   3.713   1.436
 9952SOL    HW130755   0.480   3.743   1.364
 9952SOL    HW230756   0.514   3.622   1.468
 9953SOL     OW30757   6.201   2.692   4.182
 9953SOL    HW130758   6.270   2.658   4.118
 9953SOL    HW230759   6.143   2.758   4.135
 9954SOL     OW30760   6.462   0.498   6.152
 9954SOL    HW130761   6.432   0.405   6.174
 9954SOL    HW230762   6.423   0.562   6.219
 9955SOL     OW30763   6.256   3.342   5.248
 9955SOL    HW130764   6.239   3.250   5.284
 9955SOL    HW230765   6.171   3.380   5.211
 9956SOL     OW30766   1.340   0.342   2.151
 9956SOL    HW130767   1.310   0.249   2.130
 9956SOL    HW230768   1.289   0.406   2.094
 9957SOL     OW30769   5.256   5.659   2.516
 9957SOL    HW130770   5.291   5.752   2.515
 9957SOL    HW230771   5.300   5.606   2.443
 9958SOL     OW30772   3.382   5.552   1.190
 9958SOL    HW130773   3.404   5.456   1.205
 9958SOL    HW230774   3.458   5.609   1.220
 9959SOL     OW30775   4.151   3.570   5.276
 9959SOL    HW130776   4.191   3.656   5.243
 9959SOL    HW230777   4.141   3.506   5.200
 9960SOL     OW30778   6.921   6.736   2.712
 9960SOL    HW130779   6.866   6.665   2.757
 9960SOL    HW230780   7.017   6.723   2.735
 9961SOL     OW30781   1.826   5.495   3.915
 9961SOL    HW130782   1.772   5.418   3.948
 9961SOL    HW230783   1.776   5.543   3.843
 9962SOL     OW30784   6.390   6.824   2.806
 9962SOL    HW130785   6.330   6.746   2.823
 9962SOL    HW230786   6.351   6.905   2.850
 9963SOL     OW30787   3.283   2.609   6.866
 9963SOL    HW130788   3.303   2.707   6.856
 9963SOL    HW230789   3.264   2.588   6.962
 9964SOL     OW30790   5.046   5.055   5.794
 9964SOL    HW130791   5.010   5.007   5.714
 9964SOL    HW230792   5.066   4.988   5.866
 9965SOL     OW30793   4.130   6.703   0.078
 9965SOL    HW130794   4.092   6.740   7.025
 9965SOL    HW230795   4.090   6.613   0.096
 9966SOL     OW30796   1.826   5.630   1.627
 9966SOL    HW130797   1.842   5.723   1.592
 9966SOL    HW230798   1.912   5.581   1.634
 9967SOL     OW30799   0.237   6.593   1.906
 9967SOL    HW130800   0.311   6.527   1.893
 9967SOL    HW230801   0.270   6.685   1.886
 9968SOL     OW30802   3.477   3.579   1.266
 9968SOL    HW130803   3.443   3.662   1.310
 9968SOL    HW230804   3.562   3.599   1.217
 9969SOL     OW30805   1.832   2.737   2.077
 9969SOL    HW130806   1.884   2.715   1.995
 9969SOL    HW230807   1.833   2.836   2.092
 9970SOL     OW30808   4.874   3.803   2.917
 9970SOL    HW130809   4.838   3.896   2.912
 9970SOL    HW230810   4.888   3.766   2.825
 9971SOL     OW30811   1.673   5.177   1.468
 9971SOL    HW130812   1.702   5.249   1.531
 9971SOL    HW230813   1.719   5.092   1.491
 9972SOL     OW30814   5.742   5.099   1.193
 9972SOL    HW130815   5.753   5.188   1.149
 9972SOL    HW230816   5.772   5.027   1.129
 9973SOL     OW30817   6.117   1.811   3.762
 9973SOL    HW130818   6.162   1.894   3.795
 9973SOL    HW230819   6.136   1.735   3.824
 9974SOL     OW30820   1.124   2.484   2.552
 9974SOL    HW130821   1.038   2.520   2.589
 9974SOL    HW230822   1.152   2.404   2.606
 9975SOL     OW30823   5.919   4.038   0.334
 9975SOL    HW130824   5.980   4.043   0.255
 9975SOL    HW230825   5.968   4.000   0.412
 9976SOL     OW30826   0.965   6.616   5.732
 9976SOL    HW130827   0.904   6.669   5.672
 9976SOL    HW230828   0.918   6.533   5.762
 9977SOL     OW30829   6.666   5.525   5.554
 9977SOL    HW130830   6.615   5.456   5.605
 9977SOL    HW230831   6.739   5.481   5.501
 9978SOL     OW30832   0.615   2.665   4.451
 9978SOL    HW130833   0.532   2.702   4.495
 9978SOL    HW230834   0.623   2.568   4.472
 9979SOL     OW30835   6.097   4.906   5.753
 9979SOL    HW130836   6.079   4.817   5.796
 9979SOL    HW230837   6.066   4.904   5.658
 9980SOL     OW30838   1.996   0.751   6.469
 9980SOL    HW130839   2.083   0.702   6.473
 9980SOL    HW230840   1.955   0.737   6.379
 9981SOL     OW30841   2.403   1.677   3.020
 9981SOL    HW130842   2.466   1.730   3.076
 9981SOL    HW230843   2.326   1.647   3.075
 9982SOL     OW30844   6.216   6.261   4.445
 9982SOL    HW130845   6.246   6.328   4.377
 9982SOL    HW230846   6.276   6.181   4.442
 9983SOL     OW30847   6.830   2.150   2.570
 9983SOL    HW130848   6.782   2.095   2.639
 9983SOL    HW230849   6.928   2.136   2.579
 9984SOL     OW30850   2.550   0.713   0.150
 9984SOL    HW130851   2.598   0.723   0.063
 9984SOL    HW230852   2.452   0.723   0.136
 9985SOL     OW30853   1.201   0.960   0.420
 9985SOL    HW130854   1.203   1.035   0.486
 9985SOL    HW230855   1.108   0.924   0.414
 9986SOL     OW30856   5.689   4.910   6.107
 9986SOL    HW130857   5.606   4.931   6.158
 9986SOL    HW230858   5.721   4.818   6.130
 9987SOL     OW30859   0.036   3.225   4.212
 9987SOL    HW130860   7.003   3.288   4.167
 9987SOL    HW230861   0.110   3.203   4.149
 9988SOL     OW30862   0.786   5.783   4.462
 9988SOL    HW130863   0.805   5.794   4.560
 9988SOL    HW230864   0.712   5.717   4.450
 9989SOL     OW30865   6.533   3.379   3.944
 9989SOL    HW130866   6.442   3.390   3.904
 9989SOL    HW230867   6.551   3.456   4.006
 9990SOL     OW30868   2.112   4.901   2.736
 9990SOL    HW130869   2.059   4.853   2.805
 9990SOL    HW230870   2.139   4.991   2.770
 9991SOL     OW30871   2.540   2.244   3.729
 9991SOL    HW130872   2.486   2.235   3.812
 9991SOL    HW230873   2.480   2.251   3.650
 9992SOL     OW30874   5.694   5.241   0.230
 9992SOL    HW130875   5.633   5.164   0.212
 9992SOL    HW230876   5.706   5.295   0.146
 9993SOL     OW30877   2.940   0.922   0.774
 9993SOL    HW130878   2.882   0.937   0.854
 9993SOL    HW230879   2.984   1.008   0.748
 9994SOL     OW30880   5.961   4.700   3.168
 9994SOL    HW130881   5.971   4.621   3.107
 9994SOL    HW230882   6.036   4.764   3.151
 9995SOL     OW30883   4.840   1.546   3.107
 9995SOL    HW130884   4.786   1.482   3.163
 9995SOL    HW230885   4.860   1.628   3.161
 9996SOL     OW30886   3.308   3.714   0.205
 9996SOL    HW130887   3.281   3.618   0.212
 9996SOL    HW230888   3.376   3.734   0.275
 9997SOL     OW30889   2.978   1.759   5.868
 9997SOL    HW130890   2.979   1.763   5.768
 9997SOL    HW230891   3.013   1.669   5.897
 9998SOL     OW30892   5.971   5.069   6.137
 9998SOL    HW130893   6.027   5.145   6.169
 9998SOL    HW230894   5.949   5.009   6.214
 9999SOL     OW30895   6.306   3.029   5.757
 9999SOL    HW130896   6.356   3.092   5.816
 9999SOL    HW230897   6.211   3.057   5.750
10000SOL     OW30898   6.873   4.398   7.008
10000SOL    HW130899   6.838   4.345   6.930
10000SOL    HW230900   6.900   4.336   0.050
10001SOL     OW30901   4.723   0.012   2.128
10001SOL    HW130902   4.768   6.961   2.092
10001SOL    HW230903   4.672   7.020   2.210
10002SOL     OW30904   1.239   6.494   1.859
10002SOL    HW130905   1.311   6.450   1.805
10002SOL    HW230906   1.198   6.568   1.807
10003SOL     OW30907   3.729   2.178   3.617
10003SOL    HW130908   3.780   2.178   3.531
10003SOL    HW230909   3.728   2.271   3.655
10004SOL     OW30910   6.955   2.622   4.048
10004SOL    HW130911   7.020   2.577   3.986
10004SOL    HW230912   6.864   2.583   4.033
10005SOL     OW30913   5.891   0.489   3.713
10005SOL    HW130914   5.826   0.526   3.778
10005SOL    HW230915   5.917   0.561   3.648
10006SOL     OW30916   5.194   5.841   4.521
10006SOL    HW130917   5.277   5.835   4.577
10006SOL    HW230918   5.114   5.820   4.577
10007SOL     OW30919   0.153   4.232   5.014
10007SOL    HW130920   0.091   4.154   5.018
10007SOL    HW230921   0.101   4.316   5.027
10008SOL     OW30922   3.847   1.214   4.946
10008SOL    HW130923   3.887   1.305   4.937
10008SOL    HW230924   3.914   1.153   4.989
10009SOL     OW30925   1.780   3.481   2.171
10009SOL    HW130926   1.732   3.502   2.257
10009SOL    HW230927   1.879   3.487   2.187
10010SOL     OW30928   2.554   1.227   5.826
10010SOL    HW130929   2.475   1.172   5.853
10010SOL    HW230930   2.612   1.243   5.906
10011SOL     OW30931   6.582   0.641   5.768
10011SOL    HW130932   6.566   0.723   5.824
10011SOL    HW230933   6.677   0.613   5.777
10012SOL     OW30934   6.138   1.085   2.967
10012SOL    HW130935   6.071   1.050   3.032
10012SOL    HW230936   6.151   1.183   2.982
10013SOL     OW30937   0.258   0.984   3.076
10013SOL    HW130938   0.253   0.916   3.003
10013SOL    HW230939   0.183   1.050   3.065
10014SOL     OW30940   0.763   4.396   6.883
10014SOL    HW130941   0.795   4.318   6.937
10014SOL    HW230942   0.711   4.363   6.804
10015SOL     OW30943   2.837   4.911   1.128
10015SOL    HW130944   2.767   4.840   1.132
10015SOL    HW230945   2.910   4.882   1.065
10016SOL     OW30946   0.919   1.627   6.194
10016SOL    HW130947   0.845   1.569   6.159
10016SOL    HW230948   0.945   1.694   6.125
10017SOL     OW30949   3.353   2.131   3.251
10017SOL    HW130950   3.276   2.194   3.237
10017SOL    HW230951   3.389   2.144   3.343
10018SOL     OW30952   4.989   0.426   6.672
10018SOL    HW130953   4.950   0.517   6.657
10018SOL    HW230954   4.926   0.357   6.637
10019SOL     OW30955   0.834   1.627   2.982
10019SOL    HW130956   0.887   1.690   3.038
10019SOL    HW230957   0.786   1.561   3.041
10020SOL     OW30958   1.201   1.830   1.587
10020SOL    HW130959   1.285   1.874   1.556
10020SOL    HW230960   1.122   1.883   1.558
10021SOL     OW30961   6.754   3.096   1.102
10021SOL    HW130962   6.763   3.031   1.177
10021SOL    HW230963   6.794   3.184   1.129
10022SOL     OW30964   2.381   1.758   5.818
10022SOL    HW130965   2.422   1.832   5.765
10022SOL    HW230966   2.286   1.745   5.790
10023SOL     OW30967   6.947   4.315   0.931
10023SOL    HW130968   7.001   4.246   0.884
10023SOL    HW230969   6.857   4.322   0.889
10024SOL     OW30970   1.505   5.989   3.322
10024SOL    HW130971   1.519   5.891   3.317
10024SOL    HW230972   1.543   6.032   3.240
10025SOL     OW30973   1.693   0.484   0.701
10025SOL    HW130974   1.630   0.412   0.730
10025SOL    HW230975   1.780   0.474   0.749
10026SOL     OW30976   5.123   0.384   3.730
10026SOL    HW130977   5.197   0.323   3.758
10026SOL    HW230978   5.039   0.330   3.715
10027SOL     OW30979   5.685   3.128   4.439
10027SOL    HW130980   5.779   3.156   4.461
10027SOL    HW230981   5.677   3.029   4.451
10028SOL     OW30982   1.133   0.462   0.745
10028SOL    HW130983   1.195   0.540   0.750
10028SOL    HW230984   1.039   0.494   0.756
10029SOL     OW30985   5.701   2.040   3.666
10029SOL    HW130986   5.697   2.031   3.567
10029SOL    HW230987   5.745   1.959   3.705
10030SOL     OW30988   1.778   0.244   3.041
10030SOL    HW130989   1.766   0.148   3.065
10030SOL    HW230990   1.701   0.297   3.078
10031SOL     OW30991   5.507   4.638   3.620
10031SOL    HW130992   5.464   4.720   3.660
10031SOL    HW230993   5.586   4.612   3.675
10032SOL     OW30994   2.885   1.360   5.348
10032SOL    HW130995   2.912   1.455   5.333
10032SOL    HW230996   2.954   1.314   5.405
10033SOL     OW30997   6.387   3.292   4.196
10033SOL    HW130998   6.364   3.361   4.127
10033SOL    HW230999   6.486   3.277   4.196
10034SOL     OW31000   3.525   0.776   4.220
10034SOL    HW131001   3.582   0.727   4.154
10034SOL    HW231002   3.568   0.864   4.242
10035SOL     OW31003   6.495   5.296   2.147
10035SOL    HW131004   6.498   5.212   2.092
10035SOL    HW231005   6.416   5.351   2.120
10036SOL     OW31006   6.816   2.317   0.613
10036SOL    HW131007   6.793   2.405   0.656
10036SOL    HW231008   6.747   2.294   0.544
10037SOL     OW31009   6.757   1.458   6.482
10037SOL    HW131010   6.711   1.493   6.400
10037SOL    HW231011   6.779   1.534   6.543
10038SOL     OW31012   6.396   0.068   0.199
10038SOL    HW131013   6.350   0.138   0.144
10038SOL    HW231014   6.373   7.009   0.164
10039SOL     OW31015   3.503   0.062   3.452
10039SOL    HW131016   3.419   0.072   3.505
10039SOL    HW231017   3.493   0.108   3.363
10040SOL     OW31018   5.865   4.230   7.005
10040SOL    HW131019   5.838   4.326   7.014
10040SOL    HW231020   5.961   4.224   6.979
10041SOL     OW31021   3.463   6.324   0.581
10041SOL    HW131022   3.472   6.400   0.645
10041SOL    HW231023   3.552   6.302   0.541
10042SOL     OW31024   6.980   2.018   3.233
10042SOL    HW131025   6.982   2.050   3.138
10042SOL    HW231026   6.905   1.953   3.245
10043SOL     OW31027   6.758   2.366   5.746
10043SOL    HW131028   6.711   2.363   5.658
10043SOL    HW231029   6.805   2.279   5.762
10044SOL     OW31030   2.859   3.126   5.796
10044SOL    HW131031   2.900   3.212   5.826
10044SOL    HW231032   2.931   3.061   5.771
10045SOL     OW31033   4.327   1.162   0.627
10045SOL    HW131034   4.274   1.131   0.548
10045SOL    HW231035   4.321   1.094   0.700
10046SOL     OW31036   1.650   4.275   1.163
10046SOL    HW131037   1.642   4.370   1.132
10046SOL    HW231038   1.578   4.256   1.230
10047SOL     OW31039   1.019   3.434   6.085
10047SOL    HW131040   1.072   3.415   6.002
10047SOL    HW231041   1.034   3.360   6.151
10048SOL     OW31042   6.781   6.627   2.915
10048SOL    HW131043   6.857   6.575   2.953
10048SOL    HW231044   6.772   6.714   2.965
10049SOL     OW31045   0.016   2.688   6.046
10049SOL    HW131046   0.115   2.685   6.037
10049SOL    HW231047   7.021   2.769   6.099
10050SOL     OW31048   5.297   3.526   5.195
10050SOL    HW131049   5.199   3.530   5.176
10050SOL    HW231050   5.317   3.583   5.274
10051SOL     OW31051   1.283   4.065   4.875
10051SOL    HW131052   1.354   3.997   4.895
10051SOL    HW231053   1.316   4.155   4.903
10052SOL     OW31054   1.087   0.581   3.585
10052SOL    HW131055   0.992   0.612   3.591
10052SOL    HW231056   1.122   0.565   3.678
10053SOL     OW31057   4.637   5.213   4.357
10053SOL    HW131058   4.576   5.257   4.423
10053SOL    HW231059   4.718   5.270   4.343
10054SOL     OW31060   5.425   3.895   5.006
10054SOL    HW131061   5.399   3.838   4.927
10054SOL    HW231062   5.477   3.839   5.071
10055SOL     OW31063   6.494   2.288   6.782
10055SOL    HW131064   6.476   2.378   6.740
10055SOL    HW231065   6.585   2.257   6.757
10056SOL     OW31066   5.529   3.110   3.546
10056SOL    HW131067   5.484   3.138   3.461
10056SOL    HW231068   5.467   3.125   3.623
10057SOL     OW31069   5.460   4.290   6.522
10057SOL    HW131070   5.464   4.207   6.576
10057SOL    HW231071   5.401   4.276   6.442
10058SOL     OW31072   6.249   3.044   5.137
10058SOL    HW131073   6.333   3.083   5.098
10058SOL    HW231074   6.272   2.959   5.185
10059SOL     OW31075   6.690   1.426   0.197
10059SOL    HW131076   6.639   1.346   0.165
10059SOL    HW231077   6.748   1.400   0.274
10060SOL     OW31078   2.762   1.888   2.444
10060SOL    HW131079   2.763   1.852   2.350
10060SOL    HW231080   2.723   1.979   2.443
10061SOL     OW31081   3.828   1.071   3.884
10061SOL    HW131082   3.792   0.992   3.934
10061SOL    HW231083   3.901   1.041   3.822
10062SOL     OW31084   0.585   0.133   3.628
10062SOL    HW131085   0.591   0.146   3.727
10062SOL    HW231086   0.552   0.041   3.608
10063SOL     OW31087   1.686   2.362   4.775
10063SOL    HW131088   1.684   2.443   4.833
10063SOL    HW231089   1.780   2.341   4.749
10064SOL     OW31090   3.119   6.240   0.365
10064SOL    HW131091   3.134   6.329   0.408
10064SOL    HW231092   3.021   6.228   0.347
10065SOL     OW31093   0.928   0.783   1.967
10065SOL    HW131094   1.017   0.802   2.008
10065SOL    HW231095   0.881   0.870   1.947
10066SOL     OW31096   6.736   3.729   4.728
10066SOL    HW131097   6.710   3.800   4.795
10066SOL    HW231098   6.829   3.748   4.696
10067SOL     OW31099   0.482   2.618   5.899
10067SOL    HW131100   0.487   2.685   5.825
10067SOL    HW231101   0.568   2.617   5.949
10068SOL     OW31102   2.204   2.900   2.728
10068SOL    HW131103   2.260   2.942   2.800
10068SOL    HW231104   2.229   2.803   2.719
10069SOL     OW31105   3.589   5.140   1.697
10069SOL    HW131106   3.608   5.203   1.773
10069SOL    HW231107   3.501   5.163   1.655
10070SOL     OW31108   3.163   5.864   4.937
10070SOL    HW131109   3.125   5.813   5.014
10070SOL    HW231110   3.150   5.812   4.853
10071SOL     OW31111   0.233   6.923   3.267
10071SOL    HW131112   0.273   6.873   3.344
10071SOL    HW231113   0.277   7.013   3.260
10072SOL     OW31114   6.710   1.530   2.279
10072SOL    HW131115   6.658   1.446   2.294
10072SOL    HW231116   6.804   1.507   2.254
10073SOL     OW31117   6.054   2.941   4.522
10073SOL    HW131118   6.013   3.032   4.528
10073SOL    HW231119   6.014   2.883   4.593
10074SOL     OW31120   2.092   4.969   0.633
10074SOL    HW131121   2.183   4.996   0.604
10074SOL    HW231122   2.086   4.869   0.639
10075SOL     OW31123   1.744   2.290   2.170
10075SOL    HW131124   1.699   2.365   2.121
10075SOL    HW231125   1.679   2.215   2.183
10076SOL     OW31126   4.989   5.262   3.423
10076SOL    HW131127   5.026   5.203   3.351
10076SOL    HW231128   5.010   5.222   3.512
10077SOL     OW31129   6.480   3.238   6.917
10077SOL    HW131130   6.565   3.263   6.961
10077SOL    HW231131   6.418   3.197   6.984
10078SOL     OW31132   6.979   6.384   4.694
10078SOL    HW131133   6.983   6.409   4.791
10078SOL    HW231134   6.940   6.292   4.685
10079SOL     OW31135   5.160   2.692   3.249
10079SOL    HW131136   5.170   2.597   3.278
10079SOL    HW231137   5.092   2.737   3.307
10080SOL     OW31138   5.784   0.628   5.721
10080SOL    HW131139   5.698   0.678   5.727
10080SOL    HW231140   5.816   0.603   5.812
10081SOL     OW31141   1.759   2.615   0.723
10081SOL    HW131142   1.783   2.659   0.636
10081SOL    HW231143   1.843   2.593   0.773
10082SOL     OW31144   1.386   4.588   2.447
10082SOL    HW131145   1.426   4.500   2.420
10082SOL    HW231146   1.423   4.615   2.536
10083SOL     OW31147   4.142   5.094   3.804
10083SOL    HW131148   4.199   5.173   3.825
10083SOL    HW231149   4.200   5.015   3.783
10084SOL     OW31150   1.094   0.631   5.228
10084SOL    HW131151   1.149   0.564   5.279
10084SOL    HW231152   1.007   0.645   5.274
10085SOL     OW31153   4.289   6.621   0.556
10085SOL    HW131154   4.310   6.709   0.598
10085SOL    HW231155   4.279   6.632   0.457
10086SOL     OW31156   6.945   5.790   1.714
10086SOL    HW131157   6.921   5.844   1.634
10086SOL    HW231158   6.863   5.773   1.769
10087SOL     OW31159   1.477   6.501   4.653
10087SOL    HW131160   1.412   6.575   4.634
10087SOL    HW231161   1.506   6.506   4.749
10088SOL     OW31162   6.844   2.923   0.132
10088SOL    HW131163   6.871   2.827   0.123
10088SOL    HW231164   6.926   2.978   0.148
10089SOL     OW31165   4.263   1.726   2.307
10089SOL    HW131166   4.286   1.714   2.210
10089SOL    HW231167   4.171   1.690   2.324
10090SOL     OW31168   1.333   5.767   1.012
10090SOL    HW131169   1.346   5.863   0.987
10090SOL    HW231170   1.326   5.711   0.930
10091SOL     OW31171   6.324   4.555   6.109
10091SOL    HW131172   6.298   4.623   6.177
10091SOL    HW231173   6.242   4.507   6.077
10092SOL     OW31174   0.211   2.827   5.494
10092SOL    HW131175   0.182   2.749   5.439
10092SOL    HW231176   0.154   2.833   5.577
10093SOL     OW31177   5.372   4.206   6.256
10093SOL    HW131178   5.307   4.136   6.285
10093SOL    HW231179   5.449   4.162   6.209
10094SOL     OW31180   3.282   0.798   0.937
10094SOL    HW131181   3.281   0.797   0.837
10094SOL    HW231182   3.364   0.846   0.969
10095SOL     OW31183   4.894   2.528   5.199
10095SOL    HW131184   4.804   2.567   5.181
10095SOL    HW231185   4.896   2.487   5.290
10096SOL     OW31186   4.962   1.161   2.865
10096SOL    HW131187   4.896   1.118   2.803
10096SOL    HW231188   5.054   1.124   2.847
10097SOL     OW31189   1.254   1.785   6.572
10097SOL    HW131190   1.352   1.788   6.590
10097SOL    HW231191   1.204   1.788   6.658
10098SOL     OW31192   3.551   5.333   4.375
10098SOL    HW131193   3.569   5.305   4.469
10098SOL    HW231194   3.565   5.255   4.314
10099SOL     OW31195   6.714   4.745   1.656
10099SOL    HW131196   6.614   4.742   1.646
10099SOL    HW231197   6.752   4.810   1.591
10100SOL     OW31198   4.823   5.268   4.696
10100SOL    HW131199   4.897   5.335   4.690
10100SOL    HW231200   4.853   5.182   4.655
10101SOL     OW31201   1.192   1.908   0.909
10101SOL    HW131202   1.250   1.829   0.890
10101SOL    HW231203   1.208   1.979   0.841
10102SOL     OW31204   6.453   6.234   1.664
10102SOL    HW131205   6.390   6.162   1.691
10102SOL    HW231206   6.533   6.194   1.618
10103SOL     OW31207   6.939   6.688   6.078
10103SOL    HW131208   7.014   6.753   6.066
10103SOL    HW231209   6.965   6.600   6.039
10104SOL     OW31210   1.798   0.780   5.402
10104SOL    HW131211   1.777   0.864   5.453
10104SOL    HW231212   1.827   0.709   5.466
10105SOL     OW31213   2.508   0.934   5.950
10105SOL    HW131214   2.424   0.984   5.925
10105SOL    HW231215   2.576   0.999   5.983
10106SOL     OW31216   4.914   5.986   1.411
10106SOL    HW131217   4.983   5.935   1.463
10106SOL    HW231218   4.958   6.032   1.334
10107SOL     OW31219   5.092   3.925   6.721
10107SOL    HW131220   5.186   3.901   6.694
10107SOL    HW231221   5.086   4.023   6.738
10108SOL     OW31222   1.809   2.373   0.552
10108SOL    HW131223   1.869   2.298   0.578
10108SOL    HW231224   1.846   2.459   0.588
10109SOL     OW31225   1.273   1.319   0.435
10109SOL    HW131226   1.178   1.337   0.457
10109SOL    HW231227   1.321   1.287   0.517
10110SOL     OW31228   4.841   6.484   2.886
10110SOL    HW131229   4.812   6.548   2.958
10110SOL    HW231230   4.848   6.533   2.800
10111SOL     OW31231   1.398   1.303   1.926
10111SOL    HW131232   1.445   1.388   1.951
10111SOL    HW231233   1.346   1.317   1.842
10112SOL     OW31234   6.541   2.411   3.769
10112SOL    HW131235   6.468   2.478   3.752
10112SOL    HW231236   6.506   2.320   3.749
10113SOL     OW31237   5.644   1.366   6.776
10113SOL    HW131238   5.575   1.423   6.821
10113SOL    HW231239   5.646   1.276   6.818
10114SOL     OW31240   3.954   1.683   2.504
10114SOL    HW131241   3.891   1.756   2.476
10114SOL    HW231242   3.908   1.624   2.571
10115SOL     OW31243   3.460   2.516   5.527
10115SOL    HW131244   3.385   2.506   5.462
10115SOL    HW231245   3.499   2.607   5.520
10116SOL     OW31246   6.370   0.402   4.713
10116SOL    HW131247   6.424   0.413   4.796
10116SOL    HW231248   6.342   0.306   4.704
10117SOL     OW31249   6.503   5.206   4.231
10117SOL    HW131250   6.408   5.236   4.227
10117SOL    HW231251   6.507   5.106   4.229
10118SOL     OW31252   3.570   5.289   4.646
10118SOL    HW131253   3.601   5.194   4.645
10118SOL    HW231254   3.632   5.344   4.702
10119SOL     OW31255   0.598   5.096   4.482
10119SOL    HW131256   0.687   5.058   4.453
10119SOL    HW231257   0.525   5.033   4.454
10120SOL     OW31258   2.299   2.708   1.984
10120SOL    HW131259   2.280   2.758   2.069
10120SOL    HW231260   2.338   2.771   1.917
10121SOL     OW31261   5.999   4.322   0.773
10121SOL    HW131262   6.005   4.226   0.745
10121SOL    HW231263   5.960   4.328   0.865
10122SOL     OW31264   1.295   0.776   3.857
10122SOL    HW131265   1.338   0.806   3.772
10122SOL    HW231266   1.363   0.772   3.929
10123SOL     OW31267   5.770   5.795   0.617
10123SOL    HW131268   5.786   5.816   0.713
10123SOL    HW231269   5.687   5.739   0.608
10124SOL     OW31270   1.501   3.993   3.037
10124SOL    HW131271   1.516   4.087   3.069
10124SOL    HW231272   1.573   3.969   2.971
10125SOL     OW31273   1.054   1.851   6.080
10125SOL    HW131274   1.063   1.845   5.981
10125SOL    HW231275   1.129   1.906   6.118
10126SOL     OW31276   6.509   6.363   6.618
10126SOL    HW131277   6.532   6.432   6.549
10126SOL    HW231278   6.576   6.289   6.616
10127SOL     OW31279   2.131   5.369   6.035
10127SOL    HW131280   2.148   5.287   6.089
10127SOL    HW231281   2.219   5.409   6.008
10128SOL     OW31282   3.079   0.767   6.887
10128SOL    HW131283   3.167   0.736   6.853
10128SOL    HW231284   3.041   0.836   6.825
10129SOL     OW31285   6.019   1.625   3.971
10129SOL    HW131286   6.007   1.545   3.912
10129SOL    HW231287   6.085   1.603   4.043
10130SOL     OW31288   1.739   1.936   2.749
10130SOL    HW131289   1.797   1.945   2.668
10130SOL    HW231290   1.769   1.858   2.804
10131SOL     OW31291   2.140   0.747   4.518
10131SOL    HW131292   2.100   0.687   4.449
10131SOL    HW231293   2.118   0.712   4.609
10132SOL     OW31294   6.636   0.763   1.914
10132SOL    HW131295   6.640   0.734   2.009
10132SOL    HW231296   6.677   0.854   1.905
10133SOL     OW31297   4.926   0.255   0.107
10133SOL    HW131298   4.971   0.168   0.088
10133SOL    HW231299   4.910   0.304   0.021
10134SOL     OW31300   6.347   1.087   1.929
10134SOL    HW131301   6.376   0.992   1.941
10134SOL    HW231302   6.250   1.090   1.904
10135SOL     OW31303   6.547   0.708   2.400
10135SOL    HW131304   6.537   0.612   2.426
10135SOL    HW231305   6.510   0.721   2.308
10136SOL     OW31306   5.422   1.666   3.063
10136SOL    HW131307   5.353   1.607   3.021
10136SOL    HW231308   5.492   1.609   3.106
10137SOL     OW31309   6.255   5.497   5.558
10137SOL    HW131310   6.285   5.404   5.580
10137SOL    HW231311   6.159   5.508   5.584
10138SOL     OW31312   6.692   1.837   0.328
10138SOL    HW131313   6.650   1.919   0.290
10138SOL    HW231314   6.719   1.855   0.423
10139SOL     OW31315   3.507   3.583   5.949
10139SOL    HW131316   3.421   3.621   5.915
10139SOL    HW231317   3.491   3.538   6.037
10140SOL     OW31318   0.120   5.940   5.734
10140SOL    HW131319   0.126   6.040   5.725
10140SOL    HW231320   0.155   5.913   5.823
10141SOL     OW31321   2.326   1.974   4.199
10141SOL    HW131322   2.230   1.994   4.218
10141SOL    HW231323   2.334   1.936   4.106
10142SOL     OW31324   5.843   6.585   4.310
10142SOL    HW131325   5.787   6.529   4.371
10142SOL    HW231326   5.894   6.526   4.248
10143SOL     OW31327   5.189   3.543   6.798
10143SOL    HW131328   5.137   3.566   6.716
10143SOL    HW231329   5.248   3.465   6.778
10144SOL     OW31330   3.717   6.598   5.775
10144SOL    HW131331   3.656   6.535   5.727
10144SOL    HW231332   3.665   6.678   5.805
10145SOL     OW31333   5.408   6.155   6.776
10145SOL    HW131334   5.450   6.072   6.741
10145SOL    HW231335   5.416   6.156   6.876
10146SOL     OW31336   0.296   2.509   4.279
10146SOL    HW131337   0.306   2.467   4.369
10146SOL    HW231338   0.382   2.502   4.229
10147SOL     OW31339   4.898   5.869   6.211
10147SOL    HW131340   4.905   5.951   6.153
10147SOL    HW231341   4.916   5.788   6.156
10148SOL     OW31342   0.990   4.681   6.673
10148SOL    HW131343   1.059   4.643   6.611
10148SOL    HW231344   0.899   4.668   6.633
10149SOL     OW31345   4.069   4.527   0.512
10149SOL    HW131346   4.118   4.441   0.522
10149SOL    HW231347   4.134   4.601   0.492
10150SOL     OW31348   4.333   4.578   6.889
10150SOL    HW131349   4.354   4.568   6.986
10150SOL    HW231350   4.378   4.659   6.853
10151SOL     OW31351   5.756   6.785   5.445
10151SOL    HW131352   5.816   6.865   5.441
10151SOL    HW231353   5.682   6.797   5.379
10152SOL     OW31354   5.169   6.252   3.046
10152SOL    HW131355   5.169   6.184   3.119
10152SOL    HW231356   5.120   6.334   3.077
10153SOL     OW31357   4.965   4.187   3.311
10153SOL    HW131358   4.951   4.142   3.400
10153SOL    HW231359   5.002   4.121   3.246
10154SOL     OW31360   5.421   5.582   5.241
10154SOL    HW131361   5.347   5.611   5.180
10154SOL    HW231362   5.411   5.485   5.261
10155SOL     OW31363   4.373   1.918   4.903
10155SOL    HW131364   4.304   1.988   4.888
10155SOL    HW231365   4.331   1.827   4.893
10156SOL     OW31366   5.263   2.191   6.799
10156SOL    HW131367   5.173   2.155   6.774
10156SOL    HW231368   5.328   2.171   6.725
10157SOL     OW31369   0.361   2.653   1.218
10157SOL    HW131370   0.313   2.735   1.189
10157SOL    HW231371   0.450   2.678   1.256
10158SOL     OW31372   5.840   5.648   1.388
10158SOL    HW131373   5.787   5.634   1.304
10158SOL    HW231374   5.899   5.569   1.403
10159SOL     OW31375   3.749   3.330   2.677
10159SOL    HW131376   3.658   3.331   2.718
10159SOL    HW231377   3.765   3.241   2.634
10160SOL     OW31378   1.578   5.331   3.322
10160SOL    HW131379   1.529   5.393   3.383
10160SOL    HW231380   1.601   5.378   3.237
10161SOL     OW31381   5.386   3.465   5.766
10161SOL    HW131382   5.334   3.390   5.725
10161SOL    HW231383   5.361   3.474   5.862
10162SOL     OW31384   1.224   3.382   2.755
10162SOL    HW131385   1.238   3.445   2.831
10162SOL    HW231386   1.257   3.291   2.780
10163SOL     OW31387   1.352   6.165   5.357
10163SOL    HW131388   1.435   6.110   5.365
10163SOL    HW231389   1.272   6.109   5.378
10164SOL     OW31390   0.958   2.737   2.594
10164SOL    HW131391   0.923   2.723   2.686
10164SOL    HW231392   1.042   2.790   2.598
10165SOL     OW31393   6.766   3.457   4.505
10165SOL    HW131394   6.798   3.551   4.490
10165SOL    HW231395   6.795   3.399   4.429
10166SOL     OW31396   1.469   0.977   0.681
10166SOL    HW131397   1.381   0.932   0.665
10166SOL    HW231398   1.543   0.923   0.641
10167SOL     OW31399   2.189   0.205   6.871
10167SOL    HW131400   2.153   0.288   6.827
10167SOL    HW231401   2.114   0.143   6.891
10168SOL     OW31402   7.009   1.135   0.490
10168SOL    HW131403   7.006   1.038   0.515
10168SOL    HW231404   7.016   1.191   0.573
10169SOL     OW31405   6.545   2.790   3.630
10169SOL    HW131406   6.625   2.845   3.653
10169SOL    HW231407   6.462   2.837   3.661
10170SOL     OW31408   6.141   5.663   6.125
10170SOL    HW131409   6.152   5.610   6.209
10170SOL    HW231410   6.215   5.640   6.061
10171SOL     OW31411   2.072   3.593   5.785
10171SOL    HW131412   2.057   3.558   5.878
10171SOL    HW231413   2.057   3.519   5.719
10172SOL     OW31414   6.479   0.264   2.720
10172SOL    HW131415   6.535   0.255   2.802
10172SOL    HW231416   6.388   0.297   2.745
10173SOL     OW31417   3.125   4.415   5.616
10173SOL    HW131418   3.071   4.331   5.623
10173SOL    HW231419   3.149   4.432   5.521
10174SOL     OW31420   4.957   6.040   3.003
10174SOL    HW131421   4.971   6.074   3.096
10174SOL    HW231422   4.998   5.949   2.994
10175SOL     OW31423   0.377   1.235   4.047
10175SOL    HW131424   0.407   1.325   4.015
10175SOL    HW231425   0.278   1.229   4.040
10176SOL     OW31426   5.949   1.982   6.078
10176SOL    HW131427   5.879   1.987   6.150
10176SOL    HW231428   5.913   2.021   5.994
10177SOL     OW31429   2.238   0.724   2.649
10177SOL    HW131430   2.296   0.714   2.730
10177SOL    HW231431   2.144   0.699   2.671
10178SOL     OW31432   2.091   1.649   0.347
10178SOL    HW131433   2.092   1.563   0.297
10178SOL    HW231434   2.111   1.633   0.443
10179SOL     OW31435   1.203   4.255   1.312
10179SOL    HW131436   1.153   4.170   1.296
10179SOL    HW231437   1.140   4.332   1.306
10180SOL     OW31438   4.602   0.050   6.400
10180SOL    HW131439   4.645   0.118   6.340
10180SOL    HW231440   4.512   0.026   6.364
10181SOL     OW31441   6.948   3.512   1.983
10181SOL    HW131442   0.003   3.464   1.997
10181SOL    HW231443   6.966   3.607   1.959
10182SOL     OW31444   5.719   2.266   6.934
10182SOL    HW131445   5.665   2.307   7.008
10182SOL    HW231446   5.680   2.177   6.911
10183SOL     OW31447   6.331   2.563   6.865
10183SOL    HW131448   6.260   2.628   6.838
10183SOL    HW231449   6.386   2.540   6.784
10184SOL     OW31450   5.583   3.538   6.136
10184SOL    HW131451   5.623   3.612   6.191
10184SOL    HW231452   5.512   3.492   6.189
10185SOL     OW31453   4.102   5.578   2.406
10185SOL    HW131454   4.146   5.488   2.401
10185SOL    HW231455   4.168   5.644   2.443
10186SOL     OW31456   3.938   3.251   5.992
10186SOL    HW131457   3.926   3.316   5.916
10186SOL    HW231458   4.026   3.269   6.036
10187SOL     OW31459   1.716   5.610   5.843
10187SOL    HW131460   1.680   5.703   5.842
10187SOL    HW231461   1.794   5.605   5.905
10188SOL     OW31462   2.767   0.288   6.762
10188SOL    HW131463   2.850   0.301   6.816
10188SOL    HW231464   2.767   0.350   6.684
10189SOL     OW31465   0.988   1.963   5.823
10189SOL    HW131466   0.934   1.883   5.798
10189SOL    HW231467   0.929   2.032   5.864
10190SOL     OW31468   3.173   5.476   1.966
10190SOL    HW131469   3.272   5.486   1.964
10190SOL    HW231470   3.138   5.514   2.052
10191SOL     OW31471   5.396   5.445   0.192
10191SOL    HW131472   5.481   5.466   0.240
10191SOL    HW231473   5.405   5.470   0.095
10192SOL     OW31474   2.054   1.812   4.467
10192SOL    HW131475   2.059   1.742   4.538
10192SOL    HW231476   2.098   1.779   4.384
10193SOL     OW31477   3.871   4.006   3.634
10193SOL    HW131478   3.821   4.088   3.663
10193SOL    HW231479   3.923   3.970   3.712
10194SOL     OW31480   3.585   6.863   4.000
10194SOL    HW131481   3.600   6.912   3.914
10194SOL    HW231482   3.486   6.859   4.019
10195SOL     OW31483   3.928   6.209   1.859
10195SOL    HW131484   4.004   6.174   1.915
10195SOL    HW231485   3.948   6.303   1.832
10196SOL     OW31486   6.306   1.766   3.243
10196SOL    HW131487   6.239   1.739   3.174
10196SOL    HW231488   6.273   1.739   3.334
10197SOL     OW31489   5.682   0.838   2.317
10197SOL    HW131490   5.639   0.919   2.356
10197SOL    HW231491   5.693   0.850   2.218
10198SOL     OW31492   2.791   0.259   1.200
10198SOL    HW131493   2.762   0.315   1.123
10198SOL    HW231494   2.741   0.172   1.199
10199SOL     OW31495   0.240   0.886   6.838
10199SOL    HW131496   0.230   0.848   6.930
10199SOL    HW231497   0.335   0.913   6.824
10200SOL     OW31498   5.370   4.462   5.408
10200SOL    HW131499   5.306   4.417   5.346
10200SOL    HW231500   5.454   4.484   5.358
10201SOL     OW31501   1.205   4.915   2.416
10201SOL    HW131502   1.154   4.829   2.418
10201SOL    HW231503   1.210   4.947   2.321
10202SOL     OW31504   1.338   3.048   2.112
10202SOL    HW131505   1.301   3.021   2.201
10202SOL    HW231506   1.371   3.143   2.117
10203SOL     OW31507   2.172   3.014   2.450
10203SOL    HW131508   2.176   2.994   2.548
10203SOL    HW231509   2.170   3.113   2.437
10204SOL     OW31510   2.983   4.703   5.362
10204SOL    HW131511   2.907   4.732   5.420
10204SOL    HW231512   2.953   4.628   5.303
10205SOL     OW31513   4.997   2.349   3.114
10205SOL    HW131514   5.066   2.334   3.045
10205SOL    HW231515   4.917   2.392   3.073
10206SOL     OW31516   5.233   0.022   6.177
10206SOL    HW131517   5.197   6.973   6.225
10206SOL    HW231518   5.173   0.100   6.193
10207SOL     OW31519   3.442   1.083   3.023
10207SOL    HW131520   3.382   1.161   3.042
10207SOL    HW231521   3.537   1.114   3.024
10208SOL     OW31522   6.358   4.258   5.737
10208SOL    HW131523   6.432   4.250   5.670
10208SOL    HW231524   6.308   4.343   5.722
10209SOL     OW31525   6.346   6.376   6.195
10209SOL    HW131526   6.311   6.423   6.114
10209SOL    HW231527   6.270   6.345   6.252
10210SOL     OW31528   5.343   5.935   2.574
10210SOL    HW131529   5.275   5.959   2.643
10210SOL    HW231530   5.335   5.995   2.495
10211SOL     OW31531   3.900   6.048   4.943
10211SOL    HW131532   3.843   5.973   4.911
10211SOL    HW231533   3.849   6.134   4.935
10212SOL     OW31534   0.128   0.937   4.720
10212SOL    HW131535   0.053   0.914   4.658
10212SOL    HW231536   0.182   1.012   4.681
10213SOL     OW31537   6.463   1.477   3.424
10213SOL    HW131538   6.440   1.554   3.484
10213SOL    HW231539   6.465   1.507   3.329
10214SOL     OW31540   6.765   0.993   1.911
10214SOL    HW131541   6.820   1.053   1.853
10214SOL    HW231542   6.785   1.012   2.007
10215SOL     OW31543   3.843   4.238   6.170
10215SOL    HW131544   3.858   4.159   6.112
10215SOL    HW231545   3.895   4.316   6.135
10216SOL     OW31546   5.371   0.593   1.076
10216SOL    HW131547   5.348   0.523   1.008
10216SOL    HW231548   5.414   0.670   1.030
10217SOL     OW31549   2.658   1.641   4.486
10217SOL    HW131550   2.574   1.618   4.535
10217SOL    HW231551   2.635   1.685   4.399
10218SOL     OW31552   1.749   1.002   0.405
10218SOL    HW131553   1.748   0.905   0.429
10218SOL    HW231554   1.843   1.036   0.410
10219SOL     OW31555   0.782   2.225   1.334
10219SOL    HW131556   0.711   2.162   1.305
10219SOL    HW231557   0.856   2.173   1.378
10220SOL     OW31558   4.259   1.995   1.309
10220SOL    HW131559   4.264   2.073   1.371
10220SOL    HW231560   4.178   1.940   1.329
10221SOL     OW31561   2.827   0.292   5.365
10221SOL    HW131562   2.895   0.366   5.371
10221SOL    HW231563   2.736   0.332   5.371
10222SOL     OW31564   1.747   4.900   5.333
10222SOL    HW131565   1.700   4.981   5.371
10222SOL    HW231566   1.723   4.820   5.388
10223SOL     OW31567   1.549   3.876   0.186
10223SOL    HW131568   1.542   3.915   0.278
10223SOL    HW231569   1.467   3.900   0.133
10224SOL     OW31570   1.444   0.030   4.183
10224SOL    HW131571   1.491   0.117   4.169
10224SOL    HW231572   1.508   6.995   4.221
10225SOL     OW31573   6.656   5.573   4.844
10225SOL    HW131574   6.599   5.644   4.885
10225SOL    HW231575   6.678   5.504   4.913
10226SOL     OW31576   2.132   1.033   6.738
10226SOL    HW131577   2.143   1.131   6.752
10226SOL    HW231578   2.035   1.011   6.729
10227SOL     OW31579   4.711   5.054   6.945
10227SOL    HW131580   4.761   5.140   6.948
10227SOL    HW231581   4.702   5.023   6.851
10228SOL     OW31582   1.394   5.211   3.648
10228SOL    HW131583   1.431   5.263   3.724
10228SOL    HW231584   1.342   5.272   3.588
10229SOL     OW31585   1.097   0.175   3.105
10229SOL    HW131586   1.172   0.110   3.121
10229SOL    HW231587   1.131   0.251   3.050
10230SOL     OW31588   6.270   0.621   3.727
10230SOL    HW131589   6.320   0.539   3.752
10230SOL    HW231590   6.250   0.675   3.809
10231SOL     OW31591   5.481   6.756   4.916
10231SOL    HW131592   5.482   6.669   4.965
10231SOL    HW231593   5.561   6.810   4.943
10232SOL     OW31594   3.310   2.096   4.868
10232SOL    HW131595   3.372   2.036   4.919
10232SOL    HW231596   3.269   2.163   4.929
10233SOL     OW31597   4.613   2.120   5.672
10233SOL    HW131598   4.548   2.060   5.626
10233SOL    HW231599   4.572   2.154   5.757
10234SOL     OW31600   5.806   6.956   1.346
10234SOL    HW131601   5.763   6.997   1.426
10234SOL    HW231602   5.906   6.956   1.359
10235SOL     OW31603   5.173   1.603   0.168
10235SOL    HW131604   5.241   1.650   0.112
10235SOL    HW231605   5.134   1.527   0.117
10236SOL     OW31606   2.181   6.022   2.196
10236SOL    HW131607   2.239   6.007   2.276
10236SOL    HW231608   2.086   5.999   2.218
10237SOL     OW31609   6.256   3.720   2.620
10237SOL    HW131610   6.158   3.702   2.611
10237SOL    HW231611   6.274   3.816   2.597
10238SOL     OW31612   4.218   4.854   5.163
10238SOL    HW131613   4.135   4.905   5.187
10238SOL    HW231614   4.236   4.784   5.233
10239SOL     OW31615   0.494   4.145   4.621
10239SOL    HW131616   0.420   4.204   4.654
10239SOL    HW231617   0.460   4.051   4.615
10240SOL     OW31618   1.079   3.741   3.202
10240SOL    HW131619   1.132   3.808   3.150
10240SOL    HW231620   1.138   3.695   3.268
10241SOL     OW31621   1.106   1.800   2.597
10241SOL    HW131622   1.109   1.833   2.503
10241SOL    HW231623   1.010   1.794   2.627
10242SOL     OW31624   6.867   1.170   5.916
10242SOL    HW131625   6.919   1.251   5.889
10242SOL    HW231626   6.846   1.175   6.013
10243SOL     OW31627   0.496   5.456   2.111
10243SOL    HW131628   0.556   5.407   2.049
10243SOL    HW231629   0.426   5.394   2.147
10244SOL     OW31630   2.148   5.522   6.871
10244SOL    HW131631   2.061   5.480   6.847
10244SOL    HW231632   2.165   5.508   6.969
10245SOL     OW31633   1.494   3.160   6.193
10245SOL    HW131634   1.467   3.091   6.260
10245SOL    HW231635   1.567   3.124   6.135
10246SOL     OW31636   3.022   3.971   4.810
10246SOL    HW131637   2.999   3.932   4.899
10246SOL    HW231638   3.120   3.994   4.809
10247SOL     OW31639   7.003   5.267   5.900
10247SOL    HW131640   0.050   5.212   5.872
10247SOL    HW231641   7.005   5.281   5.999
10248SOL     OW31642   2.816   0.026   2.025
10248SOL    HW131643   2.869   7.023   1.947
10248SOL    HW231644   2.821   0.126   2.027
10249SOL     OW31645   4.708   1.245   5.657
10249SOL    HW131646   4.615   1.233   5.691
10249SOL    HW231647   4.774   1.217   5.726
10250SOL     OW31648   5.934   1.262   0.871
10250SOL    HW131649   6.028   1.252   0.903
10250SOL    HW231650   5.893   1.343   0.914
10251SOL     OW31651   2.733   2.648   0.291
10251SOL    HW131652   2.815   2.595   0.314
10251SOL    HW231653   2.651   2.594   0.313
10252SOL     OW31654   5.973   6.733   1.000
10252SOL    HW131655   6.007   6.802   0.937
10252SOL    HW231656   6.049   6.676   1.032
10253SOL     OW31657   4.692   4.420   0.037
10253SOL    HW131658   4.624   4.381   7.006
10253SOL    HW231659   4.694   4.519   0.025
10254SOL     OW31660   2.842   1.633   5.334
10254SOL    HW131661   2.921   1.642   5.274
10254SOL    HW231662   2.809   1.724   5.360
10255SOL     OW31663   2.515   5.495   2.357
10255SOL    HW131664   2.479   5.495   2.264
10255SOL    HW231665   2.491   5.581   2.402
10256SOL     OW31666   4.850   0.622   0.362
10256SOL    HW131667   4.850   0.713   0.404
10256SOL    HW231668   4.914   0.563   0.411
10257SOL     OW31669   1.318   5.771   5.905
10257SOL    HW131670   1.367   5.708   5.964
10257SOL    HW231671   1.223   5.742   5.895
10258SOL     OW31672   4.578   0.045   3.123
10258SOL    HW131673   4.559   6.985   3.087
10258SOL    HW231674   4.517   0.064   3.200
10259SOL     OW31675   0.399   4.317   3.807
10259SOL    HW131676   0.455   4.398   3.824
10259SOL    HW231677   0.336   4.336   3.732
10260SOL     OW31678   0.826   0.055   2.218
10260SOL    HW131679   0.802   0.123   2.149
10260SOL    HW231680   0.749   0.043   2.281
10261SOL     OW31681   0.898   5.409   2.178
10261SOL    HW131682   0.908   5.509   2.181
10261SOL    HW231683   0.952   5.372   2.102
10262SOL     OW31684   3.175   4.950   4.304
10262SOL    HW131685   3.126   4.925   4.388
10262SOL    HW231686   3.128   4.910   4.225
10263SOL     OW31687   5.093   1.738   5.659
10263SOL    HW131688   5.176   1.683   5.668
10263SOL    HW231689   5.069   1.777   5.748
10264SOL     OW31690   6.335   0.972   6.436
10264SOL    HW131691   6.275   0.987   6.515
10264SOL    HW231692   6.285   0.991   6.352
10265SOL     OW31693   3.632   1.562   3.006
10265SOL    HW131694   3.590   1.615   3.079
10265SOL    HW231695   3.619   1.464   3.024
10266SOL     OW31696   3.416   3.996   6.262
10266SOL    HW131697   3.357   3.952   6.194
10266SOL    HW231698   3.512   3.980   6.238
10267SOL     OW31699   6.942   2.069   6.637
10267SOL    HW131700   6.987   2.153   6.604
10267SOL    HW231701   7.007   1.993   6.635
10268SOL     OW31702   5.186   5.516   1.590
10268SOL    HW131703   5.259   5.547   1.652
10268SOL    HW231704   5.212   5.428   1.550
10269SOL     OW31705   2.353   2.477   6.356
10269SOL    HW131706   2.433   2.443   6.307
10269SOL    HW231707   2.304   2.401   6.399
10270SOL     OW31708   2.010   5.910   0.475
10270SOL    HW131709   2.095   5.874   0.514
10270SOL    HW231710   1.935   5.849   0.500
10271SOL     OW31711   4.122   3.564   1.627
10271SOL    HW131712   4.045   3.519   1.581
10271SOL    HW231713   4.204   3.508   1.616
10272SOL     OW31714   0.634   1.081   4.509
10272SOL    HW131715   0.695   1.153   4.543
10272SOL    HW231716   0.647   0.998   4.563
10273SOL     OW31717   3.849   5.723   4.523
10273SOL    HW131718   3.779   5.757   4.586
10273SOL    HW231719   3.838   5.769   4.435
10274SOL     OW31720   1.019   4.808   5.817
10274SOL    HW131721   0.970   4.873   5.875
10274SOL    HW231722   0.954   4.763   5.756
10275SOL     OW31723   0.785   6.468   2.789
10275SOL    HW131724   0.747   6.558   2.766
10275SOL    HW231725   0.718   6.397   2.765
10276SOL     OW31726   6.983   5.352   4.912
10276SOL    HW131727   6.893   5.370   4.953
10276SOL    HW231728   0.007   5.435   4.916
10277SOL     OW31729   3.294   6.694   4.415
10277SOL    HW131730   3.372   6.682   4.353
10277SOL    HW231731   3.209   6.674   4.366
10278SOL     OW31732   6.311   0.330   6.367
10278SOL    HW131733   6.314   0.380   6.453
10278SOL    HW231734   6.275   0.238   6.383
10279SOL     OW31735   2.766   0.280   4.572
10279SOL    HW131736   2.815   0.247   4.492
10279SOL    HW231737   2.669   0.293   4.549
10280SOL     OW31738   1.928   3.872   0.642
10280SOL    HW131739   1.876   3.948   0.604
10280SOL    HW231740   1.866   3.796   0.663
10281SOL     OW31741   4.337   1.152   2.832
10281SOL    HW131742   4.436   1.159   2.819
10281SOL    HW231743   4.314   1.176   2.926
10282SOL     OW31744   0.889   1.574   3.614
10282SOL    HW131745   0.869   1.603   3.521
10282SOL    HW231746   0.936   1.485   3.612
10283SOL     OW31747   1.520   3.356   1.120
10283SOL    HW131748   1.489   3.330   1.028
10283SOL    HW231749   1.452   3.330   1.188
10284SOL     OW31750   5.448   3.723   5.410
10284SOL    HW131751   5.500   3.727   5.324
10284SOL    HW231752   5.428   3.815   5.441
10285SOL     OW31753   4.746   1.167   0.707
10285SOL    HW131754   4.837   1.201   0.730
10285SOL    HW231755   4.714   1.106   0.779
10286SOL     OW31756   4.460   0.600   3.017
10286SOL    HW131757   4.544   0.624   2.968
10286SOL    HW231758   4.381   0.626   2.963
10287SOL     OW31759   1.690   6.885   1.462
10287SOL    HW131760   1.700   6.976   1.423
10287SOL    HW231761   1.595   6.870   1.490
10288SOL     OW31762   5.752   5.755   3.120
10288SOL    HW131763   5.802   5.768   3.034
10288SOL    HW231764   5.801   5.799   3.195
10289SOL     OW31765   2.946   1.500   1.447
10289SOL    HW131766   2.958   1.571   1.377
10289SOL    HW231767   2.926   1.413   1.402
10290SOL     OW31768   4.167   3.420   2.996
10290SOL    HW131769   4.206   3.505   2.960
10290SOL    HW231770   4.105   3.440   3.072
10291SOL     OW31771   3.451   0.597   4.424
10291SOL    HW131772   3.503   0.651   4.490
10291SOL    HW231773   3.475   0.626   4.331
10292SOL     OW31774   0.389   2.070   4.338
10292SOL    HW131775   0.485   2.073   4.309
10292SOL    HW231776   0.330   2.076   4.257
10293SOL     OW31777   2.416   6.219   3.322
10293SOL    HW131778   2.463   6.175   3.245
10293SOL    HW231779   2.317   6.212   3.309
10294SOL     OW31780   4.620   1.514   2.809
10294SOL    HW131781   4.591   1.496   2.903
10294SOL    HW231782   4.684   1.444   2.779
10295SOL     OW31783   0.135   5.067   5.792
10295SOL    HW131784   0.228   5.035   5.811
10295SOL    HW231785   0.070   4.992   5.804
10296SOL     OW31786   6.606   3.789   6.916
10296SOL    HW131787   6.593   3.756   6.823
10296SOL    HW231788   6.643   3.716   6.973
10297SOL     OW31789   1.155   5.578   4.680
10297SOL    HW131790   1.117   5.596   4.590
10297SOL    HW231791   1.081   5.565   4.746
10298SOL     OW31792   5.337   4.045   4.182
10298SOL    HW131793   5.307   3.966   4.235
10298SOL    HW231794   5.294   4.043   4.092
10299SOL     OW31795   4.433   4.684   3.459
10299SOL    HW131796   4.406   4.647   3.370
10299SOL    HW231797   4.354   4.724   3.504
10300SOL     OW31798   1.071   3.506   2.318
10300SOL    HW131799   1.052   3.524   2.221
10300SOL    HW231800   0.992   3.462   2.360
10301SOL     OW31801   5.992   1.461   3.233
10301SOL    HW131802   6.027   1.446   3.325
10301SOL    HW231803   5.930   1.539   3.233
10302SOL     OW31804   1.355   5.662   3.112
10302SOL    HW131805   1.378   5.695   3.020
10302SOL    HW231806   1.326   5.567   3.107
10303SOL     OW31807   4.183   3.584   1.290
10303SOL    HW131808   4.250   3.638   1.240
10303SOL    HW231809   4.132   3.644   1.353
10304SOL     OW31810   7.001   6.575   3.062
10304SOL    HW131811   6.959   6.627   3.137
10304SOL    HW231812   0.062   6.609   3.046
10305SOL     OW31813   1.910   6.180   6.614
10305SOL    HW131814   1.859   6.136   6.688
10305SOL    HW231815   2.006   6.188   6.640
10306SOL     OW31816   4.287   5.737   0.452
10306SOL    HW131817   4.331   5.661   0.501
10306SOL    HW231818   4.248   5.801   0.519
10307SOL     OW31819   1.295   0.784   6.235
10307SOL    HW131820   1.393   0.762   6.228
10307SOL    HW231821   1.283   0.883   6.230
10308SOL     OW31822   3.316   5.889   3.701
10308SOL    HW131823   3.341   5.795   3.724
10308SOL    HW231824   3.282   5.893   3.607
10309SOL     OW31825   6.748   6.156   2.844
10309SOL    HW131826   6.809   6.076   2.850
10309SOL    HW231827   6.720   6.184   2.936
10310SOL     OW31828   3.327   3.943   2.433
10310SOL    HW131829   3.348   4.003   2.510
10310SOL    HW231830   3.398   3.873   2.425
10311SOL     OW31831   0.446   5.013   0.440
10311SOL    HW131832   0.468   5.059   0.353
10311SOL    HW231833   0.530   4.983   0.484
10312SOL     OW31834   3.023   4.479   0.604
10312SOL    HW131835   3.016   4.488   0.704
10312SOL    HW231836   3.012   4.569   0.562
10313SOL     OW31837   4.520   0.538   2.609
10313SOL    HW131838   4.581   0.465   2.580
10313SOL    HW231839   4.447   0.500   2.666
10314SOL     OW31840   6.453   6.753   0.542
10314SOL    HW131841   6.504   6.748   0.628
10314SOL    HW231842   6.370   6.698   0.549
10315SOL     OW31843   6.335   6.181   4.717
10315SOL    HW131844   6.258   6.194   4.780
10315SOL    HW231845   6.316   6.229   4.632
10316SOL     OW31846   0.487   3.927   4.347
10316SOL    HW131847   0.483   3.853   4.279
10316SOL    HW231848   0.496   3.887   4.438
10317SOL     OW31849   4.404   5.233   6.143
10317SOL    HW131850   4.357   5.286   6.213
10317SOL    HW231851   4.442   5.295   6.074
10318SOL     OW31852   5.985   5.174   1.842
10318SOL    HW131853   6.077   5.143   1.818
10318SOL    HW231854   5.972   5.166   1.941
10319SOL     OW31855   6.497   5.601   3.467
10319SOL    HW131856   6.426   5.652   3.517
10319SOL    HW231857   6.516   5.515   3.516
10320SOL     OW31858   0.041   5.961   1.184
10320SOL    HW131859   0.132   5.995   1.204
10320SOL    HW231860   0.043   5.905   1.101
10321SOL     OW31861   4.425   5.458   4.266
10321SOL    HW131862   4.419   5.377   4.324
10321SOL    HW231863   4.501   5.516   4.297
10322SOL     OW31864   6.180   4.454   0.569
10322SOL    HW131865   6.122   4.422   0.643
10322SOL    HW231866   6.215   4.545   0.591
10323SOL     OW31867   5.283   3.219   6.082
10323SOL    HW131868   5.213   3.283   6.114
10323SOL    HW231869   5.240   3.132   6.059
10324SOL     OW31870   3.020   3.586   3.546
10324SOL    HW131871   3.001   3.681   3.524
10324SOL    HW231872   3.071   3.544   3.471
10325SOL     OW31873   0.463   2.660   3.001
10325SOL    HW131874   0.506   2.747   2.976
10325SOL    HW231875   0.365   2.674   3.015
10326SOL     OW31876   5.436   2.808   0.443
10326SOL    HW131877   5.424   2.717   0.404
10326SOL    HW231878   5.453   2.801   0.541
10327SOL     OW31879   0.602   0.429   2.986
10327SOL    HW131880   0.536   0.504   2.986
10327SOL    HW231881   0.693   0.464   3.007
10328SOL     OW31882   6.120   3.462   2.357
10328SOL    HW131883   6.110   3.513   2.442
10328SOL    HW231884   6.029   3.439   2.321
10329SOL     OW31885   2.802   0.021   3.121
10329SOL    HW131886   2.829   7.002   3.040
10329SOL    HW231887   2.881   0.033   3.182
10330SOL     OW31888   4.178   5.087   2.275
10330SOL    HW131889   4.151   5.167   2.329
10330SOL    HW231890   4.253   5.040   2.321
10331SOL     OW31891   5.456   1.053   3.589
10331SOL    HW131892   5.364   1.016   3.592
10331SOL    HW231893   5.507   1.023   3.669
10332SOL     OW31894   0.106   1.975   6.433
10332SOL    HW131895   0.117   1.925   6.519
10332SOL    HW231896   0.012   1.965   6.400
10333SOL     OW31897   5.941   5.678   4.027
10333SOL    HW131898   5.960   5.674   3.929
10333SOL    HW231899   5.856   5.628   4.046
10334SOL     OW31900   2.041   4.567   4.169
10334SOL    HW131901   1.977   4.493   4.190
10334SOL    HW231902   2.004   4.623   4.095
10335SOL     OW31903   1.847   5.355   1.342
10335SOL    HW131904   1.889   5.323   1.257
10335SOL    HW231905   1.773   5.293   1.368
10336SOL     OW31906   3.949   6.477   1.844
10336SOL    HW131907   3.873   6.537   1.820
10336SOL    HW231908   4.035   6.520   1.816
10337SOL     OW31909   0.688   5.371   4.896
10337SOL    HW131910   0.632   5.319   4.832
10337SOL    HW231911   0.691   5.324   4.984
10338SOL     OW31912   2.812   6.441   2.702
10338SOL    HW131913   2.902   6.465   2.739
10338SOL    HW231914   2.773   6.520   2.655
10339SOL     OW31915   2.294   6.133   1.659
10339SOL    HW131916   2.278   6.079   1.741
10339SOL    HW231917   2.340   6.076   1.591
10340SOL     OW31918   1.931   6.471   0.386
10340SOL    HW131919   2.028   6.466   0.407
10340SOL    HW231920   1.910   6.558   0.342
10341SOL     OW31921   2.139   1.665   2.257
10341SOL    HW131922   2.185   1.613   2.329
10341SOL    HW231923   2.170   1.760   2.259
10342SOL     OW31924   1.851   0.570   5.578
10342SOL    HW131925   1.935   0.516   5.580
10342SOL    HW231926   1.815   0.579   5.671
10343SOL     OW31927   2.943   3.706   5.718
10343SOL    HW131928   2.865   3.765   5.694
10343SOL    HW231929   2.960   3.710   5.816
10344SOL     OW31930   3.973   3.537   4.838
10344SOL    HW131931   4.001   3.440   4.835
10344SOL    HW231932   3.874   3.543   4.848
10345SOL     OW31933   2.170   1.493   6.502
10345SOL    HW131934   2.102   1.427   6.470
10345SOL    HW231935   2.128   1.555   6.569
10346SOL     OW31936   5.304   6.927   0.416
10346SOL    HW131937   5.335   6.955   0.325
10346SOL    HW231938   5.208   6.954   0.428
10347SOL     OW31939   5.488   1.851   1.694
10347SOL    HW131940   5.414   1.865   1.759
10347SOL    HW231941   5.554   1.786   1.732
10348SOL     OW31942   6.604   0.350   5.838
10348SOL    HW131943   6.556   0.406   5.770
10348SOL    HW231944   6.537   0.294   5.887
10349SOL     OW31945   6.807   1.614   1.251
10349SOL    HW131946   6.730   1.584   1.308
10349SOL    HW231947   6.788   1.707   1.217
10350SOL     OW31948   2.875   5.233   4.427
10350SOL    HW131949   2.844   5.288   4.349
10350SOL    HW231950   2.974   5.223   4.424
10351SOL     OW31951   5.654   5.185   5.284
10351SOL    HW131952   5.716   5.248   5.238
10351SOL    HW231953   5.682   5.172   5.379
10352SOL     OW31954   6.214   2.335   0.332
10352SOL    HW131955   6.284   2.381   0.388
10352SOL    HW231956   6.201   2.385   0.247
10353SOL     OW31957   0.145   2.295   3.251
10353SOL    HW131958   0.234   2.251   3.239
10353SOL    HW231959   0.104   2.264   3.337
10354SOL     OW31960   0.605   3.530   0.404
10354SOL    HW131961   0.576   3.490   0.491
10354SOL    HW231962   0.695   3.495   0.379
10355SOL     OW31963   1.467   0.338   0.758
10355SOL    HW131964   1.390   0.396   0.733
10355SOL    HW231965   1.435   0.245   0.775
10356SOL     OW31966   6.970   3.914   6.799
10356SOL    HW131967   6.970   3.816   6.820
10356SOL    HW231968   6.901   3.960   6.854
10357SOL     OW31969   1.053   3.124   6.023
10357SOL    HW131970   1.097   3.112   6.112
10357SOL    HW231971   1.110   3.181   5.965
10358SOL     OW31972   0.673   2.324   2.768
10358SOL    HW131973   0.603   2.263   2.805
10358SOL    HW231974   0.711   2.286   2.684
10359SOL     OW31975   5.637   2.003   2.428
10359SOL    HW131976   5.559   2.028   2.485
10359SOL    HW231977   5.615   2.021   2.332
10360SOL     OW31978   6.051   4.521   2.456
10360SOL    HW131979   6.026   4.458   2.383
10360SOL    HW231980   6.049   4.472   2.544
10361SOL     OW31981   0.497   1.801   1.168
10361SOL    HW131982   0.404   1.785   1.135
10361SOL    HW231983   0.500   1.886   1.220
10362SOL     OW31984   1.463   4.874   2.511
10362SOL    HW131985   1.457   4.973   2.522
10362SOL    HW231986   1.381   4.840   2.464
10363SOL     OW31987   4.850   4.177   0.879
10363SOL    HW131988   4.900   4.117   0.817
10363SOL    HW231989   4.873   4.154   0.974
10364SOL     OW31990   5.806   4.514   2.144
10364SOL    HW131991   5.863   4.439   2.178
10364SOL    HW231992   5.749   4.548   2.219
10365SOL     OW31993   5.781   5.747   0.285
10365SOL    HW131994   5.801   5.794   0.199
10365SOL    HW231995   5.682   5.744   0.299
10366SOL     OW31996   3.125   6.498   3.277
10366SOL    HW131997   3.216   6.502   3.318
10366SOL    HW231998   3.074   6.422   3.318
10367SOL     OW31999   6.520   2.305   0.873
10367SOL    HW132000   6.510   2.389   0.820
10367SOL    HW232001   6.430   2.275   0.905
10368SOL     OW32002   2.018   6.600   2.158
10368SOL    HW132003   1.975   6.517   2.121
10368SOL    HW232004   1.949   6.672   2.168
10369SOL     OW32005   3.410   6.655   5.925
10369SOL    HW132006   3.362   6.627   5.842
10369SOL    HW232007   3.490   6.709   5.902
10370SOL     OW32008   0.372   1.709   4.319
10370SOL    HW132009   0.451   1.743   4.370
10370SOL    HW232010   0.398   1.692   4.224
10371SOL     OW32011   3.100   5.930   3.246
10371SOL    HW132012   3.004   5.902   3.247
10371SOL    HW232013   3.133   5.929   3.152
10372SOL     OW32014   2.433   6.912   1.429
10372SOL    HW132015   2.513   6.941   1.377
10372SOL    HW232016   2.368   6.987   1.435
10373SOL     OW32017   0.185   1.941   5.263
10373SOL    HW132018   0.166   2.030   5.305
10373SOL    HW232019   0.215   1.876   5.333
10374SOL     OW32020   2.935   6.916   4.849
10374SOL    HW132021   3.033   6.931   4.836
10374SOL    HW232022   2.899   6.861   4.774
10375SOL     OW32023   3.881   3.053   0.124
10375SOL    HW132024   3.875   2.955   0.106
10375SOL    HW232025   3.824   3.076   0.203
10376SOL     OW32026   2.157   5.799   2.994
10376SOL    HW132027   2.111   5.880   2.954
10376SOL    HW232028   2.234   5.829   3.050
10377SOL     OW32029   0.981   1.272   2.384
10377SOL    HW132030   0.966   1.364   2.421
10377SOL    HW232031   0.894   1.226   2.371
10378SOL     OW32032   6.792   4.961   5.558
10378SOL    HW132033   6.865   4.894   5.570
10378SOL    HW232034   6.814   5.021   5.481
10379SOL     OW32035   2.568   6.586   4.417
10379SOL    HW132036   2.511   6.557   4.341
10379SOL    HW232037   2.522   6.565   4.503
10380SOL     OW32038   1.437   2.453   4.674
10380SOL    HW132039   1.510   2.403   4.719
10380SOL    HW232040   1.439   2.434   4.575
10381SOL     OW32041   4.610   4.306   1.681
10381SOL    HW132042   4.628   4.402   1.700
10381SOL    HW232043   4.534   4.274   1.738
10382SOL     OW32044   3.360   4.622   1.662
10382SOL    HW132045   3.436   4.629   1.726
10382SOL    HW232046   3.330   4.527   1.656
10383SOL     OW32047   2.266   4.336   0.207
10383SOL    HW132048   2.362   4.322   0.231
10383SOL    HW232049   2.227   4.250   0.173
10384SOL     OW32050   5.833   6.407   1.676
10384SOL    HW132051   5.786   6.495   1.673
10384SOL    HW232052   5.932   6.421   1.680
10385SOL     OW32053   3.899   4.670   6.489
10385SOL    HW132054   3.950   4.601   6.438
10385SOL    HW232055   3.906   4.651   6.587
10386SOL     OW32056   6.953   0.536   5.951
10386SOL    HW132057   6.969   0.526   5.853
10386SOL    HW232058   6.855   0.539   5.968
10387SOL     OW32059   4.851   3.253   2.734
10387SOL    HW132060   4.943   3.214   2.730
10387SOL    HW232061   4.850   3.330   2.798
10388SOL     OW32062   2.918   0.327   5.751
10388SOL    HW132063   2.872   0.365   5.671
10388SOL    HW232064   2.955   0.403   5.807
10389SOL     OW32065   0.663   3.577   0.145
10389SOL    HW132066   0.687   3.492   0.098
10389SOL    HW232067   0.656   3.560   0.243
10390SOL     OW32068   2.489   2.034   0.913
10390SOL    HW132069   2.549   1.972   0.963
10390SOL    HW232070   2.405   2.049   0.967
10391SOL     OW32071   0.573   6.723   3.391
10391SOL    HW132072   0.637   6.738   3.467
10391SOL    HW232073   0.622   6.732   3.304
10392SOL     OW32074   6.712   5.024   4.738
10392SOL    HW132075   6.697   5.122   4.725
10392SOL    HW232076   6.624   4.977   4.733
10393SOL     OW32077   2.137   3.969   4.200
10393SOL    HW132078   2.205   3.974   4.274
10393SOL    HW232079   2.065   3.904   4.225
10394SOL     OW32080   3.406   5.983   4.385
10394SOL    HW132081   3.375   6.026   4.300
10394SOL    HW232082   3.388   5.885   4.381
10395SOL     OW32083   6.680   6.204   1.222
10395SOL    HW132084   6.701   6.251   1.137
10395SOL    HW232085   6.663   6.107   1.203
10396SOL     OW32086   2.949   2.249   4.073
10396SOL    HW132087   3.029   2.229   4.016
10396SOL    HW232088   2.877   2.183   4.055
10397SOL     OW32089   3.102   2.055   2.318
10397SOL    HW132090   3.124   1.988   2.389
10397SOL    HW232091   3.178   2.061   2.253
10398SOL     OW32092   0.109   3.545   1.448
10398SOL    HW132093   0.195   3.510   1.411
10398SOL    HW232094   0.084   3.629   1.399
10399SOL     OW32095   6.162   2.853   2.692
10399SOL    HW132096   6.206   2.796   2.761
10399SOL    HW232097   6.064   2.831   2.688
10400SOL     OW32098   4.221   6.967   0.365
10400SOL    HW132099   4.135   6.998   0.325
10400SOL    HW232100   4.292   0.005   0.353
10401SOL     OW32101   6.696   0.474   3.829
10401SOL    HW132102   6.721   0.455   3.924
10401SOL    HW232103   6.656   0.565   3.823
10402SOL     OW32104   6.027   3.173   5.080
10402SOL    HW132105   6.037   3.240   5.006
10402SOL    HW232106   6.112   3.123   5.091
10403SOL     OW32107   3.272   0.788   3.512
10403SOL    HW132108   3.344   0.762   3.576
10403SOL    HW232109   3.313   0.819   3.426
10404SOL     OW32110   5.753   0.162   5.495
10404SOL    HW132111   5.769   0.139   5.591
10404SOL    HW232112   5.804   0.099   5.437
10405SOL     OW32113   0.809   1.729   5.890
10405SOL    HW132114   0.774   1.639   5.918
10405SOL    HW232115   0.836   1.725   5.793
10406SOL     OW32116   3.043   4.862   2.586
10406SOL    HW132117   3.107   4.900   2.519
10406SOL    HW232118   2.968   4.816   2.539
10407SOL     OW32119   3.169   5.793   5.463
10407SOL    HW132120   3.197   5.717   5.522
10407SOL    HW232121   3.073   5.815   5.480
10408SOL     OW32122   4.553   1.337   0.652
10408SOL    HW132123   4.476   1.273   0.653
10408SOL    HW232124   4.639   1.286   0.659
10409SOL     OW32125   0.226   4.672   0.786
10409SOL    HW132126   0.190   4.766   0.784
10409SOL    HW232127   0.189   4.624   0.865
10410SOL     OW32128   5.716   1.025   0.145
10410SOL    HW132129   5.689   0.948   0.203
10410SOL    HW232130   5.794   1.071   0.187
10411SOL     OW32131   3.323   6.643   2.984
10411SOL    HW132132   3.254   6.596   3.038
10411SOL    HW232133   3.293   6.736   2.965
10412SOL     OW32134   6.092   0.658   0.557
10412SOL    HW132135   6.144   0.629   0.477
10412SOL    HW232136   6.047   0.579   0.598
10413SOL     OW32137   6.831   2.111   1.216
10413SOL    HW132138   6.919   2.156   1.229
10413SOL    HW232139   6.786   2.149   1.135
10414SOL     OW32140   4.327   4.251   5.543
10414SOL    HW132141   4.274   4.295   5.615
10414SOL    HW232142   4.323   4.305   5.460
10415SOL     OW32143   0.331   4.444   5.562
10415SOL    HW132144   0.233   4.433   5.578
10415SOL    HW232145   0.379   4.445   5.650
10416SOL     OW32146   6.629   1.114   3.292
10416SOL    HW132147   6.627   1.020   3.325
10416SOL    HW232148   6.697   1.123   3.220
10417SOL     OW32149   3.867   5.465   4.445
10417SOL    HW132150   3.788   5.490   4.388
10417SOL    HW232151   3.885   5.539   4.510
10418SOL     OW32152   6.783   4.723   6.039
10418SOL    HW132153   6.697   4.710   6.089
10418SOL    HW232154   6.850   4.656   6.071
10419SOL     OW32155   1.196   0.299   6.619
10419SOL    HW132156   1.204   0.235   6.542
10419SOL    HW232157   1.255   0.269   6.693
10420SOL     OW32158   6.663   3.218   2.533
10420SOL    HW132159   6.687   3.269   2.450
10420SOL    HW232160   6.564   3.211   2.540
10421SOL     OW32161   0.546   1.577   3.439
10421SOL    HW132162   0.447   1.571   3.429
10421SOL    HW232163   0.571   1.668   3.471
10422SOL     OW32164   6.432   2.487   5.700
10422SOL    HW132165   6.506   2.555   5.696
10422SOL    HW232166   6.392   2.476   5.609
10423SOL     OW32167   4.897   5.015   4.639
10423SOL    HW132168   4.803   5.001   4.607
10423SOL    HW232169   4.934   4.929   4.672
10424SOL     OW32170   5.735   3.324   0.404
10424SOL    HW132171   5.764   3.335   0.499
10424SOL    HW232172   5.663   3.255   0.399
10425SOL     OW32173   2.182   6.804   2.381
10425SOL    HW132174   2.219   6.896   2.395
10425SOL    HW232175   2.111   6.786   2.449
10426SOL     OW32176   6.301   4.209   0.450
10426SOL    HW132177   6.265   4.301   0.462
10426SOL    HW232178   6.388   4.213   0.400
10427SOL     OW32179   4.059   1.493   0.081
10427SOL    HW132180   3.998   1.416   0.101
10427SOL    HW232181   4.006   1.578   0.075
10428SOL     OW32182   3.046   2.022   5.006
10428SOL    HW132183   3.063   2.121   5.015
10428SOL    HW232184   3.029   1.999   4.910
10429SOL     OW32185   0.418   5.647   1.128
10429SOL    HW132186   0.485   5.573   1.121
10429SOL    HW232187   0.456   5.721   1.184
10430SOL     OW32188   4.272   6.914   3.864
10430SOL    HW132189   4.320   6.887   3.947
10430SOL    HW232190   4.175   6.893   3.873
10431SOL     OW32191   3.124   6.957   5.270
10431SOL    HW132192   3.169   0.012   5.288
10431SOL    HW232193   3.092   6.917   5.356
10432SOL     OW32194   6.155   0.633   4.234
10432SOL    HW132195   6.151   0.666   4.140
10432SOL    HW232196   6.249   0.603   4.255
10433SOL     OW32197   1.984   6.385   1.941
10433SOL    HW132198   1.980   6.447   1.863
10433SOL    HW232199   2.072   6.336   1.941
10434SOL     OW32200   3.937   6.708   2.816
10434SOL    HW132201   3.858   6.718   2.755
10434SOL    HW232202   4.021   6.731   2.766
10435SOL     OW32203   6.815   0.470   5.074
10435SOL    HW132204   6.868   0.450   5.157
10435SOL    HW232205   6.800   0.385   5.023
10436SOL     OW32206   0.378   5.309   5.143
10436SOL    HW132207   0.440   5.258   5.084
10436SOL    HW232208   0.384   5.272   5.236
10437SOL     OW32209   6.125   4.923   5.249
10437SOL    HW132210   6.105   5.011   5.206
10437SOL    HW232211   6.221   4.900   5.235
10438SOL     OW32212   5.321   6.691   0.023
10438SOL    HW132213   5.412   6.706   0.062
10438SOL    HW232214   5.330   6.640   6.969
10439SOL     OW32215   3.618   1.460   6.287
10439SOL    HW132216   3.679   1.383   6.306
10439SOL    HW232217   3.623   1.485   6.191
10440SOL     OW32218   0.967   6.197   0.399
10440SOL    HW132219   0.879   6.176   0.356
10440SOL    HW232220   0.959   6.280   0.453
10441SOL     OW32221   5.409   1.722   0.056
10441SOL    HW132222   5.327   1.759   0.014
10441SOL    HW232223   5.483   1.789   0.050
10442SOL     OW32224   2.897   5.719   5.557
10442SOL    HW132225   2.875   5.637   5.504
10442SOL    HW232226   2.863   5.709   5.650
10443SOL     OW32227   5.205   3.334   4.936
10443SOL    HW132228   5.291   3.380   4.960
10443SOL    HW232229   5.226   3.250   4.885
10444SOL     OW32230   4.474   5.817   4.725
10444SOL    HW132231   4.563   5.804   4.768
10444SOL    HW232232   4.402   5.811   4.795
10445SOL     OW32233   0.817   4.998   4.002
10445SOL    HW132234   0.756   4.974   4.078
10445SOL    HW232235   0.853   4.914   3.961
10446SOL     OW32236   1.038   3.625   5.548
10446SOL    HW132237   1.021   3.534   5.587
10446SOL    HW232238   0.959   3.654   5.495
10447SOL     OW32239   0.245   1.576   1.773
10447SOL    HW132240   0.174   1.588   1.703
10447SOL    HW232241   0.207   1.526   1.850
10448SOL     OW32242   4.307   2.919   1.417
10448SOL    HW132243   4.263   2.830   1.404
10448SOL    HW232244   4.318   2.964   1.328
10449SOL     OW32245   2.694   5.140   4.611
10449SOL    HW132246   2.744   5.178   4.533
10449SOL    HW232247   2.598   5.127   4.585
10450SOL     OW32248   0.564   2.630   0.071
10450SOL    HW132249   0.501   2.666   0.003
10450SOL    HW232250   0.651   2.607   0.026
10451SOL     OW32251   2.731   5.281   2.768
10451SOL    HW132252   2.791   5.341   2.821
10451SOL    HW232253   2.788   5.217   2.715
10452SOL     OW32254   6.231   3.478   3.404
10452SOL    HW132255   6.135   3.469   3.381
10452SOL    HW232256   6.285   3.419   3.344
10453SOL     OW32257   5.299   6.252   1.767
10453SOL    HW132258   5.204   6.278   1.751
10453SOL    HW232259   5.345   6.324   1.820
10454SOL     OW32260   5.491   2.686   1.760
10454SOL    HW132261   5.528   2.651   1.674
10454SOL    HW232262   5.529   2.777   1.777
10455SOL     OW32263   0.561   4.822   3.052
10455SOL    HW132264   0.599   4.756   2.987
10455SOL    HW232265   0.604   4.808   3.141
10456SOL     OW32266   2.947   6.563   1.440
10456SOL    HW132267   2.897   6.647   1.456
10456SOL    HW232268   2.955   6.512   1.526
10457SOL     OW32269   3.383   2.906   3.690
10457SOL    HW132270   3.397   2.880   3.785
10457SOL    HW232271   3.469   2.897   3.639
10458SOL     OW32272   6.997   0.100   7.014
10458SOL    HW132273   7.015   0.186   0.031
10458SOL    HW232274   0.007   0.024   0.033
10459SOL     OW32275   5.327   5.442   2.887
10459SOL    HW132276   5.316   5.541   2.902
10459SOL    HW232277   5.329   5.424   2.789
10460SOL     OW32278   1.778   5.624   1.216
10460SOL    HW132279   1.679   5.635   1.217
10460SOL    HW232280   1.804   5.550   1.279
10461SOL     OW32281   1.115   6.052   5.496
10461SOL    HW132282   1.171   6.030   5.576
10461SOL    HW232283   1.108   5.972   5.438
10462SOL     OW32284   6.020   1.112   1.923
10462SOL    HW132285   5.920   1.113   1.914
10462SOL    HW232286   6.049   1.189   1.979
10463SOL     OW32287   3.618   4.079   5.997
10463SOL    HW132288   3.718   4.082   5.987
10463SOL    HW232289   3.579   4.033   5.917
10464SOL     OW32290   4.633   0.665   0.869
10464SOL    HW132291   4.726   0.648   0.836
10464SOL    HW232292   4.573   0.592   0.837
10465SOL     OW32293   0.160   0.196   6.443
10465SOL    HW132294   0.138   0.182   6.347
10465SOL    HW232295   0.092   0.257   6.484
10466SOL     OW32296   4.757   5.529   4.867
10466SOL    HW132297   4.777   5.449   4.811
10466SOL    HW232298   4.714   5.500   4.952
10467SOL     OW32299   1.898   1.741   5.194
10467SOL    HW132300   1.962   1.676   5.235
10467SOL    HW232301   1.832   1.771   5.262
10468SOL     OW32302   3.788   6.202   4.320
10468SOL    HW132303   3.879   6.242   4.307
10468SOL    HW232304   3.719   6.275   4.324
10469SOL     OW32305   3.184   3.779   1.270
10469SOL    HW132306   3.261   3.841   1.258
10469SOL    HW232307   3.102   3.820   1.229
10470SOL     OW32308   2.122   2.199   3.323
10470SOL    HW132309   2.023   2.202   3.336
10470SOL    HW232310   2.144   2.220   3.228
10471SOL     OW32311   1.988   3.676   1.363
10471SOL    HW132312   1.918   3.693   1.294
10471SOL    HW232313   2.077   3.666   1.318
10472SOL     OW32314   3.757   6.694   1.764
10472SOL    HW132315   3.670   6.646   1.757
10472SOL    HW232316   3.770   6.752   1.684
10473SOL     OW32317   5.356   6.807   0.898
10473SOL    HW132318   5.401   6.874   0.839
10473SOL    HW232319   5.291   6.854   0.958
10474SOL     OW32320   4.582   0.509   4.662
10474SOL    HW132321   4.582   0.451   4.744
10474SOL    HW232322   4.666   0.563   4.660
10475SOL     OW32323   4.498   6.036   1.322
10475SOL    HW132324   4.568   6.036   1.250
10475SOL    HW232325   4.512   6.114   1.383
10476SOL     OW32326   6.691   5.592   6.913
10476SOL    HW132327   6.670   5.690   6.914
10476SOL    HW232328   6.725   5.564   7.003
10477SOL     OW32329   5.912   3.713   5.177
10477SOL    HW132330   5.920   3.688   5.081
10477SOL    HW232331   5.861   3.642   5.226
10478SOL     OW32332   1.244   6.797   6.656
10478SOL    HW132333   1.195   6.772   6.740
10478SOL    HW232334   1.178   6.826   6.587
10479SOL     OW32335   1.340   2.219   1.838
10479SOL    HW132336   1.416   2.222   1.774
10479SOL    HW232337   1.287   2.135   1.822
10480SOL     OW32338   4.940   6.607   1.684
10480SOL    HW132339   5.005   6.603   1.608
10480SOL    HW232340   4.988   6.632   1.768
10481SOL     OW32341   2.297   1.191   4.453
10481SOL    HW132342   2.392   1.193   4.486
10481SOL    HW232343   2.275   1.099   4.421
10482SOL     OW32344   0.634   6.108   4.828
10482SOL    HW132345   0.701   6.034   4.822
10482SOL    HW232346   0.682   6.193   4.849
10483SOL     OW32347   6.335   5.307   0.697
10483SOL    HW132348   6.260   5.372   0.708
10483SOL    HW232349   6.347   5.286   0.600
10484SOL     OW32350   6.987   0.562   1.076
10484SOL    HW132351   0.028   0.613   1.030
10484SOL    HW232352   6.927   0.626   1.124
10485SOL     OW32353   3.664   3.968   3.168
10485SOL    HW132354   3.681   3.968   3.267
10485SOL    HW232355   3.569   3.994   3.151
10486SOL     OW32356   6.707   0.110   5.705
10486SOL    HW132357   6.798   0.106   5.748
10486SOL    HW232358   6.657   0.188   5.742
10487SOL     OW32359   4.726   1.625   1.549
10487SOL    HW132360   4.753   1.537   1.588
10487SOL    HW232361   4.633   1.646   1.576
10488SOL     OW32362   0.833   2.497   5.049
10488SOL    HW132363   0.848   2.489   5.147
10488SOL    HW232364   0.910   2.546   5.007
10489SOL     OW32365   6.390   5.617   3.933
10489SOL    HW132366   6.380   5.699   3.989
10489SOL    HW232367   6.309   5.560   3.942
10490SOL     OW32368   5.598   0.154   0.634
10490SOL    HW132369   5.602   0.137   0.732
10490SOL    HW232370   5.503   0.157   0.604
10491SOL     OW32371   1.459   2.968   6.396
10491SOL    HW132372   1.480   2.874   6.369
10491SOL    HW232373   1.538   3.007   6.443
10492SOL     OW32374   4.319   6.872   0.636
10492SOL    HW132375   4.249   6.942   0.650
10492SOL    HW232376   4.343   6.868   0.539
10493SOL     OW32377   4.184   5.439   0.912
10493SOL    HW132378   4.239   5.515   0.945
10493SOL    HW232379   4.197   5.360   0.972
10494SOL     OW32380   0.968   4.621   6.027
10494SOL    HW132381   1.042   4.566   5.988
10494SOL    HW232382   0.967   4.711   5.984
10495SOL     OW32383   6.758   6.229   6.481
10495SOL    HW132384   6.699   6.260   6.407
10495SOL    HW232385   6.718   6.148   6.524
10496SOL     OW32386   0.046   3.690   5.588
10496SOL    HW132387   0.032   3.789   5.584
10496SOL    HW232388   0.030   3.659   5.682
10497SOL     OW32389   2.603   6.965   2.123
10497SOL    HW132390   2.684   6.994   2.072
10497SOL    HW232391   2.631   6.915   2.205
10498SOL     OW32392   5.005   5.211   0.767
10498SOL    HW132393   5.040   5.231   0.675
10498SOL    HW232394   4.947   5.286   0.798
10499SOL     OW32395   5.860   5.922   1.769
10499SOL    HW132396   5.780   5.958   1.721
10499SOL    HW232397   5.932   5.991   1.770
10500SOL     OW32398   5.225   4.314   4.899
10500SOL    HW132399   5.316   4.339   4.866
10500SOL    HW232400   5.158   4.381   4.867
10501SOL     OW32401   2.450   5.781   2.395
10501SOL    HW132402   2.366   5.763   2.343
10501SOL    HW232403   2.429   5.782   2.493
10502SOL     OW32404   3.088   3.108   2.718
10502SOL    HW132405   3.183   3.077   2.723
10502SOL    HW232406   3.041   3.061   2.643
10503SOL     OW32407   6.650   3.851   6.324
10503SOL    HW132408   6.631   3.792   6.246
10503SOL    HW232409   6.689   3.937   6.292
10504SOL     OW32410   2.083   3.500   6.283
10504SOL    HW132411   2.007   3.467   6.339
10504SOL    HW232412   2.133   3.571   6.332
10505SOL     OW32413   5.557   6.347   2.245
10505SOL    HW132414   5.546   6.424   2.183
10505SOL    HW232415   5.653   6.317   2.245
10506SOL     OW32416   0.793   3.110   6.708
10506SOL    HW132417   0.729   3.091   6.633
10506SOL    HW232418   0.886   3.094   6.676
10507SOL     OW32419   2.653   4.880   0.252
10507SOL    HW132420   2.638   4.978   0.240
10507SOL    HW232421   2.649   4.834   0.164
10508SOL     OW32422   0.993   5.600   5.234
10508SOL    HW132423   1.022   5.505   5.225
10508SOL    HW232424   0.895   5.603   5.255
10509SOL     OW32425   5.215   3.623   4.091
10509SOL    HW132426   5.278   3.636   4.014
10509SOL    HW232427   5.122   3.608   4.056
10510SOL     OW32428   4.875   6.264   5.406
10510SOL    HW132429   4.919   6.196   5.464
10510SOL    HW232430   4.891   6.355   5.444
10511SOL     OW32431   2.766   1.151   1.799
10511SOL    HW132432   2.807   1.222   1.742
10511SOL    HW232433   2.733   1.191   1.884
10512SOL     OW32434   4.231   0.480   6.195
10512SOL    HW132435   4.326   0.507   6.182
10512SOL    HW232436   4.187   0.540   6.261
10513SOL     OW32437   5.541   2.596   2.254
10513SOL    HW132438   5.451   2.567   2.285
10513SOL    HW232439   5.608   2.525   2.276
10514SOL     OW32440   1.036   2.470   1.455
10514SOL    HW132441   1.024   2.405   1.530
10514SOL    HW232442   1.126   2.457   1.414
10515SOL     OW32443   2.124   2.746   4.834
10515SOL    HW132444   2.121   2.818   4.904
10515SOL    HW232445   2.031   2.730   4.799
10516SOL     OW32446   3.243   2.460   0.336
10516SOL    HW132447   3.306   2.495   0.405
10516SOL    HW232448   3.291   2.397   0.276
10517SOL     OW32449   1.440   3.032   3.367
10517SOL    HW132450   1.427   3.093   3.289
10517SOL    HW232451   1.461   3.086   3.448
10518SOL     OW32452   1.113   5.316   2.328
10518SOL    HW132453   1.160   5.261   2.258
10518SOL    HW232454   1.028   5.353   2.289
10519SOL     OW32455   2.423   5.875   1.550
10519SOL    HW132456   2.471   5.844   1.468
10519SOL    HW232457   2.338   5.824   1.560
10520SOL     OW32458   6.651   1.995   6.177
10520SOL    HW132459   6.639   2.031   6.085
10520SOL    HW232460   6.740   1.950   6.185
10521SOL     OW32461   5.911   3.540   1.620
10521SOL    HW132462   5.914   3.626   1.569
10521SOL    HW232463   5.945   3.555   1.713
10522SOL     OW32464   5.855   2.275   3.116
10522SOL    HW132465   5.859   2.353   3.178
10522SOL    HW232466   5.760   2.248   3.101
10523SOL     OW32467   0.663   4.223   3.790
10523SOL    HW132468   0.720   4.286   3.843
10523SOL    HW232469   0.566   4.245   3.805
10524SOL     OW32470   6.865   5.389   3.619
10524SOL    HW132471   6.924   5.469   3.607
10524SOL    HW232472   6.830   5.360   3.530
10525SOL     OW32473   4.284   1.174   4.992
10525SOL    HW132474   4.220   1.142   4.922
10525SOL    HW232475   4.233   1.219   5.065
10526SOL     OW32476   0.714   5.586   0.201
10526SOL    HW132477   0.767   5.626   0.276
10526SOL    HW232478   0.735   5.488   0.194
10527SOL     OW32479   0.700   1.683   5.166
10527SOL    HW132480   0.778   1.746   5.171
10527SOL    HW232481   0.726   1.602   5.114
10528SOL     OW32482   0.595   4.755   6.704
10528SOL    HW132483   0.558   4.722   6.791
10528SOL    HW232484   0.646   4.840   6.721
10529SOL     OW32485   1.750   6.242   5.948
10529SOL    HW132486   1.838   6.274   5.913
10529SOL    HW232487   1.762   6.205   6.040
10530SOL     OW32488   0.690   6.731   5.908
10530SOL    HW132489   0.662   6.827   5.908
10530SOL    HW232490   0.741   6.711   5.824
10531SOL     OW32491   3.010   2.528   5.333
10531SOL    HW132492   3.100   2.489   5.354
10531SOL    HW232493   2.964   2.471   5.264
10532SOL     OW32494   5.671   6.737   6.176
10532SOL    HW132495   5.666   6.641   6.151
10532SOL    HW232496   5.727   6.786   6.109
10533SOL     OW32497   3.673   5.516   3.857
10533SOL    HW132498   3.702   5.585   3.791
10533SOL    HW232499   3.697   5.546   3.949
10534SOL     OW32500   0.209   5.514   2.998
10534SOL    HW132501   0.120   5.528   3.041
10534SOL    HW232502   0.278   5.569   3.045
10535SOL     OW32503   2.956   1.229   2.220
10535SOL    HW132504   2.913   1.310   2.180
10535SOL    HW232505   3.015   1.257   2.296
10536SOL     OW32506   4.687   0.768   4.093
10536SOL    HW132507   4.761   0.709   4.063
10536SOL    HW232508   4.704   0.798   4.187
10537SOL     OW32509   4.786   6.729   3.013
10537SOL    HW132510   4.702   6.779   3.037
10537SOL    HW232511   4.850   6.791   2.967
10538SOL     OW32512   6.005   3.658   2.542
10538SOL    HW132513   5.955   3.737   2.505
10538SOL    HW232514   5.940   3.584   2.561
10539SOL     OW32515   5.872   6.000   2.540
10539SOL    HW132516   5.864   6.095   2.570
10539SOL    HW232517   5.797   5.979   2.477
10540SOL     OW32518   2.621   4.159   6.397
10540SOL    HW132519   2.576   4.091   6.339
10540SOL    HW232520   2.720   4.148   6.390
10541SOL     OW32521   3.032   3.052   5.200
10541SOL    HW132522   2.941   3.016   5.219
10541SOL    HW232523   3.092   3.033   5.278
10542SOL     OW32524   6.404   0.120   4.879
10542SOL    HW132525   6.327   0.057   4.872
10542SOL    HW232526   6.383   0.190   4.948
10543SOL     OW32527   6.877   2.912   5.471
10543SOL    HW132528   6.841   2.822   5.494
10543SOL    HW232529   6.949   2.937   5.535
10544SOL     OW32530   1.022   0.780   3.867
10544SOL    HW132531   1.113   0.741   3.855
10544SOL    HW232532   1.020   0.872   3.828
10545SOL     OW32533   1.663   2.552   2.650
10545SOL    HW132534   1.571   2.584   2.670
10545SOL    HW232535   1.666   2.452   2.661
10546SOL     OW32536   3.488   6.380   1.049
10546SOL    HW132537   3.431   6.440   1.105
10546SOL    HW232538   3.476   6.285   1.078
10547SOL     OW32539   4.592   7.008   4.989
10547SOL    HW132540   4.528   0.049   4.968
10547SOL    HW232541   4.659   0.008   5.056
10548SOL     OW32542   0.709   4.682   4.603
10548SOL    HW132543   0.642   4.726   4.663
10548SOL    HW232544   0.801   4.712   4.627
10549SOL     OW32545   0.381   1.248   0.455
10549SOL    HW132546   0.478   1.265   0.439
10549SOL    HW232547   0.342   1.199   0.377
10550SOL     OW32548   3.641   5.986   3.317
10550SOL    HW132549   3.707   5.922   3.278
10550SOL    HW232550   3.611   6.050   3.247
10551SOL     OW32551   3.085   1.987   6.029
10551SOL    HW132552   3.074   1.893   5.999
10551SOL    HW232553   3.021   2.046   5.980
10552SOL     OW32554   3.650   1.018   4.314
10552SOL    HW132555   3.611   1.086   4.376
10552SOL    HW232556   3.701   1.064   4.241
10553SOL     OW32557   0.334   5.114   0.714
10553SOL    HW132558   0.396   5.141   0.640
10553SOL    HW232559   0.388   5.072   0.787
10554SOL     OW32560   6.416   5.067   2.673
10554SOL    HW132561   6.360   5.040   2.751
10554SOL    HW232562   6.497   5.009   2.668
10555SOL     OW32563   3.125   2.306   0.603
10555SOL    HW132564   3.181   2.237   0.650
10555SOL    HW232565   3.171   2.395   0.607
10556SOL     OW32566   1.962   1.247   2.594
10556SOL    HW132567   2.015   1.167   2.564
10556SOL    HW232568   1.927   1.296   2.514
10557SOL     OW32569   1.866   4.102   4.257
10557SOL    HW132570   1.945   4.047   4.228
10557SOL    HW232571   1.786   4.044   4.264
10558SOL     OW32572   3.388   5.182   5.601
10558SOL    HW132573   3.313   5.239   5.633
10558SOL    HW232574   3.361   5.086   5.605
10559SOL     OW32575   3.417   0.105   0.531
10559SOL    HW132576   3.447   0.013   0.506
10559SOL    HW232577   3.459   0.130   0.618
10560SOL     OW32578   4.318   6.339   1.624
10560SOL    HW132579   4.266   6.416   1.586
10560SOL    HW232580   4.348   6.362   1.716
10561SOL     OW32581   5.471   4.334   1.357
10561SOL    HW132582   5.569   4.330   1.340
10561SOL    HW232583   5.442   4.251   1.405
10562SOL     OW32584   3.029   7.027   1.686
10562SOL    HW132585   2.986   0.028   1.602
10562SOL    HW232586   3.119   0.038   1.696
10563SOL     OW32587   0.456   6.937   0.738
10563SOL    HW132588   0.379   6.889   0.696
10563SOL    HW232589   0.474   7.021   0.687
10564SOL     OW32590   6.676   5.538   4.343
10564SOL    HW132591   6.757   5.480   4.345
10564SOL    HW232592   6.667   5.581   4.253
10565SOL     OW32593   6.589   6.714   5.267
10565SOL    HW132594   6.622   6.709   5.173
10565SOL    HW232595   6.519   6.644   5.282
10566SOL     OW32596   2.824   2.372   6.868
10566SOL    HW132597   2.733   2.371   6.826
10566SOL    HW232598   2.873   2.289   6.842
10567SOL     OW32599   1.786   2.348   5.982
10567SOL    HW132600   1.856   2.286   5.948
10567SOL    HW232601   1.809   2.442   5.956
10568SOL     OW32602   5.475   2.961   6.498
10568SOL    HW132603   5.469   3.034   6.431
10568SOL    HW232604   5.425   2.986   6.581
10569SOL     OW32605   5.359   0.230   1.844
10569SOL    HW132606   5.297   0.224   1.766
10569SOL    HW232607   5.333   0.308   1.902
10570SOL     OW32608   0.322   5.067   3.802
10570SOL    HW132609   0.224   5.069   3.821
10570SOL    HW232610   0.336   5.060   3.703
10571SOL     OW32611   7.026   4.666   6.502
10571SOL    HW132612   6.985   4.701   6.418
10571SOL    HW232613   6.959   4.609   6.550
10572SOL     OW32614   6.836   4.479   1.522
10572SOL    HW132615   6.778   4.560   1.532
10572SOL    HW232616   6.826   4.443   1.430
10573SOL     OW32617   5.521   0.532   3.704
10573SOL    HW132618   5.435   0.545   3.655
10573SOL    HW232619   5.508   0.556   3.801
10574SOL     OW32620   6.632   0.555   3.477
10574SOL    HW132621   6.574   0.476   3.457
10574SOL    HW232622   6.726   0.536   3.449
10575SOL     OW32623   5.782   1.042   2.655
10575SOL    HW132624   5.852   1.108   2.627
10575SOL    HW232625   5.824   0.954   2.675
10576SOL     OW32626   2.460   4.972   3.028
10576SOL    HW132627   2.374   5.010   3.062
10576SOL    HW232628   2.479   4.886   3.076
10577SOL     OW32629   3.870   5.885   0.745
10577SOL    HW132630   3.886   5.983   0.735
10577SOL    HW232631   3.954   5.835   0.723
10578SOL     OW32632   6.475   2.149   3.783
10578SOL    HW132633   6.520   2.065   3.751
10578SOL    HW232634   6.434   2.131   3.872
10579SOL     OW32635   2.778   3.412   0.808
10579SOL    HW132636   2.717   3.360   0.867
10579SOL    HW232637   2.731   3.434   0.723
10580SOL     OW32638   6.273   6.817   6.427
10580SOL    HW132639   6.304   6.847   6.516
10580SOL    HW232640   6.346   6.829   6.360
10581SOL     OW32641   5.718   6.792   3.366
10581SOL    HW132642   5.760   6.865   3.422
10581SOL    HW232643   5.649   6.745   3.420
10582SOL     OW32644   5.367   4.441   6.773
10582SOL    HW132645   5.410   4.386   6.702
10582SOL    HW232646   5.405   4.418   6.862
10583SOL     OW32647   3.070   6.639   3.999
10583SOL    HW132648   3.080   6.540   3.989
10583SOL    HW232649   3.043   6.678   3.911
10584SOL     OW32650   6.629   0.369   5.411
10584SOL    HW132651   6.626   0.464   5.441
10584SOL    HW232652   6.720   0.331   5.430
10585SOL     OW32653   0.431   2.064   5.996
10585SOL    HW132654   0.434   2.163   6.006
10585SOL    HW232655   0.412   2.022   6.085
10586SOL     OW32656   4.902   4.307   5.497
10586SOL    HW132657   4.879   4.359   5.580
10586SOL    HW232658   4.818   4.281   5.450
10587SOL     OW32659   0.716   5.643   5.525
10587SOL    HW132660   0.644   5.711   5.538
10587SOL    HW232661   0.800   5.674   5.568
10588SOL     OW32662   1.171   3.317   4.175
10588SOL    HW132663   1.103   3.344   4.243
10588SOL    HW232664   1.127   3.265   4.101
10589SOL     OW32665   5.098   6.099   4.479
10589SOL    HW132666   5.150   6.014   4.484
10589SOL    HW232667   5.012   6.084   4.430
10590SOL     OW32668   0.711   6.201   1.788
10590SOL    HW132669   0.724   6.107   1.757
10590SOL    HW232670   0.723   6.264   1.711
10591SOL     OW32671   0.900   1.360   1.311
10591SOL    HW132672   0.905   1.418   1.230
10591SOL    HW232673   0.979   1.377   1.369
10592SOL     OW32674   5.940   2.346   5.174
10592SOL    HW132675   6.002   2.370   5.099
10592SOL    HW232676   5.874   2.419   5.187
10593SOL     OW32677   2.609   6.411   1.411
10593SOL    HW132678   2.567   6.442   1.326
10593SOL    HW232679   2.684   6.473   1.435
10594SOL     OW32680   4.000   0.888   3.295
10594SOL    HW132681   4.056   0.869   3.215
10594SOL    HW232682   3.908   0.851   3.281
10595SOL     OW32683   6.021   0.686   1.040
10595SOL    HW132684   5.962   0.692   0.960
10595SOL    HW232685   6.031   0.777   1.081
10596SOL     OW32686   5.026   1.926   6.627
10596SOL    HW132687   4.959   1.902   6.557
10596SOL    HW232688   4.996   2.010   6.673
10597SOL     OW32689   2.424   0.560   5.974
10597SOL    HW132690   2.470   0.474   5.953
10597SOL    HW232691   2.482   0.616   6.033
10598SOL     OW32692   2.750   1.841   5.995
10598SOL    HW132693   2.833   1.799   5.957
10598SOL    HW232694   2.722   1.918   5.937
10599SOL     OW32695   6.443   4.318   6.099
10599SOL    HW132696   6.380   4.249   6.062
10599SOL    HW232697   6.401   4.409   6.091
10600SOL     OW32698   2.730   1.582   1.959
10600SOL    HW132699   2.756   1.530   1.878
10600SOL    HW232700   2.631   1.582   1.969
10601SOL     OW32701   0.588   6.539   6.607
10601SOL    HW132702   0.534   6.572   6.684
10601SOL    HW232703   0.685   6.558   6.623
10602SOL     OW32704   0.242   0.141   6.855
10602SOL    HW132705   0.164   0.171   6.909
10602SOL    HW232706   0.298   0.220   6.830
10603SOL     OW32707   4.247   6.954   2.034
10603SOL    HW132708   4.168   6.942   1.973
10603SOL    HW232709   4.329   6.967   1.979
10604SOL     OW32710   0.234   6.821   4.755
10604SOL    HW132711   0.198   6.896   4.699
10604SOL    HW232712   0.223   6.735   4.706
10605SOL     OW32713   2.572   0.401   0.778
10605SOL    HW132714   2.512   0.403   0.699
10605SOL    HW232715   2.606   0.493   0.797
10606SOL     OW32716   5.824   0.872   1.523
10606SOL    HW132717   5.754   0.814   1.483
10606SOL    HW232718   5.914   0.833   1.504
10607SOL     OW32719   4.344   4.545   6.426
10607SOL    HW132720   4.437   4.568   6.398
10607SOL    HW232721   4.311   4.613   6.492
10608SOL     OW32722   6.361   2.699   3.263
10608SOL    HW132723   6.405   2.646   3.335
10608SOL    HW232724   6.416   2.779   3.241
10609SOL     OW32725   3.779   0.054   0.452
10609SOL    HW132726   3.802   0.149   0.475
10609SOL    HW232727   3.728   0.013   0.528
10610SOL     OW32728   6.955   1.701   4.582
10610SOL    HW132729   0.003   1.758   4.602
10610SOL    HW232730   6.970   1.652   4.496
10611SOL     OW32731   2.895   5.547   5.031
10611SOL    HW132732   2.969   5.567   5.095
10611SOL    HW232733   2.933   5.509   4.946
10612SOL     OW32734   5.359   1.379   3.794
10612SOL    HW132735   5.326   1.472   3.779
10612SOL    HW232736   5.305   1.315   3.740
10613SOL     OW32737   6.375   6.039   4.400
10613SOL    HW132738   6.337   5.959   4.353
10613SOL    HW232739   6.466   6.016   4.435
10614SOL     OW32740   5.570   0.419   6.070
10614SOL    HW132741   5.633   0.428   5.993
10614SOL    HW232742   5.622   0.419   6.155
10615SOL     OW32743   2.727   2.203   6.334
10615SOL    HW132744   2.637   2.187   6.375
10615SOL    HW232745   2.758   2.119   6.289
10616SOL     OW32746   3.488   5.744   6.259
10616SOL    HW132747   3.537   5.657   6.269
10616SOL    HW232748   3.452   5.772   6.347
10617SOL     OW32749   2.745   3.576   1.615
10617SOL    HW132750   2.828   3.546   1.569
10617SOL    HW232751   2.689   3.497   1.638
10618SOL     OW32752   0.020   5.444   5.268
10618SOL    HW132753   0.013   5.353   5.228
10618SOL    HW232754   0.067   5.505   5.204
10619SOL     OW32755   0.351   1.706   2.851
10619SOL    HW132756   0.319   1.697   2.945
10619SOL    HW232757   0.273   1.715   2.790
10620SOL     OW32758   2.255   0.031   5.769
10620SOL    HW132759   2.248   6.998   5.693
10620SOL    HW232760   2.245   7.013   5.856
10621SOL     OW32761   1.331   3.798   2.914
10621SOL    HW132762   1.358   3.850   2.995
10621SOL    HW232763   1.365   3.844   2.832
10622SOL     OW32764   4.509   3.121   0.984
10622SOL    HW132765   4.466   3.031   0.991
10622SOL    HW232766   4.549   3.133   0.893
10623SOL     OW32767   5.966   6.198   5.783
10623SOL    HW132768   5.992   6.245   5.698
10623SOL    HW232769   5.889   6.136   5.764
10624SOL     OW32770   0.981   2.788   5.212
10624SOL    HW132771   1.031   2.733   5.145
10624SOL    HW232772   0.948   2.872   5.168
10625SOL     OW32773   6.983   3.902   0.095
10625SOL    HW132774   6.938   3.813   0.085
10625SOL    HW232775   0.048   3.892   0.074
10626SOL     OW32776   3.803   2.904   1.901
10626SOL    HW132777   3.850   2.882   1.815
10626SOL    HW232778   3.720   2.850   1.907
10627SOL     OW32779   5.612   7.026   5.821
10627SOL    HW132780   5.562   0.030   5.899
10627SOL    HW232781   5.548   6.996   5.751
10628SOL     OW32782   4.020   0.682   0.399
10628SOL    HW132783   4.066   0.607   0.446
10628SOL    HW232784   4.079   0.715   0.325
10629SOL     OW32785   3.524   5.464   5.013
10629SOL    HW132786   3.505   5.490   4.918
10629SOL    HW232787   3.504   5.367   5.026
10630SOL     OW32788   4.538   0.807   2.653
10630SOL    HW132789   4.530   0.707   2.651
10630SOL    HW232790   4.450   0.848   2.629
10631SOL     OW32791   4.804   5.315   6.840
10631SOL    HW132792   4.831   5.356   6.753
10631SOL    HW232793   4.767   5.385   6.901
10632SOL     OW32794   5.092   5.879   3.267
10632SOL    HW132795   5.028   5.821   3.218
10632SOL    HW232796   5.044   5.926   3.341
10633SOL     OW32797   1.859   2.870   1.754
10633SOL    HW132798   1.889   2.941   1.689
10633SOL    HW232799   1.939   2.822   1.789
10634SOL     OW32800   1.431   5.055   6.546
10634SOL    HW132801   1.451   5.097   6.457
10634SOL    HW232802   1.466   4.961   6.547
10635SOL     OW32803   2.129   3.531   0.153
10635SOL    HW132804   2.197   3.458   0.156
10635SOL    HW232805   2.173   3.618   0.173
10636SOL     OW32806   6.832   2.618   0.100
10636SOL    HW132807   6.761   2.603   0.030
10636SOL    HW232808   6.922   2.601   0.060
10637SOL     OW32809   2.799   6.069   6.627
10637SOL    HW132810   2.834   6.114   6.546
10637SOL    HW232811   2.720   6.119   6.662
10638SOL     OW32812   6.686   5.835   2.029
10638SOL    HW132813   6.775   5.789   2.026
10638SOL    HW232814   6.687   5.914   1.968
10639SOL     OW32815   2.267   3.636   1.690
10639SOL    HW132816   2.303   3.580   1.764
10639SOL    HW232817   2.341   3.660   1.627
10640SOL     OW32818   3.945   0.712   3.584
10640SOL    HW132819   3.996   0.648   3.528
10640SOL    HW232820   4.008   0.766   3.640
10641SOL     OW32821   1.424   0.568   3.456
10641SOL    HW132822   1.336   0.616   3.450
10641SOL    HW232823   1.408   0.469   3.462
10642SOL     OW32824   6.674   2.710   0.290
10642SOL    HW132825   6.680   2.680   0.385
10642SOL    HW232826   6.746   2.668   0.236
10643SOL     OW32827   2.181   5.459   5.066
10643SOL    HW132828   2.232   5.404   5.133
10643SOL    HW232829   2.200   5.556   5.081
10644SOL     OW32830   6.092   2.766   1.950
10644SOL    HW132831   6.116   2.862   1.956
10644SOL    HW232832   5.999   2.757   1.914
10645SOL     OW32833   1.959   3.045   3.666
10645SOL    HW132834   1.937   2.973   3.733
10645SOL    HW232835   1.898   3.123   3.681
10646SOL     OW32836   5.107   1.288   4.445
10646SOL    HW132837   5.167   1.294   4.525
10646SOL    HW232838   5.091   1.192   4.423
10647SOL     OW32839   4.122   5.433   5.523
10647SOL    HW132840   4.163   5.523   5.509
10647SOL    HW232841   4.098   5.393   5.435
10648SOL     OW32842   6.182   5.261   6.274
10648SOL    HW132843   6.240   5.311   6.339
10648SOL    HW232844   6.112   5.322   6.238
10649SOL     OW32845   0.378   3.197   3.715
10649SOL    HW132846   0.471   3.173   3.743
10649SOL    HW232847   0.316   3.121   3.737
10650SOL     OW32848   0.119   0.280   4.118
10650SOL    HW132849   0.191   0.217   4.086
10650SOL    HW232850   0.031   0.233   4.115
10651SOL     OW32851   5.429   6.749   6.296
10651SOL    HW132852   5.388   6.681   6.236
10651SOL    HW232853   5.528   6.754   6.279
10652SOL     OW32854   1.565   6.656   6.361
10652SOL    HW132855   1.489   6.596   6.335
10652SOL    HW232856   1.534   6.724   6.427
10653SOL     OW32857   4.016   6.174   4.596
10653SOL    HW132858   4.055   6.160   4.688
10653SOL    HW232859   3.918   6.194   4.604
10654SOL     OW32860   5.167   1.582   4.086
10654SOL    HW132861   5.068   1.589   4.094
10654SOL    HW232862   5.200   1.648   4.019
10655SOL     OW32863   1.983   4.573   1.374
10655SOL    HW132864   1.956   4.637   1.303
10655SOL    HW232865   1.935   4.594   1.459
10656SOL     OW32866   6.169   1.351   2.474
10656SOL    HW132867   6.255   1.355   2.525
10656SOL    HW232868   6.190   1.347   2.376
10657SOL     OW32869   5.858   0.711   4.518
10657SOL    HW132870   5.951   0.703   4.484
10657SOL    HW232871   5.852   0.671   4.610
10658SOL     OW32872   5.944   3.961   5.456
10658SOL    HW132873   6.011   3.895   5.421
10658SOL    HW232874   5.874   3.912   5.508
10659SOL     OW32875   1.114   4.825   0.821
10659SOL    HW132876   1.114   4.919   0.854
10659SOL    HW232877   1.162   4.820   0.733
10660SOL     OW32878   6.099   3.499   5.840
10660SOL    HW132879   6.101   3.483   5.741
10660SOL    HW232880   6.047   3.583   5.858
10661SOL     OW32881   1.624   4.718   0.413
10661SOL    HW132882   1.632   4.817   0.415
10661SOL    HW232883   1.581   4.686   0.497
10662SOL     OW32884   3.360   1.270   2.271
10662SOL    HW132885   3.454   1.269   2.307
10662SOL    HW232886   3.362   1.255   2.172
10663SOL     OW32887   1.231   1.436   3.688
10663SOL    HW132888   1.281   1.350   3.701
10663SOL    HW232889   1.195   1.438   3.594
10664SOL     OW32890   0.782   5.304   4.557
10664SOL    HW132891   0.712   5.241   4.524
10664SOL    HW232892   0.839   5.258   4.625
10665SOL     OW32893   2.169   2.799   6.995
10665SOL    HW132894   2.182   2.756   0.052
10665SOL    HW232895   2.258   2.829   6.960
10666SOL     OW32896   3.719   3.402   2.096
10666SOL    HW132897   3.642   3.374   2.039
10666SOL    HW232898   3.804   3.370   2.055
10667SOL     OW32899   4.814   1.040   3.549
10667SOL    HW132900   4.774   1.065   3.636
10667SOL    HW232901   4.911   1.064   3.549
10668SOL     OW32902   3.242   1.881   5.608
10668SOL    HW132903   3.208   1.954   5.548
10668SOL    HW232904   3.191   1.796   5.589
10669SOL     OW32905   5.831   0.660   0.842
10669SOL    HW132906   5.805   0.568   0.871
10669SOL    HW232907   5.749   0.717   0.836
10670SOL     OW32908   5.348   3.978   4.559
10670SOL    HW132909   5.363   3.944   4.466
10670SOL    HW232910   5.426   4.033   4.587
10671SOL     OW32911   1.020   1.492   4.411
10671SOL    HW132912   1.094   1.425   4.396
10671SOL    HW232913   1.034   1.571   4.353
10672SOL     OW32914   6.335   4.248   1.591
10672SOL    HW132915   6.373   4.239   1.683
10672SOL    HW232916   6.236   4.239   1.595
10673SOL     OW32917   2.101   0.013   0.680
10673SOL    HW132918   2.099   0.060   0.591
10673SOL    HW232919   2.164   0.061   0.741
10674SOL     OW32920   4.159   3.625   4.359
10674SOL    HW132921   4.157   3.526   4.371
10674SOL    HW232922   4.139   3.648   4.264
10675SOL     OW32923   3.277   0.955   6.321
10675SOL    HW132924   3.251   0.879   6.381
10675SOL    HW232925   3.279   1.039   6.375
10676SOL     OW32926   6.810   5.740   4.684
10676SOL    HW132927   6.857   5.766   4.768
10676SOL    HW232928   6.787   5.642   4.687
10677SOL     OW32929   1.322   0.909   1.009
10677SOL    HW132930   1.277   0.991   0.973
10677SOL    HW232931   1.420   0.929   1.022
10678SOL     OW32932   4.323   4.874   3.754
10678SOL    HW132933   4.403   4.934   3.760
10678SOL    HW232934   4.338   4.794   3.812
10679SOL     OW32935   3.923   5.200   6.924
10679SOL    HW132936   3.962   5.284   6.961
10679SOL    HW232937   3.916   5.132   6.997
10680SOL     OW32938   3.717   1.681   4.060
10680SOL    HW132939   3.707   1.671   4.159
10680SOL    HW232940   3.702   1.776   4.034
10681SOL     OW32941   0.257   3.540   7.006
10681SOL    HW132942   0.271   3.639   7.014
10681SOL    HW232943   0.260   3.498   0.065
10682SOL     OW32944   0.117   3.214   4.917
10682SOL    HW132945   0.044   3.150   4.893
10682SOL    HW232946   0.195   3.200   4.858
10683SOL     OW32947   4.428   0.727   3.647
10683SOL    HW132948   4.463   0.668   3.719
10683SOL    HW232949   4.339   0.765   3.674
10684SOL     OW32950   4.257   5.348   1.613
10684SOL    HW132951   4.264   5.392   1.523
10684SOL    HW232952   4.343   5.359   1.662
10685SOL     OW32953   0.062   5.826   0.929
10685SOL    HW132954   0.000   5.794   0.856
10685SOL    HW232955   0.149   5.776   0.922
10686SOL     OW32956   2.447   4.368   6.422
10686SOL    HW132957   2.525   4.307   6.436
10686SOL    HW232958   2.423   4.368   6.325
10687SOL     OW32959   6.236   4.676   3.604
10687SOL    HW132960   6.171   4.707   3.673
10687SOL    HW232961   6.198   4.693   3.513
10688SOL     OW32962   5.450   2.011   2.637
10688SOL    HW132963   5.366   2.037   2.684
10688SOL    HW232964   5.505   1.953   2.696
10689SOL     OW32965   6.979   6.884   1.278
10689SOL    HW132966   6.887   6.922   1.282
10689SOL    HW232967   6.977   6.789   1.308
10690SOL     OW32968   0.104   5.121   3.440
10690SOL    HW132969   0.082   5.139   3.536
10690SOL    HW232970   0.073   5.029   3.415
10691SOL     OW32971   1.863   1.380   1.722
10691SOL    HW132972   1.838   1.473   1.696
10691SOL    HW232973   1.852   1.320   1.642
10692SOL     OW32974   2.892   0.500   4.698
10692SOL    HW132975   2.906   0.521   4.795
10692SOL    HW232976   2.878   0.402   4.687
10693SOL     OW32977   0.825   6.291   1.539
10693SOL    HW132978   0.910   6.344   1.549
10693SOL    HW232979   0.773   6.326   1.461
10694SOL     OW32980   5.184   6.976   6.742
10694SOL    HW132981   5.138   6.961   6.655
10694SOL    HW232982   5.173   0.039   6.770
10695SOL     OW32983   0.907   2.462   1.186
10695SOL    HW132984   0.868   2.402   1.116
10695SOL    HW232985   0.907   2.415   1.274
10696SOL     OW32986   6.437   3.608   4.813
10696SOL    HW132987   6.478   3.601   4.722
10696SOL    HW232988   6.356   3.665   4.808
10697SOL     OW32989   6.985   6.900   5.619
10697SOL    HW132990   6.921   6.860   5.554
10697SOL    HW232991   6.944   6.982   5.660
10698SOL     OW32992   4.672   4.068   0.450
10698SOL    HW132993   4.710   4.149   0.494
10698SOL    HW232994   4.691   3.988   0.506
10699SOL     OW32995   3.725   4.765   0.817
10699SOL    HW132996   3.650   4.705   0.790
10699SOL    HW232997   3.716   4.852   0.768
10700SOL     OW32998   5.427   6.951   0.654
10700SOL    HW132999   5.373   7.031   0.680
10700SOL    HW233000   5.424   6.940   0.554
10701SOL     OW33001   3.434   0.047   6.365
10701SOL    HW133002   3.337   0.037   6.389
10701SOL    HW233003   3.455   7.021   6.286
10702SOL     OW33004   5.100   3.505   2.486
10702SOL    HW133005   5.186   3.475   2.447
10702SOL    HW233006   5.026   3.493   2.419
10703SOL     OW33007   1.916   2.724   5.660
10703SOL    HW133008   2.013   2.740   5.677
10703SOL    HW233009   1.897   2.734   5.563
10704SOL     OW33010   7.021   4.963   2.736
10704SOL    HW133011   7.021   4.969   2.637
10704SOL    HW233012   0.081   4.984   2.771
10705SOL     OW33013   5.504   5.436   1.580
10705SOL    HW133014   5.457   5.368   1.638
10705SOL    HW233015   5.597   5.404   1.561
10706SOL     OW33016   3.821   0.045   2.022
10706SOL    HW133017   3.768   6.992   2.018
10706SOL    HW233018   3.907   0.033   1.972
10707SOL     OW33019   0.747   6.743   4.076
10707SOL    HW133020   0.652   6.774   4.064
10707SOL    HW233021   0.789   6.794   4.150
10708SOL     OW33022   4.112   1.291   1.476
10708SOL    HW133023   4.080   1.215   1.420
10708SOL    HW233024   4.202   1.321   1.443
10709SOL     OW33025   5.425   4.957   5.184
10709SOL    HW133026   5.420   4.969   5.283
10709SOL    HW233027   5.517   4.979   5.152
10710SOL     OW33028   6.130   1.011   3.846
10710SOL    HW133029   6.133   1.111   3.847
10710SOL    HW233030   6.064   0.980   3.777
10711SOL     OW33031   2.070   6.489   3.995
10711SOL    HW133032   2.058   6.583   4.027
10711SOL    HW233033   2.073   6.427   4.073
10712SOL     OW33034   3.160   0.300   2.738
10712SOL    HW133035   3.196   0.386   2.702
10712SOL    HW233036   3.146   0.310   2.837
10713SOL     OW33037   0.713   2.845   1.060
10713SOL    HW133038   0.670   2.771   1.009
10713SOL    HW233039   0.644   2.889   1.119
10714SOL     OW33040   4.345   3.233   5.627
10714SOL    HW133041   4.383   3.213   5.537
10714SOL    HW233042   4.338   3.332   5.639
10715SOL     OW33043   4.651   0.118   1.884
10715SOL    HW133044   4.687   0.101   1.976
10715SOL    HW233045   4.695   0.200   1.847
10716SOL     OW33046   5.920   3.058   3.435
10716SOL    HW133047   5.921   2.977   3.494
10716SOL    HW233048   5.977   3.130   3.475
10717SOL     OW33049   1.972   3.039   1.273
10717SOL    HW133050   2.063   3.008   1.246
10717SOL    HW233051   1.906   3.014   1.202
10718SOL     OW33052   0.979   3.558   7.010
10718SOL    HW133053   1.071   3.564   6.973
10718SOL    HW233054   0.922   3.630   6.970
10719SOL     OW33055   6.998   5.404   2.773
10719SOL    HW133056   0.053   5.359   2.791
10719SOL    HW233057   6.927   5.336   2.755
10720SOL     OW33058   6.497   4.972   4.912
10720SOL    HW133059   6.513   4.976   5.011
10720SOL    HW233060   6.495   4.876   4.882
10721SOL     OW33061   5.200   3.634   5.457
10721SOL    HW133062   5.182   3.539   5.481
10721SOL    HW233063   5.287   3.663   5.498
10722SOL     OW33064   0.601   5.011   1.096
10722SOL    HW133065   0.615   4.914   1.078
10722SOL    HW233066   0.576   5.024   1.192
10723SOL     OW33067   0.293   2.714   6.081
10723SOL    HW133068   0.373   2.688   6.028
10723SOL    HW233069   0.305   2.682   6.176
10724SOL     OW33070   5.952   7.028   6.213
10724SOL    HW133071   5.852   7.030   6.201
10724SOL    HW233072   5.984   6.933   6.208
10725SOL     OW33073   1.715   6.095   5.089
10725SOL    HW133074   1.760   6.034   5.025
10725SOL    HW233075   1.684   6.177   5.041
10726SOL     OW33076   5.806   0.879   3.915
10726SOL    HW133077   5.845   0.914   4.000
10726SOL    HW233078   5.820   0.946   3.842
10727SOL     OW33079   0.615   5.265   5.543
10727SOL    HW133080   0.627   5.352   5.494
10727SOL    HW233081   0.697   5.209   5.531
10728SOL     OW33082   2.007   5.064   6.553
10728SOL    HW133083   2.054   5.138   6.505
10728SOL    HW233084   1.935   5.028   6.494
10729SOL     OW33085   5.290   1.278   3.236
10729SOL    HW133086   5.229   1.331   3.176
10729SOL    HW233087   5.382   1.317   3.233
10730SOL     OW33088   1.932   0.543   0.940
10730SOL    HW133089   2.031   0.547   0.932
10730SOL    HW233090   1.893   0.635   0.931
10731SOL     OW33091   3.406   1.217   0.935
10731SOL    HW133092   3.309   1.194   0.939
10731SOL    HW233093   3.455   1.144   0.887
10732SOL     OW33094   6.950   4.410   5.112
10732SOL    HW133095   6.945   4.504   5.078
10732SOL    HW233096   6.887   4.400   5.190
10733SOL     OW33097   6.887   1.763   6.740
10733SOL    HW133098   6.839   1.770   6.652
10733SOL    HW233099   6.820   1.759   6.814
10734SOL     OW33100   0.982   0.671   0.065
10734SOL    HW133101   0.993   0.578   0.100
10734SOL    HW233102   1.070   0.718   0.069
10735SOL     OW33103   0.108   2.908   2.344
10735SOL    HW133104   0.142   2.977   2.408
10735SOL    HW233105   0.183   2.879   2.284
10736SOL     OW33106   1.238   0.449   3.810
10736SOL    HW133107   1.262   0.530   3.863
10736SOL    HW233108   1.280   0.368   3.852
10737SOL     OW33109   1.074   1.732   6.795
10737SOL    HW133110   0.991   1.692   6.755
10737SOL    HW233111   1.114   1.667   6.859
10738SOL     OW33112   2.581   0.126   2.876
10738SOL    HW133113   2.602   0.150   2.971
10738SOL    HW233114   2.482   0.130   2.862
10739SOL     OW33115   1.690   1.128   0.981
10739SOL    HW133116   1.655   1.038   0.954
10739SOL    HW233117   1.615   1.194   0.978
10740SOL     OW33118   0.548   5.201   4.730
10740SOL    HW133119   0.486   5.155   4.793
10740SOL    HW233120   0.573   5.138   4.656
10741SOL     OW33121   4.515   1.033   1.142
10741SOL    HW133122   4.534   1.070   1.233
10741SOL    HW233123   4.583   0.965   1.118
10742SOL     OW33124   5.527   6.818   1.440
10742SOL    HW133125   5.596   6.845   1.373
10742SOL    HW233126   5.527   6.884   1.516
10743SOL     OW33127   1.357   1.888   5.421
10743SOL    HW133128   1.409   1.814   5.464
10743SOL    HW233129   1.293   1.926   5.486
10744SOL     OW33130   3.129   1.477   1.114
10744SOL    HW133131   3.225   1.460   1.136
10744SOL    HW233132   3.076   1.393   1.126
10745SOL     OW33133   6.846   5.642   6.037
10745SOL    HW133134   6.757   5.633   5.991
10745SOL    HW233135   6.860   5.565   6.099
10746SOL     OW33136   2.511   4.419   1.181
10746SOL    HW133137   2.514   4.332   1.131
10746SOL    HW233138   2.604   4.456   1.189
10747SOL     OW33139   4.092   1.443   4.482
10747SOL    HW133140   4.094   1.396   4.570
10747SOL    HW233141   4.166   1.409   4.424
10748SOL     OW33142   5.547   1.196   0.571
10748SOL    HW133143   5.569   1.139   0.491
10748SOL    HW233144   5.522   1.288   0.540
10749SOL     OW33145   0.033   5.580   3.500
10749SOL    HW133146   0.093   5.507   3.469
10749SOL    HW233147   0.077   5.630   3.575
10750SOL     OW33148   4.606   6.097   4.062
10750SOL    HW133149   4.530   6.033   4.072
10750SOL    HW233150   4.630   6.134   4.152
10751SOL     OW33151   2.058   4.751   4.742
10751SOL    HW133152   2.094   4.748   4.649
10751SOL    HW233153   2.046   4.846   4.770
10752SOL     OW33154   6.339   4.835   5.490
10752SOL    HW133155   6.366   4.765   5.555
10752SOL    HW233156   6.239   4.843   5.489
10753SOL     OW33157   5.584   4.557   4.603
10753SOL    HW133158   5.646   4.530   4.530
10753SOL    HW233159   5.613   4.645   4.640
10754SOL     OW33160   0.615   0.315   3.241
10754SOL    HW133161   0.714   0.314   3.250
10754SOL    HW233162   0.588   0.382   3.171
10755SOL     OW33163   6.859   0.604   0.722
10755SOL    HW133164   6.866   0.704   0.733
10755SOL    HW233165   6.773   0.572   0.759
10756SOL     OW33166   6.446   5.162   6.651
10756SOL    HW133167   6.365   5.124   6.696
10756SOL    HW233168   6.424   5.254   6.617
10757SOL     OW33169   1.653   2.457   0.313
10757SOL    HW133170   1.679   2.392   0.242
10757SOL    HW233171   1.690   2.428   0.401
10758SOL     OW33172   0.791   5.881   4.763
10758SOL    HW133173   0.695   5.855   4.753
10758SOL    HW233174   0.837   5.817   4.825
10759SOL     OW33175   1.919   3.351   1.824
10759SOL    HW133176   1.947   3.342   1.728
10759SOL    HW233177   1.921   3.447   1.851
10760SOL     OW33178   5.259   0.309   2.264
10760SOL    HW133179   5.190   0.381   2.252
10760SOL    HW233180   5.342   0.349   2.304
10761SOL     OW33181   0.388   6.126   5.814
10761SOL    HW133182   0.457   6.057   5.837
10761SOL    HW233183   0.373   6.127   5.715
10762SOL     OW33184   3.153   2.070   4.285
10762SOL    HW133185   3.082   2.000   4.282
10762SOL    HW233186   3.156   2.111   4.376
10763SOL     OW33187   4.533   6.686   2.781
10763SOL    HW133188   4.493   6.757   2.723
10763SOL    HW233189   4.542   6.720   2.874
10764SOL     OW33190   5.347   2.111   5.820
10764SOL    HW133191   5.409   2.122   5.899
10764SOL    HW233192   5.395   2.137   5.736
10765SOL     OW33193   5.356   2.469   0.536
10765SOL    HW133194   5.278   2.516   0.577
10765SOL    HW233195   5.354   2.372   0.563
10766SOL     OW33196   4.149   4.918   0.693
10766SOL    HW133197   4.199   4.999   0.726
10766SOL    HW233198   4.173   4.839   0.751
10767SOL     OW33199   1.969   0.125   0.998
10767SOL    HW133200   1.881   0.079   1.005
10767SOL    HW233201   2.034   0.081   1.061
10768SOL     OW33202   5.285   5.256   1.127
10768SOL    HW133203   5.303   5.184   1.194
10768SOL    HW233204   5.224   5.221   1.057
10769SOL     OW33205   2.142   4.011   5.258
10769SOL    HW133206   2.225   3.991   5.207
10769SOL    HW233207   2.123   3.937   5.322
10770SOL     OW33208   5.371   6.530   4.393
10770SOL    HW133209   5.328   6.542   4.304
10770SOL    HW233210   5.411   6.438   4.399
10771SOL     OW33211   5.281   0.084   3.225
10771SOL    HW133212   5.186   0.114   3.234
10771SOL    HW233213   5.340   0.142   3.281
10772SOL     OW33214   6.265   0.232   4.163
10772SOL    HW133215   6.340   0.277   4.113
10772SOL    HW233216   6.273   0.133   4.151
10773SOL     OW33217   5.854   5.288   6.447
10773SOL    HW133218   5.829   5.334   6.533
10773SOL    HW233219   5.772   5.275   6.392
10774SOL     OW33220   2.418   1.808   6.181
10774SOL    HW133221   2.460   1.751   6.110
10774SOL    HW233222   2.403   1.753   6.263
10775SOL     OW33223   0.250   4.564   2.331
10775SOL    HW133224   0.242   4.661   2.354
10775SOL    HW233225   0.220   4.509   2.409
10776SOL     OW33226   0.498   0.886   6.212
10776SOL    HW133227   0.490   0.984   6.229
10776SOL    HW233228   0.595   0.861   6.209
10777SOL     OW33229   4.122   5.474   2.109
10777SOL    HW133230   4.219   5.496   2.110
10777SOL    HW233231   4.109   5.379   2.082
10778SOL     OW33232   4.532   0.033   3.997
10778SOL    HW133233   4.494   0.039   3.904
10778SOL    HW233234   4.472   0.081   4.060
10779SOL     OW33235   5.980   2.765   3.532
10779SOL    HW133236   6.028   2.685   3.496
10779SOL    HW233237   5.900   2.784   3.476
10780SOL     OW33238   1.977   0.563   4.302
10780SOL    HW133239   1.923   0.483   4.329
10780SOL    HW233240   1.915   0.638   4.277
10781SOL     OW33241   4.568   1.449   4.419
10781SOL    HW133242   4.593   1.436   4.515
10781SOL    HW233243   4.599   1.371   4.365
10782SOL     OW33244   6.972   0.747   2.817
10782SOL    HW133245   6.914   0.699   2.883
10782SOL    HW233246   6.931   0.837   2.797
10783SOL     OW33247   0.680   1.902   2.592
10783SOL    HW133248   0.723   1.966   2.528
10783SOL    HW233249   0.749   1.871   2.659
10784SOL     OW33250   4.063   6.947   4.151
10784SOL    HW133251   4.027   7.018   4.212
10784SOL    HW233252   3.987   6.895   4.112
10785SOL     OW33253   0.639   4.390   0.425
10785SOL    HW133254   0.706   4.451   0.468
10785SOL    HW233255   0.547   4.423   0.444
10786SOL     OW33256   6.227   4.833   3.093
10786SOL    HW133257   6.281   4.796   3.169
10786SOL    HW233258   6.214   4.763   3.023
10787SOL     OW33259   1.732   1.415   5.943
10787SOL    HW133260   1.640   1.408   5.904
10787SOL    HW233261   1.727   1.405   6.042
10788SOL     OW33262   1.490   4.050   0.452
10788SOL    HW133263   1.554   4.127   0.451
10788SOL    HW233264   1.402   4.079   0.413
10789SOL     OW33265   6.443   3.782   6.657
10789SOL    HW133266   6.376   3.784   6.731
10789SOL    HW233267   6.398   3.757   6.571
10790SOL     OW33268   1.028   0.263   2.111
10790SOL    HW133269   1.091   0.185   2.123
10790SOL    HW233270   1.067   0.327   2.045
10791SOL     OW33271   0.366   5.831   1.798
10791SOL    HW133272   0.362   5.752   1.859
10791SOL    HW233273   0.284   5.887   1.811
10792SOL     OW33274   3.208   2.924   4.999
10792SOL    HW133275   3.116   2.940   5.034
10792SOL    HW233276   3.219   2.972   4.912
10793SOL     OW33277   6.014   3.532   6.267
10793SOL    HW133278   5.944   3.529   6.338
10793SOL    HW233279   6.026   3.441   6.228
10794SOL     OW33280   3.978   3.709   4.613
10794SOL    HW133281   4.035   3.676   4.537
10794SOL    HW233282   3.984   3.644   4.689
10795SOL     OW33283   6.796   5.189   2.780
10795SOL    HW133284   6.859   5.112   2.791
10795SOL    HW233285   6.782   5.234   2.868
10796SOL     OW33286   6.818   6.758   5.433
10796SOL    HW133287   6.723   6.734   5.414
10796SOL    HW233288   6.870   6.674   5.452
10797SOL     OW33289   2.832   2.328   1.375
10797SOL    HW133290   2.856   2.369   1.287
10797SOL    HW233291   2.739   2.353   1.401
10798SOL     OW33292   2.930   0.585   0.252
10798SOL    HW133293   2.886   0.675   0.253
10798SOL    HW233294   2.893   0.531   0.176
10799SOL     OW33295   4.290   1.192   2.107
10799SOL    HW133296   4.361   1.233   2.165
10799SOL    HW233297   4.208   1.249   2.110
10800SOL     OW33298   0.656   6.544   5.439
10800SOL    HW133299   0.573   6.494   5.415
10800SOL    HW233300   0.668   6.621   5.377
10801SOL     OW33301   1.057   7.016   6.811
10801SOL    HW133302   1.024   6.924   6.832
10801SOL    HW233303   1.144   0.000   6.858
10802SOL     OW33304   0.389   0.133   2.293
10802SOL    HW133305   0.341   0.048   2.271
10802SOL    HW233306   0.478   0.110   2.333
10803SOL     OW33307   1.403   5.654   5.443
10803SOL    HW133308   1.431   5.652   5.347
10803SOL    HW233309   1.467   5.601   5.498
10804SOL     OW33310   5.833   3.519   2.891
10804SOL    HW133311   5.885   3.458   2.831
10804SOL    HW233312   5.757   3.559   2.839
10805SOL     OW33313   4.809   0.494   5.360
10805SOL    HW133314   4.763   0.556   5.297
10805SOL    HW233315   4.879   0.545   5.411
10806SOL     OW33316   3.881   4.037   5.987
10806SOL    HW133317   3.869   3.939   6.001
10806SOL    HW233318   3.966   4.054   5.937
10807SOL     OW33319   1.439   6.402   3.729
10807SOL    HW133320   1.362   6.339   3.727
10807SOL    HW233321   1.407   6.496   3.717
10808SOL     OW33322   0.449   3.081   5.833
10808SOL    HW133323   0.501   3.095   5.917
10808SOL    HW233324   0.414   3.169   5.801
10809SOL     OW33325   2.420   4.357   3.954
10809SOL    HW133326   2.470   4.288   4.007
10809SOL    HW233327   2.330   4.371   3.994
10810SOL     OW33328   0.248   0.372   4.368
10810SOL    HW133329   0.231   0.316   4.449
10810SOL    HW233330   0.195   0.336   4.291
10811SOL     OW33331   4.857   4.728   5.271
10811SOL    HW133332   4.936   4.686   5.225
10811SOL    HW233333   4.774   4.678   5.246
10812SOL     OW33334   0.296   3.600   0.360
10812SOL    HW133335   0.355   3.559   0.430
10812SOL    HW233336   0.347   3.671   0.311
10813SOL     OW33337   0.822   3.600   6.175
10813SOL    HW133338   0.886   3.531   6.142
10813SOL    HW233339   0.746   3.609   6.111
10814SOL     OW33340   2.316   0.186   0.066
10814SOL    HW133341   2.266   0.207   7.014
10814SOL    HW233342   2.295   0.253   0.136
10815SOL     OW33343   5.002   3.037   3.075
10815SOL    HW133344   4.967   3.107   3.011
10815SOL    HW233345   5.079   2.990   3.033
10816SOL     OW33346   3.282   3.089   3.003
10816SOL    HW133347   3.335   3.027   2.946
10816SOL    HW233348   3.210   3.132   2.948
10817SOL     OW33349   3.846   0.240   3.765
10817SOL    HW133350   3.815   0.301   3.692
10817SOL    HW233351   3.923   0.185   3.733
10818SOL     OW33352   4.732   3.941   5.720
10818SOL    HW133353   4.669   3.864   5.731
10818SOL    HW233354   4.679   4.026   5.712
10819SOL     OW33355   6.008   5.210   6.864
10819SOL    HW133356   5.943   5.170   6.929
10819SOL    HW233357   6.072   5.139   6.833
10820SOL     OW33358   0.191   5.135   4.215
10820SOL    HW133359   0.285   5.118   4.246
10820SOL    HW233360   0.193   5.194   4.134
10821SOL     OW33361   4.200   6.980   3.278
10821SOL    HW133362   4.156   7.026   3.200
10821SOL    HW233363   4.238   6.893   3.247
10822SOL     OW33364   6.239   1.670   2.371
10822SOL    HW133365   6.144   1.694   2.389
10822SOL    HW233366   6.298   1.714   2.438
10823SOL     OW33367   0.758   0.431   2.663
10823SOL    HW133368   0.728   0.391   2.750
10823SOL    HW233369   0.687   0.420   2.594
10824SOL     OW33370   0.121   0.900   2.495
10824SOL    HW133371   0.083   0.816   2.535
10824SOL    HW233372   0.076   0.918   2.407
10825SOL     OW33373   2.063   1.880   0.226
10825SOL    HW133374   2.062   1.794   0.276
10825SOL    HW233375   2.085   1.863   0.130
10826SOL     OW33376   1.054   1.316   2.648
10826SOL    HW133377   1.068   1.297   2.745
10826SOL    HW233378   1.023   1.234   2.601
10827SOL     OW33379   0.106   3.375   4.667
10827SOL    HW133380   0.181   3.311   4.683
10827SOL    HW233381   0.093   3.388   4.569
10828SOL     OW33382   1.733   4.357   0.852
10828SOL    HW133383   1.737   4.260   0.874
10828SOL    HW233384   1.770   4.411   0.927
10829SOL     OW33385   4.925   2.804   0.056
10829SOL    HW133386   4.951   2.891   0.015
10829SOL    HW233387   4.964   2.798   0.148
10830SOL     OW33388   4.512   1.774   3.320
10830SOL    HW133389   4.434   1.741   3.268
10830SOL    HW233390   4.516   1.874   3.316
10831SOL     OW33391   2.973   6.495   1.918
10831SOL    HW133392   2.942   6.589   1.925
10831SOL    HW233393   2.948   6.446   2.002
10832SOL     OW33394   6.682   3.685   6.556
10832SOL    HW133395   6.590   3.704   6.591
10832SOL    HW233396   6.703   3.750   6.483
10833SOL     OW33397   0.843   1.825   0.507
10833SOL    HW133398   0.935   1.843   0.543
10833SOL    HW233399   0.776   1.838   0.580
10834SOL     OW33400   6.282   1.741   0.055
10834SOL    HW133401   6.300   1.647   0.027
10834SOL    HW233402   6.255   1.742   0.152
10835SOL     OW33403   5.374   3.794   0.160
10835SOL    HW133404   5.322   3.737   0.097
10835SOL    HW233405   5.471   3.793   0.133
10836SOL     OW33406   0.549   1.326   2.713
10836SOL    HW133407   0.561   1.376   2.627
10836SOL    HW233408   0.630   1.340   2.771
10837SOL     OW33409   6.759   4.888   1.933
10837SOL    HW133410   6.805   4.975   1.921
10837SOL    HW233411   6.758   4.839   1.846
10838SOL     OW33412   5.891   6.561   3.880
10838SOL    HW133413   5.949   6.599   3.951
10838SOL    HW233414   5.870   6.632   3.812
10839SOL     OW33415   4.345   3.805   0.857
10839SOL    HW133416   4.274   3.847   0.800
10839SOL    HW233417   4.349   3.707   0.839
10840SOL     OW33418   3.520   6.442   2.192
10840SOL    HW133419   3.425   6.471   2.207
10840SOL    HW233420   3.573   6.518   2.155
10841SOL     OW33421   6.239   4.740   4.931
10841SOL    HW133422   6.198   4.691   5.007
10841SOL    HW233423   6.187   4.824   4.914
10842SOL     OW33424   5.051   2.396   1.048
10842SOL    HW133425   5.032   2.305   1.085
10842SOL    HW233426   5.128   2.436   1.098
10843SOL     OW33427   1.478   1.180   1.348
10843SOL    HW133428   1.537   1.104   1.376
10843SOL    HW233429   1.418   1.205   1.424
10844SOL     OW33430   6.857   4.742   3.315
10844SOL    HW133431   6.858   4.796   3.399
10844SOL    HW233432   6.770   4.757   3.267
10845SOL     OW33433   4.286   6.307   5.432
10845SOL    HW133434   4.283   6.374   5.359
10845SOL    HW233435   4.241   6.344   5.513
10846SOL     OW33436   5.527   0.579   0.007
10846SOL    HW133437   5.471   0.622   6.969
10846SOL    HW233438   5.472   0.564   0.089
10847SOL     OW33439   2.871   2.248   0.252
10847SOL    HW133440   2.964   2.215   0.241
10847SOL    HW233441   2.869   2.347   0.246
10848SOL     OW33442   0.874   4.465   1.079
10848SOL    HW133443   0.816   4.384   1.071
10848SOL    HW233444   0.910   4.489   0.989
10849SOL     OW33445   2.700   4.655   4.173
10849SOL    HW133446   2.650   4.607   4.244
10849SOL    HW233447   2.743   4.737   4.211
10850SOL     OW33448   3.793   6.443   6.438
10850SOL    HW133449   3.762   6.373   6.502
10850SOL    HW233450   3.891   6.429   6.418
10851SOL     OW33451   3.310   3.966   1.005
10851SOL    HW133452   3.382   3.896   1.006
10851SOL    HW233453   3.348   4.053   1.036
10852SOL     OW33454   1.646   1.136   6.661
10852SOL    HW133455   1.698   1.209   6.615
10852SOL    HW233456   1.565   1.175   6.703
10853SOL     OW33457   2.530   3.103   5.734
10853SOL    HW133458   2.522   3.200   5.712
10853SOL    HW233459   2.621   3.084   5.770
10854SOL     OW33460   4.442   5.240   5.162
10854SOL    HW133461   4.485   5.157   5.126
10854SOL    HW233462   4.429   5.306   5.087
10855SOL     OW33463   3.720   1.063   0.142
10855SOL    HW133464   3.637   1.108   0.175
10855SOL    HW233465   3.764   1.015   0.218
10856SOL     OW33466   5.945   1.525   0.378
10856SOL    HW133467   6.030   1.513   0.430
10856SOL    HW233468   5.940   1.619   0.345
10857SOL     OW33469   1.005   2.473   2.277
10857SOL    HW133470   1.067   2.458   2.354
10857SOL    HW233471   0.963   2.386   2.251
10858SOL     OW33472   0.940   0.029   0.358
10858SOL    HW133473   0.848   7.025   0.346
10858SOL    HW233474   0.963   0.030   0.455
10859SOL     OW33475   0.707   4.649   4.341
10859SOL    HW133476   0.690   4.658   4.439
10859SOL    HW233477   0.800   4.615   4.326
10860SOL     OW33478   0.428   3.008   4.350
10860SOL    HW133479   0.384   2.926   4.312
10860SOL    HW233480   0.383   3.089   4.314
10861SOL     OW33481   3.529   3.639   3.365
10861SOL    HW133482   3.572   3.707   3.306
10861SOL    HW233483   3.514   3.555   3.313
10862SOL     OW33484   1.251   1.117   5.635
10862SOL    HW133485   1.219   1.196   5.687
10862SOL    HW233486   1.185   1.042   5.643
10863SOL     OW33487   2.060   0.592   4.728
10863SOL    HW133488   2.050   0.628   4.821
10863SOL    HW233489   2.074   0.493   4.732
10864SOL     OW33490   3.369   5.670   0.341
10864SOL    HW133491   3.351   5.669   0.243
10864SOL    HW233492   3.427   5.592   0.365
10865SOL     OW33493   6.526   1.274   0.731
10865SOL    HW133494   6.452   1.213   0.701
10865SOL    HW233495   6.559   1.327   0.654
10866SOL     OW33496   4.922   4.616   1.034
10866SOL    HW133497   4.903   4.580   0.942
10866SOL    HW233498   4.966   4.706   1.026
10867SOL     OW33499   3.073   4.470   0.884
10867SOL    HW133500   3.159   4.480   0.934
10867SOL    HW233501   3.006   4.422   0.942
10868SOL     OW33502   4.902   1.730   3.784
10868SOL    HW133503   4.976   1.797   3.794
10868SOL    HW233504   4.916   1.679   3.699
10869NA      NA33505   6.709   3.172   5.165
10870NA      NA33506   4.558   4.529   5.097
10871NA      NA33507   1.212   2.843   1.748
10872NA      NA33508   5.065   3.798   5.351
10873NA      NA33509   4.103   2.276   5.191
10874NA      NA33510   3.585   4.922   1.826
10875NA      NA33511   6.667   5.093   6.737
10876NA      NA33512   3.080   3.396   4.872
10877NA      NA33513   4.570   5.992   0.032
10878NA      NA33514   4.134   6.475   5.009
10879NA      NA33515   6.356   5.277   2.595
10880NA      NA33516   2.232   0.119   3.748
10881NA      NA33517   4.007   5.658   2.009
10882NA      NA33518   3.694   3.892   2.061
   7.03154   7.03154   7.03154
