Generated by trjconv : CNT in water t= 148.00000
33518
    1C        C    1   2.844   2.769   4.748
    1C        C    2   2.898   2.717   4.868
    1C        C    3   2.847   2.775   4.984
    1C        C    4   2.853   2.778   4.260
    1C        C    5   2.903   2.733   4.384
    1C        C    6   2.845   2.774   4.506
    1C        C    7   3.012   2.639   4.623
    1C        C    8   2.897   2.721   4.626
    1C        C    9   3.077   2.605   4.744
    1C        C   10   3.012   2.633   4.866
    1C        C   11   3.189   2.501   4.981
    1C        C   12   3.065   2.567   4.977
    1C        C   13   2.845   2.767   3.772
    1C        C   14   2.896   2.719   3.895
    1C        C   15   2.852   2.776   4.016
    1C        C   16   3.021   2.648   4.140
    1C        C   17   2.906   2.730   4.139
    1C        C   18   3.083   2.615   4.262
    1C        C   19   3.017   2.649   4.382
    1C        C   20   3.209   2.556   4.506
    1C        C   21   3.078   2.607   4.503
    1C        C   22   3.281   2.541   4.627
    1C        C   23   3.210   2.555   4.748
    1C        C   24   3.415   2.485   4.867
    1C        C   25   3.274   2.508   4.866
    1C        C   26   3.492   2.483   4.984
    1C        C   27   2.844   2.762   3.282
    1C        C   28   2.900   2.717   3.404
    1C        C   29   2.852   2.769   3.526
    1C        C   30   3.019   2.647   3.650
    1C        C   31   2.900   2.722   3.650
    1C        C   32   3.079   2.611   3.773
    1C        C   33   3.014   2.641   3.895
    1C        C   34   3.211   2.559   4.017
    1C        C   35   3.079   2.611   4.017
    1C        C   36   3.281   2.541   4.138
    1C        C   37   3.215   2.564   4.261
    1C        C   38   3.418   2.513   4.382
    1C        C   39   3.278   2.535   4.384
    1C        C   40   3.489   2.503   4.503
    1C        C   41   3.419   2.512   4.626
    1C        C   42   3.631   2.487   4.744
    1C        C   43   3.489   2.487   4.746
    1C        C   44   3.704   2.491   4.865
    1C        C   45   3.631   2.480   4.984
    1C        C   46   2.834   2.749   2.793
    1C        C   47   2.888   2.705   2.916
    1C        C   48   2.834   2.751   3.038
    1C        C   49   3.014   2.638   3.161
    1C        C   50   2.896   2.716   3.159
    1C        C   51   3.080   2.611   3.283
    1C        C   52   3.018   2.640   3.406
    1C        C   53   3.212   2.555   3.529
    1C        C   54   3.081   2.608   3.529
    1C        C   55   3.279   2.534   3.652
    1C        C   56   3.210   2.558   3.773
    1C        C   57   3.417   2.512   3.895
    1C        C   58   3.279   2.541   3.895
    1C        C   59   3.490   2.502   4.016
    1C        C   60   3.420   2.515   4.138
    1C        C   61   3.630   2.502   4.260
    1C        C   62   3.489   2.503   4.260
    1C        C   63   3.702   2.505   4.382
    1C        C   64   3.630   2.504   4.503
    1C        C   65   3.836   2.552   4.621
    1C        C   66   3.702   2.507   4.624
    1C        C   67   3.904   2.568   4.744
    1C        C   68   3.840   2.527   4.863
    1C        C   69   4.054   2.583   4.977
    1C        C   70   3.925   2.528   4.974
    1C        C   71   2.820   2.734   2.307
    1C        C   72   2.883   2.694   2.428
    1C        C   73   2.830   2.746   2.548
    1C        C   74   3.006   2.627   2.672
    1C        C   75   2.886   2.702   2.670
    1C        C   76   3.069   2.594   2.794
    1C        C   77   3.009   2.632   2.916
    1C        C   78   3.209   2.557   3.037
    1C        C   79   3.077   2.608   3.038
    1C        C   80   3.277   2.541   3.160
    1C        C   81   3.213   2.562   3.284
    1C        C   82   3.415   2.502   3.403
    1C        C   83   3.276   2.530   3.406
    1C        C   84   3.484   2.497   3.526
    1C        C   85   3.417   2.507   3.650
    1C        C   86   3.628   2.498   3.767
    1C        C   87   3.487   2.505   3.773
    1C        C   88   3.700   2.510   3.888
    1C        C   89   3.631   2.504   4.011
    1C        C   90   3.833   2.549   4.137
    1C        C   91   3.697   2.511   4.136
    1C        C   92   3.903   2.575   4.257
    1C        C   93   3.837   2.546   4.379
    1C        C   94   4.036   2.625   4.499
    1C        C   95   3.907   2.568   4.500
    1C        C   96   4.097   2.661   4.621
    1C        C   97   4.032   2.631   4.742
    1C        C   98   4.190   2.768   4.863
    1C        C   99   4.102   2.656   4.863
    1C        C  100   4.211   2.842   4.980
    1C        C  101   2.824   2.727   2.068
    1C        C  102   2.991   2.593   2.192
    1C        C  103   2.876   2.679   2.189
    1C        C  104   3.065   2.574   2.312
    1C        C  105   3.002   2.618   2.431
    1C        C  106   3.202   2.541   2.551
    1C        C  107   3.070   2.590   2.551
    1C        C  108   3.271   2.523   2.673
    1C        C  109   3.200   2.541   2.794
    1C        C  110   3.411   2.498   2.914
    1C        C  111   3.273   2.530   2.914
    1C        C  112   3.484   2.495   3.035
    1C        C  113   3.415   2.511   3.157
    1C        C  114   3.625   2.507   3.280
    1C        C  115   3.484   2.502   3.280
    1C        C  116   3.696   2.515   3.402
    1C        C  117   3.625   2.505   3.524
    1C        C  118   3.835   2.540   3.645
    1C        C  119   3.698   2.503   3.645
    1C        C  120   3.899   2.570   3.767
    1C        C  121   3.836   2.549   3.892
    1C        C  122   4.028   2.634   4.013
    1C        C  123   3.901   2.572   4.015
    1C        C  124   4.092   2.667   4.135
    1C        C  125   4.031   2.634   4.258
    1C        C  126   4.199   2.765   4.377
    1C        C  127   4.097   2.667   4.379
    1C        C  128   4.246   2.815   4.500
    1C        C  129   4.199   2.759   4.621
    1C        C  130   4.329   2.933   4.741
    1C        C  131   4.244   2.819   4.741
    1C        C  132   4.354   3.003   4.861
    1C        C  133   4.284   2.960   4.975
    1C        C  134   3.174   2.471   2.081
    1C        C  135   3.040   2.512   2.085
    1C        C  136   3.260   2.477   2.191
    1C        C  137   3.196   2.519   2.310
    1C        C  138   3.407   2.480   2.429
    1C        C  139   3.268   2.506   2.431
    1C        C  140   3.481   2.482   2.549
    1C        C  141   3.410   2.500   2.670
    1C        C  142   3.623   2.494   2.792
    1C        C  143   3.482   2.493   2.792
    1C        C  144   3.694   2.506   2.913
    1C        C  145   3.625   2.495   3.036
    1C        C  146   3.832   2.539   3.153
    1C        C  147   3.696   2.502   3.158
    1C        C  148   3.900   2.562   3.275
    1C        C  149   3.836   2.537   3.398
    1C        C  150   4.028   2.622   3.520
    1C        C  151   3.901   2.560   3.521
    1C        C  152   4.084   2.665   3.642
    1C        C  153   4.025   2.632   3.767
    1C        C  154   4.196   2.758   3.887
    1C        C  155   4.084   2.671   3.889
    1C        C  156   4.249   2.805   4.009
    1C        C  157   4.203   2.754   4.133
    1C        C  158   4.339   2.920   4.253
    1C        C  159   4.252   2.809   4.253
    1C        C  160   4.375   2.981   4.375
    1C        C  161   4.330   2.928   4.497
    1C        C  162   4.431   3.117   4.617
    1C        C  163   4.369   2.990   4.618
    1C        C  164   4.462   3.185   4.737
    1C        C  165   4.430   3.122   4.859
    1C        C  166   4.521   3.319   4.969
    1C        C  167   4.482   3.186   4.972
    1C        C  168   3.477   2.438   2.075
    1C        C  169   3.400   2.459   2.190
    1C        C  170   3.620   2.470   2.307
    1C        C  171   3.477   2.463   2.308
    1C        C  172   3.693   2.490   2.426
    1C        C  173   3.622   2.491   2.548
    1C        C  174   3.829   2.540   2.663
    1C        C  175   3.693   2.502   2.669
    1C        C  176   3.898   2.559   2.786
    1C        C  177   3.831   2.540   2.909
    1C        C  178   4.028   2.620   3.031
    1C        C  179   3.900   2.560   3.031
    1C        C  180   4.089   2.657   3.153
    1C        C  181   4.028   2.621   3.275
    1C        C  182   4.200   2.745   3.396
    1C        C  183   4.089   2.658   3.397
    1C        C  184   4.248   2.798   3.518
    1C        C  185   4.195   2.751   3.641
    1C        C  186   4.334   2.912   3.762
    1C        C  187   4.248   2.800   3.762
    1C        C  188   4.370   2.974   3.884
    1C        C  189   4.337   2.915   4.008
    1C        C  190   4.439   3.103   4.129
    1C        C  191   4.378   2.976   4.129
    1C        C  192   4.465   3.170   4.250
    1C        C  193   4.441   3.107   4.374
    1C        C  194   4.501   3.314   4.489
    1C        C  195   4.462   3.178   4.494
    1C        C  196   4.520   3.387   4.608
    1C        C  197   4.507   3.320   4.732
    1C        C  198   4.557   3.535   4.850
    1C        C  199   4.531   3.394   4.851
    1C        C  200   4.587   3.620   4.961
    1C        C  201   3.615   2.419   2.072
    1C        C  202   3.829   2.504   2.184
    1C        C  203   3.693   2.459   2.186
    1C        C  204   3.904   2.537   2.301
    1C        C  205   3.830   2.523   2.420
    1C        C  206   4.023   2.620   2.541
    1C        C  207   3.896   2.559   2.540
    1C        C  208   4.084   2.653   2.665
    1C        C  209   4.027   2.616   2.789
    1C        C  210   4.200   2.743   2.905
    1C        C  211   4.088   2.658   2.909
    1C        C  212   4.250   2.794   3.027
    1C        C  213   4.198   2.748   3.151
    1C        C  214   4.335   2.907   3.272
    1C        C  215   4.249   2.795   3.273
    1C        C  216   4.365   2.971   3.395
    1C        C  217   4.329   2.914   3.519
    1C        C  218   4.430   3.101   3.639
    1C        C  219   4.374   2.971   3.640
    1C        C  220   4.459   3.166   3.761
    1C        C  221   4.434   3.100   3.882
    1C        C  222   4.496   3.303   4.004
    1C        C  223   4.460   3.167   4.004
    1C        C  224   4.513   3.378   4.123
    1C        C  225   4.501   3.307   4.244
    1C        C  226   4.522   3.521   4.365
    1C        C  227   4.511   3.380   4.365
    1C        C  228   4.516   3.597   4.484
    1C        C  229   4.523   3.529   4.607
    1C        C  230   4.506   3.741   4.727
    1C        C  231   4.536   3.602   4.727
    1C        C  232   4.493   3.820   4.843
    1C        C  233   4.543   3.753   4.955
    1C        C  234   4.018   2.606   2.062
    1C        C  235   3.895   2.541   2.066
    1C        C  236   4.088   2.646   2.176
    1C        C  237   4.032   2.600   2.297
    1C        C  238   4.200   2.734   2.420
    1C        C  239   4.087   2.648   2.418
    1C        C  240   4.250   2.785   2.542
    1C        C  241   4.198   2.736   2.664
    1C        C  242   4.338   2.903   2.782
    1C        C  243   4.255   2.788   2.783
    1C        C  244   4.378   2.961   2.904
    1C        C  245   4.335   2.906   3.027
    1C        C  246   4.436   3.091   3.147
    1C        C  247   4.377   2.963   3.150
    1C        C  248   4.456   3.159   3.269
    1C        C  249   4.430   3.097   3.393
    1C        C  250   4.491   3.301   3.514
    1C        C  251   4.457   3.164   3.515
    1C        C  252   4.499   3.372   3.635
    1C        C  253   4.491   3.304   3.759
    1C        C  254   4.520   3.513   3.877
    1C        C  255   4.509   3.372   3.882
    1C        C  256   4.513   3.587   3.997
    1C        C  257   4.519   3.520   4.121
    1C        C  258   4.485   3.729   4.241
    1C        C  259   4.512   3.591   4.243
    1C        C  260   4.465   3.800   4.362
    1C        C  261   4.486   3.735   4.486
    1C        C  262   4.416   3.937   4.605
    1C        C  263   4.473   3.808   4.606
    1C        C  264   4.396   4.010   4.724
    1C        C  265   4.431   3.947   4.846
    1C        C  266   4.315   4.135   4.962
    1C        C  267   4.386   4.016   4.960
    1C        C  268   4.266   2.771   2.060
    1C        C  269   4.198   2.735   2.177
    1C        C  270   4.344   2.892   2.296
    1C        C  271   4.253   2.783   2.298
    1C        C  272   4.380   2.954   2.417
    1C        C  273   4.341   2.893   2.538
    1C        C  274   4.445   3.082   2.658
    1C        C  275   4.376   2.958   2.658
    1C        C  276   4.470   3.149   2.780
    1C        C  277   4.445   3.086   2.904
    1C        C  278   4.509   3.290   3.026
    1C        C  279   4.466   3.156   3.025
    1C        C  280   4.512   3.364   3.146
    1C        C  281   4.493   3.296   3.268
    1C        C  282   4.510   3.508   3.388
    1C        C  283   4.503   3.367   3.389
    1C        C  284   4.514   3.580   3.509
    1C        C  285   4.515   3.512   3.633
    1C        C  286   4.496   3.724   3.753
    1C        C  287   4.517   3.584   3.755
    1C        C  288   4.476   3.795   3.873
    1C        C  289   4.489   3.726   3.996
    1C        C  290   4.423   3.930   4.116
    1C        C  291   4.469   3.796   4.117
    1C        C  292   4.395   3.996   4.238
    1C        C  293   4.425   3.935   4.362
    1C        C  294   4.319   4.123   4.478
    1C        C  295   4.390   4.001   4.482
    1C        C  296   4.279   4.185   4.599
    1C        C  297   4.322   4.131   4.722
    1C        C  298   4.197   4.314   4.841
    1C        C  299   4.279   4.196   4.841
    1C        C  300   4.167   4.405   4.947
    1C        C  301   4.358   2.876   2.060
    1C        C  302   4.472   3.067   2.174
    1C        C  303   4.400   2.943   2.176
    1C        C  304   4.480   3.145   2.293
    1C        C  305   4.447   3.078   2.414
    1C        C  306   4.504   3.284   2.535
    1C        C  307   4.471   3.146   2.535
    1C        C  308   4.515   3.355   2.657
    1C        C  309   4.504   3.286   2.780
    1C        C  310   4.524   3.497   2.896
    1C        C  311   4.523   3.355   2.901
    1C        C  312   4.514   3.571   3.016
    1C        C  313   4.517   3.505   3.141
    1C        C  314   4.491   3.715   3.264
    1C        C  315   4.512   3.576   3.263
    1C        C  316   4.477   3.787   3.385
    1C        C  317   4.494   3.720   3.508
    1C        C  318   4.425   3.922   3.626
    1C        C  319   4.476   3.790   3.630
    1C        C  320   4.391   3.986   3.747
    1C        C  321   4.421   3.925   3.871
    1C        C  322   4.319   4.111   3.990
    1C        C  323   4.394   3.992   3.993
    1C        C  324   4.275   4.167   4.112
    1C        C  325   4.320   4.115   4.235
    1C        C  326   4.186   4.286   4.355
    1C        C  327   4.278   4.179   4.355
    1C        C  328   4.136   4.339   4.476
    1C        C  329   4.189   4.294   4.599
    1C        C  330   4.023   4.436   4.713
    1C        C  331   4.136   4.350   4.717
    1C        C  332   3.973   4.499   4.829
    1C        C  333   4.052   4.484   4.944
    1C        C  334   4.555   3.268   2.055
    1C        C  335   4.537   3.130   2.064
    1C        C  336   4.542   3.349   2.170
    1C        C  337   4.521   3.281   2.292
    1C        C  338   4.530   3.494   2.410
    1C        C  339   4.520   3.353   2.413
    1C        C  340   4.525   3.566   2.531
    1C        C  341   4.526   3.496   2.654
    1C        C  342   4.494   3.707   2.773
    1C        C  343   4.520   3.568   2.775
    1C        C  344   4.478   3.778   2.894
    1C        C  345   4.490   3.710   3.017
    1C        C  346   4.427   3.913   3.137
    1C        C  347   4.474   3.780   3.139
    1C        C  348   4.390   3.978   3.257
    1C        C  349   4.427   3.919   3.379
    1C        C  350   4.317   4.098   3.503
    1C        C  351   4.401   3.985   3.502
    1C        C  352   4.273   4.161   3.622
    1C        C  353   4.317   4.107   3.745
    1C        C  354   4.170   4.260   3.869
    1C        C  355   4.274   4.164   3.867
    1C        C  356   4.119   4.311   3.990
    1C        C  357   4.176   4.268   4.112
    1C        C  358   4.011   4.404   4.232
    1C        C  359   4.128   4.324   4.232
    1C        C  360   3.951   4.447   4.352
    1C        C  361   4.019   4.418   4.473
    1C        C  362   3.827   4.518   4.595
    1C        C  363   3.957   4.462   4.591
    1C        C  364   3.760   4.546   4.716
    1C        C  365   3.841   4.548   4.831
    1C        C  366   3.630   4.589   4.952
    1C        C  367   3.769   4.583   4.946
    1C        C  368   4.503   3.563   2.053
    1C        C  369   4.528   3.489   2.169
    1C        C  370   4.504   3.705   2.287
    1C        C  371   4.521   3.565   2.288
    1C        C  372   4.486   3.775   2.408
    1C        C  373   4.501   3.705   2.530
    1C        C  374   4.431   3.909   2.647
    1C        C  375   4.479   3.776   2.650
    1C        C  376   4.397   3.972   2.769
    1C        C  377   4.432   3.912   2.892
    1C        C  378   4.319   4.092   3.011
    1C        C  379   4.396   3.974   3.013
    1C        C  380   4.270   4.147   3.132
    1C        C  381   4.313   4.097   3.257
    1C        C  382   4.177   4.256   3.377
    1C        C  383   4.271   4.151   3.380
    1C        C  384   4.123   4.307   3.498
    1C        C  385   4.174   4.261   3.621
    1C        C  386   4.003   4.384   3.744
    1C        C  387   4.120   4.305   3.744
    1C        C  388   3.943   4.425   3.865
    1C        C  389   4.005   4.395   3.988
    1C        C  390   3.818   4.492   4.108
    1C        C  391   3.950   4.440   4.110
    1C        C  392   3.752   4.512   4.231
    1C        C  393   3.821   4.501   4.353
    1C        C  394   3.616   4.557   4.475
    1C        C  395   3.755   4.533   4.474
    1C        C  396   3.545   4.572   4.596
    1C        C  397   3.620   4.567   4.715
    1C        C  398   3.411   4.553   4.841
    1C        C  399   3.550   4.577   4.838
    1C        C  400   3.340   4.519   4.957
    1C        C  401   4.505   3.702   2.053
    1C        C  402   4.454   3.916   2.165
    1C        C  403   4.492   3.780   2.168
    1C        C  404   4.408   3.974   2.286
    1C        C  405   4.435   3.907   2.407
    1C        C  406   4.323   4.093   2.526
    1C        C  407   4.397   3.973   2.526
    1C        C  408   4.278   4.149   2.647
    1C        C  409   4.316   4.088   2.769
    1C        C  410   4.173   4.247   2.888
    1C        C  411   4.276   4.149   2.889
    1C        C  412   4.118   4.292   3.010
    1C        C  413   4.173   4.250   3.133
    1C        C  414   4.000   4.373   3.255
    1C        C  415   4.120   4.299   3.255
    1C        C  416   3.938   4.409   3.376
    1C        C  417   4.002   4.379   3.499
    1C        C  418   3.810   4.471   3.618
    1C        C  419   3.940   4.414   3.621
    1C        C  420   3.746   4.501   3.741
    1C        C  421   3.814   4.482   3.863
    1C        C  422   3.610   4.534   3.987
    1C        C  423   3.749   4.508   3.986
    1C        C  424   3.540   4.541   4.109
    1C        C  425   3.613   4.540   4.230
    1C        C  426   3.404   4.548   4.354
    1C        C  427   3.545   4.556   4.353
    1C        C  428   3.335   4.544   4.477
    1C        C  429   3.404   4.556   4.600
    1C        C  430   3.195   4.520   4.722
    1C        C  431   3.335   4.546   4.722
    1C        C  432   3.123   4.498   4.842
    1C        C  433   3.204   4.488   4.956
    1C        C  434   4.383   4.123   2.050
    1C        C  435   4.443   3.997   2.051
    1C        C  436   4.303   4.163   2.162
    1C        C  437   4.334   4.096   2.283
    1C        C  438   4.178   4.245   2.401
    1C        C  439   4.281   4.149   2.403
    1C        C  440   4.122   4.291   2.522
    1C        C  441   4.173   4.244   2.645
    1C        C  442   4.005   4.375   2.766
    1C        C  443   4.121   4.295   2.766
    1C        C  444   3.943   4.408   2.889
    1C        C  445   4.001   4.370   3.012
    1C        C  446   3.808   4.462   3.131
    1C        C  447   3.936   4.404   3.133
    1C        C  448   3.745   4.493   3.254
    1C        C  449   3.812   4.472   3.376
    1C        C  450   3.607   4.532   3.498
    1C        C  451   3.746   4.503   3.497
    1C        C  452   3.538   4.541   3.620
    1C        C  453   3.608   4.533   3.742
    1C        C  454   3.398   4.546   3.863
    1C        C  455   3.539   4.546   3.865
    1C        C  456   3.329   4.543   3.987
    1C        C  457   3.399   4.545   4.110
    1C        C  458   3.193   4.509   4.237
    1C        C  459   3.331   4.539   4.233
    1C        C  460   3.128   4.486   4.360
    1C        C  461   3.197   4.512   4.480
    1C        C  462   3.000   4.430   4.601
    1C        C  463   3.127   4.493   4.601
    1C        C  464   2.935   4.398   4.723
    1C        C  465   2.991   4.444   4.846
    1C        C  466   2.802   4.334   4.957
    1C        C  467   2.904   4.430   4.959
    1C        C  468   4.124   4.287   2.042
    1C        C  469   4.190   4.250   2.160
    1C        C  470   4.011   4.377   2.279
    1C        C  471   4.128   4.297   2.279
    1C        C  472   3.946   4.410   2.400
    1C        C  473   4.006   4.372   2.522
    1C        C  474   3.813   4.463   2.644
    1C        C  475   3.942   4.405   2.643
    1C        C  476   3.744   4.488   2.765
    1C        C  477   3.813   4.463   2.886
    1C        C  478   3.607   4.519   3.010
    1C        C  479   3.743   4.484   3.007
    1C        C  480   3.537   4.534   3.132
    1C        C  481   3.607   4.526   3.254
    1C        C  482   3.395   4.534   3.375
    1C        C  483   3.536   4.539   3.376
    1C        C  484   3.325   4.534   3.497
    1C        C  485   3.396   4.545   3.619
    1C        C  486   3.189   4.508   3.744
    1C        C  487   3.327   4.538   3.742
    1C        C  488   3.125   4.483   3.868
    1C        C  489   3.193   4.506   3.989
    1C        C  490   3.005   4.416   4.115
    1C        C  491   3.129   4.485   4.113
    1C        C  492   2.942   4.383   4.237
    1C        C  493   2.999   4.428   4.358
    1C        C  494   2.828   4.304   4.482
    1C        C  495   2.938   4.394   4.480
    1C        C  496   2.779   4.254   4.605
    1C        C  497   2.823   4.312   4.726
    1C        C  498   2.662   4.163   4.843
    1C        C  499   2.755   4.269   4.842
    1C        C  500   2.587   4.121   4.953
    1C        C  501   4.003   4.356   2.041
    1C        C  502   3.816   4.467   2.160
    1C        C  503   3.943   4.405   2.158
    1C        C  504   3.745   4.480   2.281
    1C        C  505   3.811   4.452   2.402
    1C        C  506   3.606   4.513   2.521
    1C        C  507   3.743   4.480   2.523
    1C        C  508   3.534   4.526   2.642
    1C        C  509   3.605   4.516   2.763
    1C        C  510   3.397   4.528   2.886
    1C        C  511   3.538   4.526   2.887
    1C        C  512   3.325   4.521   3.008
    1C        C  513   3.396   4.530   3.130
    1C        C  514   3.187   4.498   3.254
    1C        C  515   3.325   4.524   3.252
    1C        C  516   3.120   4.474   3.376
    1C        C  517   3.187   4.500   3.497
    1C        C  518   2.999   4.414   3.626
    1C        C  519   3.124   4.479   3.622
    1C        C  520   2.944   4.373   3.749
    1C        C  521   3.002   4.415   3.871
    1C        C  522   2.840   4.280   3.995
    1C        C  523   2.945   4.375   3.994
    1C        C  524   2.792   4.232   4.119
    1C        C  525   2.837   4.289   4.241
    1C        C  526   2.696   4.132   4.362
    1C        C  527   2.782   4.244   4.363
    1C        C  528   2.658   4.074   4.485
    1C        C  529   2.697   4.139   4.604
    1C        C  530   2.579   3.961   4.728
    1C        C  531   2.640   4.090   4.724
    1C        C  532   2.537   3.901   4.850
    1C        C  533   2.523   3.996   4.956
    1C        C  534   3.618   4.556   2.040
    1C        C  535   3.753   4.519   2.046
    1C        C  536   3.537   4.537   2.156
    1C        C  537   3.607   4.513   2.278
    1C        C  538   3.394   4.518   2.400
    1C        C  539   3.535   4.519   2.399
    1C        C  540   3.321   4.515   2.521
    1C        C  541   3.393   4.521   2.643
    1C        C  542   3.185   4.484   2.767
    1C        C  543   3.323   4.516   2.766
    1C        C  544   3.117   4.467   2.889
    1C        C  545   3.188   4.487   3.010
    1C        C  546   2.997   4.401   3.132
    1C        C  547   3.119   4.471   3.132
    1C        C  548   2.939   4.363   3.256
    1C        C  549   2.997   4.405   3.378
    1C        C  550   2.832   4.284   3.507
    1C        C  551   2.940   4.375   3.503
    1C        C  552   2.785   4.230   3.629
    1C        C  553   2.836   4.281   3.751
    1C        C  554   2.701   4.119   3.874
    1C        C  555   2.788   4.231   3.874
    1C        C  556   2.665   4.062   3.997
    1C        C  557   2.704   4.122   4.119
    1C        C  558   2.601   3.941   4.247
    1C        C  559   2.656   4.071   4.241
    1C        C  560   2.573   3.873   4.368
    1C        C  561   2.596   3.947   4.486
    1C        C  562   2.528   3.750   4.616
    1C        C  563   2.565   3.886   4.610
    1C        C  564   2.521   3.679   4.738
    1C        C  565   2.525   3.758   4.856
    1C        C  566   2.531   3.546   4.978
    1C        C  567   2.519   3.684   4.975
    1C        C  568   3.327   4.471   2.043
    1C        C  569   3.397   4.510   2.158
    1C        C  570   3.183   4.478   2.280
    1C        C  571   3.322   4.510   2.279
    1C        C  572   3.118   4.455   2.403
    1C        C  573   3.183   4.486   2.524
    1C        C  574   2.988   4.402   2.648
    1C        C  575   3.115   4.464   2.646
    1C        C  576   2.930   4.359   2.769
    1C        C  577   2.994   4.396   2.889
    1C        C  578   2.824   4.273   3.017
    1C        C  579   2.934   4.362   3.012
    1C        C  580   2.777   4.224   3.141
    1C        C  581   2.829   4.275   3.262
    1C        C  582   2.699   4.114   3.385
    1C        C  583   2.782   4.228   3.387
    1C        C  584   2.663   4.055   3.508
    1C        C  585   2.702   4.116   3.629
    1C        C  586   2.602   3.931   3.753
    1C        C  587   2.666   4.057   3.752
    1C        C  588   2.578   3.868   3.878
    1C        C  589   2.604   3.934   4.000
    1C        C  590   2.542   3.737   4.127
    1C        C  591   2.577   3.874   4.125
    1C        C  592   2.523   3.669   4.249
    1C        C  593   2.539   3.736   4.373
    1C        C  594   2.511   3.532   4.499
    1C        C  595   2.519   3.673   4.498
    1C        C  596   2.510   3.463   4.622
    1C        C  597   2.515   3.537   4.742
    1C        C  598   2.534   3.325   4.864
    1C        C  599   2.526   3.466   4.863
    1C        C  600   2.532   3.245   4.980
    1C        C  601   3.194   4.432   2.047
    1C        C  602   2.978   4.395   2.161
    1C        C  603   3.114   4.441   2.162
    1C        C  604   2.927   4.350   2.286
    1C        C  605   2.992   4.391   2.404
    1C        C  606   2.821   4.270   2.527
    1C        C  607   2.929   4.361   2.526
    1C        C  608   2.771   4.220   2.649
    1C        C  609   2.819   4.271   2.772
    1C        C  610   2.684   4.112   2.896
    1C        C  611   2.772   4.223   2.896
    1C        C  612   2.651   4.051   3.019
    1C        C  613   2.694   4.110   3.140
    1C        C  614   2.599   3.924   3.264
    1C        C  615   2.659   4.052   3.264
    1C        C  616   2.569   3.863   3.388
    1C        C  617   2.600   3.928   3.509
    1C        C  618   2.533   3.729   3.638
    1C        C  619   2.573   3.864   3.632
    1C        C  620   2.518   3.662   3.762
    1C        C  621   2.536   3.734   3.882
    1C        C  622   2.512   3.525   4.010
    1C        C  623   2.526   3.665   4.006
    1C        C  624   2.513   3.455   4.133
    1C        C  625   2.511   3.529   4.254
    1C        C  626   2.536   3.320   4.380
    1C        C  627   2.515   3.460   4.377
    1C        C  628   2.555   3.254   4.504
    1C        C  629   2.531   3.323   4.625
    1C        C  630   2.599   3.118   4.745
    1C        C  631   2.552   3.252   4.745
    1C        C  632   2.619   3.050   4.869
    1C        C  633   2.561   3.109   4.986
    1C        C  634   2.777   4.305   2.056
    1C        C  635   2.892   4.385   2.047
    1C        C  636   2.744   4.229   2.169
    1C        C  637   2.808   4.271   2.287
    1C        C  638   2.673   4.109   2.410
    1C        C  639   2.759   4.222   2.410
    1C        C  640   2.636   4.050   2.532
    1C        C  641   2.682   4.109   2.652
    1C        C  642   2.592   3.920   2.778
    1C        C  643   2.647   4.050   2.775
    1C        C  644   2.566   3.853   2.900
    1C        C  645   2.590   3.924   3.020
    1C        C  646   2.533   3.721   3.151
    1C        C  647   2.574   3.856   3.143
    1C        C  648   2.519   3.653   3.274
    1C        C  649   2.533   3.726   3.394
    1C        C  650   2.509   3.517   3.520
    1C        C  651   2.519   3.658   3.517
    1C        C  652   2.515   3.450   3.644
    1C        C  653   2.511   3.521   3.766
    1C        C  654   2.537   3.313   3.890
    1C        C  655   2.509   3.452   3.889
    1C        C  656   2.550   3.249   4.015
    1C        C  657   2.529   3.315   4.138
    1C        C  658   2.603   3.117   4.258
    1C        C  659   2.548   3.247   4.260
    1C        C  660   2.630   3.054   4.382
    1C        C  661   2.602   3.121   4.503
    1C        C  662   2.709   2.935   4.627
    1C        C  663   2.631   3.053   4.624
    1C        C  664   2.752   2.877   4.749
    1C        C  665   2.694   2.928   4.869
    1C        C  666   2.743   2.867   4.985
    1C        C  667   2.681   4.023   2.052
    1C        C  668   2.683   4.101   2.168
    1C        C  669   2.588   3.911   2.292
    1C        C  670   2.640   4.043   2.289
    1C        C  671   2.557   3.847   2.415
    1C        C  672   2.584   3.919   2.534
    1C        C  673   2.529   3.716   2.660
    1C        C  674   2.568   3.851   2.657
    1C        C  675   2.517   3.647   2.783
    1C        C  676   2.535   3.716   2.905
    1C        C  677   2.510   3.509   3.031
    1C        C  678   2.523   3.649   3.029
    1C        C  679   2.510   3.439   3.154
    1C        C  680   2.508   3.513   3.275
    1C        C  681   2.532   3.305   3.399
    1C        C  682   2.509   3.444   3.399
    1C        C  683   2.557   3.242   3.523
    1C        C  684   2.538   3.311   3.645
    1C        C  685   2.601   3.110   3.771
    1C        C  686   2.552   3.243   3.768
    1C        C  687   2.637   3.052   3.895
    1C        C  688   2.600   3.117   4.015
    1C        C  689   2.708   2.934   4.140
    1C        C  690   2.628   3.050   4.136
    1C        C  691   2.756   2.881   4.262
    1C        C  692   2.712   2.939   4.383
    1C        C  693   2.749   2.878   4.505
    1C        C  694   2.634   3.891   2.058
    1C        C  695   2.527   3.704   2.176
    1C        C  696   2.580   3.835   2.174
    1C        C  697   2.502   3.637   2.298
    1C        C  698   2.520   3.711   2.417
    1C        C  699   2.491   3.503   2.544
    1C        C  700   2.508   3.643   2.540
    1C        C  701   2.497   3.432   2.666
    1C        C  702   2.507   3.506   2.785
    1C        C  703   2.527   3.297   2.910
    1C        C  704   2.510   3.438   2.909
    1C        C  705   2.540   3.229   3.032
    1C        C  706   2.531   3.300   3.154
    1C        C  707   2.598   3.102   3.280
    1C        C  708   2.546   3.233   3.278
    1C        C  709   2.630   3.040   3.404
    1C        C  710   2.602   3.108   3.525
    1C        C  711   2.710   2.929   3.649
    1C        C  712   2.631   3.046   3.648
    1C        C  713   2.756   2.877   3.772
    1C        C  714   2.716   2.936   3.894
    1C        C  715   2.758   2.882   4.018
    1C        C  716   2.446   3.498   2.065
    1C        C  717   2.494   3.630   2.062
    1C        C  718   2.464   3.421   2.184
    1C        C  719   2.477   3.497   2.303
    1C        C  720   2.516   3.288   2.424
    1C        C  721   2.490   3.427   2.425
    1C        C  722   2.536   3.222   2.547
    1C        C  723   2.521   3.292   2.669
    1C        C  724   2.590   3.090   2.792
    1C        C  725   2.544   3.224   2.790
    1C        C  726   2.618   3.027   2.916
    1C        C  727   2.589   3.097   3.035
    1C        C  728   2.699   2.916   3.161
    1C        C  729   2.623   3.036   3.158
    1C        C  730   2.743   2.861   3.283
    1C        C  731   2.703   2.920   3.405
    1C        C  732   2.753   2.870   3.528
    1C        C  733   2.478   3.193   2.074
    1C        C  734   2.490   3.280   2.183
    1C        C  735   2.579   3.084   2.305
    1C        C  736   2.521   3.213   2.304
    1C        C  737   2.609   3.019   2.427
    1C        C  738   2.585   3.090   2.547
    1C        C  739   2.693   2.907   2.671
    1C        C  740   2.619   3.027   2.669
    1C        C  741   2.735   2.850   2.793
    1C        C  742   2.699   2.911   2.915
    1C        C  743   2.743   2.859   3.039
    1C        C  744   2.536   3.066   2.073
    1C        C  745   2.685   2.899   2.184
    1C        C  746   2.601   3.013   2.185
    1C        C  747   2.728   2.842   2.305
    1C        C  748   2.684   2.899   2.427
    1C        C  749   2.732   2.847   2.549
    1C        C  750   2.743   2.840   2.070
    1C        C  751   3.653   2.309   1.980
    1C        O  752   3.691   2.197   2.023
    1C        O  753   3.683   2.322   1.844
    1C        C  754   4.616   3.053   1.965
    1C        O  755   4.565   3.042   1.850
    1C        O  756   4.754   3.035   1.975
    1C        C  757   4.473   4.223   1.987
    1C        O  758   4.531   4.315   2.051
    1C        O  759   4.499   4.211   1.850
    1C        C  760   3.593   4.664   1.942
    1C        O  761   3.614   4.788   1.955
    1C        O  762   3.612   4.626   1.808
    1C        C  763   2.886   4.490   1.943
    1C        O  764   2.918   4.451   1.828
    1C        O  765   2.790   4.592   1.957
    1C        C  766   2.330   3.465   1.979
    1C        O  767   2.337   3.409   1.867
    1C        O  768   2.203   3.512   2.016
    1C        C  769   4.690   3.587   5.062
    1C        O  770   4.657   3.537   5.172
    1C        O  771   4.820   3.538   5.039
    1C        C  772   4.277   4.450   5.036
    1C        O  773   4.247   4.492   5.151
    1C        O  774   4.391   4.514   4.987
    1C        C  775   4.146   2.515   5.072
    1C        O  776   4.239   2.436   5.040
    1C        O  777   4.135   2.555   5.205
    1C        C  778   2.887   4.533   5.064
    1C        O  779   2.846   4.650   5.044
    1C        O  780   2.934   4.524   5.196
    1C        C  781   2.458   3.037   5.064
    1C        O  782   2.362   2.984   5.001
    1C        O  783   2.433   3.072   5.197
    1C        C  784   2.417   3.988   5.058
    1C        O  785   2.299   4.029   5.041
    1C        O  786   2.438   3.954   5.192
    1C        C  787   2.947   2.424   2.011
    1C        O  788   2.934   2.423   1.885
    1C        O  789   2.862   2.336   2.076
    1C        C  790   3.191   2.378   5.064
    1C        O  791   3.146   2.273   5.012
    1C        O  792   3.208   2.383   5.203
    1C        H  793   4.232   3.042   5.019
    1C        H  794   4.140   2.837   5.060
    1C        H  795   4.445   3.153   5.067
    1C        H  796   4.541   3.365   5.064
    1C        H  797   4.554   3.808   5.047
    1C        H  798   4.442   3.999   5.050
    1C        H  799   4.252   4.152   5.046
    1C        H  800   4.033   4.539   5.034
    1C        H  801   3.817   4.561   5.040
    1C        H  802   3.584   4.603   5.048
    1C        H  803   3.389   4.513   5.051
    1C        H  804   3.162   4.468   5.053
    1C        H  805   3.893   2.487   5.068
    1C        H  806   3.688   2.446   5.069
    1C        H  807   3.008   2.569   5.068
    1C        H  808   3.449   2.479   5.082
    1C        H  809   2.888   2.734   5.074
    1C        H  810   2.703   2.898   5.079
    1C        H  811   2.476   3.289   5.060
    1C        H  812   2.540   3.500   5.074
    1C        H  813   2.559   3.732   5.062
    1C        H  814   2.552   4.198   5.017
    1C        H  815   2.735   4.338   5.041
    1C        H  816   2.699   2.879   1.981
    1C        H  817   2.790   2.652   2.000
    1C        H  818   3.213   2.448   1.983
    1C        H  819   3.430   2.445   1.979
    1C        H  820   3.862   2.509   1.970
    1C        H  821   4.077   2.597   1.973
    1C        H  822   4.275   2.699   1.982
    1C        H  823   4.397   2.907   1.966
    1C        H  824   4.582   3.311   1.961
    1C        H  825   4.451   3.516   1.972
    1C        H  826   4.562   3.745   1.973
    1C        H  827   3.810   4.539   1.958
    1C        H  828   3.958   4.370   1.945
    1C        H  829   4.133   4.209   1.969
    1C        H  830   4.509   3.969   1.972
    1C        H  831   2.669   3.826   1.980
    1C        H  832   2.693   4.072   1.958
    1C        H  833   2.693   4.339   2.000
    1C        H  834   3.385   4.452   1.956
    1C        H  835   3.148   4.409   1.953
    1C        H  836   2.502   2.991   2.005
    1C        H  837   2.411   3.224   1.996
    1C        H  838   2.550   3.651   1.972
    2V3OU   H29  839   2.809   3.548   1.632
    2V3OU   C27  840   2.783   3.500   1.729
    2V3OU   H27  841   2.716   3.572   1.783
    2V3OU   H28  842   2.730   3.402   1.716
    2V3OU   O11  843   2.910   3.479   1.793
    2V3OU   C15  844   2.919   3.403   1.908
    2V3OU   C13  845   3.047   3.379   1.961
    2V3OU   C14  846   3.075   3.273   2.048
    2V3OU   C16  847   2.972   3.187   2.084
    2V3OU    H6  848   2.987   3.110   2.160
    2V3OU   C12  849   3.213   3.225   2.070
    2V3OU    O2  850   3.236   3.123   2.140
    2V3OU   C10  851   3.329   3.308   2.036
    2V3OU    C8  852   3.460   3.271   2.064
    2V3OU   O10  853   3.488   3.150   2.120
    2V3OU   H26  854   3.402   3.114   2.148
    2V3OU    C6  855   3.568   3.352   2.017
    2V3OU    C5  856   3.537   3.470   1.950
    2V3OU    C4  857   3.706   3.296   2.018
    2V3OU    H4  858   3.723   3.230   2.108
    2V3OU    H5  859   3.716   3.223   1.932
    2V3OU    C2  860   3.820   3.398   2.016
    2V3OU    O6  861   3.803   3.472   2.137
    2V3OU   H21  862   3.765   3.551   2.093
    2V3OU    C3  863   3.784   3.497   1.905
    2V3OU    H2  864   3.865   3.574   1.898
    2V3OU    H3  865   3.780   3.442   1.808
    2V3OU   C25  866   3.950   3.321   1.990
    2V3OU    O7  867   3.997   3.292   1.880
    2V3OU   C26  868   4.030   3.292   2.116
    2V3OU   H22  869   4.074   3.383   2.162
    2V3OU   H23  870   4.121   3.233   2.088
    2V3OU    O8  871   3.962   3.210   2.209
    2V3OU   H24  872   3.927   3.276   2.271
    2V3OU    C1  873   3.648   3.565   1.917
    2V3OU    H1  874   3.624   3.617   1.820
    2V3OU    O3  875   3.658   3.651   2.031
    2V3OU   C19  876   3.616   3.787   2.031
    2V3OU    H9  877   3.523   3.811   1.972
    2V3OU    O4  878   3.710   3.841   1.941
    2V3OU   C20  879   3.840   3.877   1.989
    2V3OU   H10  880   3.886   3.775   2.007
    2V3OU   C24  881   3.611   3.853   2.169
    2V3OU   H16  882   3.541   3.791   2.231
    2V3OU   H17  883   3.563   3.951   2.143
    2V3OU   C23  884   3.751   3.875   2.227
    2V3OU   H15  885   3.795   3.771   2.242
    2V3OU    N1  886   3.736   3.951   2.349
    2V3OU   H19  887   3.807   3.920   2.413
    2V3OU   H20  888   3.646   3.927   2.386
    2V3OU   C21  889   3.848   3.944   2.126
    2V3OU   H11  890   3.952   3.925   2.167
    2V3OU    O5  891   3.823   4.083   2.140
    2V3OU   H18  892   3.779   4.103   2.225
    2V3OU   C22  893   3.910   3.945   1.872
    2V3OU   H12  894   3.860   4.041   1.846
    2V3OU   H13  895   3.903   3.882   1.779
    2V3OU   H14  896   4.018   3.964   1.893
    2V3OU   C11  897   3.160   3.471   1.937
    2V3OU    O1  898   3.135   3.589   1.903
    2V3OU    C9  899   3.298   3.426   1.962
    2V3OU    C7  900   3.402   3.510   1.926
    2V3OU    O9  901   3.382   3.620   1.846
    2V3OU   H25  902   3.286   3.631   1.833
    2V3OU   C17  903   2.814   3.320   1.953
    2V3OU    H7  904   2.713   3.341   1.917
    2V3OU   C18  905   2.843   3.214   2.037
    2V3OU    H8  906   2.764   3.145   2.069
    3SOL     OW  907   2.460   4.336   0.785
    3SOL    HW1  908   2.443   4.432   0.809
    3SOL    HW2  909   2.398   4.277   0.836
    4SOL     OW  910   6.469   5.586   2.184
    4SOL    HW1  911   6.429   5.591   2.093
    4SOL    HW2  912   6.446   5.668   2.236
    5SOL     OW  913   3.757   1.524   2.439
    5SOL    HW1  914   3.829   1.587   2.467
    5SOL    HW2  915   3.760   1.442   2.496
    6SOL     OW  916   4.013   1.594   2.221
    6SOL    HW1  917   4.099   1.645   2.212
    6SOL    HW2  918   3.936   1.658   2.216
    7SOL     OW  919   6.446   2.757   1.574
    7SOL    HW1  920   6.450   2.718   1.666
    7SOL    HW2  921   6.538   2.787   1.547
    8SOL     OW  922   2.495   6.999   5.191
    8SOL    HW1  923   2.579   6.995   5.244
    8SOL    HW2  924   2.419   0.001   5.251
    9SOL     OW  925   0.980   5.628   5.759
    9SOL    HW1  926   0.993   5.660   5.853
    9SOL    HW2  927   1.062   5.650   5.705
   10SOL     OW  928   1.067   4.505   5.487
   10SOL    HW1  929   1.102   4.467   5.402
   10SOL    HW2  930   0.976   4.467   5.505
   11SOL     OW  931   2.615   0.382   0.343
   11SOL    HW1  932   2.703   0.426   0.324
   11SOL    HW2  933   2.560   0.443   0.400
   12SOL     OW  934   4.157   5.776   4.023
   12SOL    HW1  935   4.092   5.749   3.952
   12SOL    HW2  936   4.108   5.789   4.109
   13SOL     OW  937   3.732   5.937   4.292
   13SOL    HW1  938   3.716   5.907   4.386
   13SOL    HW2  939   3.651   5.916   4.236
   14SOL     OW  940   4.547   5.838   6.477
   14SOL    HW1  941   4.609   5.851   6.555
   14SOL    HW2  942   4.598   5.796   6.402
   15SOL     OW  943   1.515   5.683   0.124
   15SOL    HW1  944   1.484   5.778   0.111
   15SOL    HW2  945   1.474   5.646   0.207
   16SOL     OW  946   5.856   2.095   5.561
   16SOL    HW1  947   5.767   2.066   5.527
   16SOL    HW2  948   5.924   2.088   5.488
   17SOL     OW  949   5.776   6.250   4.646
   17SOL    HW1  950   5.698   6.192   4.621
   17SOL    HW2  951   5.768   6.277   4.742
   18SOL     OW  952   3.095   1.844   0.056
   18SOL    HW1  953   3.045   1.896   0.124
   18SOL    HW2  954   3.139   1.765   0.099
   19SOL     OW  955   6.926   6.661   3.028
   19SOL    HW1  956   6.991   6.723   3.072
   19SOL    HW2  957   6.833   6.694   3.045
   20SOL     OW  958   3.179   1.624   4.073
   20SOL    HW1  959   3.140   1.713   4.095
   20SOL    HW2  960   3.273   1.636   4.039
   21SOL     OW  961   3.080   2.183   2.834
   21SOL    HW1  962   3.131   2.131   2.902
   21SOL    HW2  963   3.119   2.168   2.744
   22SOL     OW  964   2.052   6.887   6.642
   22SOL    HW1  965   2.067   6.981   6.610
   22SOL    HW2  966   1.994   6.889   6.724
   23SOL     OW  967   4.743   6.518   3.427
   23SOL    HW1  968   4.805   6.540   3.503
   23SOL    HW2  969   4.666   6.582   3.428
   24SOL     OW  970   5.168   1.354   4.319
   24SOL    HW1  971   5.118   1.412   4.255
   24SOL    HW2  972   5.103   1.310   4.381
   25SOL     OW  973   3.089   5.977   5.973
   25SOL    HW1  974   3.148   6.055   5.990
   25SOL    HW2  975   3.003   6.008   5.933
   26SOL     OW  976   6.103   0.994   1.235
   26SOL    HW1  977   6.038   1.030   1.168
   26SOL    HW2  978   6.067   1.008   1.327
   27SOL     OW  979   0.304   1.298   2.279
   27SOL    HW1  980   0.266   1.205   2.278
   27SOL    HW2  981   0.383   1.301   2.340
   28SOL     OW  982   4.190   0.910   0.311
   28SOL    HW1  983   4.188   0.895   0.409
   28SOL    HW2  984   4.285   0.916   0.281
   29SOL     OW  985   5.371   2.647   1.892
   29SOL    HW1  986   5.427   2.643   1.975
   29SOL    HW2  987   5.289   2.592   1.905
   30SOL     OW  988   3.217   6.940   5.513
   30SOL    HW1  989   3.301   6.944   5.459
   30SOL    HW2  990   3.163   0.001   5.498
   31SOL     OW  991   0.665   1.525   5.796
   31SOL    HW1  992   0.606   1.590   5.747
   31SOL    HW2  993   0.717   1.471   5.730
   32SOL     OW  994   0.755   1.794   2.959
   32SOL    HW1  995   0.781   1.846   2.878
   32SOL    HW2  996   0.688   1.845   3.012
   33SOL     OW  997   2.001   2.904   6.839
   33SOL    HW1  998   1.959   2.969   6.903
   33SOL    HW2  999   2.063   2.844   6.889
   34SOL     OW 1000   2.139   0.733   3.972
   34SOL    HW1 1001   2.058   0.735   3.912
   34SOL    HW2 1002   2.130   0.804   4.042
   35SOL     OW 1003   4.136   2.237   6.644
   35SOL    HW1 1004   4.136   2.186   6.731
   35SOL    HW2 1005   4.107   2.176   6.570
   36SOL     OW 1006   0.907   0.732   6.590
   36SOL    HW1 1007   0.943   0.728   6.497
   36SOL    HW2 1008   0.956   0.804   6.641
   37SOL     OW 1009   2.223   0.530   0.638
   37SOL    HW1 1010   2.197   0.439   0.671
   37SOL    HW2 1011   2.224   0.594   0.714
   38SOL     OW 1012   0.586   5.621   2.998
   38SOL    HW1 1013   0.545   5.658   2.914
   38SOL    HW2 1014   0.577   5.521   2.998
   39SOL     OW 1015   6.766   4.136   6.668
   39SOL    HW1 1016   6.744   4.229   6.696
   39SOL    HW2 1017   6.751   4.127   6.569
   40SOL     OW 1018   5.971   2.454   1.652
   40SOL    HW1 1019   6.058   2.406   1.637
   40SOL    HW2 1020   5.986   2.531   1.713
   41SOL     OW 1021   1.684   6.316   4.387
   41SOL    HW1 1022   1.758   6.345   4.326
   41SOL    HW2 1023   1.686   6.217   4.398
   42SOL     OW 1024   3.358   6.773   6.500
   42SOL    HW1 1025   3.385   6.677   6.508
   42SOL    HW2 1026   3.317   6.803   6.586
   43SOL     OW 1027   5.886   6.264   5.646
   43SOL    HW1 1028   5.837   6.179   5.623
   43SOL    HW2 1029   5.851   6.300   5.732
   44SOL     OW 1030   6.433   2.738   6.358
   44SOL    HW1 1031   6.482   2.726   6.445
   44SOL    HW2 1032   6.363   2.808   6.368
   45SOL     OW 1033   3.094   0.774   3.804
   45SOL    HW1 1034   3.036   0.777   3.722
   45SOL    HW2 1035   3.094   0.681   3.841
   46SOL     OW 1036   1.122   3.896   4.314
   46SOL    HW1 1037   1.066   3.813   4.319
   46SOL    HW2 1038   1.125   3.929   4.219
   47SOL     OW 1039   5.305   3.865   3.251
   47SOL    HW1 1040   5.328   3.865   3.153
   47SOL    HW2 1041   5.274   3.956   3.277
   48SOL     OW 1042   0.845   2.813   5.051
   48SOL    HW1 1043   0.781   2.852   4.985
   48SOL    HW2 1044   0.840   2.864   5.137
   49SOL     OW 1045   4.729   4.048   1.844
   49SOL    HW1 1046   4.640   4.095   1.852
   49SOL    HW2 1047   4.800   4.115   1.827
   50SOL     OW 1048   6.242   2.418   5.622
   50SOL    HW1 1049   6.182   2.344   5.591
   50SOL    HW2 1050   6.328   2.414   5.571
   51SOL     OW 1051   2.975   5.847   2.703
   51SOL    HW1 1052   2.967   5.849   2.604
   51SOL    HW2 1053   2.979   5.941   2.738
   52SOL     OW 1054   4.614   1.808   3.664
   52SOL    HW1 1055   4.538   1.855   3.619
   52SOL    HW2 1056   4.701   1.847   3.631
   53SOL     OW 1057   4.754   0.438   4.100
   53SOL    HW1 1058   4.768   0.507   4.028
   53SOL    HW2 1059   4.789   0.473   4.187
   54SOL     OW 1060   3.476   5.219   0.024
   54SOL    HW1 1061   3.480   5.136   0.080
   54SOL    HW2 1062   3.516   5.200   6.956
   55SOL     OW 1063   3.535   1.067   6.234
   55SOL    HW1 1064   3.619   1.018   6.257
   55SOL    HW2 1065   3.473   1.064   6.312
   56SOL     OW 1066   1.331   0.693   1.430
   56SOL    HW1 1067   1.262   0.649   1.486
   56SOL    HW2 1068   1.421   0.682   1.472
   57SOL     OW 1069   4.750   0.404   0.753
   57SOL    HW1 1070   4.754   0.449   0.842
   57SOL    HW2 1071   4.762   0.306   0.765
   58SOL     OW 1072   0.334   6.386   6.081
   58SOL    HW1 1073   0.432   6.375   6.061
   58SOL    HW2 1074   0.281   6.340   6.010
   59SOL     OW 1075   1.655   1.086   6.247
   59SOL    HW1 1076   1.699   1.090   6.157
   59SOL    HW2 1077   1.580   1.152   6.249
   60SOL     OW 1078   5.806   0.723   5.830
   60SOL    HW1 1079   5.756   0.723   5.916
   60SOL    HW2 1080   5.904   0.738   5.849
   61SOL     OW 1081   5.124   1.283   4.967
   61SOL    HW1 1082   5.076   1.367   4.995
   61SOL    HW2 1083   5.210   1.276   5.018
   62SOL     OW 1084   0.705   1.213   3.569
   62SOL    HW1 1085   0.620   1.234   3.617
   62SOL    HW2 1086   0.686   1.204   3.471
   63SOL     OW 1087   6.144   1.876   3.873
   63SOL    HW1 1088   6.096   1.850   3.957
   63SOL    HW2 1089   6.144   1.799   3.809
   64SOL     OW 1090   0.395   4.190   6.808
   64SOL    HW1 1091   0.367   4.256   6.738
   64SOL    HW2 1092   0.420   4.104   6.765
   65SOL     OW 1093   6.589   4.476   5.231
   65SOL    HW1 1094   6.499   4.481   5.276
   65SOL    HW2 1095   6.587   4.405   5.161
   66SOL     OW 1096   3.470   0.506   6.908
   66SOL    HW1 1097   3.377   0.532   6.931
   66SOL    HW2 1098   3.469   0.427   6.847
   67SOL     OW 1099   5.582   5.348   5.152
   67SOL    HW1 1100   5.589   5.415   5.078
   67SOL    HW2 1101   5.667   5.346   5.204
   68SOL     OW 1102   6.669   0.874   6.999
   68SOL    HW1 1103   6.635   0.798   6.943
   68SOL    HW2 1104   6.755   0.848   0.019
   69SOL     OW 1105   1.718   4.103   6.780
   69SOL    HW1 1106   1.735   4.088   6.683
   69SOL    HW2 1107   1.662   4.028   6.816
   70SOL     OW 1108   6.384   5.252   3.322
   70SOL    HW1 1109   6.338   5.253   3.411
   70SOL    HW2 1110   6.331   5.305   3.257
   71SOL     OW 1111   3.004   1.891   3.149
   71SOL    HW1 1112   3.090   1.938   3.168
   71SOL    HW2 1113   3.011   1.795   3.177
   72SOL     OW 1114   2.879   6.016   4.877
   72SOL    HW1 1115   2.978   6.024   4.872
   72SOL    HW2 1116   2.854   5.919   4.887
   73SOL     OW 1117   3.357   1.707   0.508
   73SOL    HW1 1118   3.304   1.788   0.531
   73SOL    HW2 1119   3.453   1.721   0.535
   74SOL     OW 1120   5.080   6.834   6.530
   74SOL    HW1 1121   5.078   6.735   6.513
   74SOL    HW2 1122   5.163   6.873   6.491
   75SOL     OW 1123   3.761   6.168   5.675
   75SOL    HW1 1124   3.738   6.245   5.735
   75SOL    HW2 1125   3.825   6.199   5.605
   76SOL     OW 1126   1.798   2.730   1.417
   76SOL    HW1 1127   1.844   2.819   1.419
   76SOL    HW2 1128   1.726   2.732   1.348
   77SOL     OW 1129   4.782   5.978   4.234
   77SOL    HW1 1130   4.845   5.945   4.304
   77SOL    HW2 1131   4.819   5.956   4.143
   78SOL     OW 1132   5.914   6.834   5.923
   78SOL    HW1 1133   5.890   6.825   5.826
   78SOL    HW2 1134   5.889   6.926   5.955
   79SOL     OW 1135   2.625   6.878   0.405
   79SOL    HW1 1136   2.686   6.855   0.480
   79SOL    HW2 1137   2.600   6.975   0.410
   80SOL     OW 1138   5.485   1.284   4.363
   80SOL    HW1 1139   5.396   1.309   4.403
   80SOL    HW2 1140   5.535   1.227   4.428
   81SOL     OW 1141   2.247   0.192   2.618
   81SOL    HW1 1142   2.282   0.189   2.711
   81SOL    HW2 1143   2.229   0.286   2.591
   82SOL     OW 1144   6.831   5.621   0.319
   82SOL    HW1 1145   6.853   5.600   0.414
   82SOL    HW2 1146   6.833   5.538   0.264
   83SOL     OW 1147   6.237   6.895   0.659
   83SOL    HW1 1148   6.300   6.971   0.678
   83SOL    HW2 1149   6.143   6.926   0.675
   84SOL     OW 1150   4.875   3.569   3.345
   84SOL    HW1 1151   4.890   3.500   3.416
   84SOL    HW2 1152   4.935   3.550   3.268
   85SOL     OW 1153   1.181   1.459   5.343
   85SOL    HW1 1154   1.160   1.409   5.259
   85SOL    HW2 1155   1.109   1.526   5.362
   86SOL     OW 1156   0.970   0.214   5.831
   86SOL    HW1 1157   1.054   0.206   5.885
   86SOL    HW2 1158   0.949   0.311   5.817
   87SOL     OW 1159   4.730   2.987   0.763
   87SOL    HW1 1160   4.765   2.930   0.838
   87SOL    HW2 1161   4.747   2.941   0.676
   88SOL     OW 1162   4.279   1.624   6.370
   88SOL    HW1 1163   4.246   1.717   6.383
   88SOL    HW2 1164   4.341   1.621   6.291
   89SOL     OW 1165   1.638   3.071   6.566
   89SOL    HW1 1166   1.724   3.111   6.596
   89SOL    HW2 1167   1.573   3.144   6.543
   90SOL     OW 1168   4.728   6.913   3.878
   90SOL    HW1 1169   4.705   7.010   3.880
   90SOL    HW2 1170   4.828   6.902   3.879
   91SOL     OW 1171   4.490   4.498   3.971
   91SOL    HW1 1172   4.392   4.492   3.992
   91SOL    HW2 1173   4.521   4.592   3.987
   92SOL     OW 1174   2.970   4.561   0.678
   92SOL    HW1 1175   2.932   4.485   0.626
   92SOL    HW2 1176   3.042   4.606   0.625
   93SOL     OW 1177   2.632   4.434   6.521
   93SOL    HW1 1178   2.622   4.396   6.429
   93SOL    HW2 1179   2.724   4.413   6.555
   94SOL     OW 1180   2.504   6.201   6.124
   94SOL    HW1 1181   2.448   6.260   6.066
   94SOL    HW2 1182   2.467   6.202   6.217
   95SOL     OW 1183   0.884   1.735   3.230
   95SOL    HW1 1184   0.908   1.639   3.217
   95SOL    HW2 1185   0.845   1.771   3.146
   96SOL     OW 1186   2.900   6.995   6.137
   96SOL    HW1 1187   2.812   6.947   6.150
   96SOL    HW2 1188   2.975   6.934   6.164
   97SOL     OW 1189   0.527   4.025   5.844
   97SOL    HW1 1190   0.497   4.083   5.769
   97SOL    HW2 1191   0.451   3.970   5.877
   98SOL     OW 1192   6.332   3.735   6.970
   98SOL    HW1 1193   6.251   3.789   6.947
   98SOL    HW2 1194   6.306   3.639   6.979
   99SOL     OW 1195   4.247   4.160   0.925
   99SOL    HW1 1196   4.309   4.093   0.884
   99SOL    HW2 1197   4.301   4.238   0.958
  100SOL     OW 1198   0.768   6.593   6.117
  100SOL    HW1 1199   0.758   6.673   6.057
  100SOL    HW2 1200   0.856   6.598   6.165
  101SOL     OW 1201   1.229   5.639   2.777
  101SOL    HW1 1202   1.192   5.727   2.806
  101SOL    HW2 1203   1.327   5.636   2.794
  102SOL     OW 1204   5.212   0.910   2.508
  102SOL    HW1 1205   5.138   0.902   2.442
  102SOL    HW2 1206   5.208   1.001   2.551
  103SOL     OW 1207   3.842   1.021   1.920
  103SOL    HW1 1208   3.894   1.092   1.967
  103SOL    HW2 1209   3.773   1.064   1.861
  104SOL     OW 1210   0.443   5.080   2.798
  104SOL    HW1 1211   0.436   5.123   2.708
  104SOL    HW2 1212   0.531   5.034   2.806
  105SOL     OW 1213   6.532   2.055   6.497
  105SOL    HW1 1214   6.466   2.068   6.571
  105SOL    HW2 1215   6.624   2.079   6.528
  106SOL     OW 1216   2.987   6.701   5.423
  106SOL    HW1 1217   2.962   6.797   5.421
  106SOL    HW2 1218   2.907   6.645   5.399
  107SOL     OW 1219   2.128   2.094   1.722
  107SOL    HW1 1220   2.178   2.029   1.779
  107SOL    HW2 1221   2.068   2.044   1.660
  108SOL     OW 1222   4.399   5.140   6.540
  108SOL    HW1 1223   4.336   5.111   6.468
  108SOL    HW2 1224   4.357   5.214   6.593
  109SOL     OW 1225   0.348   1.047   1.382
  109SOL    HW1 1226   0.295   1.126   1.351
  109SOL    HW2 1227   0.406   1.074   1.459
  110SOL     OW 1228   3.698   6.622   5.740
  110SOL    HW1 1229   3.665   6.555   5.674
  110SOL    HW2 1230   3.679   6.714   5.707
  111SOL     OW 1231   3.448   0.647   5.391
  111SOL    HW1 1232   3.466   0.684   5.300
  111SOL    HW2 1233   3.493   0.558   5.400
  112SOL     OW 1234   6.325   6.322   5.822
  112SOL    HW1 1235   6.402   6.338   5.883
  112SOL    HW2 1236   6.243   6.366   5.859
  113SOL     OW 1237   6.832   5.051   2.880
  113SOL    HW1 1238   6.930   5.045   2.866
  113SOL    HW2 1239   6.812   5.064   2.977
  114SOL     OW 1240   1.035   0.017   1.145
  114SOL    HW1 1241   1.096   7.007   1.072
  114SOL    HW2 1242   1.022   6.966   1.212
  115SOL     OW 1243   4.153   1.158   4.350
  115SOL    HW1 1244   4.073   1.199   4.306
  115SOL    HW2 1245   4.163   1.063   4.319
  116SOL     OW 1246   6.072   5.383   2.478
  116SOL    HW1 1247   6.088   5.433   2.393
  116SOL    HW2 1248   5.984   5.411   2.516
  117SOL     OW 1249   0.826   1.676   6.411
  117SOL    HW1 1250   0.785   1.690   6.501
  117SOL    HW2 1251   0.767   1.616   6.356
  118SOL     OW 1252   0.756   1.507   2.122
  118SOL    HW1 1253   0.773   1.524   2.025
  118SOL    HW2 1254   0.821   1.439   2.156
  119SOL     OW 1255   1.190   2.035   6.400
  119SOL    HW1 1256   1.237   2.042   6.311
  119SOL    HW2 1257   1.132   1.954   6.400
  120SOL     OW 1258   6.540   6.790   0.259
  120SOL    HW1 1259   6.452   6.801   0.305
  120SOL    HW2 1260   6.600   6.867   0.283
  121SOL     OW 1261   2.620   3.545   6.773
  121SOL    HW1 1262   2.545   3.491   6.734
  121SOL    HW2 1263   2.587   3.636   6.795
  122SOL     OW 1264   1.698   4.821   6.297
  122SOL    HW1 1265   1.712   4.740   6.238
  122SOL    HW2 1266   1.712   4.795   6.392
  123SOL     OW 1267   0.635   2.128   1.471
  123SOL    HW1 1268   0.574   2.144   1.393
  123SOL    HW2 1269   0.718   2.082   1.440
  124SOL     OW 1270   5.204   2.679   0.219
  124SOL    HW1 1271   5.263   2.745   0.172
  124SOL    HW2 1272   5.199   2.703   0.316
  125SOL     OW 1273   2.421   1.878   2.301
  125SOL    HW1 1274   2.481   1.955   2.327
  125SOL    HW2 1275   2.393   1.889   2.206
  126SOL     OW 1276   2.765   4.646   0.862
  126SOL    HW1 1277   2.814   4.591   0.796
  126SOL    HW2 1278   2.802   4.631   0.954
  127SOL     OW 1279   0.068   5.190   6.277
  127SOL    HW1 1280   0.086   5.126   6.203
  127SOL    HW2 1281   0.148   5.197   6.336
  128SOL     OW 1282   4.070   2.710   1.247
  128SOL    HW1 1283   3.999   2.774   1.275
  128SOL    HW2 1284   4.033   2.617   1.249
  129SOL     OW 1285   4.465   4.092   6.147
  129SOL    HW1 1286   4.452   4.061   6.053
  129SOL    HW2 1287   4.398   4.163   6.169
  130SOL     OW 1288   0.622   1.195   4.332
  130SOL    HW1 1289   0.593   1.290   4.350
  130SOL    HW2 1290   0.639   1.183   4.235
  131SOL     OW 1291   5.589   1.288   2.033
  131SOL    HW1 1292   5.559   1.359   2.097
  131SOL    HW2 1293   5.623   1.330   1.949
  132SOL     OW 1294   2.247   3.094   0.676
  132SOL    HW1 1295   2.204   3.062   0.761
  132SOL    HW2 1296   2.241   3.193   0.671
  133SOL     OW 1297   5.216   6.647   3.904
  133SOL    HW1 1298   5.241   6.603   3.990
  133SOL    HW2 1299   5.256   6.739   3.901
  134SOL     OW 1300   5.946   1.970   2.550
  134SOL    HW1 1301   5.992   1.882   2.566
  134SOL    HW2 1302   6.012   2.036   2.516
  135SOL     OW 1303   5.957   2.837   2.282
  135SOL    HW1 1304   5.975   2.739   2.268
  135SOL    HW2 1305   5.858   2.853   2.280
  136SOL     OW 1306   3.832   3.400   6.205
  136SOL    HW1 1307   3.792   3.465   6.270
  136SOL    HW2 1308   3.800   3.421   6.112
  137SOL     OW 1309   5.144   0.592   5.203
  137SOL    HW1 1310   5.214   0.608   5.134
  137SOL    HW2 1311   5.184   0.542   5.280
  138SOL     OW 1312   0.359   4.349   3.684
  138SOL    HW1 1313   0.417   4.318   3.608
  138SOL    HW2 1314   0.376   4.291   3.764
  139SOL     OW 1315   2.379   6.308   5.354
  139SOL    HW1 1316   2.427   6.364   5.421
  139SOL    HW2 1317   2.440   6.290   5.276
  140SOL     OW 1318   0.049   6.180   3.371
  140SOL    HW1 1319   0.117   6.159   3.441
  140SOL    HW2 1320   0.067   6.270   3.331
  141SOL     OW 1321   6.113   3.015   5.438
  141SOL    HW1 1322   6.162   2.978   5.517
  141SOL    HW2 1323   6.114   3.115   5.442
  142SOL     OW 1324   1.558   5.567   0.689
  142SOL    HW1 1325   1.583   5.473   0.668
  142SOL    HW2 1326   1.640   5.619   0.714
  143SOL     OW 1327   5.728   3.899   2.206
  143SOL    HW1 1328   5.786   3.978   2.188
  143SOL    HW2 1329   5.639   3.930   2.240
  144SOL     OW 1330   1.295   6.938   6.752
  144SOL    HW1 1331   1.221   6.873   6.739
  144SOL    HW2 1332   1.299   7.000   6.673
  145SOL     OW 1333   0.558   4.812   0.434
  145SOL    HW1 1334   0.582   4.834   0.529
  145SOL    HW2 1335   0.539   4.714   0.426
  146SOL     OW 1336   5.079   0.122   5.595
  146SOL    HW1 1337   5.153   0.059   5.571
  146SOL    HW2 1338   5.050   0.173   5.514
  147SOL     OW 1339   5.981   2.930   6.665
  147SOL    HW1 1340   6.018   2.839   6.680
  147SOL    HW2 1341   5.944   2.965   6.751
  148SOL     OW 1342   0.726   4.599   6.401
  148SOL    HW1 1343   0.751   4.694   6.379
  148SOL    HW2 1344   0.788   4.536   6.355
  149SOL     OW 1345   2.491   1.428   4.385
  149SOL    HW1 1346   2.569   1.458   4.439
  149SOL    HW2 1347   2.407   1.470   4.421
  150SOL     OW 1348   5.815   4.811   6.310
  150SOL    HW1 1349   5.768   4.812   6.399
  150SOL    HW2 1350   5.790   4.892   6.258
  151SOL     OW 1351   3.312   1.805   0.963
  151SOL    HW1 1352   3.366   1.724   0.937
  151SOL    HW2 1353   3.251   1.781   1.039
  152SOL     OW 1354   1.931   1.333   4.194
  152SOL    HW1 1355   1.846   1.291   4.226
  152SOL    HW2 1356   1.955   1.296   4.105
  153SOL     OW 1357   2.891   0.188   1.834
  153SOL    HW1 1358   2.861   0.280   1.861
  153SOL    HW2 1359   2.830   0.120   1.875
  154SOL     OW 1360   0.576   2.974   2.949
  154SOL    HW1 1361   0.489   3.022   2.955
  154SOL    HW2 1362   0.606   2.969   2.854
  155SOL     OW 1363   0.395   1.355   3.332
  155SOL    HW1 1364   0.385   1.381   3.428
  155SOL    HW2 1365   0.483   1.311   3.318
  156SOL     OW 1366   6.871   1.912   1.318
  156SOL    HW1 1367   6.963   1.946   1.334
  156SOL    HW2 1368   6.844   1.929   1.224
  157SOL     OW 1369   6.208   3.635   1.978
  157SOL    HW1 1370   6.202   3.590   2.067
  157SOL    HW2 1371   6.161   3.723   1.981
  158SOL     OW 1372   2.661   6.975   2.455
  158SOL    HW1 1373   2.674   0.049   2.481
  158SOL    HW2 1374   2.663   6.918   2.537
  159SOL     OW 1375   4.636   4.301   1.638
  159SOL    HW1 1376   4.618   4.240   1.561
  159SOL    HW2 1377   4.588   4.267   1.719
  160SOL     OW 1378   0.134   4.896   6.765
  160SOL    HW1 1379   0.064   4.915   6.697
  160SOL    HW2 1380   0.220   4.872   6.719
  161SOL     OW 1381   1.552   5.273   4.380
  161SOL    HW1 1382   1.499   5.189   4.384
  161SOL    HW2 1383   1.605   5.283   4.464
  162SOL     OW 1384   3.755   6.477   0.436
  162SOL    HW1 1385   3.804   6.395   0.404
  162SOL    HW2 1386   3.658   6.469   0.412
  163SOL     OW 1387   5.171   5.694   0.972
  163SOL    HW1 1388   5.135   5.647   1.052
  163SOL    HW2 1389   5.213   5.781   0.999
  164SOL     OW 1390   6.816   3.723   1.154
  164SOL    HW1 1391   6.786   3.813   1.119
  164SOL    HW2 1392   6.747   3.688   1.216
  165SOL     OW 1393   5.679   3.162   1.156
  165SOL    HW1 1394   5.615   3.157   1.233
  165SOL    HW2 1395   5.630   3.145   1.071
  166SOL     OW 1396   0.575   4.811   3.908
  166SOL    HW1 1397   0.634   4.879   3.953
  166SOL    HW2 1398   0.552   4.739   3.974
  167SOL     OW 1399   5.680   1.883   0.602
  167SOL    HW1 1400   5.738   1.895   0.521
  167SOL    HW2 1401   5.585   1.869   0.574
  168SOL     OW 1402   2.797   3.523   0.949
  168SOL    HW1 1403   2.792   3.482   0.857
  168SOL    HW2 1404   2.736   3.602   0.953
  169SOL     OW 1405   3.685   0.311   2.775
  169SOL    HW1 1406   3.763   0.299   2.713
  169SOL    HW2 1407   3.608   0.352   2.725
  170SOL     OW 1408   0.229   1.716   3.418
  170SOL    HW1 1409   0.230   1.683   3.323
  170SOL    HW2 1410   0.135   1.714   3.452
  171SOL     OW 1411   3.926   4.425   0.364
  171SOL    HW1 1412   3.992   4.500   0.368
  171SOL    HW2 1413   3.910   4.399   0.269
  172SOL     OW 1414   6.176   1.769   4.297
  172SOL    HW1 1415   6.161   1.726   4.387
  172SOL    HW2 1416   6.127   1.856   4.294
  173SOL     OW 1417   6.407   1.230   4.447
  173SOL    HW1 1418   6.354   1.236   4.532
  173SOL    HW2 1419   6.392   1.313   4.392
  174SOL     OW 1420   2.976   5.314   4.538
  174SOL    HW1 1421   3.013   5.403   4.566
  174SOL    HW2 1422   2.995   5.300   4.441
  175SOL     OW 1423   1.792   6.613   1.803
  175SOL    HW1 1424   1.864   6.560   1.847
  175SOL    HW2 1425   1.812   6.622   1.705
  176SOL     OW 1426   1.243   4.045   0.769
  176SOL    HW1 1427   1.166   4.055   0.706
  176SOL    HW2 1428   1.276   4.135   0.796
  177SOL     OW 1429   6.013   2.986   2.501
  177SOL    HW1 1430   5.938   2.985   2.567
  177SOL    HW2 1431   6.007   2.905   2.442
  178SOL     OW 1432   4.707   3.510   5.878
  178SOL    HW1 1433   4.693   3.588   5.817
  178SOL    HW2 1434   4.718   3.427   5.824
  179SOL     OW 1435   2.849   1.699   6.117
  179SOL    HW1 1436   2.817   1.754   6.040
  179SOL    HW2 1437   2.875   1.759   6.193
  180SOL     OW 1438   1.234   0.279   6.358
  180SOL    HW1 1439   1.179   0.195   6.367
  180SOL    HW2 1440   1.329   0.259   6.384
  181SOL     OW 1441   3.693   1.326   6.643
  181SOL    HW1 1442   3.781   1.291   6.675
  181SOL    HW2 1443   3.699   1.345   6.545
  182SOL     OW 1444   3.957   2.165   4.615
  182SOL    HW1 1445   3.862   2.139   4.634
  182SOL    HW2 1446   4.002   2.188   4.701
  183SOL     OW 1447   3.470   1.711   3.749
  183SOL    HW1 1448   3.502   1.713   3.844
  183SOL    HW2 1449   3.403   1.637   3.737
  184SOL     OW 1450   1.319   5.814   4.046
  184SOL    HW1 1451   1.376   5.765   4.113
  184SOL    HW2 1452   1.224   5.783   4.056
  185SOL     OW 1453   1.130   2.420   6.690
  185SOL    HW1 1454   1.141   2.519   6.681
  185SOL    HW2 1455   1.106   2.381   6.601
  186SOL     OW 1456   6.580   1.390   3.439
  186SOL    HW1 1457   6.584   1.291   3.446
  186SOL    HW2 1458   6.512   1.416   3.370
  187SOL     OW 1459   4.943   0.767   3.363
  187SOL    HW1 1460   5.020   0.715   3.326
  187SOL    HW2 1461   4.956   0.781   3.461
  188SOL     OW 1462   6.202   1.981   3.341
  188SOL    HW1 1463   6.159   1.964   3.252
  188SOL    HW2 1464   6.160   2.061   3.383
  189SOL     OW 1465   1.932   5.647   2.890
  189SOL    HW1 1466   1.858   5.692   2.840
  189SOL    HW2 1467   1.929   5.676   2.986
  190SOL     OW 1468   3.774   1.361   4.513
  190SOL    HW1 1469   3.814   1.414   4.439
  190SOL    HW2 1470   3.725   1.283   4.476
  191SOL     OW 1471   5.510   5.627   6.054
  191SOL    HW1 1472   5.468   5.619   5.964
  191SOL    HW2 1473   5.606   5.599   6.049
  192SOL     OW 1474   6.965   5.550   1.846
  192SOL    HW1 1475   6.961   5.553   1.946
  192SOL    HW2 1476   6.887   5.600   1.808
  193SOL     OW 1477   4.663   2.681   5.481
  193SOL    HW1 1478   4.691   2.767   5.524
  193SOL    HW2 1479   4.566   2.687   5.455
  194SOL     OW 1480   3.771   1.052   2.884
  194SOL    HW1 1481   3.783   1.022   2.789
  194SOL    HW2 1482   3.674   1.067   2.902
  195SOL     OW 1483   1.822   6.303   3.923
  195SOL    HW1 1484   1.903   6.244   3.923
  195SOL    HW2 1485   1.821   6.358   3.840
  196SOL     OW 1486   2.774   1.562   6.740
  196SOL    HW1 1487   2.803   1.635   6.803
  196SOL    HW2 1488   2.675   1.553   6.744
  197SOL     OW 1489   2.331   0.821   0.293
  197SOL    HW1 1490   2.334   0.854   0.387
  197SOL    HW2 1491   2.415   0.770   0.272
  198SOL     OW 1492   4.817   1.601   3.330
  198SOL    HW1 1493   4.769   1.682   3.297
  198SOL    HW2 1494   4.914   1.609   3.309
  199SOL     OW 1495   1.127   2.453   4.094
  199SOL    HW1 1496   1.070   2.536   4.089
  199SOL    HW2 1497   1.223   2.478   4.087
  200SOL     OW 1498   1.550   3.072   0.955
  200SOL    HW1 1499   1.562   3.168   0.981
  200SOL    HW2 1500   1.595   3.014   1.022
  201SOL     OW 1501   0.244   6.709   5.302
  201SOL    HW1 1502   0.233   6.621   5.350
  201SOL    HW2 1503   0.301   6.695   5.221
  202SOL     OW 1504   3.975   1.588   6.657
  202SOL    HW1 1505   3.963   1.589   6.557
  202SOL    HW2 1506   3.983   1.494   6.688
  203SOL     OW 1507   5.923   2.358   5.353
  203SOL    HW1 1508   5.845   2.380   5.295
  203SOL    HW2 1509   5.906   2.389   5.446
  204SOL     OW 1510   0.686   0.141   4.727
  204SOL    HW1 1511   0.712   0.047   4.750
  204SOL    HW2 1512   0.604   0.140   4.670
  205SOL     OW 1513   1.912   2.358   2.913
  205SOL    HW1 1514   1.936   2.409   2.831
  205SOL    HW2 1515   1.814   2.335   2.910
  206SOL     OW 1516   1.261   2.956   1.160
  206SOL    HW1 1517   1.328   2.917   1.223
  206SOL    HW2 1518   1.191   3.006   1.212
  207SOL     OW 1519   5.289   0.821   3.449
  207SOL    HW1 1520   5.371   0.766   3.462
  207SOL    HW2 1521   5.296   0.906   3.502
  208SOL     OW 1522   0.161   3.835   5.581
  208SOL    HW1 1523   0.139   3.764   5.514
  208SOL    HW2 1524   0.112   3.817   5.666
  209SOL     OW 1525   6.477   4.625   3.054
  209SOL    HW1 1526   6.508   4.610   2.960
  209SOL    HW2 1527   6.479   4.538   3.103
  210SOL     OW 1528   4.340   2.062   0.455
  210SOL    HW1 1529   4.319   1.970   0.488
  210SOL    HW2 1530   4.335   2.127   0.531
  211SOL     OW 1531   1.091   6.697   2.369
  211SOL    HW1 1532   1.128   6.655   2.452
  211SOL    HW2 1533   1.002   6.656   2.348
  212SOL     OW 1534   1.185   3.724   2.301
  212SOL    HW1 1535   1.162   3.814   2.263
  212SOL    HW2 1536   1.283   3.707   2.289
  213SOL     OW 1537   1.479   5.797   0.932
  213SOL    HW1 1538   1.531   5.837   1.008
  213SOL    HW2 1539   1.539   5.790   0.852
  214SOL     OW 1540   3.610   5.034   2.500
  214SOL    HW1 1541   3.640   5.003   2.590
  214SOL    HW2 1542   3.571   4.956   2.450
  215SOL     OW 1543   2.675   4.001   1.371
  215SOL    HW1 1544   2.577   3.989   1.351
  215SOL    HW2 1545   2.727   3.929   1.326
  216SOL     OW 1546   0.476   6.399   3.134
  216SOL    HW1 1547   0.541   6.471   3.159
  216SOL    HW2 1548   0.408   6.437   3.070
  217SOL     OW 1549   1.185   2.299   5.237
  217SOL    HW1 1550   1.111   2.236   5.262
  217SOL    HW2 1551   1.258   2.248   5.192
  218SOL     OW 1552   0.624   2.872   4.904
  218SOL    HW1 1553   0.691   2.898   4.835
  218SOL    HW2 1554   0.598   2.777   4.891
  219SOL     OW 1555   4.372   0.413   0.341
  219SOL    HW1 1556   4.321   0.440   0.259
  219SOL    HW2 1557   4.345   0.321   0.368
  220SOL     OW 1558   2.367   6.845   0.684
  220SOL    HW1 1559   2.456   6.835   0.729
  220SOL    HW2 1560   2.370   6.923   0.622
  221SOL     OW 1561   6.464   4.184   1.072
  221SOL    HW1 1562   6.369   4.152   1.071
  221SOL    HW2 1563   6.523   4.108   1.100
  222SOL     OW 1564   1.740   4.583   6.149
  222SOL    HW1 1565   1.728   4.513   6.219
  222SOL    HW2 1566   1.668   4.573   6.080
  223SOL     OW 1567   6.717   2.810   5.039
  223SOL    HW1 1568   6.789   2.769   4.983
  223SOL    HW2 1569   6.631   2.811   4.988
  224SOL     OW 1570   3.537   1.248   6.865
  224SOL    HW1 1571   3.596   1.272   6.788
  224SOL    HW2 1572   3.580   1.176   6.919
  225SOL     OW 1573   4.212   4.193   6.433
  225SOL    HW1 1574   4.249   4.175   6.342
  225SOL    HW2 1575   4.223   4.289   6.456
  226SOL     OW 1576   0.438   1.485   6.182
  226SOL    HW1 1577   0.344   1.463   6.208
  226SOL    HW2 1578   0.477   1.549   6.248
  227SOL     OW 1579   2.249   4.372   2.626
  227SOL    HW1 1580   2.247   4.439   2.552
  227SOL    HW2 1581   2.241   4.280   2.588
  228SOL     OW 1582   1.844   0.708   2.698
  228SOL    HW1 1583   1.860   0.610   2.707
  228SOL    HW2 1584   1.805   0.743   2.783
  229SOL     OW 1585   5.272   5.213   6.218
  229SOL    HW1 1586   5.263   5.308   6.187
  229SOL    HW2 1587   5.181   5.176   6.237
  230SOL     OW 1588   4.479   5.743   4.415
  230SOL    HW1 1589   4.509   5.777   4.504
  230SOL    HW2 1590   4.515   5.651   4.400
  231SOL     OW 1591   6.174   1.455   6.394
  231SOL    HW1 1592   6.246   1.417   6.452
  231SOL    HW2 1593   6.101   1.388   6.381
  232SOL     OW 1594   0.584   3.085   6.330
  232SOL    HW1 1595   0.658   3.144   6.362
  232SOL    HW2 1596   0.617   2.991   6.320
  233SOL     OW 1597   4.275   1.818   3.283
  233SOL    HW1 1598   4.246   1.812   3.188
  233SOL    HW2 1599   4.326   1.902   3.297
  234SOL     OW 1600   6.301   1.070   6.525
  234SOL    HW1 1601   6.249   1.023   6.454
  234SOL    HW2 1602   6.298   1.018   6.610
  235SOL     OW 1603   4.944   3.202   2.106
  235SOL    HW1 1604   4.999   3.135   2.154
  235SOL    HW2 1605   4.854   3.163   2.085
  236SOL     OW 1606   5.275   2.565   6.968
  236SOL    HW1 1607   5.268   2.570   6.868
  236SOL    HW2 1608   5.332   2.640   7.001
  237SOL     OW 1609   0.365   4.255   1.839
  237SOL    HW1 1610   0.333   4.162   1.855
  237SOL    HW2 1611   0.342   4.313   1.917
  238SOL     OW 1612   6.129   1.625   0.791
  238SOL    HW1 1613   6.216   1.575   0.788
  238SOL    HW2 1614   6.110   1.651   0.886
  239SOL     OW 1615   1.002   3.879   0.024
  239SOL    HW1 1616   1.088   3.830   0.039
  239SOL    HW2 1617   0.984   3.938   0.103
  240SOL     OW 1618   0.746   2.977   3.528
  240SOL    HW1 1619   0.742   2.880   3.502
  240SOL    HW2 1620   0.751   3.033   3.445
  241SOL     OW 1621   2.901   2.193   4.657
  241SOL    HW1 1622   2.911   2.192   4.757
  241SOL    HW2 1623   2.988   2.166   4.615
  242SOL     OW 1624   3.493   3.635   3.653
  242SOL    HW1 1625   3.560   3.615   3.582
  242SOL    HW2 1626   3.522   3.716   3.704
  243SOL     OW 1627   4.343   1.760   0.098
  243SOL    HW1 1628   4.410   1.703   0.145
  243SOL    HW2 1629   4.367   1.766   0.001
  244SOL     OW 1630   5.906   3.931   5.632
  244SOL    HW1 1631   5.935   4.011   5.579
  244SOL    HW2 1632   5.809   3.940   5.654
  245SOL     OW 1633   4.613   2.098   3.743
  245SOL    HW1 1634   4.516   2.076   3.753
  245SOL    HW2 1635   4.631   2.189   3.781
  246SOL     OW 1636   5.079   1.432   3.629
  246SOL    HW1 1637   5.030   1.446   3.543
  246SOL    HW2 1638   5.013   1.427   3.704
  247SOL     OW 1639   2.369   1.417   0.476
  247SOL    HW1 1640   2.328   1.381   0.392
  247SOL    HW2 1641   2.355   1.516   0.480
  248SOL     OW 1642   2.472   1.028   2.835
  248SOL    HW1 1643   2.434   0.985   2.916
  248SOL    HW2 1644   2.408   1.095   2.798
  249SOL     OW 1645   5.162   6.681   5.312
  249SOL    HW1 1646   5.165   6.781   5.311
  249SOL    HW2 1647   5.092   6.650   5.248
  250SOL     OW 1648   4.116   3.663   0.791
  250SOL    HW1 1649   4.019   3.639   0.789
  250SOL    HW2 1650   4.127   3.759   0.764
  251SOL     OW 1651   4.396   3.550   5.286
  251SOL    HW1 1652   4.420   3.565   5.382
  251SOL    HW2 1653   4.479   3.547   5.230
  252SOL     OW 1654   6.747   0.134   5.207
  252SOL    HW1 1655   6.830   0.104   5.160
  252SOL    HW2 1656   6.667   0.100   5.157
  253SOL     OW 1657   3.811   5.021   6.319
  253SOL    HW1 1658   3.834   5.110   6.279
  253SOL    HW2 1659   3.718   4.996   6.292
  254SOL     OW 1660   6.642   2.317   3.572
  254SOL    HW1 1661   6.667   2.224   3.601
  254SOL    HW2 1662   6.615   2.315   3.475
  255SOL     OW 1663   2.498   4.455   5.603
  255SOL    HW1 1664   2.559   4.376   5.602
  255SOL    HW2 1665   2.425   4.441   5.536
  256SOL     OW 1666   5.858   3.171   6.198
  256SOL    HW1 1667   5.828   3.135   6.109
  256SOL    HW2 1668   5.895   3.096   6.253
  257SOL     OW 1669   5.290   0.225   3.327
  257SOL    HW1 1670   5.248   0.142   3.364
  257SOL    HW2 1671   5.223   0.299   3.327
  258SOL     OW 1672   2.410   4.153   5.358
  258SOL    HW1 1673   2.346   4.130   5.431
  258SOL    HW2 1674   2.422   4.073   5.298
  259SOL     OW 1675   5.836   0.697   2.148
  259SOL    HW1 1676   5.752   0.726   2.101
  259SOL    HW2 1677   5.913   0.707   2.085
  260SOL     OW 1678   4.169   5.749   2.915
  260SOL    HW1 1679   4.090   5.690   2.931
  260SOL    HW2 1680   4.156   5.836   2.962
  261SOL     OW 1681   5.678   3.760   1.643
  261SOL    HW1 1682   5.768   3.753   1.600
  261SOL    HW2 1683   5.615   3.696   1.600
  262SOL     OW 1684   0.900   4.061   0.215
  262SOL    HW1 1685   0.839   4.141   0.215
  262SOL    HW2 1686   0.950   4.059   0.302
  263SOL     OW 1687   1.739   0.730   4.386
  263SOL    HW1 1688   1.785   0.816   4.363
  263SOL    HW2 1689   1.652   0.750   4.432
  264SOL     OW 1690   6.686   2.340   0.136
  264SOL    HW1 1691   6.703   2.278   0.213
  264SOL    HW2 1692   6.639   2.422   0.169
  265SOL     OW 1693   5.823   6.258   2.552
  265SOL    HW1 1694   5.903   6.297   2.596
  265SOL    HW2 1695   5.761   6.331   2.523
  266SOL     OW 1696   4.495   3.065   5.806
  266SOL    HW1 1697   4.487   2.967   5.791
  266SOL    HW2 1698   4.403   3.105   5.813
  267SOL     OW 1699   0.518   1.881   6.089
  267SOL    HW1 1700   0.551   1.920   6.175
  267SOL    HW2 1701   0.571   1.800   6.067
  268SOL     OW 1702   2.778   1.077   6.120
  268SOL    HW1 1703   2.754   1.106   6.213
  268SOL    HW2 1704   2.722   1.127   6.054
  269SOL     OW 1705   2.259   4.169   0.845
  269SOL    HW1 1706   2.276   4.122   0.932
  269SOL    HW2 1707   2.232   4.101   0.776
  270SOL     OW 1708   0.676   6.055   1.241
  270SOL    HW1 1709   0.697   6.040   1.144
  270SOL    HW2 1710   0.578   6.045   1.256
  271SOL     OW 1711   7.022   1.697   6.103
  271SOL    HW1 1712   7.002   1.682   6.006
  271SOL    HW2 1713   6.938   1.725   6.150
  272SOL     OW 1714   3.559   6.727   4.129
  272SOL    HW1 1715   3.561   6.692   4.035
  272SOL    HW2 1716   3.509   6.813   4.132
  273SOL     OW 1717   2.237   4.414   4.607
  273SOL    HW1 1718   2.330   4.418   4.644
  273SOL    HW2 1719   2.199   4.506   4.603
  274SOL     OW 1720   3.807   1.787   3.086
  274SOL    HW1 1721   3.884   1.849   3.096
  274SOL    HW2 1722   3.790   1.740   3.173
  275SOL     OW 1723   5.988   6.127   2.791
  275SOL    HW1 1724   6.018   6.165   2.879
  275SOL    HW2 1725   6.029   6.179   2.716
  276SOL     OW 1726   6.973   0.031   3.856
  276SOL    HW1 1727   6.961   0.120   3.811
  276SOL    HW2 1728   7.000   0.046   3.951
  277SOL     OW 1729   2.034   3.958   0.269
  277SOL    HW1 1730   1.999   4.038   0.220
  277SOL    HW2 1731   2.097   3.908   0.210
  278SOL     OW 1732   0.278   3.587   1.915
  278SOL    HW1 1733   0.359   3.646   1.910
  278SOL    HW2 1734   0.285   3.516   1.845
  279SOL     OW 1735   5.492   3.005   4.643
  279SOL    HW1 1736   5.392   3.013   4.653
  279SOL    HW2 1737   5.532   2.971   4.728
  280SOL     OW 1738   2.948   5.371   1.914
  280SOL    HW1 1739   2.966   5.379   2.012
  280SOL    HW2 1740   2.866   5.423   1.891
  281SOL     OW 1741   2.587   4.880   1.898
  281SOL    HW1 1742   2.578   4.917   1.990
  281SOL    HW2 1743   2.637   4.794   1.901
  282SOL     OW 1744   2.843   1.566   5.501
  282SOL    HW1 1745   2.748   1.596   5.490
  282SOL    HW2 1746   2.879   1.598   5.588
  283SOL     OW 1747   6.086   2.665   6.643
  283SOL    HW1 1748   6.057   2.579   6.684
  283SOL    HW2 1749   6.162   2.703   6.695
  284SOL     OW 1750   1.328   3.281   3.868
  284SOL    HW1 1751   1.353   3.266   3.964
  284SOL    HW2 1752   1.242   3.235   3.849
  285SOL     OW 1753   5.173   4.815   4.152
  285SOL    HW1 1754   5.230   4.834   4.231
  285SOL    HW2 1755   5.081   4.789   4.182
  286SOL     OW 1756   3.178   4.630   0.086
  286SOL    HW1 1757   3.258   4.605   0.032
  286SOL    HW2 1758   3.194   4.609   0.182
  287SOL     OW 1759   1.249   3.062   0.920
  287SOL    HW1 1760   1.347   3.076   0.906
  287SOL    HW2 1761   1.235   3.003   1.000
  288SOL     OW 1762   3.497   1.792   6.768
  288SOL    HW1 1763   3.489   1.705   6.816
  288SOL    HW2 1764   3.592   1.807   6.740
  289SOL     OW 1765   1.956   4.326   5.342
  289SOL    HW1 1766   1.924   4.397   5.279
  289SOL    HW2 1767   1.910   4.240   5.321
  290SOL     OW 1768   6.146   1.828   4.799
  290SOL    HW1 1769   6.064   1.801   4.850
  290SOL    HW2 1770   6.218   1.854   4.863
  291SOL     OW 1771   0.439   1.848   4.198
  291SOL    HW1 1772   0.390   1.919   4.249
  291SOL    HW2 1773   0.458   1.880   4.106
  292SOL     OW 1774   2.062   1.239   2.966
  292SOL    HW1 1775   1.987   1.240   2.899
  292SOL    HW2 1776   2.067   1.328   3.011
  293SOL     OW 1777   4.439   5.884   3.219
  293SOL    HW1 1778   4.406   5.790   3.226
  293SOL    HW2 1779   4.370   5.947   3.254
  294SOL     OW 1780   6.552   5.750   6.621
  294SOL    HW1 1781   6.632   5.691   6.633
  294SOL    HW2 1782   6.548   5.781   6.526
  295SOL     OW 1783   3.501   1.047   2.905
  295SOL    HW1 1784   3.451   0.984   2.964
  295SOL    HW2 1785   3.462   1.138   2.911
  296SOL     OW 1786   3.326   1.391   2.215
  296SOL    HW1 1787   3.334   1.339   2.129
  296SOL    HW2 1788   3.229   1.397   2.241
  297SOL     OW 1789   2.337   4.191   3.985
  297SOL    HW1 1790   2.351   4.288   4.004
  297SOL    HW2 1791   2.422   4.142   4.000
  298SOL     OW 1792   4.504   6.081   1.310
  298SOL    HW1 1793   4.590   6.041   1.279
  298SOL    HW2 1794   4.428   6.026   1.276
  299SOL     OW 1795   5.402   3.585   5.359
  299SOL    HW1 1796   5.448   3.646   5.425
  299SOL    HW2 1797   5.399   3.492   5.395
  300SOL     OW 1798   6.686   0.553   2.623
  300SOL    HW1 1799   6.645   0.482   2.565
  300SOL    HW2 1800   6.614   0.610   2.662
  301SOL     OW 1801   5.355   3.897   0.334
  301SOL    HW1 1802   5.425   3.842   0.381
  301SOL    HW2 1803   5.367   3.993   0.357
  302SOL     OW 1804   1.315   0.320   3.266
  302SOL    HW1 1805   1.376   0.319   3.345
  302SOL    HW2 1806   1.367   0.296   3.184
  303SOL     OW 1807   5.306   0.813   1.971
  303SOL    HW1 1808   5.339   0.772   2.056
  303SOL    HW2 1809   5.214   0.779   1.951
  304SOL     OW 1810   1.971   6.986   3.138
  304SOL    HW1 1811   1.893   0.023   3.156
  304SOL    HW2 1812   2.031   6.983   3.218
  305SOL     OW 1813   0.505   3.522   6.988
  305SOL    HW1 1814   0.428   3.489   6.933
  305SOL    HW2 1815   0.542   3.605   6.947
  306SOL     OW 1816   1.538   1.433   4.118
  306SOL    HW1 1817   1.484   1.505   4.073
  306SOL    HW2 1818   1.617   1.410   4.062
  307SOL     OW 1819   4.754   6.982   1.300
  307SOL    HW1 1820   4.682   0.028   1.310
  307SOL    HW2 1821   4.719   6.903   1.251
  308SOL     OW 1822   0.129   5.210   4.132
  308SOL    HW1 1823   0.088   5.301   4.122
  308SOL    HW2 1824   0.061   5.140   4.111
  309SOL     OW 1825   3.858   4.520   5.276
  309SOL    HW1 1826   3.949   4.540   5.311
  309SOL    HW2 1827   3.852   4.423   5.252
  310SOL     OW 1828   5.803   6.824   5.658
  310SOL    HW1 1829   5.716   6.870   5.676
  310SOL    HW2 1830   5.785   6.729   5.632
  311SOL     OW 1831   6.566   5.131   1.906
  311SOL    HW1 1832   6.551   5.112   2.003
  311SOL    HW2 1833   6.497   5.197   1.875
  312SOL     OW 1834   4.735   1.547   4.875
  312SOL    HW1 1835   4.741   1.562   4.777
  312SOL    HW2 1836   4.672   1.614   4.916
  313SOL     OW 1837   2.631   4.126   1.692
  313SOL    HW1 1838   2.636   4.212   1.742
  313SOL    HW2 1839   2.720   4.108   1.649
  314SOL     OW 1840   3.624   5.724   0.651
  314SOL    HW1 1841   3.555   5.700   0.582
  314SOL    HW2 1842   3.712   5.736   0.606
  315SOL     OW 1843   0.837   2.084   3.323
  315SOL    HW1 1844   0.771   2.159   3.324
  315SOL    HW2 1845   0.792   2.000   3.352
  316SOL     OW 1846   2.300   2.902   4.509
  316SOL    HW1 1847   2.236   2.979   4.510
  316SOL    HW2 1848   2.318   2.872   4.603
  317SOL     OW 1849   0.847   1.565   0.166
  317SOL    HW1 1850   0.794   1.564   0.251
  317SOL    HW2 1851   0.912   1.488   0.166
  318SOL     OW 1852   1.426   4.950   0.995
  318SOL    HW1 1853   1.385   4.945   1.086
  318SOL    HW2 1854   1.495   5.022   0.994
  319SOL     OW 1855   1.265   6.950   1.950
  319SOL    HW1 1856   1.234   0.018   1.979
  319SOL    HW2 1857   1.220   6.880   2.005
  320SOL     OW 1858   6.130   2.367   0.102
  320SOL    HW1 1859   6.195   2.429   0.059
  320SOL    HW2 1860   6.073   2.324   0.032
  321SOL     OW 1861   2.083   1.976   2.276
  321SOL    HW1 1862   2.058   2.005   2.184
  321SOL    HW2 1863   2.166   1.919   2.271
  322SOL     OW 1864   3.345   2.983   4.240
  322SOL    HW1 1865   3.287   3.064   4.230
  322SOL    HW2 1866   3.358   2.963   4.338
  323SOL     OW 1867   0.681   4.071   0.561
  323SOL    HW1 1868   0.594   4.022   0.562
  323SOL    HW2 1869   0.701   4.107   0.653
  324SOL     OW 1870   0.814   2.938   4.730
  324SOL    HW1 1871   0.845   3.033   4.734
  324SOL    HW2 1872   0.730   2.933   4.677
  325SOL     OW 1873   2.065   3.335   1.044
  325SOL    HW1 1874   2.120   3.403   0.995
  325SOL    HW2 1875   2.116   3.304   1.124
  326SOL     OW 1876   1.642   6.511   6.789
  326SOL    HW1 1877   1.542   6.513   6.788
  326SOL    HW2 1878   1.674   6.499   6.883
  327SOL     OW 1879   0.461   4.735   4.539
  327SOL    HW1 1880   0.402   4.792   4.595
  327SOL    HW2 1881   0.417   4.719   4.450
  328SOL     OW 1882   3.597   5.294   2.718
  328SOL    HW1 1883   3.612   5.324   2.812
  328SOL    HW2 1884   3.617   5.196   2.710
  329SOL     OW 1885   3.085   4.008   3.546
  329SOL    HW1 1886   2.991   4.044   3.543
  329SOL    HW2 1887   3.147   4.073   3.502
  330SOL     OW 1888   3.058   6.545   2.129
  330SOL    HW1 1889   2.960   6.535   2.111
  330SOL    HW2 1890   3.093   6.461   2.170
  331SOL     OW 1891   4.817   5.617   6.257
  331SOL    HW1 1892   4.856   5.635   6.348
  331SOL    HW2 1893   4.730   5.664   6.249
  332SOL     OW 1894   3.332   1.884   3.518
  332SOL    HW1 1895   3.366   1.946   3.588
  332SOL    HW2 1896   3.409   1.839   3.472
  333SOL     OW 1897   4.222   0.179   5.874
  333SOL    HW1 1898   4.250   0.219   5.961
  333SOL    HW2 1899   4.299   0.182   5.810
  334SOL     OW 1900   3.072   6.960   2.249
  334SOL    HW1 1901   3.125   6.881   2.217
  334SOL    HW2 1902   2.976   6.933   2.261
  335SOL     OW 1903   3.953   5.750   3.857
  335SOL    HW1 1904   3.907   5.661   3.852
  335SOL    HW2 1905   3.912   5.805   3.929
  336SOL     OW 1906   2.177   1.211   3.424
  336SOL    HW1 1907   2.191   1.153   3.344
  336SOL    HW2 1908   2.225   1.297   3.413
  337SOL     OW 1909   6.964   3.152   1.392
  337SOL    HW1 1910   6.963   3.228   1.457
  337SOL    HW2 1911   6.884   3.159   1.332
  338SOL     OW 1912   2.881   3.008   1.758
  338SOL    HW1 1913   2.795   3.054   1.783
  338SOL    HW2 1914   2.943   3.074   1.717
  339SOL     OW 1915   3.807   0.242   3.019
  339SOL    HW1 1916   3.906   0.226   3.021
  339SOL    HW2 1917   3.778   0.259   2.925
  340SOL     OW 1918   5.564   4.198   4.805
  340SOL    HW1 1919   5.592   4.272   4.865
  340SOL    HW2 1920   5.642   4.166   4.752
  341SOL     OW 1921   5.252   6.215   4.271
  341SOL    HW1 1922   5.341   6.179   4.245
  341SOL    HW2 1923   5.190   6.213   4.193
  342SOL     OW 1924   5.517   4.431   0.110
  342SOL    HW1 1925   5.590   4.477   0.060
  342SOL    HW2 1926   5.556   4.376   0.183
  343SOL     OW 1927   2.933   6.183   1.927
  343SOL    HW1 1928   2.871   6.104   1.922
  343SOL    HW2 1929   2.882   6.266   1.905
  344SOL     OW 1930   2.121   5.200   0.541
  344SOL    HW1 1931   2.100   5.192   0.638
  344SOL    HW2 1932   2.037   5.195   0.488
  345SOL     OW 1933   0.621   0.724   5.744
  345SOL    HW1 1934   0.564   0.793   5.699
  345SOL    HW2 1935   0.623   0.641   5.688
  346SOL     OW 1936   1.584   0.548   3.087
  346SOL    HW1 1937   1.595   0.519   3.182
  346SOL    HW2 1938   1.524   0.483   3.039
  347SOL     OW 1939   5.483   7.022   6.636
  347SOL    HW1 1940   5.446   0.091   6.652
  347SOL    HW2 1941   5.536   7.022   6.551
  348SOL     OW 1942   4.011   5.071   1.709
  348SOL    HW1 1943   3.912   5.084   1.713
  348SOL    HW2 1944   4.033   5.005   1.636
  349SOL     OW 1945   0.591   4.287   2.370
  349SOL    HW1 1946   0.668   4.288   2.306
  349SOL    HW2 1947   0.506   4.273   2.319
  350SOL     OW 1948   3.978   3.608   1.668
  350SOL    HW1 1949   4.031   3.614   1.752
  350SOL    HW2 1950   3.943   3.515   1.657
  351SOL     OW 1951   2.789   2.024   0.446
  351SOL    HW1 1952   2.751   2.063   0.530
  351SOL    HW2 1953   2.887   2.043   0.441
  352SOL     OW 1954   3.745   0.836   5.012
  352SOL    HW1 1955   3.722   0.741   5.034
  352SOL    HW2 1956   3.679   0.897   5.056
  353SOL     OW 1957   2.069   6.356   0.406
  353SOL    HW1 1958   2.000   6.397   0.348
  353SOL    HW2 1959   2.088   6.416   0.484
  354SOL     OW 1960   3.944   2.318   0.746
  354SOL    HW1 1961   4.028   2.347   0.702
  354SOL    HW2 1962   3.942   2.352   0.840
  355SOL     OW 1963   6.886   3.189   2.522
  355SOL    HW1 1964   6.901   3.287   2.505
  355SOL    HW2 1965   6.974   3.144   2.534
  356SOL     OW 1966   4.768   5.028   4.957
  356SOL    HW1 1967   4.851   4.982   4.925
  356SOL    HW2 1968   4.757   5.115   4.909
  357SOL     OW 1969   0.646   6.147   5.486
  357SOL    HW1 1970   0.627   6.063   5.537
  357SOL    HW2 1971   0.683   6.216   5.548
  358SOL     OW 1972   6.611   0.267   1.772
  358SOL    HW1 1973   6.660   0.296   1.855
  358SOL    HW2 1974   6.658   0.189   1.732
  359SOL     OW 1975   1.360   2.345   2.408
  359SOL    HW1 1976   1.322   2.437   2.423
  359SOL    HW2 1977   1.382   2.334   2.311
  360SOL     OW 1978   3.856   6.593   6.411
  360SOL    HW1 1979   3.762   6.608   6.441
  360SOL    HW2 1980   3.856   6.536   6.328
  361SOL     OW 1981   5.166   5.710   3.205
  361SOL    HW1 1982   5.102   5.780   3.238
  361SOL    HW2 1983   5.120   5.650   3.140
  362SOL     OW 1984   2.585   4.339   0.271
  362SOL    HW1 1985   2.547   4.302   0.356
  362SOL    HW2 1986   2.624   4.429   0.287
  363SOL     OW 1987   3.772   4.912   4.140
  363SOL    HW1 1988   3.780   4.906   4.239
  363SOL    HW2 1989   3.707   4.843   4.107
  364SOL     OW 1990   0.692   5.428   5.964
  364SOL    HW1 1991   0.599   5.425   5.927
  364SOL    HW2 1992   0.757   5.416   5.889
  365SOL     OW 1993   5.148   5.935   2.484
  365SOL    HW1 1994   5.122   5.944   2.388
  365SOL    HW2 1995   5.240   5.895   2.490
  366SOL     OW 1996   6.219   1.277   0.228
  366SOL    HW1 1997   6.314   1.306   0.238
  366SOL    HW2 1998   6.163   1.354   0.198
  367SOL     OW 1999   5.251   3.130   0.919
  367SOL    HW1 2000   5.176   3.136   0.853
  367SOL    HW2 2001   5.240   3.201   0.989
  368SOL     OW 2002   1.773   4.942   5.215
  368SOL    HW1 2003   1.692   4.884   5.225
  368SOL    HW2 2004   1.765   5.022   5.274
  369SOL     OW 2005   6.558   4.231   1.430
  369SOL    HW1 2006   6.596   4.310   1.477
  369SOL    HW2 2007   6.622   4.154   1.436
  370SOL     OW 2008   2.419   0.447   6.023
  370SOL    HW1 2009   2.510   0.486   6.037
  370SOL    HW2 2010   2.414   0.406   5.932
  371SOL     OW 2011   2.883   3.525   0.098
  371SOL    HW1 2012   2.923   3.538   0.189
  371SOL    HW2 2013   2.885   3.612   0.048
  372SOL     OW 2014   6.914   0.573   5.153
  372SOL    HW1 2015   6.961   0.571   5.241
  372SOL    HW2 2016   6.938   0.656   5.103
  373SOL     OW 2017   0.047   6.447   6.527
  373SOL    HW1 2018   0.032   6.447   6.429
  373SOL    HW2 2019   0.134   6.403   6.548
  374SOL     OW 2020   3.294   0.183   2.852
  374SOL    HW1 2021   3.295   0.200   2.753
  374SOL    HW2 2022   3.200   0.176   2.884
  375SOL     OW 2023   6.409   4.590   3.417
  375SOL    HW1 2024   6.497   4.553   3.390
  375SOL    HW2 2025   6.335   4.536   3.376
  376SOL     OW 2026   1.700   2.838   3.703
  376SOL    HW1 2027   1.612   2.829   3.656
  376SOL    HW2 2028   1.721   2.753   3.751
  377SOL     OW 2029   5.356   2.243   2.517
  377SOL    HW1 2030   5.410   2.314   2.473
  377SOL    HW2 2031   5.369   2.247   2.616
  378SOL     OW 2032   3.841   3.540   5.731
  378SOL    HW1 2033   3.811   3.453   5.693
  378SOL    HW2 2034   3.928   3.566   5.690
  379SOL     OW 2035   6.026   3.409   1.438
  379SOL    HW1 2036   6.008   3.441   1.531
  379SOL    HW2 2037   5.950   3.435   1.378
  380SOL     OW 2038   1.113   1.585   1.126
  380SOL    HW1 2039   1.134   1.490   1.104
  380SOL    HW2 2040   1.153   1.609   1.214
  381SOL     OW 2041   3.114   4.833   1.507
  381SOL    HW1 2042   3.043   4.811   1.574
  381SOL    HW2 2043   3.198   4.859   1.555
  382SOL     OW 2044   3.288   5.907   0.366
  382SOL    HW1 2045   3.386   5.888   0.379
  382SOL    HW2 2046   3.246   5.831   0.316
  383SOL     OW 2047   6.918   2.676   6.464
  383SOL    HW1 2048   6.891   2.602   6.402
  383SOL    HW2 2049   6.979   2.739   6.417
  384SOL     OW 2050   0.447   5.523   5.893
  384SOL    HW1 2051   0.387   5.507   5.815
  384SOL    HW2 2052   0.417   5.606   5.941
  385SOL     OW 2053   4.709   6.258   0.539
  385SOL    HW1 2054   4.722   6.339   0.482
  385SOL    HW2 2055   4.783   6.193   0.522
  386SOL     OW 2056   3.986   6.296   5.120
  386SOL    HW1 2057   3.901   6.250   5.144
  386SOL    HW2 2058   3.966   6.374   5.060
  387SOL     OW 2059   0.118   0.648   4.165
  387SOL    HW1 2060   0.107   0.703   4.082
  387SOL    HW2 2061   0.215   0.645   4.190
  388SOL     OW 2062   6.871   2.922   5.353
  388SOL    HW1 2063   6.775   2.894   5.357
  388SOL    HW2 2064   6.876   3.015   5.317
  389SOL     OW 2065   4.351   4.461   1.784
  389SOL    HW1 2066   4.280   4.410   1.734
  389SOL    HW2 2067   4.428   4.401   1.802
  390SOL     OW 2068   3.973   1.141   0.370
  390SOL    HW1 2069   3.901   1.209   0.356
  390SOL    HW2 2070   3.932   1.055   0.402
  391SOL     OW 2071   3.131   3.950   6.326
  391SOL    HW1 2072   3.190   4.030   6.324
  391SOL    HW2 2073   3.149   3.893   6.246
  392SOL     OW 2074   1.697   3.948   1.990
  392SOL    HW1 2075   1.685   3.909   1.899
  392SOL    HW2 2076   1.795   3.954   2.011
  393SOL     OW 2077   0.636   4.558   0.770
  393SOL    HW1 2078   0.588   4.583   0.854
  393SOL    HW2 2079   0.577   4.499   0.715
  394SOL     OW 2080   6.382   2.380   6.677
  394SOL    HW1 2081   6.378   2.282   6.697
  394SOL    HW2 2082   6.348   2.432   6.755
  395SOL     OW 2083   4.695   4.438   1.910
  395SOL    HW1 2084   4.717   4.379   1.832
  395SOL    HW2 2085   4.633   4.390   1.972
  396SOL     OW 2086   2.998   1.918   2.861
  396SOL    HW1 2087   3.038   2.008   2.841
  396SOL    HW2 2088   2.999   1.903   2.960
  397SOL     OW 2089   4.828   1.231   5.179
  397SOL    HW1 2090   4.800   1.142   5.216
  397SOL    HW2 2091   4.803   1.236   5.083
  398SOL     OW 2092   1.639   0.054   4.491
  398SOL    HW1 2093   1.659   0.152   4.496
  398SOL    HW2 2094   1.633   0.027   4.395
  399SOL     OW 2095   5.149   5.266   3.886
  399SOL    HW1 2096   5.122   5.196   3.952
  399SOL    HW2 2097   5.067   5.309   3.847
  400SOL     OW 2098   6.215   0.830   4.450
  400SOL    HW1 2099   6.120   0.833   4.418
  400SOL    HW2 2100   6.276   0.856   4.375
  401SOL     OW 2101   6.552   6.585   5.722
  401SOL    HW1 2102   6.473   6.559   5.667
  401SOL    HW2 2103   6.582   6.677   5.694
  402SOL     OW 2104   6.628   0.018   2.589
  402SOL    HW1 2105   6.580   7.017   2.504
  402SOL    HW2 2106   6.727   0.018   2.571
  403SOL     OW 2107   2.793   0.727   6.561
  403SOL    HW1 2108   2.852   0.760   6.487
  403SOL    HW2 2109   2.716   0.676   6.522
  404SOL     OW 2110   3.536   5.526   5.331
  404SOL    HW1 2111   3.573   5.436   5.306
  404SOL    HW2 2112   3.607   5.579   5.377
  405SOL     OW 2113   2.261   4.129   3.426
  405SOL    HW1 2114   2.256   4.223   3.462
  405SOL    HW2 2115   2.288   4.132   3.330
  406SOL     OW 2116   0.277   5.001   5.816
  406SOL    HW1 2117   0.192   5.010   5.764
  406SOL    HW2 2118   0.278   5.070   5.889
  407SOL     OW 2119   1.435   3.227   4.121
  407SOL    HW1 2120   1.448   3.323   4.144
  407SOL    HW2 2121   1.523   3.181   4.115
  408SOL     OW 2122   2.903   1.310   3.259
  408SOL    HW1 2123   2.831   1.375   3.233
  408SOL    HW2 2124   2.993   1.350   3.238
  409SOL     OW 2125   1.246   4.018   2.562
  409SOL    HW1 2126   1.307   4.092   2.591
  409SOL    HW2 2127   1.269   3.934   2.611
  410SOL     OW 2128   1.564   2.444   1.371
  410SOL    HW1 2129   1.494   2.509   1.340
  410SOL    HW2 2130   1.571   2.448   1.470
  411SOL     OW 2131   0.400   2.362   1.599
  411SOL    HW1 2132   0.448   2.285   1.640
  411SOL    HW2 2133   0.463   2.416   1.544
  412SOL     OW 2134   2.188   5.088   2.702
  412SOL    HW1 2135   2.127   5.036   2.760
  412SOL    HW2 2136   2.215   5.032   2.623
  413SOL     OW 2137   4.303   4.931   2.774
  413SOL    HW1 2138   4.251   4.888   2.700
  413SOL    HW2 2139   4.249   5.005   2.813
  414SOL     OW 2140   2.729   6.719   3.797
  414SOL    HW1 2141   2.747   6.791   3.730
  414SOL    HW2 2142   2.705   6.634   3.750
  415SOL     OW 2143   6.425   0.475   0.510
  415SOL    HW1 2144   6.474   0.520   0.436
  415SOL    HW2 2145   6.327   0.489   0.498
  416SOL     OW 2146   4.912   3.487   4.763
  416SOL    HW1 2147   4.867   3.518   4.847
  416SOL    HW2 2148   5.006   3.521   4.762
  417SOL     OW 2149   3.700   2.258   6.843
  417SOL    HW1 2150   3.753   2.320   6.785
  417SOL    HW2 2151   3.608   2.294   6.855
  418SOL     OW 2152   3.545   6.280   4.073
  418SOL    HW1 2153   3.573   6.296   4.167
  418SOL    HW2 2154   3.623   6.295   4.012
  419SOL     OW 2155   0.895   0.090   1.787
  419SOL    HW1 2156   0.903   0.111   1.884
  419SOL    HW2 2157   0.938   0.001   1.768
  420SOL     OW 2158   6.301   0.338   6.252
  420SOL    HW1 2159   6.218   0.321   6.305
  420SOL    HW2 2160   6.341   0.426   6.279
  421SOL     OW 2161   5.461   4.034   3.665
  421SOL    HW1 2162   5.383   4.054   3.605
  421SOL    HW2 2163   5.451   4.084   3.751
  422SOL     OW 2164   5.594   2.764   2.057
  422SOL    HW1 2165   5.585   2.861   2.032
  422SOL    HW2 2166   5.613   2.757   2.154
  423SOL     OW 2167   3.269   1.175   6.394
  423SOL    HW1 2168   3.298   1.191   6.489
  423SOL    HW2 2169   3.235   1.261   6.355
  424SOL     OW 2170   1.521   4.240   2.923
  424SOL    HW1 2171   1.553   4.199   2.837
  424SOL    HW2 2172   1.585   4.218   2.996
  425SOL     OW 2173   3.645   0.290   5.674
  425SOL    HW1 2174   3.698   0.372   5.653
  425SOL    HW2 2175   3.624   0.289   5.772
  426SOL     OW 2176   2.472   2.499   4.430
  426SOL    HW1 2177   2.536   2.436   4.475
  426SOL    HW2 2178   2.459   2.580   4.488
  427SOL     OW 2179   4.036   1.989   3.159
  427SOL    HW1 2180   4.021   2.041   3.075
  427SOL    HW2 2181   4.113   1.927   3.146
  428SOL     OW 2182   2.525   1.270   5.084
  428SOL    HW1 2183   2.468   1.331   5.029
  428SOL    HW2 2184   2.551   1.190   5.029
  429SOL     OW 2185   1.070   6.152   3.610
  429SOL    HW1 2186   1.053   6.104   3.524
  429SOL    HW2 2187   1.165   6.140   3.637
  430SOL     OW 2188   1.738   6.843   3.576
  430SOL    HW1 2189   1.770   6.769   3.635
  430SOL    HW2 2190   1.816   6.881   3.526
  431SOL     OW 2191   2.376   2.165   2.180
  431SOL    HW1 2192   2.448   2.203   2.238
  431SOL    HW2 2193   2.398   2.182   2.084
  432SOL     OW 2194   4.240   2.468   1.399
  432SOL    HW1 2195   4.182   2.492   1.477
  432SOL    HW2 2196   4.310   2.403   1.428
  433SOL     OW 2197   2.096   6.714   6.997
  433SOL    HW1 2198   2.127   6.710   0.070
  433SOL    HW2 2199   2.161   6.665   6.939
  434SOL     OW 2200   4.155   6.598   3.841
  434SOL    HW1 2201   4.126   6.576   3.934
  434SOL    HW2 2202   4.123   6.527   3.779
  435SOL     OW 2203   2.869   1.441   6.005
  435SOL    HW1 2204   2.774   1.443   6.034
  435SOL    HW2 2205   2.913   1.528   6.029
  436SOL     OW 2206   4.499   0.015   2.935
  436SOL    HW1 2207   4.443   6.995   3.007
  436SOL    HW2 2208   4.535   0.102   2.969
  437SOL     OW 2209   6.644   0.111   4.382
  437SOL    HW1 2210   6.570   0.137   4.444
  437SOL    HW2 2211   6.713   0.183   4.380
  438SOL     OW 2212   0.902   4.500   2.753
  438SOL    HW1 2213   0.839   4.476   2.679
  438SOL    HW2 2214   0.851   4.535   2.831
  439SOL     OW 2215   5.810   0.624   2.877
  439SOL    HW1 2216   5.771   0.696   2.934
  439SOL    HW2 2217   5.849   0.664   2.794
  440SOL     OW 2218   4.396   0.988   0.643
  440SOL    HW1 2219   4.434   0.974   0.734
  440SOL    HW2 2220   4.348   1.076   0.640
  441SOL     OW 2221   0.388   4.465   2.737
  441SOL    HW1 2222   0.363   4.448   2.642
  441SOL    HW2 2223   0.381   4.563   2.756
  442SOL     OW 2224   5.847   3.515   5.640
  442SOL    HW1 2225   5.783   3.443   5.615
  442SOL    HW2 2226   5.799   3.585   5.693
  443SOL     OW 2227   4.939   3.360   2.843
  443SOL    HW1 2228   4.985   3.438   2.885
  443SOL    HW2 2229   4.914   3.382   2.749
  444SOL     OW 2230   4.222   1.136   1.306
  444SOL    HW1 2231   4.307   1.091   1.278
  444SOL    HW2 2232   4.185   1.089   1.386
  445SOL     OW 2233   1.480   5.292   2.521
  445SOL    HW1 2234   1.432   5.286   2.433
  445SOL    HW2 2235   1.565   5.239   2.517
  446SOL     OW 2236   5.761   6.721   1.961
  446SOL    HW1 2237   5.787   6.781   1.885
  446SOL    HW2 2238   5.828   6.731   2.035
  447SOL     OW 2239   5.783   3.856   6.803
  447SOL    HW1 2240   5.753   3.916   6.877
  447SOL    HW2 2241   5.703   3.812   6.761
  448SOL     OW 2242   2.552   0.079   3.211
  448SOL    HW1 2243   2.605   0.148   3.162
  448SOL    HW2 2244   2.491   0.124   3.276
  449SOL     OW 2245   1.941   2.748   4.574
  449SOL    HW1 2246   1.869   2.796   4.624
  449SOL    HW2 2247   2.011   2.716   4.638
  450SOL     OW 2248   0.510   4.086   3.272
  450SOL    HW1 2249   0.521   4.012   3.337
  450SOL    HW2 2250   0.596   4.100   3.222
  451SOL     OW 2251   1.060   2.227   2.708
  451SOL    HW1 2252   1.069   2.128   2.692
  451SOL    HW2 2253   1.105   2.250   2.794
  452SOL     OW 2254   4.539   6.487   3.085
  452SOL    HW1 2255   4.524   6.548   3.007
  452SOL    HW2 2256   4.617   6.427   3.065
  453SOL     OW 2257   3.838   0.615   0.164
  453SOL    HW1 2258   3.774   0.555   0.212
  453SOL    HW2 2259   3.878   0.565   0.087
  454SOL     OW 2260   0.391   4.410   6.619
  454SOL    HW1 2261   0.431   4.497   6.593
  454SOL    HW2 2262   0.310   4.392   6.562
  455SOL     OW 2263   6.268   4.588   6.055
  455SOL    HW1 2264   6.314   4.673   6.081
  455SOL    HW2 2265   6.269   4.579   5.956
  456SOL     OW 2266   2.448   0.993   2.355
  456SOL    HW1 2267   2.388   1.014   2.277
  456SOL    HW2 2268   2.392   0.969   2.434
  457SOL     OW 2269   2.260   6.930   6.378
  457SOL    HW1 2270   2.256   7.003   6.447
  457SOL    HW2 2271   2.169   6.890   6.367
  458SOL     OW 2272   1.951   1.423   3.467
  458SOL    HW1 2273   2.000   1.474   3.397
  458SOL    HW2 2274   1.999   1.336   3.484
  459SOL     OW 2275   2.407   0.216   4.684
  459SOL    HW1 2276   2.484   0.278   4.669
  459SOL    HW2 2277   2.406   0.187   4.780
  460SOL     OW 2278   1.223   1.859   4.845
  460SOL    HW1 2279   1.126   1.847   4.826
  460SOL    HW2 2280   1.267   1.906   4.768
  461SOL     OW 2281   0.883   5.372   5.765
  461SOL    HW1 2282   0.943   5.451   5.758
  461SOL    HW2 2283   0.938   5.291   5.788
  462SOL     OW 2284   3.151   4.062   4.428
  462SOL    HW1 2285   3.104   4.002   4.493
  462SOL    HW2 2286   3.134   4.157   4.452
  463SOL     OW 2287   5.948   6.790   2.464
  463SOL    HW1 2288   5.979   6.817   2.554
  463SOL    HW2 2289   6.027   6.772   2.405
  464SOL     OW 2290   3.827   6.380   6.631
  464SOL    HW1 2291   3.910   6.409   6.584
  464SOL    HW2 2292   3.830   6.281   6.645
  465SOL     OW 2293   1.663   2.914   6.934
  465SOL    HW1 2294   1.600   2.934   6.859
  465SOL    HW2 2295   1.742   2.975   6.928
  466SOL     OW 2296   3.793   5.825   4.553
  466SOL    HW1 2297   3.881   5.843   4.511
  466SOL    HW2 2298   3.792   5.733   4.590
  467SOL     OW 2299   6.160   0.543   1.983
  467SOL    HW1 2300   6.100   0.464   1.997
  467SOL    HW2 2301   6.255   0.513   1.982
  468SOL     OW 2302   4.267   6.990   7.005
  468SOL    HW1 2303   4.303   6.974   6.913
  468SOL    HW2 2304   4.236   6.903   0.022
  469SOL     OW 2305   2.621   5.064   5.615
  469SOL    HW1 2306   2.557   5.058   5.692
  469SOL    HW2 2307   2.602   4.988   5.552
  470SOL     OW 2308   2.336   4.882   3.089
  470SOL    HW1 2309   2.406   4.923   3.147
  470SOL    HW2 2310   2.278   4.823   3.144
  471SOL     OW 2311   2.602   2.430   4.198
  471SOL    HW1 2312   2.532   2.379   4.147
  471SOL    HW2 2313   2.568   2.450   4.290
  472SOL     OW 2314   6.636   4.356   6.058
  472SOL    HW1 2315   6.706   4.329   6.124
  472SOL    HW2 2316   6.550   4.375   6.107
  473SOL     OW 2317   6.624   2.956   2.846
  473SOL    HW1 2318   6.676   3.034   2.881
  473SOL    HW2 2319   6.662   2.871   2.882
  474SOL     OW 2320   4.964   5.850   4.400
  474SOL    HW1 2321   5.044   5.911   4.406
  474SOL    HW2 2322   4.994   5.761   4.367
  475SOL     OW 2323   5.969   1.021   1.486
  475SOL    HW1 2324   5.904   0.951   1.454
  475SOL    HW2 2325   5.921   1.086   1.545
  476SOL     OW 2326   0.600   4.845   1.310
  476SOL    HW1 2327   0.514   4.815   1.267
  476SOL    HW2 2328   0.579   4.914   1.379
  477SOL     OW 2329   1.309   4.455   3.699
  477SOL    HW1 2330   1.274   4.508   3.622
  477SOL    HW2 2331   1.245   4.464   3.776
  478SOL     OW 2332   4.634   5.648   1.612
  478SOL    HW1 2333   4.725   5.689   1.603
  478SOL    HW2 2334   4.567   5.720   1.631
  479SOL     OW 2335   4.095   3.796   4.233
  479SOL    HW1 2336   4.046   3.855   4.169
  479SOL    HW2 2337   4.164   3.744   4.183
  480SOL     OW 2338   2.260   0.237   2.910
  480SOL    HW1 2339   2.245   0.153   2.962
  480SOL    HW2 2340   2.352   0.272   2.926
  481SOL     OW 2341   0.257   6.973   0.903
  481SOL    HW1 2342   0.243   6.924   0.817
  481SOL    HW2 2343   0.355   6.987   0.918
  482SOL     OW 2344   4.770   5.316   1.529
  482SOL    HW1 2345   4.860   5.355   1.511
  482SOL    HW2 2346   4.777   5.217   1.539
  483SOL     OW 2347   5.365   2.144   3.181
  483SOL    HW1 2348   5.459   2.110   3.180
  483SOL    HW2 2349   5.355   2.213   3.252
  484SOL     OW 2350   2.257   4.091   4.240
  484SOL    HW1 2351   2.268   4.019   4.171
  484SOL    HW2 2352   2.297   4.176   4.205
  485SOL     OW 2353   5.158   3.249   1.870
  485SOL    HW1 2354   5.131   3.154   1.890
  485SOL    HW2 2355   5.241   3.271   1.921
  486SOL     OW 2356   5.798   6.390   5.899
  486SOL    HW1 2357   5.881   6.345   5.933
  486SOL    HW2 2358   5.748   6.430   5.975
  487SOL     OW 2359   0.098   6.834   4.988
  487SOL    HW1 2360   0.188   6.857   5.024
  487SOL    HW2 2361   0.084   6.735   4.994
  488SOL     OW 2362   1.284   6.042   3.738
  488SOL    HW1 2363   1.345   6.004   3.669
  488SOL    HW2 2364   1.334   6.057   3.823
  489SOL     OW 2365   0.660   5.693   5.819
  489SOL    HW1 2366   0.586   5.627   5.834
  489SOL    HW2 2367   0.746   5.644   5.806
  490SOL     OW 2368   1.110   4.884   5.715
  490SOL    HW1 2369   1.172   4.960   5.726
  490SOL    HW2 2370   1.162   4.800   5.699
  491SOL     OW 2371   0.158   2.827   0.856
  491SOL    HW1 2372   0.156   2.728   0.869
  491SOL    HW2 2373   0.191   2.871   0.940
  492SOL     OW 2374   1.404   1.830   6.006
  492SOL    HW1 2375   1.467   1.756   6.025
  492SOL    HW2 2376   1.424   1.868   5.915
  493SOL     OW 2377   2.183   6.164   4.754
  493SOL    HW1 2378   2.203   6.258   4.783
  493SOL    HW2 2379   2.198   6.102   4.831
  494SOL     OW 2380   2.202   6.549   5.247
  494SOL    HW1 2381   2.156   6.609   5.182
  494SOL    HW2 2382   2.240   6.470   5.198
  495SOL     OW 2383   3.822   5.298   5.830
  495SOL    HW1 2384   3.880   5.218   5.849
  495SOL    HW2 2385   3.819   5.357   5.911
  496SOL     OW 2386   4.932   1.689   2.575
  496SOL    HW1 2387   4.975   1.645   2.654
  496SOL    HW2 2388   4.958   1.786   2.573
  497SOL     OW 2389   3.236   0.978   0.148
  497SOL    HW1 2390   3.332   0.999   0.167
  497SOL    HW2 2391   3.196   1.052   0.094
  498SOL     OW 2392   0.404   5.863   1.773
  498SOL    HW1 2393   0.363   5.776   1.800
  498SOL    HW2 2394   0.386   5.879   1.676
  499SOL     OW 2395   3.390   6.097   6.972
  499SOL    HW1 2396   3.370   6.116   0.046
  499SOL    HW2 2397   3.339   6.161   6.914
  500SOL     OW 2398   5.733   1.822   0.140
  500SOL    HW1 2399   5.664   1.890   0.166
  500SOL    HW2 2400   5.713   1.735   0.186
  501SOL     OW 2401   1.181   0.203   3.000
  501SOL    HW1 2402   1.130   0.280   2.962
  501SOL    HW2 2403   1.142   0.177   3.088
  502SOL     OW 2404   1.990   5.332   6.458
  502SOL    HW1 2405   1.932   5.297   6.385
  502SOL    HW2 2406   1.950   5.310   6.546
  503SOL     OW 2407   3.611   4.797   6.655
  503SOL    HW1 2408   3.704   4.832   6.648
  503SOL    HW2 2409   3.581   4.799   6.750
  504SOL     OW 2410   6.181   6.603   2.067
  504SOL    HW1 2411   6.150   6.514   2.101
  504SOL    HW2 2412   6.161   6.610   1.969
  505SOL     OW 2413   5.086   6.598   4.757
  505SOL    HW1 2414   5.099   6.650   4.841
  505SOL    HW2 2415   5.054   6.506   4.779
  506SOL     OW 2416   3.724   5.034   3.147
  506SOL    HW1 2417   3.803   5.048   3.087
  506SOL    HW2 2418   3.642   5.020   3.093
  507SOL     OW 2419   3.408   0.526   0.740
  507SOL    HW1 2420   3.357   0.609   0.718
  507SOL    HW2 2421   3.477   0.509   0.669
  508SOL     OW 2422   6.969   5.001   4.053
  508SOL    HW1 2423   7.018   4.949   3.983
  508SOL    HW2 2424   6.911   4.940   4.106
  509SOL     OW 2425   4.589   6.548   5.685
  509SOL    HW1 2426   4.663   6.520   5.623
  509SOL    HW2 2427   4.627   6.564   5.776
  510SOL     OW 2428   6.784   3.809   6.846
  510SOL    HW1 2429   6.876   3.823   6.808
  510SOL    HW2 2430   6.718   3.802   6.771
  511SOL     OW 2431   0.910   1.688   0.715
  511SOL    HW1 2432   0.868   1.776   0.693
  511SOL    HW2 2433   0.962   1.697   0.801
  512SOL     OW 2434   6.698   2.570   6.270
  512SOL    HW1 2435   6.622   2.525   6.317
  512SOL    HW2 2436   6.666   2.655   6.229
  513SOL     OW 2437   5.388   0.512   2.682
  513SOL    HW1 2438   5.421   0.591   2.734
  513SOL    HW2 2439   5.466   0.457   2.652
  514SOL     OW 2440   6.157   6.782   4.051
  514SOL    HW1 2441   6.125   6.877   4.064
  514SOL    HW2 2442   6.155   6.735   4.140
  515SOL     OW 2443   3.798   6.873   6.680
  515SOL    HW1 2444   3.882   6.876   6.733
  515SOL    HW2 2445   3.817   6.834   6.590
  516SOL     OW 2446   2.025   5.512   1.543
  516SOL    HW1 2447   1.926   5.501   1.545
  516SOL    HW2 2448   2.060   5.520   1.637
  517SOL     OW 2449   3.332   5.285   2.327
  517SOL    HW1 2450   3.366   5.197   2.291
  517SOL    HW2 2451   3.363   5.297   2.421
  518SOL     OW 2452   2.105   3.466   3.399
  518SOL    HW1 2453   2.128   3.380   3.353
  518SOL    HW2 2454   2.129   3.459   3.496
  519SOL     OW 2455   0.352   6.880   3.694
  519SOL    HW1 2456   0.399   6.814   3.635
  519SOL    HW2 2457   0.282   6.927   3.640
  520SOL     OW 2458   1.372   3.176   0.227
  520SOL    HW1 2459   1.397   3.273   0.240
  520SOL    HW2 2460   1.353   3.135   0.316
  521SOL     OW 2461   5.299   5.118   5.383
  521SOL    HW1 2462   5.205   5.151   5.375
  521SOL    HW2 2463   5.333   5.092   5.292
  522SOL     OW 2464   4.221   3.879   1.588
  522SOL    HW1 2465   4.127   3.858   1.564
  522SOL    HW2 2466   4.266   3.796   1.623
  523SOL     OW 2467   0.427   6.430   1.919
  523SOL    HW1 2468   0.445   6.344   1.870
  523SOL    HW2 2469   0.465   6.506   1.867
  524SOL     OW 2470   7.007   2.075   1.781
  524SOL    HW1 2471   6.987   2.121   1.694
  524SOL    HW2 2472   6.953   2.116   1.854
  525SOL     OW 2473   1.739   4.053   6.492
  525SOL    HW1 2474   1.818   4.097   6.451
  525SOL    HW2 2475   1.745   3.954   6.479
  526SOL     OW 2476   2.923   6.872   4.805
  526SOL    HW1 2477   2.958   6.892   4.714
  526SOL    HW2 2478   2.990   6.819   4.856
  527SOL     OW 2479   0.886   1.884   0.225
  527SOL    HW1 2480   0.888   1.796   0.179
  527SOL    HW2 2481   0.970   1.897   0.277
  528SOL     OW 2482   6.424   3.016   4.277
  528SOL    HW1 2483   6.418   3.045   4.181
  528SOL    HW2 2484   6.332   3.003   4.314
  529SOL     OW 2485   2.146   0.550   6.091
  529SOL    HW1 2486   2.102   0.501   6.166
  529SOL    HW2 2487   2.241   0.518   6.082
  530SOL     OW 2488   3.476   3.724   0.884
  530SOL    HW1 2489   3.533   3.652   0.846
  530SOL    HW2 2490   3.456   3.704   0.980
  531SOL     OW 2491   1.986   0.619   1.729
  531SOL    HW1 2492   1.923   0.698   1.727
  531SOL    HW2 2493   2.066   0.639   1.672
  532SOL     OW 2494   2.922   2.473   0.447
  532SOL    HW1 2495   2.839   2.454   0.394
  532SOL    HW2 2496   2.997   2.496   0.384
  533SOL     OW 2497   3.843   0.228   3.977
  533SOL    HW1 2498   3.841   0.205   3.879
  533SOL    HW2 2499   3.891   0.315   3.989
  534SOL     OW 2500   1.402   5.165   1.366
  534SOL    HW1 2501   1.329   5.195   1.427
  534SOL    HW2 2502   1.491   5.184   1.409
  535SOL     OW 2503   5.387   3.750   3.678
  535SOL    HW1 2504   5.409   3.846   3.692
  535SOL    HW2 2505   5.386   3.729   3.581
  536SOL     OW 2506   6.420   6.205   3.141
  536SOL    HW1 2507   6.458   6.196   3.049
  536SOL    HW2 2508   6.341   6.266   3.140
  537SOL     OW 2509   3.569   0.933   4.701
  537SOL    HW1 2510   3.547   0.945   4.604
  537SOL    HW2 2511   3.493   0.966   4.757
  538SOL     OW 2512   2.734   4.645   5.570
  538SOL    HW1 2513   2.707   4.722   5.513
  538SOL    HW2 2514   2.653   4.591   5.594
  539SOL     OW 2515   0.788   6.216   0.278
  539SOL    HW1 2516   0.728   6.269   0.338
  539SOL    HW2 2517   0.753   6.220   0.185
  540SOL     OW 2518   1.047   0.465   3.866
  540SOL    HW1 2519   1.070   0.443   3.960
  540SOL    HW2 2520   1.037   0.564   3.856
  541SOL     OW 2521   4.113   6.413   4.443
  541SOL    HW1 2522   4.196   6.468   4.448
  541SOL    HW2 2523   4.033   6.473   4.454
  542SOL     OW 2524   2.807   6.364   6.850
  542SOL    HW1 2525   2.712   6.343   6.829
  542SOL    HW2 2526   2.855   6.279   6.876
  543SOL     OW 2527   5.218   2.295   4.487
  543SOL    HW1 2528   5.316   2.279   4.474
  543SOL    HW2 2529   5.201   2.393   4.495
  544SOL     OW 2530   0.713   4.188   0.825
  544SOL    HW1 2531   0.806   4.226   0.835
  544SOL    HW2 2532   0.647   4.253   0.861
  545SOL     OW 2533   5.464   1.180   1.675
  545SOL    HW1 2534   5.428   1.268   1.646
  545SOL    HW2 2535   5.430   1.158   1.766
  546SOL     OW 2536   0.585   3.967   2.339
  546SOL    HW1 2537   0.585   4.049   2.395
  546SOL    HW2 2538   0.628   3.892   2.390
  547SOL     OW 2539   4.722   1.509   6.784
  547SOL    HW1 2540   4.750   1.477   6.875
  547SOL    HW2 2541   4.623   1.521   6.782
  548SOL     OW 2542   3.488   2.811   0.139
  548SOL    HW1 2543   3.551   2.889   0.137
  548SOL    HW2 2544   3.493   2.762   0.052
  549SOL     OW 2545   5.873   2.011   1.072
  549SOL    HW1 2546   5.947   1.969   1.123
  549SOL    HW2 2547   5.794   2.024   1.132
  550SOL     OW 2548   0.197   4.630   3.261
  550SOL    HW1 2549   0.267   4.583   3.208
  550SOL    HW2 2550   0.106   4.598   3.233
  551SOL     OW 2551   7.008   0.757   0.443
  551SOL    HW1 2552   6.908   0.749   0.436
  551SOL    HW2 2553   0.026   0.666   0.451
  552SOL     OW 2554   5.774   5.553   6.055
  552SOL    HW1 2555   5.747   5.459   6.035
  552SOL    HW2 2556   5.862   5.573   6.012
  553SOL     OW 2557   3.359   1.381   5.525
  553SOL    HW1 2558   3.259   1.373   5.530
  553SOL    HW2 2559   3.398   1.292   5.503
  554SOL     OW 2560   5.937   5.625   0.540
  554SOL    HW1 2561   6.001   5.642   0.615
  554SOL    HW2 2562   5.844   5.623   0.575
  555SOL     OW 2563   2.235   5.354   5.553
  555SOL    HW1 2564   2.323   5.388   5.518
  555SOL    HW2 2565   2.160   5.398   5.504
  556SOL     OW 2566   4.851   1.456   3.797
  556SOL    HW1 2567   4.811   1.365   3.811
  556SOL    HW2 2568   4.793   1.509   3.736
  557SOL     OW 2569   6.293   4.587   5.791
  557SOL    HW1 2570   6.305   4.489   5.773
  557SOL    HW2 2571   6.272   4.634   5.706
  558SOL     OW 2572   3.572   3.670   2.463
  558SOL    HW1 2573   3.551   3.760   2.501
  558SOL    HW2 2574   3.587   3.605   2.537
  559SOL     OW 2575   6.382   6.153   5.610
  559SOL    HW1 2576   6.368   6.190   5.702
  559SOL    HW2 2577   6.297   6.112   5.577
  560SOL     OW 2578   6.507   3.325   3.072
  560SOL    HW1 2579   6.414   3.332   3.037
  560SOL    HW2 2580   6.504   3.307   3.170
  561SOL     OW 2581   0.800   2.872   6.300
  561SOL    HW1 2582   0.779   2.876   6.397
  561SOL    HW2 2583   0.849   2.955   6.273
  562SOL     OW 2584   4.033   0.597   5.676
  562SOL    HW1 2585   3.957   0.540   5.644
  562SOL    HW2 2586   4.001   0.691   5.687
  563SOL     OW 2587   1.390   2.099   4.319
  563SOL    HW1 2588   1.429   2.154   4.392
  563SOL    HW2 2589   1.290   2.111   4.318
  564SOL     OW 2590   0.227   2.104   4.940
  564SOL    HW1 2591   0.235   2.078   5.036
  564SOL    HW2 2592   0.181   2.031   4.889
  565SOL     OW 2593   3.440   3.016   3.372
  565SOL    HW1 2594   3.418   3.048   3.280
  565SOL    HW2 2595   3.432   3.092   3.436
  566SOL     OW 2596   3.516   5.854   3.036
  566SOL    HW1 2597   3.458   5.898   3.105
  566SOL    HW2 2598   3.538   5.920   2.964
  567SOL     OW 2599   2.319   2.245   6.455
  567SOL    HW1 2600   2.398   2.288   6.498
  567SOL    HW2 2601   2.295   2.295   6.372
  568SOL     OW 2602   6.611   0.454   0.979
  568SOL    HW1 2603   6.647   0.531   0.927
  568SOL    HW2 2604   6.642   0.368   0.938
  569SOL     OW 2605   0.199   1.953   0.529
  569SOL    HW1 2606   0.199   1.878   0.463
  569SOL    HW2 2607   0.225   1.919   0.619
  570SOL     OW 2608   2.968   0.491   6.210
  570SOL    HW1 2609   2.959   0.391   6.214
  570SOL    HW2 2610   2.900   0.528   6.147
  571SOL     OW 2611   2.864   4.750   3.005
  571SOL    HW1 2612   2.781   4.735   2.951
  571SOL    HW2 2613   2.918   4.823   2.964
  572SOL     OW 2614   2.270   6.511   4.114
  572SOL    HW1 2615   2.270   6.518   4.214
  572SOL    HW2 2616   2.365   6.505   4.081
  573SOL     OW 2617   5.967   2.300   5.741
  573SOL    HW1 2618   6.027   2.281   5.819
  573SOL    HW2 2619   5.928   2.215   5.707
  574SOL     OW 2620   2.561   1.866   5.126
  574SOL    HW1 2621   2.574   1.767   5.119
  574SOL    HW2 2622   2.486   1.885   5.190
  575SOL     OW 2623   3.140   3.449   6.904
  575SOL    HW1 2624   3.116   3.453   7.001
  575SOL    HW2 2625   3.138   3.541   6.865
  576SOL     OW 2626   1.866   3.116   2.741
  576SOL    HW1 2627   1.835   3.076   2.827
  576SOL    HW2 2628   1.960   3.149   2.751
  577SOL     OW 2629   1.195   1.445   2.268
  577SOL    HW1 2630   1.178   1.527   2.321
  577SOL    HW2 2631   1.289   1.447   2.233
  578SOL     OW 2632   2.068   5.682   0.009
  578SOL    HW1 2633   2.050   5.688   6.933
  578SOL    HW2 2634   2.058   5.772   0.050
  579SOL     OW 2635   2.524   4.525   2.401
  579SOL    HW1 2636   2.565   4.570   2.322
  579SOL    HW2 2637   2.584   4.535   2.480
  580SOL     OW 2638   4.428   5.475   5.186
  580SOL    HW1 2639   4.495   5.405   5.162
  580SOL    HW2 2640   4.475   5.563   5.199
  581SOL     OW 2641   0.911   2.862   3.729
  581SOL    HW1 2642   0.892   2.782   3.671
  581SOL    HW2 2643   0.826   2.891   3.773
  582SOL     OW 2644   5.788   5.155   3.373
  582SOL    HW1 2645   5.784   5.095   3.453
  582SOL    HW2 2646   5.795   5.100   3.290
  583SOL     OW 2647   3.332   5.058   6.217
  583SOL    HW1 2648   3.271   4.986   6.250
  583SOL    HW2 2649   3.315   5.074   6.119
  584SOL     OW 2650   3.918   0.515   6.928
  584SOL    HW1 2651   3.852   0.477   6.863
  584SOL    HW2 2652   4.009   0.480   6.908
  585SOL     OW 2653   2.492   6.454   1.989
  585SOL    HW1 2654   2.411   6.423   2.038
  585SOL    HW2 2655   2.486   6.553   1.975
  586SOL     OW 2656   3.922   0.334   1.235
  586SOL    HW1 2657   3.836   0.302   1.196
  586SOL    HW2 2658   3.948   0.276   1.312
  587SOL     OW 2659   5.152   1.856   1.731
  587SOL    HW1 2660   5.068   1.900   1.699
  587SOL    HW2 2661   5.151   1.850   1.831
  588SOL     OW 2662   1.022   5.481   1.809
  588SOL    HW1 2663   0.989   5.430   1.888
  588SOL    HW2 2664   0.996   5.433   1.725
  589SOL     OW 2665   3.439   5.733   1.505
  589SOL    HW1 2666   3.380   5.683   1.442
  589SOL    HW2 2667   3.525   5.684   1.518
  590SOL     OW 2668   5.240   1.423   0.868
  590SOL    HW1 2669   5.168   1.353   0.869
  590SOL    HW2 2670   5.315   1.393   0.809
  591SOL     OW 2671   4.330   5.332   4.347
  591SOL    HW1 2672   4.273   5.414   4.352
  591SOL    HW2 2673   4.374   5.317   4.436
  592SOL     OW 2674   4.429   1.851   4.537
  592SOL    HW1 2675   4.453   1.801   4.454
  592SOL    HW2 2676   4.333   1.876   4.534
  593SOL     OW 2677   3.443   1.924   5.358
  593SOL    HW1 2678   3.481   1.926   5.450
  593SOL    HW2 2679   3.401   2.012   5.336
  594SOL     OW 2680   5.785   1.403   1.853
  594SOL    HW1 2681   5.745   1.494   1.839
  594SOL    HW2 2682   5.885   1.410   1.847
  595SOL     OW 2683   5.081   6.229   2.490
  595SOL    HW1 2684   5.003   6.262   2.437
  595SOL    HW2 2685   5.093   6.131   2.474
  596SOL     OW 2686   6.774   3.880   3.807
  596SOL    HW1 2687   6.858   3.900   3.756
  596SOL    HW2 2688   6.750   3.959   3.863
  597SOL     OW 2689   3.121   6.907   6.441
  597SOL    HW1 2690   3.207   6.857   6.451
  597SOL    HW2 2691   3.063   6.861   6.374
  598SOL     OW 2692   2.877   3.867   5.160
  598SOL    HW1 2693   2.825   3.786   5.186
  598SOL    HW2 2694   2.919   3.852   5.070
  599SOL     OW 2695   1.179   5.675   1.927
  599SOL    HW1 2696   1.117   5.607   1.887
  599SOL    HW2 2697   1.140   5.707   2.014
  600SOL     OW 2698   7.003   3.897   4.727
  600SOL    HW1 2699   6.976   3.951   4.647
  600SOL    HW2 2700   7.005   3.956   4.808
  601SOL     OW 2701   1.264   0.898   4.812
  601SOL    HW1 2702   1.354   0.856   4.822
  601SOL    HW2 2703   1.194   0.835   4.844
  602SOL     OW 2704   2.659   6.396   4.680
  602SOL    HW1 2705   2.701   6.391   4.770
  602SOL    HW2 2706   2.583   6.461   4.682
  603SOL     OW 2707   1.539   1.101   5.261
  603SOL    HW1 2708   1.540   1.038   5.183
  603SOL    HW2 2709   1.617   1.162   5.255
  604SOL     OW 2710   6.871   2.514   1.867
  604SOL    HW1 2711   6.815   2.453   1.923
  604SOL    HW2 2712   6.962   2.475   1.856
  605SOL     OW 2713   0.356   4.207   2.239
  605SOL    HW1 2714   0.313   4.236   2.154
  605SOL    HW2 2715   0.346   4.108   2.249
  606SOL     OW 2716   3.619   7.007   4.903
  606SOL    HW1 2717   3.645   6.935   4.839
  606SOL    HW2 2718   3.667   6.994   4.990
  607SOL     OW 2719   1.320   4.694   5.675
  607SOL    HW1 2720   1.314   4.599   5.646
  607SOL    HW2 2721   1.341   4.698   5.773
  608SOL     OW 2722   3.962   0.212   5.856
  608SOL    HW1 2723   4.052   0.189   5.893
  608SOL    HW2 2724   3.934   0.302   5.890
  609SOL     OW 2725   3.815   2.472   1.530
  609SOL    HW1 2726   3.807   2.558   1.579
  609SOL    HW2 2727   3.860   2.404   1.588
  610SOL     OW 2728   4.468   2.841   0.568
  610SOL    HW1 2729   4.408   2.842   0.488
  610SOL    HW2 2730   4.416   2.865   0.650
  611SOL     OW 2731   3.871   0.469   2.551
  611SOL    HW1 2732   3.926   0.527   2.492
  611SOL    HW2 2733   3.848   0.384   2.504
  612SOL     OW 2734   3.862   4.586   6.073
  612SOL    HW1 2735   3.833   4.492   6.090
  612SOL    HW2 2736   3.786   4.649   6.095
  613SOL     OW 2737   5.023   6.004   5.710
  613SOL    HW1 2738   5.003   5.908   5.727
  613SOL    HW2 2739   5.110   6.028   5.753
  614SOL     OW 2740   5.048   5.724   5.756
  614SOL    HW1 2741   5.030   5.674   5.840
  614SOL    HW2 2742   4.985   5.693   5.684
  615SOL     OW 2743   0.289   4.483   1.059
  615SOL    HW1 2744   0.229   4.520   0.988
  615SOL    HW2 2745   0.374   4.536   1.062
  616SOL     OW 2746   6.144   2.757   3.532
  616SOL    HW1 2747   6.219   2.698   3.559
  616SOL    HW2 2748   6.146   2.771   3.433
  617SOL     OW 2749   2.683   5.342   6.149
  617SOL    HW1 2750   2.701   5.277   6.075
  617SOL    HW2 2751   2.716   5.433   6.122
  618SOL     OW 2752   1.000   1.323   1.723
  618SOL    HW1 2753   0.973   1.253   1.790
  618SOL    HW2 2754   1.100   1.327   1.718
  619SOL     OW 2755   1.868   2.085   6.419
  619SOL    HW1 2756   1.909   2.144   6.350
  619SOL    HW2 2757   1.855   1.993   6.381
  620SOL     OW 2758   4.740   2.559   0.426
  620SOL    HW1 2759   4.827   2.562   0.378
  620SOL    HW2 2760   4.672   2.511   0.371
  621SOL     OW 2761   6.631   4.789   0.406
  621SOL    HW1 2762   6.617   4.752   0.498
  621SOL    HW2 2763   6.718   4.755   0.370
  622SOL     OW 2764   1.698   1.451   0.397
  622SOL    HW1 2765   1.635   1.507   0.450
  622SOL    HW2 2766   1.693   1.477   0.301
  623SOL     OW 2767   0.853   4.822   6.269
  623SOL    HW1 2768   0.849   4.777   6.180
  623SOL    HW2 2769   0.949   4.831   6.297
  624SOL     OW 2770   0.488   2.430   2.516
  624SOL    HW1 2771   0.408   2.403   2.571
  624SOL    HW2 2772   0.480   2.526   2.491
  625SOL     OW 2773   2.851   1.339   2.823
  625SOL    HW1 2774   2.853   1.323   2.724
  625SOL    HW2 2775   2.846   1.437   2.842
  626SOL     OW 2776   2.168   6.579   3.630
  626SOL    HW1 2777   2.246   6.588   3.693
  626SOL    HW2 2778   2.189   6.626   3.545
  627SOL     OW 2779   5.383   0.955   0.361
  627SOL    HW1 2780   5.336   0.979   0.446
  627SOL    HW2 2781   5.324   0.898   0.305
  628SOL     OW 2782   4.916   4.583   3.965
  628SOL    HW1 2783   5.003   4.626   3.941
  628SOL    HW2 2784   4.845   4.616   3.904
  629SOL     OW 2785   0.425   6.947   1.553
  629SOL    HW1 2786   0.375   0.005   1.522
  629SOL    HW2 2787   0.523   6.965   1.552
  630SOL     OW 2788   4.638   1.294   1.813
  630SOL    HW1 2789   4.541   1.269   1.804
  630SOL    HW2 2790   4.645   1.389   1.842
  631SOL     OW 2791   2.284   0.235   5.770
  631SOL    HW1 2792   2.195   0.238   5.816
  631SOL    HW2 2793   2.326   0.145   5.783
  632SOL     OW 2794   2.318   0.868   0.573
  632SOL    HW1 2795   2.355   0.937   0.635
  632SOL    HW2 2796   2.250   0.813   0.621
  633SOL     OW 2797   3.319   6.201   0.215
  633SOL    HW1 2798   3.355   6.134   0.280
  633SOL    HW2 2799   3.241   6.249   0.257
  634SOL     OW 2800   4.316   5.591   1.222
  634SOL    HW1 2801   4.283   5.589   1.316
  634SOL    HW2 2802   4.404   5.638   1.218
  635SOL     OW 2803   3.024   0.184   2.982
  635SOL    HW1 2804   3.020   0.188   3.082
  635SOL    HW2 2805   2.977   0.102   2.950
  636SOL     OW 2806   5.523   5.291   6.792
  636SOL    HW1 2807   5.606   5.262   6.839
  636SOL    HW2 2808   5.445   5.238   6.827
  637SOL     OW 2809   4.705   4.857   1.318
  637SOL    HW1 2810   4.689   4.758   1.315
  637SOL    HW2 2811   4.621   4.905   1.292
  638SOL     OW 2812   5.336   1.398   1.581
  638SOL    HW1 2813   5.337   1.497   1.569
  638SOL    HW2 2814   5.330   1.353   1.492
  639SOL     OW 2815   4.488   4.708   1.840
  639SOL    HW1 2816   4.541   4.698   1.925
  639SOL    HW2 2817   4.432   4.627   1.827
  640SOL     OW 2818   2.688   4.035   5.670
  640SOL    HW1 2819   2.611   4.022   5.608
  640SOL    HW2 2820   2.706   4.132   5.682
  641SOL     OW 2821   0.378   5.706   4.946
  641SOL    HW1 2822   0.412   5.623   4.990
  641SOL    HW2 2823   0.351   5.686   4.852
  642SOL     OW 2824   0.482   5.100   4.807
  642SOL    HW1 2825   0.496   5.188   4.760
  642SOL    HW2 2826   0.570   5.062   4.832
  643SOL     OW 2827   6.354   5.485   5.929
  643SOL    HW1 2828   6.441   5.535   5.919
  643SOL    HW2 2829   6.328   5.484   6.025
  644SOL     OW 2830   1.103   6.534   2.851
  644SOL    HW1 2831   1.036   6.464   2.830
  644SOL    HW2 2832   1.161   6.503   2.926
  645SOL     OW 2833   4.815   2.541   4.213
  645SOL    HW1 2834   4.857   2.629   4.237
  645SOL    HW2 2835   4.717   2.554   4.200
  646SOL     OW 2836   1.204   0.970   4.033
  646SOL    HW1 2837   1.260   0.893   4.064
  646SOL    HW2 2838   1.242   1.055   4.069
  647SOL     OW 2839   6.263   2.761   6.854
  647SOL    HW1 2840   6.187   2.754   6.919
  647SOL    HW2 2841   6.328   2.830   6.885
  648SOL     OW 2842   6.061   3.698   2.216
  648SOL    HW1 2843   6.134   3.765   2.205
  648SOL    HW2 2844   6.003   3.725   2.293
  649SOL     OW 2845   3.925   4.714   1.100
  649SOL    HW1 2846   3.933   4.813   1.116
  649SOL    HW2 2847   3.864   4.699   1.021
  650SOL     OW 2848   4.846   4.152   0.725
  650SOL    HW1 2849   4.799   4.146   0.637
  650SOL    HW2 2850   4.894   4.240   0.731
  651SOL     OW 2851   0.733   6.508   1.227
  651SOL    HW1 2852   0.788   6.456   1.293
  651SOL    HW2 2853   0.676   6.573   1.276
  652SOL     OW 2854   4.647   0.604   3.010
  652SOL    HW1 2855   4.739   0.616   3.048
  652SOL    HW2 2856   4.582   0.589   3.085
  653SOL     OW 2857   3.344   5.195   4.071
  653SOL    HW1 2858   3.304   5.104   4.087
  653SOL    HW2 2859   3.441   5.194   4.097
  654SOL     OW 2860   6.967   5.187   6.832
  654SOL    HW1 2861   0.019   5.149   6.886
  654SOL    HW2 2862   7.001   5.262   6.775
  655SOL     OW 2863   0.537   0.355   1.073
  655SOL    HW1 2864   0.554   0.347   0.975
  655SOL    HW2 2865   0.594   0.428   1.111
  656SOL     OW 2866   2.372   6.084   2.095
  656SOL    HW1 2867   2.387   6.131   2.182
  656SOL    HW2 2868   2.416   5.994   2.098
  657SOL     OW 2869   2.876   1.226   0.638
  657SOL    HW1 2870   2.939   1.187   0.705
  657SOL    HW2 2871   2.923   1.297   0.585
  658SOL     OW 2872   3.420   4.001   6.815
  658SOL    HW1 2873   3.486   3.971   6.884
  658SOL    HW2 2874   3.455   4.083   6.770
  659SOL     OW 2875   2.976   6.773   0.113
  659SOL    HW1 2876   2.995   6.713   0.036
  659SOL    HW2 2877   2.878   6.786   0.123
  660SOL     OW 2878   3.784   5.743   2.453
  660SOL    HW1 2879   3.828   5.750   2.542
  660SOL    HW2 2880   3.836   5.796   2.386
  661SOL     OW 2881   4.477   5.930   2.943
  661SOL    HW1 2882   4.468   5.896   3.037
  661SOL    HW2 2883   4.566   5.976   2.933
  662SOL     OW 2884   3.413   1.428   5.892
  662SOL    HW1 2885   3.317   1.401   5.883
  662SOL    HW2 2886   3.437   1.490   5.817
  663SOL     OW 2887   2.091   5.205   5.011
  663SOL    HW1 2888   2.141   5.200   5.097
  663SOL    HW2 2889   2.124   5.134   4.949
  664SOL     OW 2890   0.216   0.210   6.596
  664SOL    HW1 2891   0.147   0.146   6.562
  664SOL    HW2 2892   0.262   0.169   6.675
  665SOL     OW 2893   2.993   5.612   3.804
  665SOL    HW1 2894   2.929   5.536   3.811
  665SOL    HW2 2895   3.086   5.576   3.795
  666SOL     OW 2896   3.996   0.743   2.392
  666SOL    HW1 2897   3.954   0.770   2.305
  666SOL    HW2 2898   4.057   0.665   2.377
  667SOL     OW 2899   0.634   5.510   1.959
  667SOL    HW1 2900   0.555   5.471   1.912
  667SOL    HW2 2901   0.701   5.438   1.978
  668SOL     OW 2902   5.777   4.438   6.124
  668SOL    HW1 2903   5.760   4.360   6.065
  668SOL    HW2 2904   5.721   4.515   6.095
  669SOL     OW 2905   6.079   1.490   2.763
  669SOL    HW1 2906   6.075   1.445   2.852
  669SOL    HW2 2907   6.128   1.431   2.698
  670SOL     OW 2908   1.618   1.730   3.684
  670SOL    HW1 2909   1.705   1.680   3.684
  670SOL    HW2 2910   1.635   1.828   3.675
  671SOL     OW 2911   2.446   6.402   1.628
  671SOL    HW1 2912   2.364   6.367   1.583
  671SOL    HW2 2913   2.466   6.346   1.709
  672SOL     OW 2914   0.294   6.046   1.945
  672SOL    HW1 2915   0.338   5.970   1.897
  672SOL    HW2 2916   0.238   6.098   1.881
  673SOL     OW 2917   5.633   6.745   1.089
  673SOL    HW1 2918   5.602   6.819   1.030
  673SOL    HW2 2919   5.708   6.777   1.147
  674SOL     OW 2920   6.980   1.335   4.912
  674SOL    HW1 2921   0.051   1.369   4.902
  674SOL    HW2 2922   6.969   1.292   5.002
  675SOL     OW 2923   5.745   2.037   1.837
  675SOL    HW1 2924   5.774   1.949   1.874
  675SOL    HW2 2925   5.676   2.021   1.766
  676SOL     OW 2926   2.437   4.821   4.913
  676SOL    HW1 2927   2.366   4.763   4.951
  676SOL    HW2 2928   2.519   4.766   4.897
  677SOL     OW 2929   4.401   0.762   1.382
  677SOL    HW1 2930   4.313   0.798   1.414
  677SOL    HW2 2931   4.445   0.829   1.322
  678SOL     OW 2932   2.755   4.287   5.602
  678SOL    HW1 2933   2.728   4.321   5.511
  678SOL    HW2 2934   2.855   4.286   5.609
  679SOL     OW 2935   5.570   1.486   5.421
  679SOL    HW1 2936   5.571   1.390   5.450
  679SOL    HW2 2937   5.486   1.505   5.370
  680SOL     OW 2938   5.493   0.044   4.433
  680SOL    HW1 2939   5.528   0.076   4.345
  680SOL    HW2 2940   5.527   0.104   4.506
  681SOL     OW 2941   5.385   6.200   1.887
  681SOL    HW1 2942   5.296   6.245   1.893
  681SOL    HW2 2943   5.373   6.101   1.894
  682SOL     OW 2944   0.925   0.605   2.319
  682SOL    HW1 2945   0.826   0.623   2.316
  682SOL    HW2 2946   0.946   0.552   2.401
  683SOL     OW 2947   4.365   3.586   0.842
  683SOL    HW1 2948   4.277   3.616   0.805
  683SOL    HW2 2949   4.419   3.666   0.867
  684SOL     OW 2950   6.320   0.619   6.403
  684SOL    HW1 2951   6.400   0.679   6.412
  684SOL    HW2 2952   6.314   0.560   6.483
  685SOL     OW 2953   3.568   1.531   3.470
  685SOL    HW1 2954   3.599   1.480   3.550
  685SOL    HW2 2955   3.499   1.477   3.421
  686SOL     OW 2956   4.157   0.886   4.269
  686SOL    HW1 2957   4.092   0.821   4.230
  686SOL    HW2 2958   4.250   0.850   4.260
  687SOL     OW 2959   0.707   1.896   4.435
  687SOL    HW1 2960   0.617   1.885   4.478
  687SOL    HW2 2961   0.704   1.861   4.342
  688SOL     OW 2962   0.087   1.798   6.598
  688SOL    HW1 2963   0.002   1.772   6.553
  688SOL    HW2 2964   0.128   1.717   6.641
  689SOL     OW 2965   0.908   4.838   5.241
  689SOL    HW1 2966   0.982   4.823   5.307
  689SOL    HW2 2967   0.848   4.911   5.274
  690SOL     OW 2968   6.280   3.334   2.929
  690SOL    HW1 2969   6.240   3.383   2.852
  690SOL    HW2 2970   6.247   3.239   2.930
  691SOL     OW 2971   3.905   1.707   0.050
  691SOL    HW1 2972   3.977   1.729   0.116
  691SOL    HW2 2973   3.946   1.676   6.987
  692SOL     OW 2974   3.081   1.335   5.524
  692SOL    HW1 2975   3.044   1.331   5.617
  692SOL    HW2 2976   3.007   1.325   5.458
  693SOL     OW 2977   4.967   5.868   3.317
  693SOL    HW1 2978   4.959   5.968   3.318
  693SOL    HW2 2979   4.881   5.829   3.284
  694SOL     OW 2980   3.986   6.222   4.555
  694SOL    HW1 2981   4.028   6.238   4.645
  694SOL    HW2 2982   4.015   6.293   4.491
  695SOL     OW 2983   3.180   5.884   4.274
  695SOL    HW1 2984   3.120   5.948   4.226
  695SOL    HW2 2985   3.124   5.822   4.329
  696SOL     OW 2986   4.996   3.865   2.996
  696SOL    HW1 2987   5.094   3.867   2.981
  696SOL    HW2 2988   4.960   3.774   2.977
  697SOL     OW 2989   0.829   4.545   1.495
  697SOL    HW1 2990   0.905   4.577   1.552
  697SOL    HW2 2991   0.748   4.531   1.552
  698SOL     OW 2992   4.533   6.746   1.558
  698SOL    HW1 2993   4.557   6.840   1.582
  698SOL    HW2 2994   4.514   6.740   1.460
  699SOL     OW 2995   2.976   2.457   0.137
  699SOL    HW1 2996   3.043   2.517   0.182
  699SOL    HW2 2997   2.995   2.455   0.039
  700SOL     OW 2998   3.035   6.766   2.458
  700SOL    HW1 2999   3.092   6.701   2.509
  700SOL    HW2 3000   3.072   6.858   2.469
  701SOL     OW 3001   6.154   4.320   0.784
  701SOL    HW1 3002   6.173   4.295   0.879
  701SOL    HW2 3003   6.239   4.322   0.732
  702SOL     OW 3004   3.028   0.926   4.625
  702SOL    HW1 3005   3.115   0.882   4.650
  702SOL    HW2 3006   2.969   0.860   4.581
  703SOL     OW 3007   2.650   3.546   5.570
  703SOL    HW1 3008   2.673   3.584   5.480
  703SOL    HW2 3009   2.591   3.465   5.557
  704SOL     OW 3010   1.285   2.441   6.359
  704SOL    HW1 3011   1.263   2.520   6.301
  704SOL    HW2 3012   1.201   2.397   6.390
  705SOL     OW 3013   6.463   6.464   4.060
  705SOL    HW1 3014   6.532   6.392   4.051
  705SOL    HW2 3015   6.497   6.547   4.014
  706SOL     OW 3016   4.085   1.077   5.567
  706SOL    HW1 3017   4.146   1.151   5.538
  706SOL    HW2 3018   4.082   1.007   5.495
  707SOL     OW 3019   3.614   5.333   3.572
  707SOL    HW1 3020   3.643   5.422   3.606
  707SOL    HW2 3021   3.682   5.298   3.507
  708SOL     OW 3022   3.280   1.120   3.151
  708SOL    HW1 3023   3.304   1.177   3.072
  708SOL    HW2 3024   3.283   1.024   3.125
  709SOL     OW 3025   2.036   6.947   1.807
  709SOL    HW1 3026   2.019   6.954   1.906
  709SOL    HW2 3027   1.955   6.978   1.758
  710SOL     OW 3028   5.022   3.079   1.558
  710SOL    HW1 3029   5.056   3.114   1.646
  710SOL    HW2 3030   5.091   3.094   1.488
  711SOL     OW 3031   0.020   2.707   5.298
  711SOL    HW1 3032   6.967   2.773   5.307
  711SOL    HW2 3033   0.066   2.720   5.211
  712SOL     OW 3034   4.286   2.908   0.761
  712SOL    HW1 3035   4.248   2.971   0.830
  712SOL    HW2 3036   4.234   2.916   0.677
  713SOL     OW 3037   4.425   2.688   5.340
  713SOL    HW1 3038   4.344   2.644   5.378
  713SOL    HW2 3039   4.460   2.633   5.264
  714SOL     OW 3040   6.241   4.389   3.306
  714SOL    HW1 3041   6.215   4.398   3.209
  714SOL    HW2 3042   6.256   4.292   3.327
  715SOL     OW 3043   6.334   5.337   5.592
  715SOL    HW1 3044   6.274   5.270   5.635
  715SOL    HW2 3045   6.288   5.377   5.512
  716SOL     OW 3046   2.245   0.983   2.571
  716SOL    HW1 3047   2.149   0.960   2.590
  716SOL    HW2 3048   2.268   1.069   2.615
  717SOL     OW 3049   5.905   4.845   3.849
  717SOL    HW1 3050   5.840   4.912   3.883
  717SOL    HW2 3051   5.908   4.849   3.749
  718SOL     OW 3052   5.051   2.228   4.298
  718SOL    HW1 3053   5.057   2.287   4.217
  718SOL    HW2 3054   5.111   2.265   4.370
  719SOL     OW 3055   6.927   0.667   2.523
  719SOL    HW1 3056   6.917   0.660   2.424
  719SOL    HW2 3057   6.859   0.609   2.567
  720SOL     OW 3058   1.924   0.693   6.302
  720SOL    HW1 3059   1.977   0.676   6.385
  720SOL    HW2 3060   1.831   0.719   6.326
  721SOL     OW 3061   0.716   2.289   2.457
  721SOL    HW1 3062   0.716   2.259   2.362
  721SOL    HW2 3063   0.625   2.324   2.481
  722SOL     OW 3064   4.426   0.090   6.470
  722SOL    HW1 3065   4.449   0.129   6.381
  722SOL    HW2 3066   4.366   0.154   6.519
  723SOL     OW 3067   2.276   6.295   3.484
  723SOL    HW1 3068   2.200   6.304   3.548
  723SOL    HW2 3069   2.262   6.357   3.407
  724SOL     OW 3070   0.802   0.752   3.286
  724SOL    HW1 3071   0.764   0.826   3.231
  724SOL    HW2 3072   0.831   0.788   3.375
  725SOL     OW 3073   2.315   4.339   2.321
  725SOL    HW1 3074   2.333   4.263   2.383
  725SOL    HW2 3075   2.376   4.416   2.343
  726SOL     OW 3076   2.327   4.985   0.570
  726SOL    HW1 3077   2.397   5.056   0.577
  726SOL    HW2 3078   2.295   4.961   0.662
  727SOL     OW 3079   4.748   5.299   6.310
  727SOL    HW1 3080   4.777   5.358   6.235
  727SOL    HW2 3081   4.654   5.268   6.295
  728SOL     OW 3082   0.074   3.473   4.651
  728SOL    HW1 3083   0.109   3.400   4.710
  728SOL    HW2 3084   7.002   3.454   4.625
  729SOL     OW 3085   0.431   3.267   1.109
  729SOL    HW1 3086   0.333   3.273   1.091
  729SOL    HW2 3087   0.474   3.208   1.040
  730SOL     OW 3088   5.027   0.647   3.019
  730SOL    HW1 3089   5.080   0.622   2.938
  730SOL    HW2 3090   5.052   0.740   3.048
  731SOL     OW 3091   5.107   4.470   6.938
  731SOL    HW1 3092   5.193   4.425   6.962
  731SOL    HW2 3093   5.105   4.487   6.840
  732SOL     OW 3094   5.189   1.756   2.998
  732SOL    HW1 3095   5.224   1.705   2.920
  732SOL    HW2 3096   5.260   1.761   3.069
  733SOL     OW 3097   5.516   6.482   3.575
  733SOL    HW1 3098   5.492   6.385   3.575
  733SOL    HW2 3099   5.612   6.493   3.549
  734SOL     OW 3100   6.596   5.015   2.497
  734SOL    HW1 3101   6.683   5.060   2.518
  734SOL    HW2 3102   6.564   5.048   2.408
  735SOL     OW 3103   5.778   0.485   1.781
  735SOL    HW1 3104   5.848   0.557   1.780
  735SOL    HW2 3105   5.702   0.513   1.839
  736SOL     OW 3106   1.337   1.178   4.116
  736SOL    HW1 3107   1.425   1.220   4.100
  736SOL    HW2 3108   1.324   1.163   4.214
  737SOL     OW 3109   5.851   1.395   6.260
  737SOL    HW1 3110   5.896   1.480   6.289
  737SOL    HW2 3111   5.887   1.319   6.315
  738SOL     OW 3112   2.883   3.847   1.213
  738SOL    HW1 3113   2.947   3.920   1.234
  738SOL    HW2 3114   2.857   3.852   1.116
  739SOL     OW 3115   3.134   0.177   5.450
  739SOL    HW1 3116   3.217   0.232   5.463
  739SOL    HW2 3117   3.093   0.198   5.362
  740SOL     OW 3118   5.542   2.187   2.787
  740SOL    HW1 3119   5.593   2.156   2.707
  740SOL    HW2 3120   5.465   2.126   2.803
  741SOL     OW 3121   2.572   0.419   4.583
  741SOL    HW1 3122   2.571   0.499   4.642
  741SOL    HW2 3123   2.513   0.435   4.504
  742SOL     OW 3124   1.340   6.390   0.817
  742SOL    HW1 3125   1.428   6.387   0.769
  742SOL    HW2 3126   1.307   6.296   0.834
  743SOL     OW 3127   0.837   6.589   3.774
  743SOL    HW1 3128   0.794   6.550   3.693
  743SOL    HW2 3129   0.768   6.636   3.830
  744SOL     OW 3130   6.116   1.068   0.855
  744SOL    HW1 3131   6.174   1.101   0.929
  744SOL    HW2 3132   6.044   1.009   0.892
  745SOL     OW 3133   2.018   5.728   4.764
  745SOL    HW1 3134   2.038   5.638   4.803
  745SOL    HW2 3135   2.087   5.751   4.696
  746SOL     OW 3136   5.544   3.961   5.181
  746SOL    HW1 3137   5.505   3.973   5.272
  746SOL    HW2 3138   5.495   4.019   5.116
  747SOL     OW 3139   5.581   5.355   3.465
  747SOL    HW1 3140   5.651   5.285   3.450
  747SOL    HW2 3141   5.603   5.437   3.412
  748SOL     OW 3142   5.247   5.647   2.803
  748SOL    HW1 3143   5.246   5.568   2.863
  748SOL    HW2 3144   5.169   5.642   2.740
  749SOL     OW 3145   4.908   3.954   3.716
  749SOL    HW1 3146   4.849   4.034   3.703
  749SOL    HW2 3147   4.889   3.887   3.644
  750SOL     OW 3148   2.401   1.471   1.743
  750SOL    HW1 3149   2.478   1.532   1.725
  750SOL    HW2 3150   2.340   1.513   1.810
  751SOL     OW 3151   5.025   1.785   0.284
  751SOL    HW1 3152   5.002   1.769   0.188
  751SOL    HW2 3153   4.967   1.857   0.321
  752SOL     OW 3154   3.108   2.749   5.314
  752SOL    HW1 3155   3.174   2.738   5.240
  752SOL    HW2 3156   3.066   2.660   5.335
  753SOL     OW 3157   3.756   3.441   5.179
  753SOL    HW1 3158   3.684   3.507   5.201
  753SOL    HW2 3159   3.843   3.490   5.169
  754SOL     OW 3160   5.676   0.872   6.295
  754SOL    HW1 3161   5.717   0.796   6.345
  754SOL    HW2 3162   5.579   0.878   6.317
  755SOL     OW 3163   3.049   4.285   5.282
  755SOL    HW1 3164   3.126   4.311   5.340
  755SOL    HW2 3165   3.011   4.366   5.237
  756SOL     OW 3166   2.582   5.490   6.956
  756SOL    HW1 3167   2.677   5.469   6.934
  756SOL    HW2 3168   2.557   5.578   6.917
  757SOL     OW 3169   2.000   6.556   2.259
  757SOL    HW1 3170   2.004   6.650   2.294
  757SOL    HW2 3171   1.924   6.548   2.194
  758SOL     OW 3172   4.264   1.334   3.647
  758SOL    HW1 3173   4.297   1.312   3.739
  758SOL    HW2 3174   4.200   1.264   3.616
  759SOL     OW 3175   0.075   3.181   3.765
  759SOL    HW1 3176   0.112   3.140   3.682
  759SOL    HW2 3177   0.085   3.281   3.761
  760SOL     OW 3178   6.845   6.788   3.794
  760SOL    HW1 3179   6.858   6.875   3.747
  760SOL    HW2 3180   6.777   6.798   3.866
  761SOL     OW 3181   5.337   3.941   5.350
  761SOL    HW1 3182   5.368   3.903   5.437
  761SOL    HW2 3183   5.302   4.034   5.365
  762SOL     OW 3184   3.066   6.321   5.845
  762SOL    HW1 3185   3.019   6.383   5.782
  762SOL    HW2 3186   3.000   6.257   5.884
  763SOL     OW 3187   5.748   0.503   6.845
  763SOL    HW1 3188   5.767   0.573   6.777
  763SOL    HW2 3189   5.747   0.545   6.936
  764SOL     OW 3190   5.862   1.091   5.823
  764SOL    HW1 3191   5.865   1.163   5.892
  764SOL    HW2 3192   5.942   1.098   5.763
  765SOL     OW 3193   0.699   6.539   0.961
  765SOL    HW1 3194   0.710   6.509   1.056
  765SOL    HW2 3195   0.779   6.592   0.934
  766SOL     OW 3196   1.903   2.014   4.770
  766SOL    HW1 3197   1.819   2.069   4.775
  766SOL    HW2 3198   1.907   1.967   4.682
  767SOL     OW 3199   0.171   6.898   4.158
  767SOL    HW1 3200   0.178   6.861   4.065
  767SOL    HW2 3201   0.080   6.936   4.172
  768SOL     OW 3202   1.975   5.973   2.602
  768SOL    HW1 3203   2.020   6.060   2.623
  768SOL    HW2 3204   1.890   5.991   2.553
  769SOL     OW 3205   3.242   1.436   4.941
  769SOL    HW1 3206   3.282   1.389   5.019
  769SOL    HW2 3207   3.278   1.396   4.856
  770SOL     OW 3208   2.201   4.890   4.444
  770SOL    HW1 3209   2.211   4.903   4.345
  770SOL    HW2 3210   2.198   4.979   4.489
  771SOL     OW 3211   1.477   5.361   3.051
  771SOL    HW1 3212   1.475   5.323   3.143
  771SOL    HW2 3213   1.565   5.406   3.035
  772SOL     OW 3214   5.449   4.941   0.067
  772SOL    HW1 3215   5.491   4.850   0.066
  772SOL    HW2 3216   5.359   4.935   0.109
  773SOL     OW 3217   1.400   3.384   3.449
  773SOL    HW1 3218   1.480   3.431   3.411
  773SOL    HW2 3219   1.396   3.291   3.412
  774SOL     OW 3220   2.041   1.623   3.870
  774SOL    HW1 3221   1.953   1.648   3.910
  774SOL    HW2 3222   2.098   1.705   3.859
  775SOL     OW 3223   2.036   3.574   3.951
  775SOL    HW1 3224   2.040   3.474   3.957
  775SOL    HW2 3225   1.957   3.601   3.896
  776SOL     OW 3226   1.254   6.845   6.433
  776SOL    HW1 3227   1.289   6.938   6.431
  776SOL    HW2 3228   1.173   6.840   6.490
  777SOL     OW 3229   1.799   3.821   0.068
  777SOL    HW1 3230   1.823   3.815   0.164
  777SOL    HW2 3231   1.823   3.911   0.032
  778SOL     OW 3232   3.583   6.834   2.063
  778SOL    HW1 3233   3.512   6.830   1.993
  778SOL    HW2 3234   3.636   6.918   2.052
  779SOL     OW 3235   0.465   2.644   1.709
  779SOL    HW1 3236   0.427   2.573   1.650
  779SOL    HW2 3237   0.396   2.714   1.726
  780SOL     OW 3238   1.562   1.892   4.708
  780SOL    HW1 3239   1.470   1.907   4.671
  780SOL    HW2 3240   1.621   1.856   4.636
  781SOL     OW 3241   0.456   4.370   0.650
  781SOL    HW1 3242   0.360   4.385   0.626
  781SOL    HW2 3243   0.461   4.302   0.723
  782SOL     OW 3244   2.042   4.164   5.688
  782SOL    HW1 3245   2.014   4.082   5.639
  782SOL    HW2 3246   1.975   4.237   5.673
  783SOL     OW 3247   5.347   4.364   6.342
  783SOL    HW1 3248   5.289   4.334   6.418
  783SOL    HW2 3249   5.393   4.449   6.367
  784SOL     OW 3250   3.035   6.104   1.521
  784SOL    HW1 3251   3.103   6.139   1.585
  784SOL    HW2 3252   2.952   6.081   1.570
  785SOL     OW 3253   0.447   0.053   4.106
  785SOL    HW1 3254   0.477   0.031   4.013
  785SOL    HW2 3255   0.440   6.991   4.159
  786SOL     OW 3256   6.515   1.074   3.690
  786SOL    HW1 3257   6.511   1.023   3.776
  786SOL    HW2 3258   6.424   1.078   3.650
  787SOL     OW 3259   2.280   0.055   6.941
  787SOL    HW1 3260   2.189   0.093   6.924
  787SOL    HW2 3261   2.349   0.126   6.929
  788SOL     OW 3262   3.685   3.157   1.041
  788SOL    HW1 3263   3.631   3.133   1.122
  788SOL    HW2 3264   3.773   3.194   1.070
  789SOL     OW 3265   4.545   5.735   1.222
  789SOL    HW1 3266   4.617   5.794   1.185
  789SOL    HW2 3267   4.586   5.651   1.258
  790SOL     OW 3268   0.633   2.903   1.558
  790SOL    HW1 3269   0.697   2.838   1.600
  790SOL    HW2 3270   0.655   2.995   1.590
  791SOL     OW 3271   2.706   4.871   5.401
  791SOL    HW1 3272   2.622   4.878   5.348
  791SOL    HW2 3273   2.784   4.867   5.339
  792SOL     OW 3274   0.459   1.105   0.953
  792SOL    HW1 3275   0.502   1.101   1.044
  792SOL    HW2 3276   0.531   1.111   0.883
  793SOL     OW 3277   3.954   5.438   3.654
  793SOL    HW1 3278   4.026   5.492   3.697
  793SOL    HW2 3279   3.884   5.499   3.617
  794SOL     OW 3280   3.018   3.444   3.716
  794SOL    HW1 3281   2.995   3.395   3.632
  794SOL    HW2 3282   3.082   3.518   3.695
  795SOL     OW 3283   3.739   0.887   6.275
  795SOL    HW1 3284   3.704   0.793   6.277
  795SOL    HW2 3285   3.836   0.886   6.301
  796SOL     OW 3286   1.922   2.983   6.586
  796SOL    HW1 3287   1.947   2.973   6.682
  796SOL    HW2 3288   1.972   3.060   6.546
  797SOL     OW 3289   4.433   6.848   0.866
  797SOL    HW1 3290   4.374   6.774   0.834
  797SOL    HW2 3291   4.395   6.886   0.951
  798SOL     OW 3292   3.346   6.244   1.093
  798SOL    HW1 3293   3.328   6.338   1.064
  798SOL    HW2 3294   3.424   6.244   1.157
  799SOL     OW 3295   1.558   1.674   6.393
  799SOL    HW1 3296   1.461   1.678   6.416
  799SOL    HW2 3297   1.603   1.758   6.423
  800SOL     OW 3298   6.341   1.594   1.912
  800SOL    HW1 3299   6.337   1.508   1.861
  800SOL    HW2 3300   6.270   1.656   1.878
  801SOL     OW 3301   2.036   5.489   5.394
  801SOL    HW1 3302   2.071   5.537   5.314
  801SOL    HW2 3303   1.961   5.429   5.367
  802SOL     OW 3304   5.422   2.191   0.145
  802SOL    HW1 3305   5.406   2.289   0.160
  802SOL    HW2 3306   5.356   2.157   0.078
  803SOL     OW 3307   2.835   1.288   5.388
  803SOL    HW1 3308   2.813   1.317   5.295
  803SOL    HW2 3309   2.755   1.246   5.430
  804SOL     OW 3310   6.407   0.429   1.922
  804SOL    HW1 3311   6.351   0.354   1.887
  804SOL    HW2 3312   6.503   0.410   1.903
  805SOL     OW 3313   3.112   1.387   3.937
  805SOL    HW1 3314   3.029   1.419   3.891
  805SOL    HW2 3315   3.152   1.462   3.990
  806SOL     OW 3316   1.004   6.552   5.314
  806SOL    HW1 3317   0.980   6.483   5.245
  806SOL    HW2 3318   1.092   6.528   5.355
  807SOL     OW 3319   0.425   6.137   4.963
  807SOL    HW1 3320   0.369   6.219   4.953
  807SOL    HW2 3321   0.408   6.094   5.052
  808SOL     OW 3322   5.767   2.844   0.402
  808SOL    HW1 3323   5.731   2.932   0.371
  808SOL    HW2 3324   5.753   2.835   0.501
  809SOL     OW 3325   0.557   5.078   0.097
  809SOL    HW1 3326   0.590   5.055   0.189
  809SOL    HW2 3327   0.633   5.114   0.042
  810SOL     OW 3328   2.994   3.806   0.184
  810SOL    HW1 3329   2.961   3.896   0.215
  810SOL    HW2 3330   2.995   3.743   0.261
  811SOL     OW 3331   5.394   5.035   4.572
  811SOL    HW1 3332   5.405   4.946   4.530
  811SOL    HW2 3333   5.470   5.095   4.545
  812SOL     OW 3334   0.641   1.792   2.204
  812SOL    HW1 3335   0.705   1.716   2.210
  812SOL    HW2 3336   0.658   1.844   2.120
  813SOL     OW 3337   1.682   1.341   4.335
  813SOL    HW1 3338   1.635   1.357   4.422
  813SOL    HW2 3339   1.620   1.362   4.260
  814SOL     OW 3340   0.283   5.969   3.115
  814SOL    HW1 3341   0.309   6.029   3.191
  814SOL    HW2 3342   0.324   5.879   3.128
  815SOL     OW 3343   5.054   2.180   3.800
  815SOL    HW1 3344   5.034   2.134   3.886
  815SOL    HW2 3345   5.153   2.182   3.786
  816SOL     OW 3346   5.255   3.468   0.460
  816SOL    HW1 3347   5.159   3.479   0.435
  816SOL    HW2 3348   5.261   3.430   0.552
  817SOL     OW 3349   1.340   5.549   0.959
  817SOL    HW1 3350   1.359   5.516   1.052
  817SOL    HW2 3351   1.394   5.630   0.940
  818SOL     OW 3352   5.404   2.845   3.605
  818SOL    HW1 3353   5.399   2.752   3.567
  818SOL    HW2 3354   5.418   2.840   3.704
  819SOL     OW 3355   5.725   2.309   1.587
  819SOL    HW1 3356   5.816   2.349   1.592
  819SOL    HW2 3357   5.662   2.362   1.644
  820SOL     OW 3358   1.880   2.024   4.156
  820SOL    HW1 3359   1.839   2.103   4.201
  820SOL    HW2 3360   1.969   2.005   4.198
  821SOL     OW 3361   5.852   4.040   5.033
  821SOL    HW1 3362   5.756   4.069   5.033
  821SOL    HW2 3363   5.861   3.952   5.080
  822SOL     OW 3364   0.831   4.236   3.905
  822SOL    HW1 3365   0.821   4.187   3.992
  822SOL    HW2 3366   0.827   4.335   3.922
  823SOL     OW 3367   0.929   3.875   5.804
  823SOL    HW1 3368   0.884   3.786   5.811
  823SOL    HW2 3369   0.867   3.946   5.838
  824SOL     OW 3370   5.631   0.905   5.094
  824SOL    HW1 3371   5.664   0.913   5.189
  824SOL    HW2 3372   5.600   0.812   5.077
  825SOL     OW 3373   6.310   5.841   0.941
  825SOL    HW1 3374   6.371   5.810   1.014
  825SOL    HW2 3375   6.303   5.941   0.946
  826SOL     OW 3376   3.821   1.246   5.606
  826SOL    HW1 3377   3.833   1.331   5.657
  826SOL    HW2 3378   3.909   1.200   5.595
  827SOL     OW 3379   3.568   4.075   4.687
  827SOL    HW1 3380   3.567   3.981   4.653
  827SOL    HW2 3381   3.478   4.097   4.724
  828SOL     OW 3382   6.150   5.604   4.486
  828SOL    HW1 3383   6.137   5.512   4.524
  828SOL    HW2 3384   6.246   5.630   4.493
  829SOL     OW 3385   3.515   2.807   2.625
  829SOL    HW1 3386   3.572   2.739   2.672
  829SOL    HW2 3387   3.569   2.888   2.605
  830SOL     OW 3388   6.433   4.442   6.823
  830SOL    HW1 3389   6.456   4.526   6.772
  830SOL    HW2 3390   6.440   4.460   6.921
  831SOL     OW 3391   5.558   6.142   1.087
  831SOL    HW1 3392   5.572   6.072   1.158
  831SOL    HW2 3393   5.641   6.196   1.076
  832SOL     OW 3394   3.741   1.739   4.965
  832SOL    HW1 3395   3.662   1.799   4.975
  832SOL    HW2 3396   3.756   1.719   4.868
  833SOL     OW 3397   1.200   3.738   6.458
  833SOL    HW1 3398   1.118   3.766   6.508
  833SOL    HW2 3399   1.242   3.817   6.415
  834SOL     OW 3400   4.687   3.393   6.785
  834SOL    HW1 3401   4.756   3.354   6.724
  834SOL    HW2 3402   4.598   3.392   6.739
  835SOL     OW 3403   1.350   0.468   3.992
  835SOL    HW1 3404   1.420   0.480   4.063
  835SOL    HW2 3405   1.261   0.452   4.035
  836SOL     OW 3406   3.281   1.703   5.326
  836SOL    HW1 3407   3.335   1.634   5.374
  836SOL    HW2 3408   3.326   1.792   5.334
  837SOL     OW 3409   1.372   0.564   1.181
  837SOL    HW1 3410   1.336   0.605   1.265
  837SOL    HW2 3411   1.354   0.466   1.182
  838SOL     OW 3412   1.918   5.676   3.974
  838SOL    HW1 3413   1.982   5.692   3.900
  838SOL    HW2 3414   1.954   5.715   4.059
  839SOL     OW 3415   1.603   1.517   1.115
  839SOL    HW1 3416   1.629   1.423   1.136
  839SOL    HW2 3417   1.520   1.516   1.059
  840SOL     OW 3418   6.210   5.281   0.266
  840SOL    HW1 3419   6.200   5.230   0.181
  840SOL    HW2 3420   6.138   5.351   0.271
  841SOL     OW 3421   4.026   5.082   5.503
  841SOL    HW1 3422   3.977   4.998   5.479
  841SOL    HW2 3423   4.124   5.067   5.493
  842SOL     OW 3424   3.262   0.121   6.845
  842SOL    HW1 3425   3.201   0.081   6.777
  842SOL    HW2 3426   3.208   0.164   6.917
  843SOL     OW 3427   1.697   1.751   1.478
  843SOL    HW1 3428   1.636   1.768   1.401
  843SOL    HW2 3429   1.751   1.833   1.496
  844SOL     OW 3430   0.362   6.916   1.169
  844SOL    HW1 3431   0.302   6.947   1.096
  844SOL    HW2 3432   0.432   6.985   1.187
  845SOL     OW 3433   3.868   1.480   2.760
  845SOL    HW1 3434   3.920   1.557   2.722
  845SOL    HW2 3435   3.791   1.515   2.812
  846SOL     OW 3436   3.109   1.680   6.703
  846SOL    HW1 3437   3.144   1.761   6.750
  846SOL    HW2 3438   3.013   1.693   6.680
  847SOL     OW 3439   2.507   3.566   1.471
  847SOL    HW1 3440   2.490   3.651   1.521
  847SOL    HW2 3441   2.525   3.492   1.536
  848SOL     OW 3442   6.069   6.527   5.913
  848SOL    HW1 3443   6.143   6.590   5.937
  848SOL    HW2 3444   6.017   6.565   5.836
  849SOL     OW 3445   5.688   3.473   0.349
  849SOL    HW1 3446   5.724   3.515   0.433
  849SOL    HW2 3447   5.648   3.544   0.291
  850SOL     OW 3448   6.369   0.823   5.190
  850SOL    HW1 3449   6.390   0.812   5.093
  850SOL    HW2 3450   6.308   0.902   5.202
  851SOL     OW 3451   6.550   3.012   6.604
  851SOL    HW1 3452   6.578   3.008   6.508
  851SOL    HW2 3453   6.454   3.042   6.609
  852SOL     OW 3454   6.992   3.857   1.396
  852SOL    HW1 3455   6.929   3.816   1.330
  852SOL    HW2 3456   0.058   3.811   1.392
  853SOL     OW 3457   1.757   4.409   0.556
  853SOL    HW1 3458   1.670   4.361   0.568
  853SOL    HW2 3459   1.748   4.501   0.593
  854SOL     OW 3460   6.243   6.317   6.864
  854SOL    HW1 3461   6.214   6.413   6.875
  854SOL    HW2 3462   6.178   6.258   6.912
  855SOL     OW 3463   0.370   0.947   6.791
  855SOL    HW1 3464   0.286   0.893   6.798
  855SOL    HW2 3465   0.396   0.956   6.695
  856SOL     OW 3466   1.904   6.329   6.389
  856SOL    HW1 3467   1.824   6.269   6.384
  856SOL    HW2 3468   1.876   6.421   6.414
  857SOL     OW 3469   0.350   4.609   3.849
  857SOL    HW1 3470   0.285   4.634   3.778
  857SOL    HW2 3471   0.443   4.618   3.814
  858SOL     OW 3472   3.675   4.049   0.586
  858SOL    HW1 3473   3.769   4.082   0.596
  858SOL    HW2 3474   3.629   4.101   0.515
  859SOL     OW 3475   3.988   6.816   5.278
  859SOL    HW1 3476   3.968   6.882   5.350
  859SOL    HW2 3477   4.077   6.774   5.296
  860SOL     OW 3478   5.244   2.710   5.355
  860SOL    HW1 3479   5.186   2.662   5.289
  860SOL    HW2 3480   5.186   2.761   5.419
  861SOL     OW 3481   2.177   5.568   3.125
  861SOL    HW1 3482   2.229   5.648   3.097
  861SOL    HW2 3483   2.187   5.554   3.224
  862SOL     OW 3484   1.596   4.429   3.606
  862SOL    HW1 3485   1.529   4.446   3.678
  862SOL    HW2 3486   1.668   4.498   3.608
  863SOL     OW 3487   6.746   0.118   5.933
  863SOL    HW1 3488   6.683   0.179   5.886
  863SOL    HW2 3489   6.817   0.171   5.978
  864SOL     OW 3490   4.702   0.514   5.535
  864SOL    HW1 3491   4.706   0.475   5.443
  864SOL    HW2 3492   4.635   0.589   5.538
  865SOL     OW 3493   1.956   6.134   4.623
  865SOL    HW1 3494   2.048   6.129   4.662
  865SOL    HW2 3495   1.947   6.218   4.569
  866SOL     OW 3496   2.530   6.844   1.360
  866SOL    HW1 3497   2.629   6.830   1.361
  866SOL    HW2 3498   2.508   6.927   1.310
  867SOL     OW 3499   5.555   1.704   0.914
  867SOL    HW1 3500   5.463   1.674   0.941
  867SOL    HW2 3501   5.552   1.799   0.884
  868SOL     OW 3502   0.109   2.427   1.869
  868SOL    HW1 3503   0.140   2.332   1.871
  868SOL    HW2 3504   0.160   2.480   1.937
  869SOL     OW 3505   7.020   4.046   3.948
  869SOL    HW1 3506   0.079   4.008   3.903
  869SOL    HW2 3507   0.014   4.052   4.047
  870SOL     OW 3508   3.519   4.909   1.730
  870SOL    HW1 3509   3.445   4.852   1.695
  870SOL    HW2 3510   3.560   4.865   1.810
  871SOL     OW 3511   4.951   1.673   3.940
  871SOL    HW1 3512   4.880   1.741   3.923
  871SOL    HW2 3513   4.934   1.593   3.883
  872SOL     OW 3514   7.008   2.374   4.617
  872SOL    HW1 3515   6.915   2.407   4.634
  872SOL    HW2 3516   7.009   2.321   4.532
  873SOL     OW 3517   4.382   6.390   5.668
  873SOL    HW1 3518   4.358   6.382   5.764
  873SOL    HW2 3519   4.454   6.459   5.657
  874SOL     OW 3520   5.836   4.225   6.831
  874SOL    HW1 3521   5.927   4.185   6.819
  874SOL    HW2 3522   5.843   4.324   6.833
  875SOL     OW 3523   5.289   5.452   1.208
  875SOL    HW1 3524   5.195   5.436   1.177
  875SOL    HW2 3525   5.349   5.464   1.129
  876SOL     OW 3526   0.016   5.152   2.027
  876SOL    HW1 3527   0.050   5.058   2.036
  876SOL    HW2 3528   0.092   5.216   2.042
  877SOL     OW 3529   2.755   4.561   0.295
  877SOL    HW1 3530   2.722   4.654   0.312
  877SOL    HW2 3531   2.812   4.561   0.213
  878SOL     OW 3532   4.311   6.747   4.164
  878SOL    HW1 3533   4.288   6.696   4.081
  878SOL    HW2 3534   4.227   6.762   4.218
  879SOL     OW 3535   4.071   0.568   1.241
  879SOL    HW1 3536   4.087   0.609   1.331
  879SOL    HW2 3537   4.018   0.484   1.251
  880SOL     OW 3538   3.084   3.926   3.820
  880SOL    HW1 3539   3.064   3.957   3.727
  880SOL    HW2 3540   3.143   3.993   3.865
  881SOL     OW 3541   4.492   2.579   5.105
  881SOL    HW1 3542   4.546   2.631   5.038
  881SOL    HW2 3543   4.403   2.557   5.066
  882SOL     OW 3544   0.599   3.367   4.800
  882SOL    HW1 3545   0.627   3.373   4.896
  882SOL    HW2 3546   0.569   3.457   4.768
  883SOL     OW 3547   2.745   0.323   3.249
  883SOL    HW1 3548   2.706   0.334   3.341
  883SOL    HW2 3549   2.723   0.404   3.194
  884SOL     OW 3550   4.708   3.065   5.469
  884SOL    HW1 3551   4.745   3.057   5.377
  884SOL    HW2 3552   4.668   3.156   5.482
  885SOL     OW 3553   2.884   1.340   5.726
  885SOL    HW1 3554   2.874   1.384   5.815
  885SOL    HW2 3555   2.816   1.377   5.662
  886SOL     OW 3556   3.608   0.512   0.570
  886SOL    HW1 3557   3.645   0.498   0.479
  886SOL    HW2 3558   3.661   0.582   0.618
  887SOL     OW 3559   3.743   6.876   3.833
  887SOL    HW1 3560   3.842   6.864   3.829
  887SOL    HW2 3561   3.719   6.932   3.912
  888SOL     OW 3562   0.724   7.005   2.907
  888SOL    HW1 3563   0.654   0.051   2.888
  888SOL    HW2 3564   0.812   0.015   2.872
  889SOL     OW 3565   0.554   3.774   0.440
  889SOL    HW1 3566   0.609   3.706   0.488
  889SOL    HW2 3567   0.612   3.829   0.381
  890SOL     OW 3568   1.352   5.349   3.697
  890SOL    HW1 3569   1.267   5.326   3.650
  890SOL    HW2 3570   1.333   5.409   3.775
  891SOL     OW 3571   5.515   5.742   1.120
  891SOL    HW1 3572   5.562   5.743   1.032
  891SOL    HW2 3573   5.532   5.655   1.166
  892SOL     OW 3574   2.594   3.892   5.957
  892SOL    HW1 3575   2.639   3.822   5.901
  892SOL    HW2 3576   2.536   3.847   6.026
  893SOL     OW 3577   2.427   6.223   2.721
  893SOL    HW1 3578   2.362   6.186   2.787
  893SOL    HW2 3579   2.454   6.316   2.748
  894SOL     OW 3580   1.004   3.355   1.354
  894SOL    HW1 3581   0.960   3.316   1.273
  894SOL    HW2 3582   1.094   3.314   1.367
  895SOL     OW 3583   0.681   4.541   3.355
  895SOL    HW1 3584   0.703   4.638   3.363
  895SOL    HW2 3585   0.765   4.488   3.360
  896SOL     OW 3586   5.838   5.073   0.500
  896SOL    HW1 3587   5.778   5.055   0.578
  896SOL    HW2 3588   5.842   4.991   0.442
  897SOL     OW 3589   4.683   1.195   0.570
  897SOL    HW1 3590   4.649   1.234   0.655
  897SOL    HW2 3591   4.710   1.100   0.584
  898SOL     OW 3592   3.549   6.070   2.851
  898SOL    HW1 3593   3.529   6.145   2.787
  898SOL    HW2 3594   3.628   6.019   2.819
  899SOL     OW 3595   0.526   5.858   6.236
  899SOL    HW1 3596   0.526   5.904   6.325
  899SOL    HW2 3597   0.620   5.855   6.201
  900SOL     OW 3598   6.269   7.002   0.190
  900SOL    HW1 3599   6.358   6.992   0.145
  900SOL    HW2 3600   6.264   6.938   0.267
  901SOL     OW 3601   2.414   0.522   2.731
  901SOL    HW1 3602   2.437   0.508   2.635
  901SOL    HW2 3603   2.315   0.516   2.743
  902SOL     OW 3604   6.919   3.208   0.445
  902SOL    HW1 3605   6.902   3.299   0.409
  902SOL    HW2 3606   6.976   3.214   0.527
  903SOL     OW 3607   6.835   2.351   6.469
  903SOL    HW1 3608   6.741   2.368   6.442
  903SOL    HW2 3609   6.896   2.365   6.390
  904SOL     OW 3610   2.648   2.124   3.650
  904SOL    HW1 3611   2.659   2.218   3.617
  904SOL    HW2 3612   2.553   2.108   3.677
  905SOL     OW 3613   5.231   1.951   0.044
  905SOL    HW1 3614   5.318   1.903   0.057
  905SOL    HW2 3615   5.195   1.979   0.133
  906SOL     OW 3616   0.286   2.414   5.791
  906SOL    HW1 3617   0.280   2.468   5.707
  906SOL    HW2 3618   0.335   2.329   5.771
  907SOL     OW 3619   4.997   3.205   0.531
  907SOL    HW1 3620   5.008   3.210   0.431
  907SOL    HW2 3621   5.050   3.278   0.573
  908SOL     OW 3622   2.527   4.970   2.887
  908SOL    HW1 3623   2.440   4.939   2.926
  908SOL    HW2 3624   2.588   4.891   2.877
  909SOL     OW 3625   4.062   5.558   6.911
  909SOL    HW1 3626   4.019   5.503   6.839
  909SOL    HW2 3627   4.095   5.644   6.872
  910SOL     OW 3628   2.954   2.828   1.308
  910SOL    HW1 3629   3.017   2.838   1.385
  910SOL    HW2 3630   2.929   2.732   1.299
  911SOL     OW 3631   1.492   5.679   6.097
  911SOL    HW1 3632   1.467   5.765   6.052
  911SOL    HW2 3633   1.410   5.622   6.109
  912SOL     OW 3634   5.447   2.623   3.443
  912SOL    HW1 3635   5.371   2.558   3.447
  912SOL    HW2 3636   5.449   2.666   3.352
  913SOL     OW 3637   4.914   6.128   3.313
  913SOL    HW1 3638   4.962   6.165   3.234
  913SOL    HW2 3639   4.823   6.169   3.319
  914SOL     OW 3640   2.348   0.271   6.612
  914SOL    HW1 3641   2.332   0.369   6.623
  914SOL    HW2 3642   2.446   0.252   6.620
  915SOL     OW 3643   5.923   4.485   6.790
  915SOL    HW1 3644   6.022   4.488   6.803
  915SOL    HW2 3645   5.901   4.509   6.695
  916SOL     OW 3646   1.463   2.308   2.144
  916SOL    HW1 3647   1.515   2.371   2.086
  916SOL    HW2 3648   1.526   2.242   2.186
  917SOL     OW 3649   0.035   6.645   0.570
  917SOL    HW1 3650   7.011   6.573   0.518
  917SOL    HW2 3651   0.041   6.617   0.666
  918SOL     OW 3652   2.222   6.701   0.853
  918SOL    HW1 3653   2.269   6.747   0.777
  918SOL    HW2 3654   2.265   6.613   0.870
  919SOL     OW 3655   5.632   1.231   3.639
  919SOL    HW1 3656   5.663   1.220   3.733
  919SOL    HW2 3657   5.590   1.321   3.628
  920SOL     OW 3658   2.284   4.768   1.620
  920SOL    HW1 3659   2.281   4.815   1.708
  920SOL    HW2 3660   2.369   4.715   1.613
  921SOL     OW 3661   4.993   5.304   4.212
  921SOL    HW1 3662   4.934   5.247   4.156
  921SOL    HW2 3663   5.057   5.354   4.154
  922SOL     OW 3664   3.728   3.534   4.418
  922SOL    HW1 3665   3.791   3.554   4.343
  922SOL    HW2 3666   3.744   3.598   4.493
  923SOL     OW 3667   2.254   2.928   5.689
  923SOL    HW1 3668   2.258   2.910   5.787
  923SOL    HW2 3669   2.346   2.945   5.655
  924SOL     OW 3670   6.540   3.678   2.518
  924SOL    HW1 3671   6.525   3.690   2.616
  924SOL    HW2 3672   6.616   3.737   2.489
  925SOL     OW 3673   6.967   2.251   0.298
  925SOL    HW1 3674   6.981   2.316   0.372
  925SOL    HW2 3675   6.877   2.207   0.309
  926SOL     OW 3676   6.830   1.734   1.507
  926SOL    HW1 3677   6.817   1.782   1.420
  926SOL    HW2 3678   6.921   1.753   1.543
  927SOL     OW 3679   5.889   3.938   3.882
  927SOL    HW1 3680   5.826   3.869   3.848
  927SOL    HW2 3681   5.983   3.912   3.857
  928SOL     OW 3682   2.770   6.090   0.413
  928SOL    HW1 3683   2.734   6.183   0.425
  928SOL    HW2 3684   2.828   6.066   0.490
  929SOL     OW 3685   6.607   1.359   0.003
  929SOL    HW1 3686   6.689   1.303   7.011
  929SOL    HW2 3687   6.552   1.360   6.942
  930SOL     OW 3688   4.192   5.176   6.000
  930SOL    HW1 3689   4.131   5.119   5.945
  930SOL    HW2 3690   4.192   5.269   5.964
  931SOL     OW 3691   6.775   2.080   3.713
  931SOL    HW1 3692   6.803   2.038   3.627
  931SOL    HW2 3693   6.842   2.150   3.739
  932SOL     OW 3694   3.729   1.400   3.884
  932SOL    HW1 3695   3.710   1.456   3.965
  932SOL    HW2 3696   3.647   1.396   3.826
  933SOL     OW 3697   1.328   4.937   2.688
  933SOL    HW1 3698   1.368   4.880   2.760
  933SOL    HW2 3699   1.398   4.958   2.620
  934SOL     OW 3700   2.463   5.850   5.999
  934SOL    HW1 3701   2.523   5.781   5.959
  934SOL    HW2 3702   2.377   5.854   5.948
  935SOL     OW 3703   5.185   4.073   3.630
  935SOL    HW1 3704   5.147   4.077   3.538
  935SOL    HW2 3705   5.127   4.015   3.688
  936SOL     OW 3706   1.217   0.401   5.899
  936SOL    HW1 3707   1.167   0.391   5.985
  936SOL    HW2 3708   1.305   0.356   5.906
  937SOL     OW 3709   4.285   1.267   5.540
  937SOL    HW1 3710   4.242   1.347   5.582
  937SOL    HW2 3711   4.383   1.269   5.561
  938SOL     OW 3712   6.836   5.862   4.031
  938SOL    HW1 3713   6.817   5.769   4.001
  938SOL    HW2 3714   6.765   5.923   3.997
  939SOL     OW 3715   6.889   6.889   4.844
  939SOL    HW1 3716   6.980   6.856   4.871
  939SOL    HW2 3717   6.834   6.906   4.925
  940SOL     OW 3718   1.004   4.655   0.866
  940SOL    HW1 3719   1.103   4.646   0.879
  940SOL    HW2 3720   0.977   4.605   0.784
  941SOL     OW 3721   4.490   0.407   6.387
  941SOL    HW1 3722   4.518   0.426   6.481
  941SOL    HW2 3723   4.416   0.470   6.361
  942SOL     OW 3724   6.524   6.275   0.845
  942SOL    HW1 3725   6.585   6.296   0.769
  942SOL    HW2 3726   6.458   6.205   0.818
  943SOL     OW 3727   2.663   4.735   2.806
  943SOL    HW1 3728   2.600   4.669   2.847
  943SOL    HW2 3729   2.688   4.705   2.714
  944SOL     OW 3730   0.282   6.252   4.157
  944SOL    HW1 3731   0.186   6.273   4.136
  944SOL    HW2 3732   0.300   6.274   4.253
  945SOL     OW 3733   0.285   5.604   5.451
  945SOL    HW1 3734   0.298   5.691   5.498
  945SOL    HW2 3735   0.327   5.530   5.504
  946SOL     OW 3736   5.071   4.530   4.402
  946SOL    HW1 3737   5.069   4.541   4.501
  946SOL    HW2 3738   5.156   4.484   4.376
  947SOL     OW 3739   4.119   3.692   3.821
  947SOL    HW1 3740   4.059   3.668   3.744
  947SOL    HW2 3741   4.144   3.789   3.814
  948SOL     OW 3742   4.853   1.205   2.526
  948SOL    HW1 3743   4.918   1.240   2.458
  948SOL    HW2 3744   4.801   1.130   2.485
  949SOL     OW 3745   2.787   6.633   0.768
  949SOL    HW1 3746   2.776   6.546   0.720
  949SOL    HW2 3747   2.818   6.616   0.861
  950SOL     OW 3748   6.605   5.617   1.779
  950SOL    HW1 3749   6.668   5.694   1.792
  950SOL    HW2 3750   6.524   5.629   1.836
  951SOL     OW 3751   1.719   0.186   3.486
  951SOL    HW1 3752   1.803   0.156   3.532
  951SOL    HW2 3753   1.640   0.153   3.537
  952SOL     OW 3754   3.771   2.115   2.487
  952SOL    HW1 3755   3.758   2.092   2.390
  952SOL    HW2 3756   3.706   2.186   2.513
  953SOL     OW 3757   6.668   5.583   4.622
  953SOL    HW1 3758   6.587   5.638   4.641
  953SOL    HW2 3759   6.667   5.501   4.680
  954SOL     OW 3760   4.704   5.760   1.987
  954SOL    HW1 3761   4.713   5.854   2.019
  954SOL    HW2 3762   4.794   5.723   1.965
  955SOL     OW 3763   1.527   4.689   6.793
  955SOL    HW1 3764   1.582   4.754   6.846
  955SOL    HW2 3765   1.479   4.738   6.720
  956SOL     OW 3766   0.021   0.571   0.874
  956SOL    HW1 3767   7.004   0.482   0.850
  956SOL    HW2 3768   0.121   0.565   0.868
  957SOL     OW 3769   6.115   1.751   2.614
  957SOL    HW1 3770   6.140   1.691   2.538
  957SOL    HW2 3771   6.104   1.696   2.697
  958SOL     OW 3772   5.131   6.809   2.314
  958SOL    HW1 3773   5.185   6.810   2.398
  958SOL    HW2 3774   5.104   6.902   2.290
  959SOL     OW 3775   3.395   6.977   4.110
  959SOL    HW1 3776   3.368   6.955   4.016
  959SOL    HW2 3777   3.329   0.018   4.149
  960SOL     OW 3778   0.630   0.288   0.418
  960SOL    HW1 3779   0.574   0.344   0.479
  960SOL    HW2 3780   0.625   0.192   0.446
  961SOL     OW 3781   2.969   6.208   3.109
  961SOL    HW1 3782   2.892   6.189   3.048
  961SOL    HW2 3783   3.041   6.141   3.094
  962SOL     OW 3784   6.244   0.038   4.631
  962SOL    HW1 3785   6.145   0.048   4.639
  962SOL    HW2 3786   6.270   0.047   4.535
  963SOL     OW 3787   4.573   2.130   1.397
  963SOL    HW1 3788   4.653   2.153   1.342
  963SOL    HW2 3789   4.490   2.150   1.346
  964SOL     OW 3790   5.381   4.662   4.958
  964SOL    HW1 3791   5.402   4.684   5.053
  964SOL    HW2 3792   5.466   4.664   4.904
  965SOL     OW 3793   5.492   2.464   2.432
  965SOL    HW1 3794   5.486   2.544   2.492
  965SOL    HW2 3795   5.578   2.416   2.449
  966SOL     OW 3796   4.882   1.869   3.551
  966SOL    HW1 3797   4.907   1.883   3.455
  966SOL    HW2 3798   4.931   1.790   3.587
  967SOL     OW 3799   4.996   4.231   6.251
  967SOL    HW1 3800   5.054   4.181   6.315
  967SOL    HW2 3801   5.017   4.202   6.158
  968SOL     OW 3802   3.963   0.480   2.136
  968SOL    HW1 3803   4.017   0.562   2.155
  968SOL    HW2 3804   3.949   0.429   2.220
  969SOL     OW 3805   3.572   4.878   5.648
  969SOL    HW1 3806   3.606   4.815   5.578
  969SOL    HW2 3807   3.473   4.869   5.654
  970SOL     OW 3808   6.162   0.528   5.218
  970SOL    HW1 3809   6.255   0.560   5.233
  970SOL    HW2 3810   6.164   0.438   5.174
  971SOL     OW 3811   6.999   4.848   3.083
  971SOL    HW1 3812   6.963   4.760   3.051
  971SOL    HW2 3813   6.923   4.905   3.115
  972SOL     OW 3814   0.012   2.559   0.916
  972SOL    HW1 3815   7.022   2.535   1.012
  972SOL    HW2 3816   6.964   2.515   0.861
  973SOL     OW 3817   0.258   4.452   6.138
  973SOL    HW1 3818   0.270   4.506   6.055
  973SOL    HW2 3819   0.178   4.392   6.128
  974SOL     OW 3820   0.371   4.690   4.288
  974SOL    HW1 3821   0.398   4.637   4.208
  974SOL    HW2 3822   0.287   4.741   4.268
  975SOL     OW 3823   2.043   6.470   1.854
  975SOL    HW1 3824   2.016   6.408   1.928
  975SOL    HW2 3825   2.103   6.422   1.790
  976SOL     OW 3826   6.629   4.005   2.039
  976SOL    HW1 3827   6.554   4.051   1.992
  976SOL    HW2 3828   6.709   4.002   1.979
  977SOL     OW 3829   0.987   0.964   2.202
  977SOL    HW1 3830   0.945   0.874   2.212
  977SOL    HW2 3831   0.964   1.021   2.281
  978SOL     OW 3832   5.901   2.257   1.954
  978SOL    HW1 3833   5.840   2.210   1.889
  978SOL    HW2 3834   5.994   2.223   1.943
  979SOL     OW 3835   0.070   3.470   6.250
  979SOL    HW1 3836   0.115   3.418   6.323
  979SOL    HW2 3837   7.006   3.508   6.284
  980SOL     OW 3838   3.899   1.322   4.754
  980SOL    HW1 3839   3.877   1.348   4.660
  980SOL    HW2 3840   3.868   1.229   4.771
  981SOL     OW 3841   6.901   0.347   4.988
  981SOL    HW1 3842   6.906   0.427   5.048
  981SOL    HW2 3843   6.939   0.268   5.035
  982SOL     OW 3844   0.393   1.965   5.373
  982SOL    HW1 3845   0.367   2.057   5.401
  982SOL    HW2 3846   0.357   1.899   5.440
  983SOL     OW 3847   0.479   3.613   3.592
  983SOL    HW1 3848   0.426   3.570   3.666
  983SOL    HW2 3849   0.496   3.546   3.520
  984SOL     OW 3850   1.599   2.183   3.389
  984SOL    HW1 3851   1.611   2.204   3.486
  984SOL    HW2 3852   1.657   2.243   3.334
  985SOL     OW 3853   5.888   3.472   3.870
  985SOL    HW1 3854   5.822   3.430   3.808
  985SOL    HW2 3855   5.842   3.495   3.956
  986SOL     OW 3856   4.873   4.412   1.459
  986SOL    HW1 3857   4.819   4.368   1.530
  986SOL    HW2 3858   4.893   4.507   1.486
  987SOL     OW 3859   5.876   5.636   3.454
  987SOL    HW1 3860   5.780   5.616   3.476
  987SOL    HW2 3861   5.928   5.645   3.539
  988SOL     OW 3862   3.639   3.916   1.689
  988SOL    HW1 3863   3.689   3.886   1.770
  988SOL    HW2 3864   3.632   4.016   1.690
  989SOL     OW 3865   0.228   2.315   0.635
  989SOL    HW1 3866   0.237   2.236   0.695
  989SOL    HW2 3867   0.290   2.387   0.666
  990SOL     OW 3868   3.631   0.832   3.194
  990SOL    HW1 3869   3.725   0.859   3.174
  990SOL    HW2 3870   3.631   0.751   3.252
  991SOL     OW 3871   6.690   4.037   4.080
  991SOL    HW1 3872   6.612   4.066   4.136
  991SOL    HW2 3873   6.767   4.014   4.140
  992SOL     OW 3874   1.142   2.628   1.245
  992SOL    HW1 3875   1.094   2.547   1.212
  992SOL    HW2 3876   1.077   2.704   1.250
  993SOL     OW 3877   1.264   4.675   0.883
  993SOL    HW1 3878   1.317   4.602   0.926
  993SOL    HW2 3879   1.305   4.763   0.904
  994SOL     OW 3880   3.559   6.505   1.679
  994SOL    HW1 3881   3.569   6.511   1.580
  994SOL    HW2 3882   3.553   6.408   1.706
  995SOL     OW 3883   4.993   3.564   5.757
  995SOL    HW1 3884   5.060   3.560   5.830
  995SOL    HW2 3885   5.030   3.617   5.680
  996SOL     OW 3886   4.282   5.970   5.370
  996SOL    HW1 3887   4.333   5.906   5.313
  996SOL    HW2 3888   4.246   6.044   5.313
  997SOL     OW 3889   1.294   6.677   3.681
  997SOL    HW1 3890   1.270   6.581   3.693
  997SOL    HW2 3891   1.226   6.721   3.622
  998SOL     OW 3892   5.917   0.342   6.008
  998SOL    HW1 3893   5.869   0.270   5.958
  998SOL    HW2 3894   5.996   0.373   5.955
  999SOL     OW 3895   4.872   3.401   1.546
  999SOL    HW1 3896   4.877   3.328   1.614
  999SOL    HW2 3897   4.880   3.490   1.593
 1000SOL     OW 3898   3.989   1.785   1.257
 1000SOL    HW1 3899   3.898   1.827   1.258
 1000SOL    HW2 3900   3.994   1.717   1.183
 1001SOL     OW 3901   2.820   7.019   2.038
 1001SOL    HW1 3902   2.793   6.924   2.021
 1001SOL    HW2 3903   2.760   0.036   2.108
 1002SOL     OW 3904   5.241   2.656   1.453
 1002SOL    HW1 3905   5.237   2.735   1.392
 1002SOL    HW2 3906   5.313   2.594   1.423
 1003SOL     OW 3907   1.169   6.154   2.494
 1003SOL    HW1 3908   1.224   6.176   2.413
 1003SOL    HW2 3909   1.138   6.058   2.488
 1004SOL     OW 3910   6.215   1.529   3.352
 1004SOL    HW1 3911   6.270   1.604   3.387
 1004SOL    HW2 3912   6.270   1.473   3.290
 1005SOL     OW 3913   1.381   4.207   3.805
 1005SOL    HW1 3914   1.367   4.300   3.770
 1005SOL    HW2 3915   1.293   4.167   3.831
 1006SOL     OW 3916   2.260   4.132   0.426
 1006SOL    HW1 3917   2.357   4.120   0.407
 1006SOL    HW2 3918   2.230   4.219   0.386
 1007SOL     OW 3919   4.439   1.475   6.866
 1007SOL    HW1 3920   4.405   1.391   6.823
 1007SOL    HW2 3921   4.401   1.483   6.958
 1008SOL     OW 3922   0.602   4.871   5.026
 1008SOL    HW1 3923   0.675   4.937   5.044
 1008SOL    HW2 3924   0.547   4.858   5.108
 1009SOL     OW 3925   6.075   4.974   5.248
 1009SOL    HW1 3926   6.080   4.952   5.345
 1009SOL    HW2 3927   6.050   4.891   5.196
 1010SOL     OW 3928   2.293   3.174   1.485
 1010SOL    HW1 3929   2.371   3.230   1.514
 1010SOL    HW2 3930   2.310   3.079   1.508
 1011SOL     OW 3931   0.725   5.096   2.557
 1011SOL    HW1 3932   0.692   5.159   2.627
 1011SOL    HW2 3933   0.710   5.136   2.466
 1012SOL     OW 3934   6.211   0.335   2.356
 1012SOL    HW1 3935   6.134   0.282   2.320
 1012SOL    HW2 3936   6.290   0.325   2.295
 1013SOL     OW 3937   6.912   0.892   5.773
 1013SOL    HW1 3938   6.834   0.837   5.804
 1013SOL    HW2 3939   6.910   0.899   5.673
 1014SOL     OW 3940   1.526   4.745   3.826
 1014SOL    HW1 3941   1.534   4.720   3.922
 1014SOL    HW2 3942   1.615   4.775   3.792
 1015SOL     OW 3943   3.309   0.191   6.509
 1015SOL    HW1 3944   3.357   0.278   6.523
 1015SOL    HW2 3945   3.211   0.205   6.523
 1016SOL     OW 3946   5.208   3.909   1.237
 1016SOL    HW1 3947   5.124   3.871   1.276
 1016SOL    HW2 3948   5.277   3.919   1.309
 1017SOL     OW 3949   2.049   1.659   1.750
 1017SOL    HW1 3950   1.992   1.601   1.808
 1017SOL    HW2 3951   2.021   1.650   1.654
 1018SOL     OW 3952   6.986   5.013   3.681
 1018SOL    HW1 3953   0.063   5.011   3.677
 1018SOL    HW2 3954   6.950   4.920   3.690
 1019SOL     OW 3955   6.853   4.944   0.702
 1019SOL    HW1 3956   6.772   4.978   0.751
 1019SOL    HW2 3957   6.837   4.849   0.674
 1020SOL     OW 3958   0.286   0.371   1.812
 1020SOL    HW1 3959   0.313   0.443   1.876
 1020SOL    HW2 3960   0.201   0.398   1.766
 1021SOL     OW 3961   6.350   6.130   2.048
 1021SOL    HW1 3962   6.408   6.193   2.099
 1021SOL    HW2 3963   6.329   6.050   2.105
 1022SOL     OW 3964   2.394   6.314   6.375
 1022SOL    HW1 3965   2.366   6.382   6.307
 1022SOL    HW2 3966   2.429   6.361   6.456
 1023SOL     OW 3967   0.092   1.482   2.722
 1023SOL    HW1 3968   0.052   1.530   2.644
 1023SOL    HW2 3969   0.035   1.403   2.746
 1024SOL     OW 3970   0.865   1.415   4.779
 1024SOL    HW1 3971   0.814   1.445   4.860
 1024SOL    HW2 3972   0.817   1.338   4.737
 1025SOL     OW 3973   5.106   3.657   6.398
 1025SOL    HW1 3974   5.078   3.682   6.305
 1025SOL    HW2 3975   5.147   3.736   6.443
 1026SOL     OW 3976   3.054   2.482   1.462
 1026SOL    HW1 3977   2.982   2.505   1.527
 1026SOL    HW2 3978   3.099   2.397   1.491
 1027SOL     OW 3979   1.152   6.193   1.535
 1027SOL    HW1 3980   1.210   6.268   1.568
 1027SOL    HW2 3981   1.064   6.195   1.583
 1028SOL     OW 3982   0.970   6.413   3.185
 1028SOL    HW1 3983   1.024   6.425   3.268
 1028SOL    HW2 3984   1.009   6.339   3.129
 1029SOL     OW 3985   1.112   2.167   5.798
 1029SOL    HW1 3986   1.028   2.172   5.851
 1029SOL    HW2 3987   1.191   2.168   5.860
 1030SOL     OW 3988   3.306   3.295   1.659
 1030SOL    HW1 3989   3.237   3.364   1.638
 1030SOL    HW2 3990   3.297   3.219   1.594
 1031SOL     OW 3991   3.759   3.329   1.546
 1031SOL    HW1 3992   3.700   3.272   1.603
 1031SOL    HW2 3993   3.855   3.311   1.569
 1032SOL     OW 3994   2.094   1.182   5.894
 1032SOL    HW1 3995   2.007   1.188   5.942
 1032SOL    HW2 3996   2.120   1.272   5.859
 1033SOL     OW 3997   0.905   5.934   2.289
 1033SOL    HW1 3998   0.964   5.856   2.267
 1033SOL    HW2 3999   0.810   5.909   2.272
 1034SOL     OW 4000   3.450   6.636   4.374
 1034SOL    HW1 4001   3.485   6.667   4.286
 1034SOL    HW2 4002   3.354   6.609   4.365
 1035SOL     OW 4003   0.565   1.749   5.659
 1035SOL    HW1 4004   0.583   1.823   5.723
 1035SOL    HW2 4005   0.475   1.761   5.617
 1036SOL     OW 4006   5.024   1.243   1.456
 1036SOL    HW1 4007   4.989   1.331   1.488
 1036SOL    HW2 4008   5.016   1.175   1.528
 1037SOL     OW 4009   2.273   2.465   2.923
 1037SOL    HW1 4010   2.242   2.476   3.017
 1037SOL    HW2 4011   2.221   2.391   2.880
 1038SOL     OW 4012   2.260   0.360   6.896
 1038SOL    HW1 4013   2.280   0.411   6.813
 1038SOL    HW2 4014   2.204   0.280   6.873
 1039SOL     OW 4015   3.347   3.251   3.555
 1039SOL    HW1 4016   3.394   3.318   3.499
 1039SOL    HW2 4017   3.250   3.248   3.531
 1040SOL     OW 4018   4.807   0.948   2.911
 1040SOL    HW1 4019   4.899   0.940   2.873
 1040SOL    HW2 4020   4.765   1.033   2.878
 1041SOL     OW 4021   6.855   6.367   4.843
 1041SOL    HW1 4022   6.911   6.288   4.869
 1041SOL    HW2 4023   6.782   6.338   4.781
 1042SOL     OW 4024   4.869   4.926   2.451
 1042SOL    HW1 4025   4.778   4.889   2.434
 1042SOL    HW2 4026   4.891   4.917   2.548
 1043SOL     OW 4027   3.395   1.252   3.485
 1043SOL    HW1 4028   3.426   1.165   3.446
 1043SOL    HW2 4029   3.295   1.251   3.493
 1044SOL     OW 4030   6.180   4.558   1.337
 1044SOL    HW1 4031   6.253   4.597   1.281
 1044SOL    HW2 4032   6.129   4.632   1.382
 1045SOL     OW 4033   2.238   0.470   3.398
 1045SOL    HW1 4034   2.181   0.416   3.336
 1045SOL    HW2 4035   2.182   0.503   3.474
 1046SOL     OW 4036   3.162   1.261   1.329
 1046SOL    HW1 4037   3.262   1.264   1.329
 1046SOL    HW2 4038   3.132   1.169   1.353
 1047SOL     OW 4039   3.400   6.643   3.727
 1047SOL    HW1 4040   3.302   6.625   3.738
 1047SOL    HW2 4041   3.422   6.645   3.630
 1048SOL     OW 4042   2.079   5.804   1.959
 1048SOL    HW1 4043   2.007   5.753   1.912
 1048SOL    HW2 4044   2.163   5.750   1.960
 1049SOL     OW 4045   3.892   6.930   4.146
 1049SOL    HW1 4046   3.797   6.943   4.115
 1049SOL    HW2 4047   3.950   6.911   4.066
 1050SOL     OW 4048   3.965   5.169   3.747
 1050SOL    HW1 4049   3.953   5.263   3.716
 1050SOL    HW2 4050   4.047   5.162   3.803
 1051SOL     OW 4051   6.935   6.765   0.228
 1051SOL    HW1 4052   6.996   6.733   0.155
 1051SOL    HW2 4053   6.876   6.689   0.256
 1052SOL     OW 4054   4.011   0.495   6.246
 1052SOL    HW1 4055   3.981   0.430   6.316
 1052SOL    HW2 4056   3.947   0.572   6.242
 1053SOL     OW 4057   5.659   3.454   2.221
 1053SOL    HW1 4058   5.712   3.513   2.161
 1053SOL    HW2 4059   5.602   3.509   2.282
 1054SOL     OW 4060   3.329   4.082   0.896
 1054SOL    HW1 4061   3.291   4.056   0.808
 1054SOL    HW2 4062   3.420   4.122   0.882
 1055SOL     OW 4063   4.897   5.743   7.005
 1055SOL    HW1 4064   4.975   5.783   6.955
 1055SOL    HW2 4065   4.912   5.754   0.081
 1056SOL     OW 4066   1.986   4.389   0.396
 1056SOL    HW1 4067   2.060   4.435   0.445
 1056SOL    HW2 4068   1.903   4.388   0.452
 1057SOL     OW 4069   3.596   1.801   1.520
 1057SOL    HW1 4070   3.568   1.761   1.433
 1057SOL    HW2 4071   3.687   1.840   1.511
 1058SOL     OW 4072   3.883   2.091   2.945
 1058SOL    HW1 4073   3.868   2.058   2.852
 1058SOL    HW2 4074   3.795   2.101   2.991
 1059SOL     OW 4075   2.152   6.096   1.961
 1059SOL    HW1 4076   2.247   6.098   1.993
 1059SOL    HW2 4077   2.133   6.008   1.919
 1060SOL     OW 4078   0.572   5.791   4.443
 1060SOL    HW1 4079   0.588   5.849   4.363
 1060SOL    HW2 4080   0.496   5.829   4.496
 1061SOL     OW 4081   6.406   3.997   0.041
 1061SOL    HW1 4082   6.467   4.018   6.987
 1061SOL    HW2 4083   6.385   3.900   0.041
 1062SOL     OW 4084   3.972   6.518   4.939
 1062SOL    HW1 4085   3.961   6.617   4.930
 1062SOL    HW2 4086   3.990   6.478   4.849
 1063SOL     OW 4087   1.053   7.018   6.109
 1063SOL    HW1 4088   1.086   0.088   6.127
 1063SOL    HW2 4089   1.072   6.993   6.014
 1064SOL     OW 4090   0.853   4.536   1.060
 1064SOL    HW1 4091   0.920   4.550   0.987
 1064SOL    HW2 4092   0.850   4.440   1.085
 1065SOL     OW 4093   3.901   0.788   3.906
 1065SOL    HW1 4094   3.816   0.840   3.897
 1065SOL    HW2 4095   3.979   0.851   3.904
 1066SOL     OW 4096   4.899   0.355   2.169
 1066SOL    HW1 4097   4.835   0.375   2.095
 1066SOL    HW2 4098   4.874   0.269   2.213
 1067SOL     OW 4099   2.779   0.904   0.152
 1067SOL    HW1 4100   2.682   0.928   0.146
 1067SOL    HW2 4101   2.809   0.866   0.065
 1068SOL     OW 4102   6.220   3.364   1.018
 1068SOL    HW1 4103   6.126   3.351   0.986
 1068SOL    HW2 4104   6.231   3.321   1.107
 1069SOL     OW 4105   5.739   4.312   0.779
 1069SOL    HW1 4106   5.703   4.318   0.872
 1069SOL    HW2 4107   5.721   4.221   0.742
 1070SOL     OW 4108   2.268   0.394   2.340
 1070SOL    HW1 4109   2.207   0.360   2.269
 1070SOL    HW2 4110   2.238   0.484   2.370
 1071SOL     OW 4111   6.891   2.500   4.992
 1071SOL    HW1 4112   6.811   2.441   4.978
 1071SOL    HW2 4113   6.944   2.505   4.908
 1072SOL     OW 4114   2.569   0.683   1.889
 1072SOL    HW1 4115   2.599   0.745   1.961
 1072SOL    HW2 4116   2.488   0.632   1.919
 1073SOL     OW 4117   5.514   1.619   3.303
 1073SOL    HW1 4118   5.525   1.703   3.356
 1073SOL    HW2 4119   5.439   1.630   3.238
 1074SOL     OW 4120   3.155   4.862   2.187
 1074SOL    HW1 4121   3.184   4.841   2.094
 1074SOL    HW2 4122   3.061   4.831   2.201
 1075SOL     OW 4123   5.752   1.995   5.128
 1075SOL    HW1 4124   5.767   1.958   5.220
 1075SOL    HW2 4125   5.839   2.019   5.087
 1076SOL     OW 4126   2.057   4.082   5.181
 1076SOL    HW1 4127   2.072   4.065   5.278
 1076SOL    HW2 4128   2.144   4.077   5.132
 1077SOL     OW 4129   6.996   0.429   0.099
 1077SOL    HW1 4130   6.928   0.436   0.171
 1077SOL    HW2 4131   0.016   0.518   0.083
 1078SOL     OW 4132   6.442   6.859   3.978
 1078SOL    HW1 4133   6.350   6.819   3.975
 1078SOL    HW2 4134   6.507   6.789   4.007
 1079SOL     OW 4135   1.386   5.794   2.552
 1079SOL    HW1 4136   1.299   5.830   2.587
 1079SOL    HW2 4137   1.461   5.846   2.593
 1080SOL     OW 4138   2.146   5.881   5.476
 1080SOL    HW1 4139   2.104   5.791   5.487
 1080SOL    HW2 4140   2.152   5.903   5.379
 1081SOL     OW 4141   6.670   5.630   4.361
 1081SOL    HW1 4142   6.689   5.629   4.459
 1081SOL    HW2 4143   6.576   5.662   4.346
 1082SOL     OW 4144   5.485   0.298   5.731
 1082SOL    HW1 4145   5.483   0.380   5.674
 1082SOL    HW2 4146   5.536   0.317   5.815
 1083SOL     OW 4147   5.140   4.068   0.675
 1083SOL    HW1 4148   5.041   4.063   0.689
 1083SOL    HW2 4149   5.166   4.164   0.663
 1084SOL     OW 4150   6.476   0.102   6.556
 1084SOL    HW1 4151   6.514   0.192   6.535
 1084SOL    HW2 4152   6.521   0.065   6.638
 1085SOL     OW 4153   1.784   3.572   4.199
 1085SOL    HW1 4154   1.792   3.664   4.238
 1085SOL    HW2 4155   1.873   3.528   4.197
 1086SOL     OW 4156   6.652   4.636   6.150
 1086SOL    HW1 4157   6.645   4.548   6.102
 1086SOL    HW2 4158   6.653   4.710   6.084
 1087SOL     OW 4159   1.114   0.898   5.213
 1087SOL    HW1 4160   1.137   0.981   5.264
 1087SOL    HW2 4161   1.198   0.856   5.177
 1088SOL     OW 4162   6.831   5.231   3.702
 1088SOL    HW1 4163   6.890   5.152   3.682
 1088SOL    HW2 4164   6.875   5.315   3.672
 1089SOL     OW 4165   0.289   4.912   4.694
 1089SOL    HW1 4166   0.209   4.898   4.752
 1089SOL    HW2 4167   0.356   4.967   4.743
 1090SOL     OW 4168   5.870   1.706   4.432
 1090SOL    HW1 4169   5.958   1.718   4.478
 1090SOL    HW2 4170   5.812   1.785   4.447
 1091SOL     OW 4171   2.149   3.482   3.670
 1091SOL    HW1 4172   2.051   3.496   3.686
 1091SOL    HW2 4173   2.201   3.515   3.748
 1092SOL     OW 4174   1.049   5.093   1.007
 1092SOL    HW1 4175   1.011   5.002   0.995
 1092SOL    HW2 4176   0.975   5.161   1.008
 1093SOL     OW 4177   2.350   6.587   1.341
 1093SOL    HW1 4178   2.388   6.511   1.394
 1093SOL    HW2 4179   2.365   6.673   1.389
 1094SOL     OW 4180   1.204   6.961   2.739
 1094SOL    HW1 4181   1.178   6.962   2.642
 1094SOL    HW2 4182   1.280   0.002   2.753
 1095SOL     OW 4183   0.064   2.862   6.329
 1095SOL    HW1 4184   0.022   2.945   6.367
 1095SOL    HW2 4185   0.100   2.881   6.238
 1096SOL     OW 4186   2.868   5.874   1.015
 1096SOL    HW1 4187   2.888   5.962   0.972
 1096SOL    HW2 4188   2.882   5.881   1.114
 1097SOL     OW 4189   1.820   5.224   3.791
 1097SOL    HW1 4190   1.857   5.300   3.844
 1097SOL    HW2 4191   1.895   5.171   3.751
 1098SOL     OW 4192   6.147   4.098   6.680
 1098SOL    HW1 4193   6.230   4.101   6.625
 1098SOL    HW2 4194   6.138   4.008   6.723
 1099SOL     OW 4195   4.367   1.541   6.061
 1099SOL    HW1 4196   4.426   1.620   6.041
 1099SOL    HW2 4197   4.422   1.458   6.061
 1100SOL     OW 4198   4.156   1.007   3.955
 1100SOL    HW1 4199   4.178   0.978   3.862
 1100SOL    HW2 4200   4.233   0.987   4.016
 1101SOL     OW 4201   5.576   3.035   5.201
 1101SOL    HW1 4202   5.621   3.103   5.142
 1101SOL    HW2 4203   5.613   3.040   5.293
 1102SOL     OW 4204   2.481   0.729   4.409
 1102SOL    HW1 4205   2.416   0.653   4.417
 1102SOL    HW2 4206   2.478   0.784   4.492
 1103SOL     OW 4207   2.825   1.199   6.758
 1103SOL    HW1 4208   2.845   1.246   6.843
 1103SOL    HW2 4209   2.834   1.263   6.681
 1104SOL     OW 4210   0.863   4.358   3.318
 1104SOL    HW1 4211   0.876   4.308   3.404
 1104SOL    HW2 4212   0.808   4.302   3.256
 1105SOL     OW 4213   5.557   1.806   5.074
 1105SOL    HW1 4214   5.480   1.800   5.137
 1105SOL    HW2 4215   5.625   1.871   5.110
 1106SOL     OW 4216   1.021   1.364   0.190
 1106SOL    HW1 4217   1.018   1.272   0.151
 1106SOL    HW2 4218   1.017   1.357   0.290
 1107SOL     OW 4219   1.216   0.543   6.490
 1107SOL    HW1 4220   1.264   0.472   6.439
 1107SOL    HW2 4221   1.187   0.615   6.428
 1108SOL     OW 4222   3.077   6.045   4.593
 1108SOL    HW1 4223   2.995   6.101   4.588
 1108SOL    HW2 4224   3.135   6.064   4.514
 1109SOL     OW 4225   5.703   1.548   3.757
 1109SOL    HW1 4226   5.642   1.505   3.690
 1109SOL    HW2 4227   5.786   1.493   3.767
 1110SOL     OW 4228   3.421   1.168   2.593
 1110SOL    HW1 4229   3.430   1.097   2.662
 1110SOL    HW2 4230   3.336   1.218   2.607
 1111SOL     OW 4231   4.745   4.166   6.153
 1111SOL    HW1 4232   4.831   4.158   6.202
 1111SOL    HW2 4233   4.675   4.111   6.198
 1112SOL     OW 4234   6.454   0.182   3.019
 1112SOL    HW1 4235   6.363   0.213   2.990
 1112SOL    HW2 4236   6.506   0.151   2.940
 1113SOL     OW 4237   6.283   3.954   2.840
 1113SOL    HW1 4238   6.193   3.914   2.858
 1113SOL    HW2 4239   6.349   3.880   2.825
 1114SOL     OW 4240   3.729   2.734   6.095
 1114SOL    HW1 4241   3.731   2.831   6.072
 1114SOL    HW2 4242   3.822   2.700   6.105
 1115SOL     OW 4243   3.316   4.157   5.674
 1115SOL    HW1 4244   3.298   4.197   5.764
 1115SOL    HW2 4245   3.270   4.069   5.666
 1116SOL     OW 4246   4.955   1.421   0.407
 1116SOL    HW1 4247   4.888   1.348   0.398
 1116SOL    HW2 4248   4.973   1.461   0.318
 1117SOL     OW 4249   1.161   2.634   1.729
 1117SOL    HW1 4250   1.090   2.642   1.659
 1117SOL    HW2 4251   1.217   2.553   1.711
 1118SOL     OW 4252   2.829   5.402   6.929
 1118SOL    HW1 4253   2.897   5.448   6.987
 1118SOL    HW2 4254   2.867   5.390   6.837
 1119SOL     OW 4255   4.012   4.809   3.283
 1119SOL    HW1 4256   4.009   4.718   3.323
 1119SOL    HW2 4257   3.941   4.866   3.323
 1120SOL     OW 4258   6.534   5.657   1.152
 1120SOL    HW1 4259   6.594   5.706   1.089
 1120SOL    HW2 4260   6.551   5.559   1.146
 1121SOL     OW 4261   0.985   5.291   4.391
 1121SOL    HW1 4262   0.933   5.258   4.469
 1121SOL    HW2 4263   0.994   5.218   4.324
 1122SOL     OW 4264   5.589   3.035   1.998
 1122SOL    HW1 4265   5.624   3.030   1.904
 1122SOL    HW2 4266   5.647   3.098   2.051
 1123SOL     OW 4267   4.338   2.050   2.939
 1123SOL    HW1 4268   4.283   2.130   2.916
 1123SOL    HW2 4269   4.373   2.008   2.855
 1124SOL     OW 4270   1.758   2.712   5.227
 1124SOL    HW1 4271   1.843   2.674   5.263
 1124SOL    HW2 4272   1.741   2.673   5.136
 1125SOL     OW 4273   1.802   3.697   4.926
 1125SOL    HW1 4274   1.744   3.666   5.001
 1125SOL    HW2 4275   1.746   3.714   4.845
 1126SOL     OW 4276   4.295   5.886   5.650
 1126SOL    HW1 4277   4.277   5.914   5.556
 1126SOL    HW2 4278   4.326   5.791   5.651
 1127SOL     OW 4279   5.160   6.313   3.590
 1127SOL    HW1 4280   5.167   6.330   3.689
 1127SOL    HW2 4281   5.103   6.233   3.575
 1128SOL     OW 4282   6.287   1.041   3.525
 1128SOL    HW1 4283   6.195   1.080   3.531
 1128SOL    HW2 4284   6.282   0.952   3.479
 1129SOL     OW 4285   1.714   6.517   0.938
 1129SOL    HW1 4286   1.654   6.588   0.900
 1129SOL    HW2 4287   1.805   6.525   0.896
 1130SOL     OW 4288   1.761   5.450   3.025
 1130SOL    HW1 4289   1.834   5.510   2.992
 1130SOL    HW2 4290   1.792   5.355   3.023
 1131SOL     OW 4291   0.955   6.864   4.204
 1131SOL    HW1 4292   1.034   6.863   4.143
 1131SOL    HW2 4293   0.950   6.952   4.252
 1132SOL     OW 4294   4.562   0.860   2.795
 1132SOL    HW1 4295   4.503   0.908   2.859
 1132SOL    HW2 4296   4.640   0.820   2.845
 1133SOL     OW 4297   1.438   0.026   5.074
 1133SOL    HW1 4298   1.401   0.088   5.143
 1133SOL    HW2 4299   1.418   0.062   4.983
 1134SOL     OW 4300   4.743   6.627   1.689
 1134SOL    HW1 4301   4.659   6.671   1.659
 1134SOL    HW2 4302   4.727   6.584   1.779
 1135SOL     OW 4303   2.672   6.468   3.655
 1135SOL    HW1 4304   2.744   6.398   3.655
 1135SOL    HW2 4305   2.583   6.425   3.642
 1136SOL     OW 4306   2.594   6.026   2.750
 1136SOL    HW1 4307   2.541   6.109   2.734
 1136SOL    HW2 4308   2.537   5.946   2.731
 1137SOL     OW 4309   0.644   6.406   6.874
 1137SOL    HW1 4310   0.675   6.315   6.899
 1137SOL    HW2 4311   0.551   6.420   6.909
 1138SOL     OW 4312   1.694   3.453   5.581
 1138SOL    HW1 4313   1.738   3.373   5.539
 1138SOL    HW2 4314   1.742   3.477   5.665
 1139SOL     OW 4315   2.500   4.626   4.138
 1139SOL    HW1 4316   2.481   4.704   4.077
 1139SOL    HW2 4317   2.456   4.544   4.102
 1140SOL     OW 4318   2.043   1.238   1.559
 1140SOL    HW1 4319   1.965   1.299   1.544
 1140SOL    HW2 4320   2.127   1.292   1.563
 1141SOL     OW 4321   5.974   5.239   6.203
 1141SOL    HW1 4322   6.000   5.296   6.280
 1141SOL    HW2 4323   5.960   5.296   6.122
 1142SOL     OW 4324   2.529   7.004   3.782
 1142SOL    HW1 4325   2.623   7.002   3.750
 1142SOL    HW2 4326   2.523   6.959   3.871
 1143SOL     OW 4327   1.213   3.470   1.553
 1143SOL    HW1 4328   1.265   3.544   1.511
 1143SOL    HW2 4329   1.180   3.498   1.642
 1144SOL     OW 4330   5.503   4.399   2.621
 1144SOL    HW1 4331   5.581   4.369   2.567
 1144SOL    HW2 4332   5.535   4.453   2.699
 1145SOL     OW 4333   1.149   2.363   0.801
 1145SOL    HW1 4334   1.198   2.291   0.751
 1145SOL    HW2 4335   1.063   2.328   0.836
 1146SOL     OW 4336   0.641   1.489   1.581
 1146SOL    HW1 4337   0.707   1.531   1.518
 1146SOL    HW2 4338   0.651   1.528   1.672
 1147SOL     OW 4339   3.144   5.491   1.294
 1147SOL    HW1 4340   3.131   5.586   1.323
 1147SOL    HW2 4341   3.240   5.467   1.303
 1148SOL     OW 4342   4.151   6.038   2.017
 1148SOL    HW1 4343   4.176   6.134   2.003
 1148SOL    HW2 4344   4.087   6.031   2.094
 1149SOL     OW 4345   6.271   3.096   1.848
 1149SOL    HW1 4346   6.246   3.153   1.770
 1149SOL    HW2 4347   6.206   3.020   1.856
 1150SOL     OW 4348   1.714   4.399   6.952
 1150SOL    HW1 4349   1.784   4.382   6.882
 1150SOL    HW2 4350   1.630   4.350   6.928
 1151SOL     OW 4351   6.462   5.418   3.805
 1151SOL    HW1 4352   6.499   5.461   3.723
 1151SOL    HW2 4353   6.537   5.387   3.864
 1152SOL     OW 4354   4.446   0.911   0.198
 1152SOL    HW1 4355   4.476   0.840   0.134
 1152SOL    HW2 4356   4.504   0.909   0.279
 1153SOL     OW 4357   0.078   0.057   1.493
 1153SOL    HW1 4358   0.137   0.131   1.524
 1153SOL    HW2 4359   0.134   6.999   1.473
 1154SOL     OW 4360   1.179   3.389   2.703
 1154SOL    HW1 4361   1.187   3.325   2.627
 1154SOL    HW2 4362   1.229   3.353   2.782
 1155SOL     OW 4363   2.367   6.786   5.020
 1155SOL    HW1 4364   2.274   6.781   5.056
 1155SOL    HW2 4365   2.426   6.834   5.084
 1156SOL     OW 4366   3.958   1.656   4.521
 1156SOL    HW1 4367   4.049   1.666   4.560
 1156SOL    HW2 4368   3.965   1.646   4.422
 1157SOL     OW 4369   4.015   0.523   5.377
 1157SOL    HW1 4370   4.078   0.597   5.402
 1157SOL    HW2 4371   4.067   0.443   5.348
 1158SOL     OW 4372   4.927   5.877   3.971
 1158SOL    HW1 4373   4.856   5.830   3.917
 1158SOL    HW2 4374   5.007   5.893   3.913
 1159SOL     OW 4375   6.538   6.540   3.143
 1159SOL    HW1 4376   6.580   6.481   3.213
 1159SOL    HW2 4377   6.557   6.502   3.053
 1160SOL     OW 4378   4.190   6.614   1.250
 1160SOL    HW1 4379   4.144   6.530   1.276
 1160SOL    HW2 4380   4.155   6.690   1.305
 1161SOL     OW 4381   6.625   5.228   6.360
 1161SOL    HW1 4382   6.597   5.307   6.414
 1161SOL    HW2 4383   6.725   5.226   6.355
 1162SOL     OW 4384   1.833   2.928   5.488
 1162SOL    HW1 4385   1.802   2.848   5.539
 1162SOL    HW2 4386   1.933   2.933   5.489
 1163SOL     OW 4387   5.934   4.113   2.165
 1163SOL    HW1 4388   5.895   4.155   2.083
 1163SOL    HW2 4389   6.034   4.120   2.162
 1164SOL     OW 4390   5.493   2.203   4.548
 1164SOL    HW1 4391   5.472   2.125   4.489
 1164SOL    HW2 4392   5.472   2.179   4.643
 1165SOL     OW 4393   4.573   6.005   3.495
 1165SOL    HW1 4394   4.480   6.013   3.459
 1165SOL    HW2 4395   4.636   6.054   3.434
 1166SOL     OW 4396   2.154   6.368   6.515
 1166SOL    HW1 4397   2.223   6.309   6.472
 1166SOL    HW2 4398   2.063   6.343   6.480
 1167SOL     OW 4399   4.943   4.121   2.036
 1167SOL    HW1 4400   4.907   4.189   2.101
 1167SOL    HW2 4401   4.866   4.069   1.998
 1168SOL     OW 4402   6.461   2.611   2.494
 1168SOL    HW1 4403   6.509   2.695   2.519
 1168SOL    HW2 4404   6.383   2.634   2.435
 1169SOL     OW 4405   5.950   1.372   5.628
 1169SOL    HW1 4406   5.941   1.465   5.665
 1169SOL    HW2 4407   6.027   1.326   5.670
 1170SOL     OW 4408   4.703   0.206   3.030
 1170SOL    HW1 4409   4.763   0.278   3.065
 1170SOL    HW2 4410   4.701   0.130   3.095
 1171SOL     OW 4411   2.002   0.017   0.431
 1171SOL    HW1 4412   2.033   0.102   0.389
 1171SOL    HW2 4413   1.998   0.028   0.531
 1172SOL     OW 4414   5.651   3.127   0.579
 1172SOL    HW1 4415   5.685   3.047   0.629
 1172SOL    HW2 4416   5.632   3.201   0.644
 1173SOL     OW 4417   2.492   0.612   1.193
 1173SOL    HW1 4418   2.420   0.558   1.237
 1173SOL    HW2 4419   2.544   0.554   1.131
 1174SOL     OW 4420   3.512   3.684   1.619
 1174SOL    HW1 4421   3.565   3.767   1.638
 1174SOL    HW2 4422   3.469   3.652   1.703
 1175SOL     OW 4423   4.285   3.249   5.614
 1175SOL    HW1 4424   4.277   3.336   5.661
 1175SOL    HW2 4425   4.281   3.174   5.681
 1176SOL     OW 4426   4.647   3.194   6.030
 1176SOL    HW1 4427   4.746   3.188   6.017
 1176SOL    HW2 4428   4.603   3.110   5.997
 1177SOL     OW 4429   6.259   2.611   5.391
 1177SOL    HW1 4430   6.187   2.656   5.444
 1177SOL    HW2 4431   6.320   2.561   5.453
 1178SOL     OW 4432   2.856   4.008   0.753
 1178SOL    HW1 4433   2.863   3.926   0.697
 1178SOL    HW2 4434   2.925   4.074   0.723
 1179SOL     OW 4435   2.252   6.160   0.362
 1179SOL    HW1 4436   2.193   6.238   0.382
 1179SOL    HW2 4437   2.208   6.076   0.394
 1180SOL     OW 4438   3.246   5.528   2.079
 1180SOL    HW1 4439   3.165   5.473   2.100
 1180SOL    HW2 4440   3.270   5.582   2.160
 1181SOL     OW 4441   0.715   5.448   6.628
 1181SOL    HW1 4442   0.654   5.434   6.550
 1181SOL    HW2 4443   0.757   5.361   6.653
 1182SOL     OW 4444   3.758   5.539   3.268
 1182SOL    HW1 4445   3.681   5.566   3.327
 1182SOL    HW2 4446   3.772   5.440   3.275
 1183SOL     OW 4447   1.794   4.893   0.386
 1183SOL    HW1 4448   1.813   4.893   0.484
 1183SOL    HW2 4449   1.816   4.803   0.347
 1184SOL     OW 4450   0.816   0.688   4.093
 1184SOL    HW1 4451   0.731   0.740   4.098
 1184SOL    HW2 4452   0.806   0.602   4.143
 1185SOL     OW 4453   0.047   0.987   6.530
 1185SOL    HW1 4454   0.076   1.080   6.549
 1185SOL    HW2 4455   0.063   0.965   6.434
 1186SOL     OW 4456   5.084   5.179   4.456
 1186SOL    HW1 4457   5.065   5.196   4.359
 1186SOL    HW2 4458   5.097   5.080   4.470
 1187SOL     OW 4459   6.447   6.785   6.762
 1187SOL    HW1 4460   6.517   6.715   6.759
 1187SOL    HW2 4461   6.420   6.809   6.668
 1188SOL     OW 4462   3.018   6.380   5.207
 1188SOL    HW1 4463   3.074   6.454   5.171
 1188SOL    HW2 4464   2.960   6.343   5.134
 1189SOL     OW 4465   6.677   3.279   2.683
 1189SOL    HW1 4466   6.601   3.277   2.617
 1189SOL    HW2 4467   6.755   3.230   2.645
 1190SOL     OW 4468   2.434   6.123   3.346
 1190SOL    HW1 4469   2.371   6.169   3.409
 1190SOL    HW2 4470   2.394   6.119   3.255
 1191SOL     OW 4471   4.546   4.995   3.124
 1191SOL    HW1 4472   4.643   4.985   3.148
 1191SOL    HW2 4473   4.498   4.909   3.143
 1192SOL     OW 4474   3.333   5.579   3.162
 1192SOL    HW1 4475   3.411   5.615   3.213
 1192SOL    HW2 4476   3.345   5.598   3.064
 1193SOL     OW 4477   6.094   4.350   4.560
 1193SOL    HW1 4478   6.154   4.408   4.614
 1193SOL    HW2 4479   6.076   4.394   4.471
 1194SOL     OW 4480   5.491   6.895   1.949
 1194SOL    HW1 4481   5.396   6.865   1.963
 1194SOL    HW2 4482   5.551   6.848   2.013
 1195SOL     OW 4483   6.207   4.401   1.974
 1195SOL    HW1 4484   6.267   4.477   1.999
 1195SOL    HW2 4485   6.196   4.400   1.875
 1196SOL     OW 4486   6.909   6.027   2.816
 1196SOL    HW1 4487   6.917   6.122   2.788
 1196SOL    HW2 4488   6.967   5.969   2.758
 1197SOL     OW 4489   3.636   0.934   6.525
 1197SOL    HW1 4490   3.667   0.933   6.430
 1197SOL    HW2 4491   3.712   0.962   6.584
 1198SOL     OW 4492   0.995   3.020   1.630
 1198SOL    HW1 4493   0.904   3.057   1.649
 1198SOL    HW2 4494   1.040   2.997   1.716
 1199SOL     OW 4495   4.884   4.889   1.708
 1199SOL    HW1 4496   4.828   4.807   1.695
 1199SOL    HW2 4497   4.840   4.967   1.664
 1200SOL     OW 4498   3.416   3.506   2.870
 1200SOL    HW1 4499   3.382   3.418   2.903
 1200SOL    HW2 4500   3.342   3.556   2.825
 1201SOL     OW 4501   1.061   0.736   4.197
 1201SOL    HW1 4502   1.104   0.656   4.238
 1201SOL    HW2 4503   0.967   0.713   4.169
 1202SOL     OW 4504   0.757   5.909   6.454
 1202SOL    HW1 4505   0.792   5.955   6.372
 1202SOL    HW2 4506   0.765   5.810   6.442
 1203SOL     OW 4507   5.573   6.302   6.602
 1203SOL    HW1 4508   5.527   6.213   6.598
 1203SOL    HW2 4509   5.659   6.293   6.652
 1204SOL     OW 4510   2.545   0.310   1.231
 1204SOL    HW1 4511   2.631   0.356   1.255
 1204SOL    HW2 4512   2.471   0.378   1.228
 1205SOL     OW 4513   5.348   3.956   1.462
 1205SOL    HW1 4514   5.302   4.044   1.473
 1205SOL    HW2 4515   5.370   3.919   1.553
 1206SOL     OW 4516   3.134   3.008   5.122
 1206SOL    HW1 4517   3.140   3.026   5.024
 1206SOL    HW2 4518   3.038   2.999   5.149
 1207SOL     OW 4519   1.916   0.248   0.936
 1207SOL    HW1 4520   1.823   0.272   0.964
 1207SOL    HW2 4521   1.972   0.331   0.934
 1208SOL     OW 4522   3.009   4.160   0.518
 1208SOL    HW1 4523   2.950   4.098   0.465
 1208SOL    HW2 4524   2.963   4.248   0.528
 1209SOL     OW 4525   3.814   0.692   5.336
 1209SOL    HW1 4526   3.756   0.656   5.264
 1209SOL    HW2 4527   3.894   0.634   5.347
 1210SOL     OW 4528   2.676   0.103   2.770
 1210SOL    HW1 4529   2.689   0.138   2.677
 1210SOL    HW2 4530   2.624   0.170   2.824
 1211SOL     OW 4531   1.903   3.726   1.122
 1211SOL    HW1 4532   1.814   3.681   1.111
 1211SOL    HW2 4533   1.969   3.661   1.159
 1212SOL     OW 4534   0.124   0.891   6.290
 1212SOL    HW1 4535   0.190   0.823   6.258
 1212SOL    HW2 4536   0.043   0.888   6.232
 1213SOL     OW 4537   5.766   2.469   0.497
 1213SOL    HW1 4538   5.829   2.472   0.418
 1213SOL    HW2 4539   5.816   2.497   0.579
 1214SOL     OW 4540   0.007   2.401   0.521
 1214SOL    HW1 4541   0.083   2.367   0.577
 1214SOL    HW2 4542   0.026   2.495   0.492
 1215SOL     OW 4543   1.528   3.944   4.008
 1215SOL    HW1 4544   1.615   3.907   3.976
 1215SOL    HW2 4545   1.466   3.956   3.930
 1216SOL     OW 4546   4.039   0.645   0.314
 1216SOL    HW1 4547   3.956   0.629   0.261
 1216SOL    HW2 4548   4.057   0.743   0.319
 1217SOL     OW 4549   1.212   5.266   0.904
 1217SOL    HW1 4550   1.154   5.347   0.911
 1217SOL    HW2 4551   1.163   5.186   0.937
 1218SOL     OW 4552   1.832   4.877   4.571
 1218SOL    HW1 4553   1.860   4.784   4.551
 1218SOL    HW2 4554   1.829   4.890   4.670
 1219SOL     OW 4555   5.390   5.644   2.174
 1219SOL    HW1 4556   5.432   5.647   2.265
 1219SOL    HW2 4557   5.296   5.610   2.182
 1220SOL     OW 4558   1.014   5.128   3.146
 1220SOL    HW1 4559   1.003   5.134   3.246
 1220SOL    HW2 4560   0.924   5.122   3.103
 1221SOL     OW 4561   5.273   2.705   5.678
 1221SOL    HW1 4562   5.210   2.628   5.665
 1221SOL    HW2 4563   5.356   2.673   5.723
 1222SOL     OW 4564   6.145   0.211   6.989
 1222SOL    HW1 4565   6.206   0.163   6.926
 1222SOL    HW2 4566   6.083   0.270   6.936
 1223SOL     OW 4567   3.996   0.429   0.701
 1223SOL    HW1 4568   3.938   0.348   0.689
 1223SOL    HW2 4569   4.057   0.416   0.778
 1224SOL     OW 4570   2.480   6.614   1.095
 1224SOL    HW1 4571   2.430   6.623   1.181
 1224SOL    HW2 4572   2.416   6.622   1.019
 1225SOL     OW 4573   3.438   4.309   6.362
 1225SOL    HW1 4574   3.441   4.393   6.307
 1225SOL    HW2 4575   3.375   4.244   6.321
 1226SOL     OW 4576   2.575   4.542   1.188
 1226SOL    HW1 4577   2.585   4.471   1.119
 1226SOL    HW2 4578   2.594   4.503   1.279
 1227SOL     OW 4579   6.867   3.203   6.862
 1227SOL    HW1 4580   6.880   3.294   6.901
 1227SOL    HW2 4581   6.955   3.156   6.858
 1228SOL     OW 4582   3.664   3.179   6.258
 1228SOL    HW1 4583   3.636   3.230   6.339
 1228SOL    HW2 4584   3.732   3.232   6.207
 1229SOL     OW 4585   4.503   4.565   6.124
 1229SOL    HW1 4586   4.431   4.574   6.055
 1229SOL    HW2 4587   4.465   4.521   6.206
 1230SOL     OW 4588   4.320   0.689   4.494
 1230SOL    HW1 4589   4.352   0.691   4.399
 1230SOL    HW2 4590   4.384   0.740   4.551
 1231SOL     OW 4591   1.595   3.927   5.102
 1231SOL    HW1 4592   1.663   3.975   5.045
 1231SOL    HW2 4593   1.559   3.849   5.051
 1232SOL     OW 4594   0.993   1.889   5.200
 1232SOL    HW1 4595   1.079   1.900   5.151
 1232SOL    HW2 4596   0.917   1.919   5.142
 1233SOL     OW 4597   1.957   3.062   5.037
 1233SOL    HW1 4598   2.010   3.146   5.035
 1233SOL    HW2 4599   2.018   2.984   5.052
 1234SOL     OW 4600   6.957   4.354   3.849
 1234SOL    HW1 4601   6.863   4.341   3.880
 1234SOL    HW2 4602   6.998   4.265   3.829
 1235SOL     OW 4603   6.918   6.292   2.359
 1235SOL    HW1 4604   6.972   6.260   2.281
 1235SOL    HW2 4605   6.958   6.377   2.393
 1236SOL     OW 4606   5.286   1.026   6.573
 1236SOL    HW1 4607   5.271   1.070   6.661
 1236SOL    HW2 4608   5.197   1.001   6.533
 1237SOL     OW 4609   2.569   5.101   6.100
 1237SOL    HW1 4610   2.499   5.033   6.119
 1237SOL    HW2 4611   2.548   5.186   6.149
 1238SOL     OW 4612   2.153   1.141   1.072
 1238SOL    HW1 4613   2.218   1.165   1.144
 1238SOL    HW2 4614   2.116   1.225   1.032
 1239SOL     OW 4615   6.817   6.224   6.317
 1239SOL    HW1 4616   6.832   6.236   6.415
 1239SOL    HW2 4617   6.734   6.169   6.303
 1240SOL     OW 4618   5.966   6.400   1.731
 1240SOL    HW1 4619   5.937   6.319   1.781
 1240SOL    HW2 4620   6.063   6.417   1.748
 1241SOL     OW 4621   6.214   3.449   4.017
 1241SOL    HW1 4622   6.199   3.498   4.103
 1241SOL    HW2 4623   6.143   3.474   3.952
 1242SOL     OW 4624   1.615   3.604   0.087
 1242SOL    HW1 4625   1.619   3.699   0.056
 1242SOL    HW2 4626   1.704   3.577   0.124
 1243SOL     OW 4627   1.826   5.669   5.426
 1243SOL    HW1 4628   1.831   5.750   5.484
 1243SOL    HW2 4629   1.909   5.614   5.439
 1244SOL     OW 4630   0.106   0.026   2.789
 1244SOL    HW1 4631   0.061   6.959   2.779
 1244SOL    HW2 4632   0.057   0.093   2.734
 1245SOL     OW 4633   3.753   3.641   6.316
 1245SOL    HW1 4634   3.752   3.708   6.390
 1245SOL    HW2 4635   3.688   3.668   6.245
 1246SOL     OW 4636   2.265   6.440   2.143
 1246SOL    HW1 4637   2.212   6.510   2.192
 1246SOL    HW2 4638   2.296   6.370   2.208
 1247SOL     OW 4639   2.671   6.934   6.700
 1247SOL    HW1 4640   2.702   6.971   6.788
 1247SOL    HW2 4641   2.572   6.945   6.692
 1248SOL     OW 4642   1.424   6.736   3.921
 1248SOL    HW1 4643   1.363   6.709   3.846
 1248SOL    HW2 4644   1.469   6.823   3.898
 1249SOL     OW 4645   5.660   2.706   2.332
 1249SOL    HW1 4646   5.715   2.709   2.416
 1249SOL    HW2 4647   5.619   2.615   2.323
 1250SOL     OW 4648   0.978   4.518   4.567
 1250SOL    HW1 4649   1.073   4.492   4.549
 1250SOL    HW2 4650   0.976   4.598   4.627
 1251SOL     OW 4651   3.889   0.377   4.451
 1251SOL    HW1 4652   3.957   0.445   4.480
 1251SOL    HW2 4653   3.818   0.370   4.521
 1252SOL     OW 4654   3.404   3.892   5.916
 1252SOL    HW1 4655   3.496   3.923   5.894
 1252SOL    HW2 4656   3.389   3.802   5.875
 1253SOL     OW 4657   3.486   5.666   1.961
 1253SOL    HW1 4658   3.398   5.625   1.940
 1253SOL    HW2 4659   3.517   5.633   2.051
 1254SOL     OW 4660   6.068   2.529   2.841
 1254SOL    HW1 4661   5.986   2.476   2.860
 1254SOL    HW2 4662   6.048   2.626   2.849
 1255SOL     OW 4663   6.743   0.690   5.482
 1255SOL    HW1 4664   6.723   0.788   5.475
 1255SOL    HW2 4665   6.657   0.639   5.493
 1256SOL     OW 4666   0.027   0.083   3.053
 1256SOL    HW1 4667   0.094   0.146   3.091
 1256SOL    HW2 4668   0.056   0.055   2.961
 1257SOL     OW 4669   0.010   0.476   3.064
 1257SOL    HW1 4670   6.973   0.425   3.126
 1257SOL    HW2 4671   6.983   0.500   2.981
 1258SOL     OW 4672   0.784   5.388   3.290
 1258SOL    HW1 4673   0.840   5.308   3.308
 1258SOL    HW2 4674   0.839   5.459   3.246
 1259SOL     OW 4675   4.170   1.691   4.717
 1259SOL    HW1 4676   4.240   1.754   4.750
 1259SOL    HW2 4677   4.119   1.655   4.795
 1260SOL     OW 4678   0.924   1.101   6.239
 1260SOL    HW1 4679   1.015   1.119   6.203
 1260SOL    HW2 4680   0.863   1.075   6.164
 1261SOL     OW 4681   6.814   5.328   0.253
 1261SOL    HW1 4682   6.902   5.280   0.252
 1261SOL    HW2 4683   6.753   5.286   0.186
 1262SOL     OW 4684   5.726   5.549   1.809
 1262SOL    HW1 4685   5.636   5.506   1.804
 1262SOL    HW2 4686   5.735   5.599   1.895
 1263SOL     OW 4687   1.066   1.793   2.463
 1263SOL    HW1 4688   1.096   1.760   2.373
 1263SOL    HW2 4689   0.993   1.735   2.498
 1264SOL     OW 4690   1.393   3.886   5.264
 1264SOL    HW1 4691   1.351   3.959   5.210
 1264SOL    HW2 4692   1.492   3.892   5.258
 1265SOL     OW 4693   6.403   5.475   4.981
 1265SOL    HW1 4694   6.349   5.495   4.899
 1265SOL    HW2 4695   6.488   5.528   4.979
 1266SOL     OW 4696   1.051   1.083   4.816
 1266SOL    HW1 4697   1.137   1.033   4.806
 1266SOL    HW2 4698   1.027   1.125   4.729
 1267SOL     OW 4699   4.919   0.748   1.885
 1267SOL    HW1 4700   4.902   0.788   1.794
 1267SOL    HW2 4701   4.864   0.796   1.953
 1268SOL     OW 4702   4.260   2.326   5.297
 1268SOL    HW1 4703   4.243   2.388   5.373
 1268SOL    HW2 4704   4.243   2.372   5.210
 1269SOL     OW 4705   5.369   2.243   4.145
 1269SOL    HW1 4706   5.409   2.296   4.071
 1269SOL    HW2 4707   5.343   2.304   4.220
 1270SOL     OW 4708   1.896   4.720   2.582
 1270SOL    HW1 4709   1.868   4.784   2.510
 1270SOL    HW2 4710   1.825   4.716   2.652
 1271SOL     OW 4711   1.833   1.285   1.140
 1271SOL    HW1 4712   1.855   1.308   1.046
 1271SOL    HW2 4713   1.889   1.341   1.202
 1272SOL     OW 4714   6.548   3.781   6.368
 1272SOL    HW1 4715   6.476   3.713   6.350
 1272SOL    HW2 4716   6.543   3.854   6.300
 1273SOL     OW 4717   1.581   4.528   5.132
 1273SOL    HW1 4718   1.610   4.451   5.075
 1273SOL    HW2 4719   1.527   4.494   5.208
 1274SOL     OW 4720   0.273   4.378   2.052
 1274SOL    HW1 4721   0.354   4.437   2.055
 1274SOL    HW2 4722   0.207   4.408   2.121
 1275SOL     OW 4723   3.311   1.003   3.741
 1275SOL    HW1 4724   3.289   1.084   3.688
 1275SOL    HW2 4725   3.227   0.957   3.770
 1276SOL     OW 4726   5.529   5.028   4.230
 1276SOL    HW1 4727   5.530   5.096   4.156
 1276SOL    HW2 4728   5.603   5.048   4.294
 1277SOL     OW 4729   0.686   6.121   6.975
 1277SOL    HW1 4730   0.780   6.131   6.943
 1277SOL    HW2 4731   0.659   6.025   6.971
 1278SOL     OW 4732   1.669   6.813   3.166
 1278SOL    HW1 4733   1.603   6.842   3.235
 1278SOL    HW2 4734   1.708   6.893   3.121
 1279SOL     OW 4735   3.149   3.519   6.396
 1279SOL    HW1 4736   3.050   3.519   6.411
 1279SOL    HW2 4737   3.172   3.447   6.331
 1280SOL     OW 4738   3.093   1.091   3.591
 1280SOL    HW1 4739   3.108   1.120   3.496
 1280SOL    HW2 4740   2.999   1.059   3.602
 1281SOL     OW 4741   3.453   6.043   3.820
 1281SOL    HW1 4742   3.444   6.138   3.791
 1281SOL    HW2 4743   3.447   6.038   3.920
 1282SOL     OW 4744   6.942   2.975   0.823
 1282SOL    HW1 4745   6.867   2.915   0.795
 1282SOL    HW2 4746   0.007   2.927   0.812
 1283SOL     OW 4747   6.550   4.034   5.450
 1283SOL    HW1 4748   6.650   4.025   5.445
 1283SOL    HW2 4749   6.510   4.000   5.365
 1284SOL     OW 4750   3.751   1.425   1.212
 1284SOL    HW1 4751   3.770   1.423   1.310
 1284SOL    HW2 4752   3.763   1.333   1.174
 1285SOL     OW 4753   3.394   1.551   4.656
 1285SOL    HW1 4754   3.482   1.594   4.673
 1285SOL    HW2 4755   3.346   1.601   4.584
 1286SOL     OW 4756   5.093   2.819   1.707
 1286SOL    HW1 4757   5.161   2.755   1.742
 1286SOL    HW2 4758   5.115   2.843   1.612
 1287SOL     OW 4759   6.273   4.687   4.975
 1287SOL    HW1 4760   6.273   4.693   5.075
 1287SOL    HW2 4761   6.367   4.676   4.943
 1288SOL     OW 4762   4.617   4.604   6.479
 1288SOL    HW1 4763   4.659   4.669   6.416
 1288SOL    HW2 4764   4.565   4.654   6.548
 1289SOL     OW 4765   6.379   0.668   1.241
 1289SOL    HW1 4766   6.391   0.581   1.192
 1289SOL    HW2 4767   6.286   0.702   1.225
 1290SOL     OW 4768   1.505   0.311   0.303
 1290SOL    HW1 4769   1.604   0.296   0.305
 1290SOL    HW2 4770   1.483   0.396   0.350
 1291SOL     OW 4771   6.775   5.059   3.139
 1291SOL    HW1 4772   6.784   5.135   3.204
 1291SOL    HW2 4773   6.695   5.003   3.163
 1292SOL     OW 4774   0.044   5.549   2.442
 1292SOL    HW1 4775   6.999   5.489   2.400
 1292SOL    HW2 4776   0.000   5.633   2.473
 1293SOL     OW 4777   2.472   1.500   6.753
 1293SOL    HW1 4778   2.408   1.552   6.696
 1293SOL    HW2 4779   2.431   1.484   6.843
 1294SOL     OW 4780   2.115   4.390   6.334
 1294SOL    HW1 4781   2.150   4.481   6.313
 1294SOL    HW2 4782   2.148   4.325   6.266
 1295SOL     OW 4783   0.255   3.766   1.098
 1295SOL    HW1 4784   0.320   3.796   1.168
 1295SOL    HW2 4785   0.304   3.727   1.020
 1296SOL     OW 4786   4.878   6.668   5.679
 1296SOL    HW1 4787   4.948   6.648   5.611
 1296SOL    HW2 4788   4.879   6.598   5.751
 1297SOL     OW 4789   0.755   0.360   2.841
 1297SOL    HW1 4790   0.676   0.318   2.797
 1297SOL    HW2 4791   0.732   0.386   2.935
 1298SOL     OW 4792   5.400   5.842   2.553
 1298SOL    HW1 4793   5.428   5.762   2.500
 1298SOL    HW2 4794   5.476   5.907   2.560
 1299SOL     OW 4795   2.193   3.181   4.231
 1299SOL    HW1 4796   2.247   3.098   4.212
 1299SOL    HW2 4797   2.182   3.192   4.329
 1300SOL     OW 4798   2.577   4.045   0.726
 1300SOL    HW1 4799   2.674   4.037   0.751
 1300SOL    HW2 4800   2.537   4.122   0.776
 1301SOL     OW 4801   0.815   0.526   1.841
 1301SOL    HW1 4802   0.847   0.465   1.768
 1301SOL    HW2 4803   0.829   0.621   1.813
 1302SOL     OW 4804   5.235   0.093   6.145
 1302SOL    HW1 4805   5.276   0.113   6.057
 1302SOL    HW2 4806   5.219   0.178   6.195
 1303SOL     OW 4807   4.082   6.417   2.038
 1303SOL    HW1 4808   3.991   6.395   2.073
 1303SOL    HW2 4809   4.088   6.514   2.018
 1304SOL     OW 4810   1.108   1.326   1.042
 1304SOL    HW1 4811   1.027   1.295   0.991
 1304SOL    HW2 4812   1.159   1.247   1.075
 1305SOL     OW 4813   5.117   4.820   6.707
 1305SOL    HW1 4814   5.152   4.852   6.619
 1305SOL    HW2 4815   5.076   4.896   6.757
 1306SOL     OW 4816   1.416   6.067   4.882
 1306SOL    HW1 4817   1.468   6.007   4.821
 1306SOL    HW2 4818   1.435   6.162   4.860
 1307SOL     OW 4819   1.827   3.034   3.862
 1307SOL    HW1 4820   1.807   3.131   3.868
 1307SOL    HW2 4821   1.764   2.991   3.797
 1308SOL     OW 4822   6.780   5.605   6.648
 1308SOL    HW1 4823   6.770   5.623   6.746
 1308SOL    HW2 4824   6.872   5.631   6.619
 1309SOL     OW 4825   5.187   4.660   6.202
 1309SOL    HW1 4826   5.150   4.572   6.173
 1309SOL    HW2 4827   5.191   4.663   6.302
 1310SOL     OW 4828   1.017   3.690   4.012
 1310SOL    HW1 4829   1.017   3.668   3.914
 1310SOL    HW2 4830   1.109   3.716   4.040
 1311SOL     OW 4831   6.314   5.714   0.061
 1311SOL    HW1 4832   6.364   5.777   0.121
 1311SOL    HW2 4833   6.264   5.648   0.117
 1312SOL     OW 4834   0.663   1.119   5.690
 1312SOL    HW1 4835   0.706   1.044   5.740
 1312SOL    HW2 4836   0.734   1.181   5.656
 1313SOL     OW 4837   6.179   5.207   3.522
 1313SOL    HW1 4838   6.098   5.260   3.498
 1313SOL    HW2 4839   6.167   5.168   3.613
 1314SOL     OW 4840   2.306   1.759   5.014
 1314SOL    HW1 4841   2.253   1.744   4.930
 1314SOL    HW2 4842   2.340   1.853   5.014
 1315SOL     OW 4843   6.717   0.677   4.131
 1315SOL    HW1 4844   6.626   0.674   4.172
 1315SOL    HW2 4845   6.738   0.590   4.087
 1316SOL     OW 4846   3.764   0.232   5.207
 1316SOL    HW1 4847   3.721   0.300   5.148
 1316SOL    HW2 4848   3.863   0.230   5.188
 1317SOL     OW 4849   2.806   3.614   6.217
 1317SOL    HW1 4850   2.780   3.709   6.236
 1317SOL    HW2 4851   2.906   3.606   6.216
 1318SOL     OW 4852   2.167   2.410   0.022
 1318SOL    HW1 4853   2.253   2.417   6.995
 1318SOL    HW2 4854   2.097   2.371   6.985
 1319SOL     OW 4855   6.954   6.323   0.391
 1319SOL    HW1 4856   6.968   6.227   0.367
 1319SOL    HW2 4857   6.991   6.341   0.482
 1320SOL     OW 4858   3.543   2.979   6.396
 1320SOL    HW1 4859   3.577   2.886   6.412
 1320SOL    HW2 4860   3.606   3.027   6.335
 1321SOL     OW 4861   5.440   1.704   0.006
 1321SOL    HW1 4862   5.344   1.684   7.007
 1321SOL    HW2 4863   5.472   1.640   0.076
 1322SOL     OW 4864   3.367   1.012   5.813
 1322SOL    HW1 4865   3.338   1.017   5.909
 1322SOL    HW2 4866   3.426   1.091   5.792
 1323SOL     OW 4867   3.454   6.983   0.702
 1323SOL    HW1 4868   3.456   6.885   0.680
 1323SOL    HW2 4869   3.361   7.011   0.725
 1324SOL     OW 4870   1.308   3.896   0.156
 1324SOL    HW1 4871   1.252   3.890   0.238
 1324SOL    HW2 4872   1.284   3.821   0.094
 1325SOL     OW 4873   2.607   6.318   5.730
 1325SOL    HW1 4874   2.565   6.242   5.780
 1325SOL    HW2 4875   2.551   6.339   5.649
 1326SOL     OW 4876   4.865   4.086   4.760
 1326SOL    HW1 4877   4.919   4.070   4.843
 1326SOL    HW2 4878   4.839   3.998   4.719
 1327SOL     OW 4879   0.836   6.808   1.155
 1327SOL    HW1 4880   0.742   6.779   1.174
 1327SOL    HW2 4881   0.864   6.773   1.065
 1328SOL     OW 4882   1.026   3.386   5.836
 1328SOL    HW1 4883   1.057   3.298   5.799
 1328SOL    HW2 4884   0.928   3.381   5.855
 1329SOL     OW 4885   0.678   2.202   2.727
 1329SOL    HW1 4886   0.613   2.278   2.730
 1329SOL    HW2 4887   0.712   2.192   2.633
 1330SOL     OW 4888   6.742   2.201   0.930
 1330SOL    HW1 4889   6.677   2.275   0.911
 1330SOL    HW2 4890   6.818   2.207   0.865
 1331SOL     OW 4891   4.791   2.216   2.444
 1331SOL    HW1 4892   4.739   2.194   2.526
 1331SOL    HW2 4893   4.882   2.248   2.469
 1332SOL     OW 4894   1.803   0.620   0.871
 1332SOL    HW1 4895   1.757   0.553   0.930
 1332SOL    HW2 4896   1.783   0.712   0.905
 1333SOL     OW 4897   4.060   3.849   3.203
 1333SOL    HW1 4898   4.039   3.879   3.296
 1333SOL    HW2 4899   4.103   3.759   3.205
 1334SOL     OW 4900   6.921   1.758   2.852
 1334SOL    HW1 4901   7.012   1.781   2.887
 1334SOL    HW2 4902   6.928   1.677   2.794
 1335SOL     OW 4903   1.973   3.776   1.740
 1335SOL    HW1 4904   1.911   3.765   1.662
 1335SOL    HW2 4905   2.044   3.706   1.736
 1336SOL     OW 4906   3.493   0.940   5.432
 1336SOL    HW1 4907   3.416   0.948   5.369
 1336SOL    HW2 4908   3.553   0.866   5.403
 1337SOL     OW 4909   6.435   1.442   3.205
 1337SOL    HW1 4910   6.483   1.485   3.128
 1337SOL    HW2 4911   6.437   1.343   3.194
 1338SOL     OW 4912   6.401   3.843   4.355
 1338SOL    HW1 4913   6.339   3.810   4.284
 1338SOL    HW2 4914   6.475   3.777   4.368
 1339SOL     OW 4915   0.370   0.392   0.007
 1339SOL    HW1 4916   0.372   0.293   0.026
 1339SOL    HW2 4917   0.282   0.415   6.987
 1340SOL     OW 4918   5.149   1.600   2.108
 1340SOL    HW1 4919   5.110   1.671   2.166
 1340SOL    HW2 4920   5.080   1.529   2.091
 1341SOL     OW 4921   4.573   6.799   0.003
 1341SOL    HW1 4922   4.639   6.834   0.069
 1341SOL    HW2 4923   4.600   6.826   6.933
 1342SOL     OW 4924   3.114   5.432   0.594
 1342SOL    HW1 4925   3.138   5.411   0.688
 1342SOL    HW2 4926   3.150   5.361   0.533
 1343SOL     OW 4927   5.401   5.171   2.840
 1343SOL    HW1 4928   5.431   5.206   2.928
 1343SOL    HW2 4929   5.325   5.227   2.806
 1344SOL     OW 4930   0.279   6.807   4.562
 1344SOL    HW1 4931   0.300   6.837   4.469
 1344SOL    HW2 4932   0.251   6.711   4.560
 1345SOL     OW 4933   0.299   5.165   1.713
 1345SOL    HW1 4934   0.221   5.223   1.737
 1345SOL    HW2 4935   0.268   5.089   1.656
 1346SOL     OW 4936   2.405   5.671   5.628
 1346SOL    HW1 4937   2.447   5.680   5.537
 1346SOL    HW2 4938   2.448   5.595   5.677
 1347SOL     OW 4939   1.665   0.105   6.054
 1347SOL    HW1 4940   1.687   0.183   5.995
 1347SOL    HW2 4941   1.747   0.049   6.067
 1348SOL     OW 4942   0.011   5.621   5.369
 1348SOL    HW1 4943   7.001   5.710   5.402
 1348SOL    HW2 4944   0.110   5.614   5.383
 1349SOL     OW 4945   5.450   2.857   3.877
 1349SOL    HW1 4946   5.515   2.905   3.937
 1349SOL    HW2 4947   5.358   2.890   3.895
 1350SOL     OW 4948   3.560   4.155   0.359
 1350SOL    HW1 4949   3.575   4.236   0.303
 1350SOL    HW2 4950   3.462   4.134   0.362
 1351SOL     OW 4951   5.877   2.064   3.891
 1351SOL    HW1 4952   5.841   2.050   3.983
 1351SOL    HW2 4953   5.955   2.004   3.876
 1352SOL     OW 4954   6.946   0.392   2.219
 1352SOL    HW1 4955   6.918   0.487   2.233
 1352SOL    HW2 4956   6.864   0.335   2.206
 1353SOL     OW 4957   0.256   1.762   0.726
 1353SOL    HW1 4958   0.231   1.840   0.784
 1353SOL    HW2 4959   0.291   1.688   0.783
 1354SOL     OW 4960   6.693   4.457   2.461
 1354SOL    HW1 4961   6.707   4.396   2.383
 1354SOL    HW2 4962   6.764   4.441   2.529
 1355SOL     OW 4963   5.967   3.652   4.222
 1355SOL    HW1 4964   5.908   3.599   4.161
 1355SOL    HW2 4965   5.911   3.695   4.292
 1356SOL     OW 4966   3.674   2.937   2.361
 1356SOL    HW1 4967   3.691   2.902   2.269
 1356SOL    HW2 4968   3.653   3.034   2.356
 1357SOL     OW 4969   6.543   3.733   5.973
 1357SOL    HW1 4970   6.504   3.671   5.905
 1357SOL    HW2 4971   6.472   3.794   6.007
 1358SOL     OW 4972   0.461   0.101   6.726
 1358SOL    HW1 4973   0.477   0.162   6.648
 1358SOL    HW2 4974   0.518   0.019   6.716
 1359SOL     OW 4975   6.304   4.201   1.536
 1359SOL    HW1 4976   6.387   4.216   1.483
 1359SOL    HW2 4977   6.235   4.269   1.511
 1360SOL     OW 4978   3.369   3.087   6.955
 1360SOL    HW1 4979   3.289   3.043   6.996
 1360SOL    HW2 4980   3.340   3.169   6.906
 1361SOL     OW 4981   0.137   4.488   4.768
 1361SOL    HW1 4982   0.222   4.515   4.722
 1361SOL    HW2 4983   0.154   4.407   4.824
 1362SOL     OW 4984   3.906   2.965   2.524
 1362SOL    HW1 4985   3.831   2.940   2.463
 1362SOL    HW2 4986   3.992   2.965   2.474
 1363SOL     OW 4987   6.999   5.357   5.168
 1363SOL    HW1 4988   0.034   5.427   5.211
 1363SOL    HW2 4989   6.968   5.291   5.236
 1364SOL     OW 4990   4.660   4.486   0.018
 1364SOL    HW1 4991   4.741   4.528   6.999
 1364SOL    HW2 4992   4.639   4.400   6.993
 1365SOL     OW 4993   0.580   3.793   6.520
 1365SOL    HW1 4994   0.654   3.820   6.459
 1365SOL    HW2 4995   0.617   3.737   6.594
 1366SOL     OW 4996   1.463   0.684   4.877
 1366SOL    HW1 4997   1.553   0.641   4.872
 1366SOL    HW2 4998   1.393   0.614   4.887
 1367SOL     OW 4999   1.897   1.410   2.468
 1367SOL    HW1 5000   1.994   1.391   2.477
 1367SOL    HW2 5001   1.845   1.326   2.481
 1368SOL     OW 5002   5.619   0.010   4.097
 1368SOL    HW1 5003   5.585   6.959   4.038
 1368SOL    HW2 5004   5.552   0.085   4.099
 1369SOL     OW 5005   0.389   6.821   3.031
 1369SOL    HW1 5006   0.339   6.766   3.098
 1369SOL    HW2 5007   0.480   6.783   3.019
 1370SOL     OW 5008   3.279   0.757   1.687
 1370SOL    HW1 5009   3.322   0.741   1.776
 1370SOL    HW2 5010   3.326   0.703   1.617
 1371SOL     OW 5011   3.987   0.513   5.970
 1371SOL    HW1 5012   4.031   0.506   6.060
 1371SOL    HW2 5013   4.049   0.556   5.905
 1372SOL     OW 5014   2.487   2.218   1.901
 1372SOL    HW1 5015   2.426   2.246   1.827
 1372SOL    HW2 5016   2.577   2.196   1.864
 1373SOL     OW 5017   0.600   5.183   1.313
 1373SOL    HW1 5018   0.626   5.271   1.274
 1373SOL    HW2 5019   0.633   5.177   1.408
 1374SOL     OW 5020   4.213   2.397   1.129
 1374SOL    HW1 5021   4.207   2.430   1.223
 1374SOL    HW2 5022   4.270   2.459   1.076
 1375SOL     OW 5023   0.411   4.961   6.166
 1375SOL    HW1 5024   0.488   4.961   6.103
 1375SOL    HW2 5025   0.398   4.869   6.203
 1376SOL     OW 5026   4.999   3.108   3.614
 1376SOL    HW1 5027   4.993   3.115   3.713
 1376SOL    HW2 5028   4.935   3.038   3.581
 1377SOL     OW 5029   6.938   5.149   5.334
 1377SOL    HW1 5030   7.020   5.104   5.371
 1377SOL    HW2 5031   6.864   5.083   5.327
 1378SOL     OW 5032   1.439   2.101   0.134
 1378SOL    HW1 5033   1.537   2.086   0.123
 1378SOL    HW2 5034   1.395   2.100   0.044
 1379SOL     OW 5035   3.741   6.661   2.657
 1379SOL    HW1 5036   3.742   6.747   2.708
 1379SOL    HW2 5037   3.786   6.674   2.569
 1380SOL     OW 5038   6.527   6.944   2.335
 1380SOL    HW1 5039   6.464   6.984   2.268
 1380SOL    HW2 5040   6.524   6.845   2.329
 1381SOL     OW 5041   6.347   2.205   6.924
 1381SOL    HW1 5042   6.318   2.300   6.936
 1381SOL    HW2 5043   6.339   2.157   7.012
 1382SOL     OW 5044   5.425   5.000   6.589
 1382SOL    HW1 5045   5.524   4.988   6.581
 1382SOL    HW2 5046   5.400   5.008   6.686
 1383SOL     OW 5047   1.834   0.504   0.621
 1383SOL    HW1 5048   1.802   0.562   0.695
 1383SOL    HW2 5049   1.928   0.473   0.640
 1384SOL     OW 5050   3.659   1.550   2.972
 1384SOL    HW1 5051   3.699   1.507   3.053
 1384SOL    HW2 5052   3.698   1.641   2.959
 1385SOL     OW 5053   6.717   3.197   2.955
 1385SOL    HW1 5054   6.707   3.225   2.860
 1385SOL    HW2 5055   6.642   3.235   3.009
 1386SOL     OW 5056   2.093   3.060   4.511
 1386SOL    HW1 5057   2.057   3.137   4.563
 1386SOL    HW2 5058   2.017   3.011   4.468
 1387SOL     OW 5059   3.047   0.140   4.880
 1387SOL    HW1 5060   3.124   0.109   4.824
 1387SOL    HW2 5061   2.997   0.211   4.831
 1388SOL     OW 5062   6.417   1.386   3.970
 1388SOL    HW1 5063   6.325   1.412   3.999
 1388SOL    HW2 5064   6.432   1.417   3.875
 1389SOL     OW 5065   5.940   7.020   4.730
 1389SOL    HW1 5066   5.883   0.008   4.812
 1389SOL    HW2 5067   5.993   6.936   4.738
 1390SOL     OW 5068   4.429   2.177   1.789
 1390SOL    HW1 5069   4.357   2.185   1.720
 1390SOL    HW2 5070   4.443   2.266   1.833
 1391SOL     OW 5071   5.564   0.717   4.637
 1391SOL    HW1 5072   5.561   0.717   4.537
 1391SOL    HW2 5073   5.529   0.804   4.672
 1392SOL     OW 5074   5.476   5.783   6.291
 1392SOL    HW1 5075   5.472   5.733   6.204
 1392SOL    HW2 5076   5.504   5.720   6.364
 1393SOL     OW 5077   6.826   1.138   6.426
 1393SOL    HW1 5078   6.888   1.090   6.488
 1393SOL    HW2 5079   6.774   1.207   6.478
 1394SOL     OW 5080   4.522   6.764   3.704
 1394SOL    HW1 5081   4.489   6.679   3.745
 1394SOL    HW2 5082   4.553   6.826   3.775
 1395SOL     OW 5083   1.582   4.642   2.512
 1395SOL    HW1 5084   1.633   4.639   2.598
 1395SOL    HW2 5085   1.488   4.611   2.527
 1396SOL     OW 5086   2.250   1.006   4.386
 1396SOL    HW1 5087   2.344   0.975   4.400
 1396SOL    HW2 5088   2.228   1.001   4.289
 1397SOL     OW 5089   0.600   5.518   4.413
 1397SOL    HW1 5090   0.592   5.616   4.431
 1397SOL    HW2 5091   0.533   5.492   4.343
 1398SOL     OW 5092   0.680   1.138   1.137
 1398SOL    HW1 5093   0.737   1.207   1.181
 1398SOL    HW2 5094   0.727   1.050   1.138
 1399SOL     OW 5095   3.906   0.260   0.350
 1399SOL    HW1 5096   4.006   0.267   0.359
 1399SOL    HW2 5097   3.882   0.172   0.311
 1400SOL     OW 5098   6.384   0.476   4.320
 1400SOL    HW1 5099   6.406   0.571   4.297
 1400SOL    HW2 5100   6.403   0.418   4.241
 1401SOL     OW 5101   5.355   0.544   3.164
 1401SOL    HW1 5102   5.339   0.573   3.069
 1401SOL    HW2 5103   5.454   0.543   3.182
 1402SOL     OW 5104   6.181   4.193   2.152
 1402SOL    HW1 5105   6.220   4.229   2.237
 1402SOL    HW2 5106   6.186   4.262   2.080
 1403SOL     OW 5107   3.216   2.926   0.130
 1403SOL    HW1 5108   3.311   2.895   0.135
 1403SOL    HW2 5109   3.163   2.886   0.204
 1404SOL     OW 5110   4.219   6.686   0.751
 1404SOL    HW1 5111   4.211   6.766   0.691
 1404SOL    HW2 5112   4.146   6.687   0.819
 1405SOL     OW 5113   1.929   3.483   0.678
 1405SOL    HW1 5114   1.974   3.550   0.737
 1405SOL    HW2 5115   1.865   3.429   0.733
 1406SOL     OW 5116   2.484   3.349   1.060
 1406SOL    HW1 5117   2.580   3.339   1.086
 1406SOL    HW2 5118   2.444   3.259   1.045
 1407SOL     OW 5119   0.887   2.945   0.959
 1407SOL    HW1 5120   0.869   3.005   0.881
 1407SOL    HW2 5121   0.960   2.880   0.934
 1408SOL     OW 5122   5.811   6.281   6.765
 1408SOL    HW1 5123   5.844   6.188   6.750
 1408SOL    HW2 5124   5.859   6.344   6.704
 1409SOL     OW 5125   6.778   1.835   5.693
 1409SOL    HW1 5126   6.868   1.791   5.690
 1409SOL    HW2 5127   6.712   1.779   5.644
 1410SOL     OW 5128   3.542   2.143   6.110
 1410SOL    HW1 5129   3.485   2.076   6.157
 1410SOL    HW2 5130   3.616   2.096   6.063
 1411SOL     OW 5131   4.122   5.516   0.316
 1411SOL    HW1 5132   4.164   5.601   0.282
 1411SOL    HW2 5133   4.027   5.511   0.284
 1412SOL     OW 5134   1.855   2.802   0.545
 1412SOL    HW1 5135   1.925   2.831   0.479
 1412SOL    HW2 5136   1.895   2.737   0.610
 1413SOL     OW 5137   1.557   1.852   5.260
 1413SOL    HW1 5138   1.546   1.753   5.253
 1413SOL    HW2 5139   1.474   1.892   5.300
 1414SOL     OW 5140   1.489   4.148   2.000
 1414SOL    HW1 5141   1.554   4.073   1.989
 1414SOL    HW2 5142   1.476   4.167   2.097
 1415SOL     OW 5143   1.898   1.974   4.489
 1415SOL    HW1 5144   1.874   2.060   4.443
 1415SOL    HW2 5145   1.829   1.905   4.468
 1416SOL     OW 5146   4.113   0.255   5.363
 1416SOL    HW1 5147   4.099   0.220   5.456
 1416SOL    HW2 5148   4.090   0.184   5.297
 1417SOL     OW 5149   3.748   3.098   5.720
 1417SOL    HW1 5150   3.689   3.034   5.771
 1417SOL    HW2 5151   3.693   3.173   5.685
 1418SOL     OW 5152   3.686   4.186   6.727
 1418SOL    HW1 5153   3.729   4.255   6.669
 1418SOL    HW2 5154   3.756   4.136   6.778
 1419SOL     OW 5155   1.718   4.582   2.745
 1419SOL    HW1 5156   1.738   4.489   2.715
 1419SOL    HW2 5157   1.696   4.582   2.843
 1420SOL     OW 5158   3.084   5.987   3.256
 1420SOL    HW1 5159   3.043   5.900   3.228
 1420SOL    HW2 5160   3.021   6.035   3.317
 1421SOL     OW 5161   1.263   5.155   5.669
 1421SOL    HW1 5162   1.321   5.236   5.679
 1421SOL    HW2 5163   1.174   5.172   5.712
 1422SOL     OW 5164   2.388   3.936   5.792
 1422SOL    HW1 5165   2.486   3.945   5.811
 1422SOL    HW2 5166   2.373   3.863   5.725
 1423SOL     OW 5167   4.319   1.077   4.974
 1423SOL    HW1 5168   4.418   1.073   4.970
 1423SOL    HW2 5169   4.280   1.024   4.899
 1424SOL     OW 5170   5.720   2.701   6.614
 1424SOL    HW1 5171   5.716   2.751   6.700
 1424SOL    HW2 5172   5.725   2.603   6.632
 1425SOL     OW 5173   4.817   6.456   3.868
 1425SOL    HW1 5174   4.759   6.521   3.917
 1425SOL    HW2 5175   4.872   6.504   3.800
 1426SOL     OW 5176   3.448   2.396   6.875
 1426SOL    HW1 5177   3.462   2.450   6.958
 1426SOL    HW2 5178   3.401   2.311   6.898
 1427SOL     OW 5179   1.804   1.038   4.098
 1427SOL    HW1 5180   1.766   1.117   4.050
 1427SOL    HW2 5181   1.813   0.961   4.035
 1428SOL     OW 5182   0.318   3.494   3.769
 1428SOL    HW1 5183   0.231   3.480   3.723
 1428SOL    HW2 5184   0.327   3.431   3.846
 1429SOL     OW 5185   5.848   0.457   1.037
 1429SOL    HW1 5186   5.849   0.454   1.137
 1429SOL    HW2 5187   5.768   0.508   1.006
 1430SOL     OW 5188   1.488   3.772   3.498
 1430SOL    HW1 5189   1.477   3.840   3.425
 1430SOL    HW2 5190   1.534   3.691   3.461
 1431SOL     OW 5191   1.880   1.229   5.621
 1431SOL    HW1 5192   1.817   1.152   5.637
 1431SOL    HW2 5193   1.948   1.201   5.552
 1432SOL     OW 5194   2.685   1.637   2.648
 1432SOL    HW1 5195   2.735   1.621   2.563
 1432SOL    HW2 5196   2.709   1.728   2.683
 1433SOL     OW 5197   2.880   0.108   4.345
 1433SOL    HW1 5198   2.886   0.171   4.422
 1433SOL    HW2 5199   2.844   0.156   4.265
 1434SOL     OW 5200   0.440   2.958   0.186
 1434SOL    HW1 5201   0.344   2.987   0.187
 1434SOL    HW2 5202   0.492   3.015   0.249
 1435SOL     OW 5203   0.920   0.002   4.564
 1435SOL    HW1 5204   0.928   0.050   4.477
 1435SOL    HW2 5205   0.852   6.951   4.555
 1436SOL     OW 5206   5.424   1.552   0.400
 1436SOL    HW1 5207   5.486   1.607   0.456
 1436SOL    HW2 5208   5.345   1.607   0.375
 1437SOL     OW 5209   4.545   0.198   6.237
 1437SOL    HW1 5210   4.483   0.219   6.162
 1437SOL    HW2 5211   4.551   0.277   6.298
 1438SOL     OW 5212   2.445   0.033   1.946
 1438SOL    HW1 5213   2.494   0.023   2.032
 1438SOL    HW2 5214   2.495   7.007   1.874
 1439SOL     OW 5215   0.467   4.837   0.056
 1439SOL    HW1 5216   0.504   4.928   0.035
 1439SOL    HW2 5217   0.388   4.846   0.116
 1440SOL     OW 5218   3.053   3.171   3.858
 1440SOL    HW1 5219   3.116   3.109   3.812
 1440SOL    HW2 5220   3.024   3.242   3.794
 1441SOL     OW 5221   6.545   3.015   3.659
 1441SOL    HW1 5222   6.449   3.033   3.638
 1441SOL    HW2 5223   6.566   3.049   3.750
 1442SOL     OW 5224   4.969   4.473   0.692
 1442SOL    HW1 5225   4.973   4.562   0.647
 1442SOL    HW2 5226   5.056   4.426   0.681
 1443SOL     OW 5227   0.579   2.449   2.914
 1443SOL    HW1 5228   0.676   2.459   2.933
 1443SOL    HW2 5229   0.527   2.507   2.977
 1444SOL     OW 5230   4.502   0.927   3.571
 1444SOL    HW1 5231   4.538   0.941   3.479
 1444SOL    HW2 5232   4.533   1.001   3.631
 1445SOL     OW 5233   6.517   2.308   1.494
 1445SOL    HW1 5234   6.529   2.380   1.425
 1445SOL    HW2 5235   6.595   2.246   1.491
 1446SOL     OW 5236   3.652   0.681   1.368
 1446SOL    HW1 5237   3.688   0.588   1.360
 1446SOL    HW2 5238   3.553   0.679   1.369
 1447SOL     OW 5239   6.526   0.551   4.711
 1447SOL    HW1 5240   6.451   0.484   4.713
 1447SOL    HW2 5241   6.523   0.601   4.624
 1448SOL     OW 5242   5.394   0.840   6.788
 1448SOL    HW1 5243   5.343   0.924   6.805
 1448SOL    HW2 5244   5.357   0.794   6.707
 1449SOL     OW 5245   5.314   5.926   1.157
 1449SOL    HW1 5246   5.398   5.874   1.142
 1449SOL    HW2 5247   5.312   6.004   1.094
 1450SOL     OW 5248   5.899   2.739   3.269
 1450SOL    HW1 5249   5.882   2.759   3.366
 1450SOL    HW2 5250   5.998   2.739   3.252
 1451SOL     OW 5251   1.304   6.300   2.903
 1451SOL    HW1 5252   1.338   6.392   2.920
 1451SOL    HW2 5253   1.228   6.280   2.965
 1452SOL     OW 5254   4.582   1.280   5.547
 1452SOL    HW1 5255   4.640   1.201   5.564
 1452SOL    HW2 5256   4.597   1.314   5.455
 1453SOL     OW 5257   5.268   4.721   5.374
 1453SOL    HW1 5258   5.181   4.768   5.359
 1453SOL    HW2 5259   5.330   4.739   5.298
 1454SOL     OW 5260   4.314   3.910   1.131
 1454SOL    HW1 5261   4.305   4.009   1.139
 1454SOL    HW2 5262   4.392   3.879   1.186
 1455SOL     OW 5263   1.834   1.830   1.884
 1455SOL    HW1 5264   1.869   1.747   1.841
 1455SOL    HW2 5265   1.768   1.874   1.823
 1456SOL     OW 5266   5.954   6.371   3.770
 1456SOL    HW1 5267   5.904   6.449   3.734
 1456SOL    HW2 5268   6.052   6.384   3.755
 1457SOL     OW 5269   1.602   0.367   2.755
 1457SOL    HW1 5270   1.572   0.333   2.666
 1457SOL    HW2 5271   1.585   0.466   2.760
 1458SOL     OW 5272   5.410   5.528   6.717
 1458SOL    HW1 5273   5.332   5.548   6.776
 1458SOL    HW2 5274   5.465   5.455   6.758
 1459SOL     OW 5275   2.316   6.630   6.484
 1459SOL    HW1 5276   2.286   6.540   6.515
 1459SOL    HW2 5277   2.237   6.690   6.475
 1460SOL     OW 5278   1.543   0.023   6.857
 1460SOL    HW1 5279   1.455   7.012   6.823
 1460SOL    HW2 5280   1.555   0.119   6.830
 1461SOL     OW 5281   5.604   4.838   1.961
 1461SOL    HW1 5282   5.638   4.776   2.031
 1461SOL    HW2 5283   5.528   4.891   1.999
 1462SOL     OW 5284   5.851   1.124   6.804
 1462SOL    HW1 5285   5.839   1.180   6.887
 1462SOL    HW2 5286   5.832   1.028   6.825
 1463SOL     OW 5287   0.654   1.181   4.997
 1463SOL    HW1 5288   0.578   1.160   5.059
 1463SOL    HW2 5289   0.740   1.154   5.039
 1464SOL     OW 5290   0.424   6.457   1.109
 1464SOL    HW1 5291   0.453   6.435   1.015
 1464SOL    HW2 5292   0.465   6.544   1.137
 1465SOL     OW 5293   6.904   0.032   4.581
 1465SOL    HW1 5294   6.930   0.018   4.676
 1465SOL    HW2 5295   6.807   0.058   4.577
 1466SOL     OW 5296   5.621   4.850   3.460
 1466SOL    HW1 5297   5.704   4.794   3.454
 1466SOL    HW2 5298   5.589   4.852   3.554
 1467SOL     OW 5299   1.027   2.034   3.139
 1467SOL    HW1 5300   0.957   2.051   3.209
 1467SOL    HW2 5301   1.019   1.940   3.106
 1468SOL     OW 5302   5.519   6.106   3.301
 1468SOL    HW1 5303   5.441   6.095   3.239
 1468SOL    HW2 5304   5.581   6.029   3.288
 1469SOL     OW 5305   1.053   1.270   2.621
 1469SOL    HW1 5306   1.085   1.230   2.535
 1469SOL    HW2 5307   0.961   1.235   2.641
 1470SOL     OW 5308   0.740   0.940   3.077
 1470SOL    HW1 5309   0.645   0.938   3.045
 1470SOL    HW2 5310   0.795   0.995   3.014
 1471SOL     OW 5311   0.757   6.989   0.072
 1471SOL    HW1 5312   0.778   6.952   7.004
 1471SOL    HW2 5313   0.684   6.936   0.114
 1472SOL     OW 5314   4.180   1.001   6.008
 1472SOL    HW1 5315   4.238   1.053   5.946
 1472SOL    HW2 5316   4.086   1.002   5.975
 1473SOL     OW 5317   6.156   3.942   3.563
 1473SOL    HW1 5318   6.132   3.848   3.543
 1473SOL    HW2 5319   6.086   4.003   3.525
 1474SOL     OW 5320   4.595   5.530   3.961
 1474SOL    HW1 5321   4.498   5.553   3.951
 1474SOL    HW2 5322   4.650   5.613   3.949
 1475SOL     OW 5323   0.376   1.294   2.551
 1475SOL    HW1 5324   0.335   1.329   2.635
 1475SOL    HW2 5325   0.392   1.196   2.561
 1476SOL     OW 5326   6.823   1.825   1.880
 1476SOL    HW1 5327   6.794   1.858   1.970
 1476SOL    HW2 5328   6.923   1.814   1.879
 1477SOL     OW 5329   2.868   5.624   4.622
 1477SOL    HW1 5330   2.819   5.630   4.535
 1477SOL    HW2 5331   2.966   5.632   4.605
 1478SOL     OW 5332   6.282   4.238   0.419
 1478SOL    HW1 5333   6.187   4.210   0.407
 1478SOL    HW2 5334   6.327   4.243   0.330
 1479SOL     OW 5335   1.509   5.184   0.674
 1479SOL    HW1 5336   1.604   5.212   0.662
 1479SOL    HW2 5337   1.504   5.084   0.677
 1480SOL     OW 5338   2.556   0.712   0.246
 1480SOL    HW1 5339   2.629   0.758   0.297
 1480SOL    HW2 5340   2.595   0.639   0.191
 1481SOL     OW 5341   5.822   2.452   6.244
 1481SOL    HW1 5342   5.750   2.465   6.313
 1481SOL    HW2 5343   5.781   2.457   6.153
 1482SOL     OW 5344   6.380   0.443   6.595
 1482SOL    HW1 5345   6.409   0.439   6.691
 1482SOL    HW2 5346   6.460   0.442   6.536
 1483SOL     OW 5347   5.828   2.005   0.392
 1483SOL    HW1 5348   5.898   1.963   0.333
 1483SOL    HW2 5349   5.745   2.020   0.339
 1484SOL     OW 5350   6.394   5.159   2.752
 1484SOL    HW1 5351   6.432   5.118   2.835
 1484SOL    HW2 5352   6.296   5.174   2.765
 1485SOL     OW 5353   5.109   2.757   3.985
 1485SOL    HW1 5354   5.156   2.707   3.912
 1485SOL    HW2 5355   5.018   2.785   3.953
 1486SOL     OW 5356   4.769   1.894   2.129
 1486SOL    HW1 5357   4.691   1.905   2.068
 1486SOL    HW2 5358   4.747   1.934   2.218
 1487SOL     OW 5359   6.331   1.421   5.609
 1487SOL    HW1 5360   6.333   1.521   5.614
 1487SOL    HW2 5361   6.379   1.391   5.526
 1488SOL     OW 5362   4.600   1.802   3.254
 1488SOL    HW1 5363   4.514   1.774   3.211
 1488SOL    HW2 5364   4.647   1.868   3.195
 1489SOL     OW 5365   3.964   5.506   4.983
 1489SOL    HW1 5366   4.026   5.497   5.061
 1489SOL    HW2 5367   3.980   5.594   4.938
 1490SOL     OW 5368   1.951   2.635   0.167
 1490SOL    HW1 5369   1.899   2.555   0.194
 1490SOL    HW2 5370   1.905   2.681   0.091
 1491SOL     OW 5371   6.968   3.234   4.045
 1491SOL    HW1 5372   0.012   3.169   4.082
 1491SOL    HW2 5373   6.984   3.247   3.948
 1492SOL     OW 5374   5.141   2.009   1.266
 1492SOL    HW1 5375   5.107   1.934   1.322
 1492SOL    HW2 5376   5.066   2.072   1.246
 1493SOL     OW 5377   4.887   0.523   5.309
 1493SOL    HW1 5378   4.971   0.574   5.290
 1493SOL    HW2 5379   4.814   0.556   5.248
 1494SOL     OW 5380   4.177   2.541   5.953
 1494SOL    HW1 5381   4.250   2.547   5.884
 1494SOL    HW2 5382   4.119   2.622   5.946
 1495SOL     OW 5383   1.659   2.947   2.450
 1495SOL    HW1 5384   1.623   2.928   2.359
 1495SOL    HW2 5385   1.704   3.036   2.450
 1496SOL     OW 5386   0.713   0.059   2.359
 1496SOL    HW1 5387   0.641   0.085   2.423
 1496SOL    HW2 5388   0.713   6.982   2.347
 1497SOL     OW 5389   5.964   5.191   4.758
 1497SOL    HW1 5390   6.022   5.111   4.773
 1497SOL    HW2 5391   5.929   5.224   4.846
 1498SOL     OW 5392   1.998   5.993   0.031
 1498SOL    HW1 5393   1.984   5.956   0.123
 1498SOL    HW2 5394   2.051   6.077   0.037
 1499SOL     OW 5395   1.279   3.812   5.522
 1499SOL    HW1 5396   1.296   3.835   5.426
 1499SOL    HW2 5397   1.282   3.713   5.533
 1500SOL     OW 5398   4.791   6.848   6.515
 1500SOL    HW1 5399   4.889   6.862   6.533
 1500SOL    HW2 5400   4.762   6.908   6.440
 1501SOL     OW 5401   3.962   6.178   6.186
 1501SOL    HW1 5402   3.865   6.159   6.169
 1501SOL    HW2 5403   3.983   6.273   6.163
 1502SOL     OW 5404   6.338   6.204   0.577
 1502SOL    HW1 5405   6.293   6.288   0.607
 1502SOL    HW2 5406   6.300   6.127   0.628
 1503SOL     OW 5407   3.713   3.012   6.055
 1503SOL    HW1 5408   3.700   3.071   6.134
 1503SOL    HW2 5409   3.639   3.026   5.990
 1504SOL     OW 5410   3.068   6.404   4.900
 1504SOL    HW1 5411   2.997   6.339   4.927
 1504SOL    HW2 5412   3.150   6.390   4.956
 1505SOL     OW 5413   5.749   5.519   0.247
 1505SOL    HW1 5414   5.768   5.603   0.298
 1505SOL    HW2 5415   5.829   5.493   0.193
 1506SOL     OW 5416   1.020   6.430   4.478
 1506SOL    HW1 5417   1.004   6.505   4.541
 1506SOL    HW2 5418   1.025   6.465   4.384
 1507SOL     OW 5419   1.543   1.503   5.649
 1507SOL    HW1 5420   1.453   1.546   5.654
 1507SOL    HW2 5421   1.609   1.569   5.612
 1508SOL     OW 5422   5.031   6.972   0.307
 1508SOL    HW1 5423   4.969   6.899   0.337
 1508SOL    HW2 5424   4.982   0.036   0.305
 1509SOL     OW 5425   4.762   2.657   0.692
 1509SOL    HW1 5426   4.745   2.638   0.596
 1509SOL    HW2 5427   4.859   2.679   0.705
 1510SOL     OW 5428   6.731   1.978   4.133
 1510SOL    HW1 5429   6.739   1.991   4.232
 1510SOL    HW2 5430   6.657   2.035   4.098
 1511SOL     OW 5431   2.179   3.605   0.453
 1511SOL    HW1 5432   2.222   3.625   0.541
 1511SOL    HW2 5433   2.080   3.609   0.463
 1512SOL     OW 5434   0.280   1.242   1.996
 1512SOL    HW1 5435   0.190   1.218   1.960
 1512SOL    HW2 5436   0.272   1.261   2.094
 1513SOL     OW 5437   3.798   1.164   3.458
 1513SOL    HW1 5438   3.728   1.098   3.429
 1513SOL    HW2 5439   3.797   1.171   3.558
 1514SOL     OW 5440   5.528   1.190   5.402
 1514SOL    HW1 5441   5.540   1.172   5.304
 1514SOL    HW2 5442   5.617   1.189   5.447
 1515SOL     OW 5443   0.028   4.599   4.432
 1515SOL    HW1 5444   0.056   4.531   4.365
 1515SOL    HW2 5445   0.039   4.691   4.393
 1516SOL     OW 5446   0.700   0.998   0.819
 1516SOL    HW1 5447   0.654   1.071   0.768
 1516SOL    HW2 5448   0.707   0.917   0.761
 1517SOL     OW 5449   4.519   5.615   3.312
 1517SOL    HW1 5450   4.595   5.552   3.298
 1517SOL    HW2 5451   4.442   5.587   3.254
 1518SOL     OW 5452   0.510   4.191   1.203
 1518SOL    HW1 5453   0.582   4.128   1.175
 1518SOL    HW2 5454   0.551   4.272   1.245
 1519SOL     OW 5455   6.122   4.538   0.128
 1519SOL    HW1 5456   6.115   4.549   0.227
 1519SOL    HW2 5457   6.033   4.510   0.091
 1520SOL     OW 5458   1.391   3.593   2.990
 1520SOL    HW1 5459   1.369   3.576   2.894
 1520SOL    HW2 5460   1.483   3.630   2.997
 1521SOL     OW 5461   2.878   3.399   6.742
 1521SOL    HW1 5462   2.952   3.421   6.805
 1521SOL    HW2 5463   2.809   3.471   6.746
 1522SOL     OW 5464   5.925   1.976   0.008
 1522SOL    HW1 5465   5.859   1.921   0.059
 1522SOL    HW2 5466   5.999   1.917   6.999
 1523SOL     OW 5467   0.278   2.164   1.069
 1523SOL    HW1 5468   0.284   2.246   1.013
 1523SOL    HW2 5469   0.302   2.185   1.164
 1524SOL     OW 5470   0.126   1.088   2.245
 1524SOL    HW1 5471   0.101   1.040   2.329
 1524SOL    HW2 5472   0.074   1.051   2.168
 1525SOL     OW 5473   4.852   2.201   6.342
 1525SOL    HW1 5474   4.873   2.284   6.290
 1525SOL    HW2 5475   4.828   2.127   6.279
 1526SOL     OW 5476   6.738   2.451   1.612
 1526SOL    HW1 5477   6.743   2.461   1.711
 1526SOL    HW2 5478   6.642   2.451   1.583
 1527SOL     OW 5479   3.612   1.933   5.569
 1527SOL    HW1 5480   3.627   2.032   5.559
 1527SOL    HW2 5481   3.699   1.886   5.555
 1528SOL     OW 5482   4.959   6.115   3.586
 1528SOL    HW1 5483   4.899   6.134   3.663
 1528SOL    HW2 5484   4.913   6.137   3.501
 1529SOL     OW 5485   3.665   0.203   6.030
 1529SOL    HW1 5486   3.568   0.180   6.040
 1529SOL    HW2 5487   3.678   0.300   6.051
 1530SOL     OW 5488   3.499   6.696   2.298
 1530SOL    HW1 5489   3.549   6.613   2.323
 1530SOL    HW2 5490   3.540   6.737   2.218
 1531SOL     OW 5491   6.415   6.967   4.832
 1531SOL    HW1 5492   6.379   6.876   4.853
 1531SOL    HW2 5493   6.348   7.017   4.777
 1532SOL     OW 5494   3.212   2.030   5.048
 1532SOL    HW1 5495   3.118   1.997   5.055
 1532SOL    HW2 5496   3.211   2.127   5.025
 1533SOL     OW 5497   6.275   3.097   6.639
 1533SOL    HW1 5498   6.207   3.027   6.659
 1533SOL    HW2 5499   6.247   3.148   6.557
 1534SOL     OW 5500   6.750   6.127   0.959
 1534SOL    HW1 5501   6.803   6.172   1.030
 1534SOL    HW2 5502   6.683   6.191   0.921
 1535SOL     OW 5503   4.549   5.089   3.871
 1535SOL    HW1 5504   4.483   5.057   3.802
 1535SOL    HW2 5505   4.504   5.095   3.960
 1536SOL     OW 5506   2.777   6.095   5.594
 1536SOL    HW1 5507   2.875   6.077   5.598
 1536SOL    HW2 5508   2.758   6.155   5.516
 1537SOL     OW 5509   1.782   5.634   4.307
 1537SOL    HW1 5510   1.724   5.561   4.269
 1537SOL    HW2 5511   1.754   5.722   4.269
 1538SOL     OW 5512   2.493   5.579   6.537
 1538SOL    HW1 5513   2.563   5.514   6.568
 1538SOL    HW2 5514   2.468   5.640   6.612
 1539SOL     OW 5515   3.861   4.596   1.662
 1539SOL    HW1 5516   3.863   4.696   1.672
 1539SOL    HW2 5517   3.785   4.559   1.716
 1540SOL     OW 5518   0.955   0.105   4.841
 1540SOL    HW1 5519   0.990   0.033   4.782
 1540SOL    HW2 5520   0.938   0.068   4.932
 1541SOL     OW 5521   5.254   2.347   0.797
 1541SOL    HW1 5522   5.199   2.379   0.721
 1541SOL    HW2 5523   5.196   2.295   0.860
 1542SOL     OW 5524   0.840   6.980   1.460
 1542SOL    HW1 5525   0.824   6.983   1.362
 1542SOL    HW2 5526   0.776   0.019   1.507
 1543SOL     OW 5527   3.479   4.129   4.266
 1543SOL    HW1 5528   3.402   4.106   4.325
 1543SOL    HW2 5529   3.555   4.164   4.322
 1544SOL     OW 5530   3.322   4.107   2.896
 1544SOL    HW1 5531   3.275   4.103   2.808
 1544SOL    HW2 5532   3.418   4.082   2.884
 1545SOL     OW 5533   5.725   6.943   4.932
 1545SOL    HW1 5534   5.645   7.002   4.933
 1545SOL    HW2 5535   5.742   6.908   5.024
 1546SOL     OW 5536   0.275   6.680   6.084
 1546SOL    HW1 5537   0.285   6.583   6.060
 1546SOL    HW2 5538   0.310   6.736   6.009
 1547SOL     OW 5539   3.312   5.972   1.274
 1547SOL    HW1 5540   3.316   6.067   1.246
 1547SOL    HW2 5541   3.403   5.941   1.302
 1548SOL     OW 5542   5.155   4.174   4.865
 1548SOL    HW1 5543   5.157   4.162   4.766
 1548SOL    HW2 5544   5.193   4.264   4.888
 1549SOL     OW 5545   6.564   1.827   1.138
 1549SOL    HW1 5546   6.556   1.731   1.164
 1549SOL    HW2 5547   6.474   1.864   1.116
 1550SOL     OW 5548   2.295   5.964   4.273
 1550SOL    HW1 5549   2.288   5.908   4.190
 1550SOL    HW2 5550   2.207   5.964   4.320
 1551SOL     OW 5551   1.736   2.195   0.980
 1551SOL    HW1 5552   1.746   2.273   1.042
 1551SOL    HW2 5553   1.822   2.143   0.979
 1552SOL     OW 5554   0.718   0.576   0.866
 1552SOL    HW1 5555   0.738   0.641   0.793
 1552SOL    HW2 5556   0.666   0.621   0.939
 1553SOL     OW 5557   5.978   1.674   6.243
 1553SOL    HW1 5558   6.050   1.713   6.301
 1553SOL    HW2 5559   5.948   1.743   6.177
 1554SOL     OW 5560   3.861   1.851   1.691
 1554SOL    HW1 5561   3.910   1.788   1.751
 1554SOL    HW2 5562   3.814   1.920   1.746
 1555SOL     OW 5563   3.513   1.531   5.660
 1555SOL    HW1 5564   3.439   1.483   5.612
 1555SOL    HW2 5565   3.590   1.546   5.598
 1556SOL     OW 5566   3.389   1.282   0.774
 1556SOL    HW1 5567   3.443   1.363   0.794
 1556SOL    HW2 5568   3.294   1.308   0.759
 1557SOL     OW 5569   1.992   1.852   1.179
 1557SOL    HW1 5570   1.922   1.825   1.113
 1557SOL    HW2 5571   1.948   1.885   1.262
 1558SOL     OW 5572   6.332   3.375   5.995
 1558SOL    HW1 5573   6.331   3.300   5.929
 1558SOL    HW2 5574   6.336   3.462   5.945
 1559SOL     OW 5575   1.464   4.780   2.906
 1559SOL    HW1 5576   1.494   4.686   2.891
 1559SOL    HW2 5577   1.524   4.825   2.971
 1560SOL     OW 5578   3.874   1.630   1.530
 1560SOL    HW1 5579   3.840   1.710   1.580
 1560SOL    HW2 5580   3.922   1.659   1.448
 1561SOL     OW 5581   6.170   6.046   1.389
 1561SOL    HW1 5582   6.188   6.140   1.419
 1561SOL    HW2 5583   6.251   6.009   1.344
 1562SOL     OW 5584   3.499   6.388   2.239
 1562SOL    HW1 5585   3.585   6.339   2.256
 1562SOL    HW2 5586   3.435   6.369   2.314
 1563SOL     OW 5587   3.906   2.141   4.356
 1563SOL    HW1 5588   3.915   2.159   4.454
 1563SOL    HW2 5589   3.986   2.177   4.308
 1564SOL     OW 5590   1.598   1.973   2.631
 1564SOL    HW1 5591   1.631   2.067   2.637
 1564SOL    HW2 5592   1.499   1.972   2.638
 1565SOL     OW 5593   4.005   0.692   4.154
 1565SOL    HW1 5594   3.947   0.737   4.086
 1565SOL    HW2 5595   4.076   0.638   4.107
 1566SOL     OW 5596   4.690   4.586   3.113
 1566SOL    HW1 5597   4.613   4.624   3.164
 1566SOL    HW2 5598   4.774   4.595   3.167
 1567SOL     OW 5599   4.725   6.442   4.764
 1567SOL    HW1 5600   4.657   6.414   4.831
 1567SOL    HW2 5601   4.689   6.429   4.672
 1568SOL     OW 5602   2.324   5.980   3.133
 1568SOL    HW1 5603   2.383   5.927   3.193
 1568SOL    HW2 5604   2.232   5.939   3.132
 1569SOL     OW 5605   2.783   6.978   3.625
 1569SOL    HW1 5606   2.756   6.973   3.529
 1569SOL    HW2 5607   2.819   0.047   3.645
 1570SOL     OW 5608   3.164   6.760   0.304
 1570SOL    HW1 5609   3.100   6.750   0.227
 1570SOL    HW2 5610   3.257   6.756   0.270
 1571SOL     OW 5611   0.978   2.689   4.071
 1571SOL    HW1 5612   0.982   2.682   3.971
 1571SOL    HW2 5613   1.062   2.731   4.105
 1572SOL     OW 5614   1.929   4.666   1.896
 1572SOL    HW1 5615   1.847   4.655   1.952
 1572SOL    HW2 5616   1.956   4.763   1.896
 1573SOL     OW 5617   5.372   5.073   0.764
 1573SOL    HW1 5618   5.315   5.017   0.825
 1573SOL    HW2 5619   5.325   5.158   0.742
 1574SOL     OW 5620   6.954   3.585   2.686
 1574SOL    HW1 5621   6.903   3.543   2.610
 1574SOL    HW2 5622   0.016   3.534   2.702
 1575SOL     OW 5623   0.446   1.252   0.357
 1575SOL    HW1 5624   0.421   1.172   0.302
 1575SOL    HW2 5625   0.380   1.325   0.341
 1576SOL     OW 5626   0.404   6.691   2.689
 1576SOL    HW1 5627   0.470   6.751   2.644
 1576SOL    HW2 5628   0.312   6.727   2.675
 1577SOL     OW 5629   4.636   0.248   5.668
 1577SOL    HW1 5630   4.708   0.190   5.630
 1577SOL    HW2 5631   4.675   0.337   5.692
 1578SOL     OW 5632   5.213   0.875   0.118
 1578SOL    HW1 5633   5.311   0.881   0.099
 1578SOL    HW2 5634   5.194   0.788   0.163
 1579SOL     OW 5635   1.400   2.642   1.298
 1579SOL    HW1 5636   1.302   2.627   1.311
 1579SOL    HW2 5637   1.426   2.621   1.203
 1580SOL     OW 5638   3.668   3.529   2.946
 1580SOL    HW1 5639   3.729   3.546   2.868
 1580SOL    HW2 5640   3.577   3.562   2.925
 1581SOL     OW 5641   6.742   4.365   5.551
 1581SOL    HW1 5642   6.748   4.464   5.557
 1581SOL    HW2 5643   6.706   4.328   5.636
 1582SOL     OW 5644   4.707   6.485   5.317
 1582SOL    HW1 5645   4.678   6.407   5.371
 1582SOL    HW2 5646   4.639   6.504   5.246
 1583SOL     OW 5647   1.048   5.700   5.249
 1583SOL    HW1 5648   1.053   5.788   5.296
 1583SOL    HW2 5649   1.125   5.643   5.277
 1584SOL     OW 5650   0.843   5.224   6.712
 1584SOL    HW1 5651   0.851   5.173   6.626
 1584SOL    HW2 5652   0.804   5.164   6.783
 1585SOL     OW 5653   4.177   0.236   3.058
 1585SOL    HW1 5654   4.120   0.187   3.124
 1585SOL    HW2 5655   4.184   0.184   2.974
 1586SOL     OW 5656   2.651   5.202   3.973
 1586SOL    HW1 5657   2.575   5.154   4.018
 1586SOL    HW2 5658   2.634   5.205   3.874
 1587SOL     OW 5659   2.213   6.315   5.726
 1587SOL    HW1 5660   2.265   6.244   5.773
 1587SOL    HW2 5661   2.171   6.276   5.643
 1588SOL     OW 5662   6.019   0.515   2.441
 1588SOL    HW1 5663   5.925   0.502   2.409
 1588SOL    HW2 5664   6.081   0.461   2.384
 1589SOL     OW 5665   6.665   4.488   3.333
 1589SOL    HW1 5666   6.686   4.423   3.407
 1589SOL    HW2 5667   6.617   4.440   3.260
 1590SOL     OW 5668   6.989   1.715   3.560
 1590SOL    HW1 5669   7.019   1.807   3.533
 1590SOL    HW2 5670   6.932   1.676   3.487
 1591SOL     OW 5671   0.604   6.047   1.894
 1591SOL    HW1 5672   0.646   6.053   1.803
 1591SOL    HW2 5673   0.507   6.070   1.887
 1592SOL     OW 5674   0.538   3.784   6.868
 1592SOL    HW1 5675   0.468   3.811   6.802
 1592SOL    HW2 5676   0.526   3.834   6.953
 1593SOL     OW 5677   1.785   0.660   6.870
 1593SOL    HW1 5678   1.691   0.667   6.835
 1593SOL    HW2 5679   1.821   0.569   6.851
 1594SOL     OW 5680   6.719   0.568   1.954
 1594SOL    HW1 5681   6.750   0.473   1.950
 1594SOL    HW2 5682   6.792   0.625   1.993
 1595SOL     OW 5683   0.957   4.812   6.602
 1595SOL    HW1 5684   0.887   4.825   6.673
 1595SOL    HW2 5685   0.966   4.714   6.582
 1596SOL     OW 5686   5.525   4.624   2.391
 1596SOL    HW1 5687   5.449   4.648   2.452
 1596SOL    HW2 5688   5.582   4.555   2.435
 1597SOL     OW 5689   3.498   6.526   6.981
 1597SOL    HW1 5690   3.561   6.502   0.033
 1597SOL    HW2 5691   3.550   6.541   6.897
 1598SOL     OW 5692   1.469   5.863   6.791
 1598SOL    HW1 5693   1.429   5.830   6.705
 1598SOL    HW2 5694   1.411   5.836   6.868
 1599SOL     OW 5695   4.651   4.897   3.642
 1599SOL    HW1 5696   4.562   4.943   3.645
 1599SOL    HW2 5697   4.724   4.965   3.647
 1600SOL     OW 5698   3.539   0.056   2.874
 1600SOL    HW1 5699   3.442   0.078   2.860
 1600SOL    HW2 5700   3.594   0.139   2.863
 1601SOL     OW 5701   5.497   6.284   3.863
 1601SOL    HW1 5702   5.400   6.281   3.841
 1601SOL    HW2 5703   5.549   6.240   3.789
 1602SOL     OW 5704   4.399   5.311   3.508
 1602SOL    HW1 5705   4.442   5.251   3.441
 1602SOL    HW2 5706   4.458   5.319   3.589
 1603SOL     OW 5707   2.726   5.507   3.816
 1603SOL    HW1 5708   2.736   5.541   3.909
 1603SOL    HW2 5709   2.631   5.477   3.801
 1604SOL     OW 5710   3.991   5.051   2.380
 1604SOL    HW1 5711   3.903   5.096   2.370
 1604SOL    HW2 5712   4.024   5.023   2.290
 1605SOL     OW 5713   4.762   5.169   1.132
 1605SOL    HW1 5714   4.832   5.197   1.198
 1605SOL    HW2 5715   4.684   5.131   1.182
 1606SOL     OW 5716   4.154   6.320   4.748
 1606SOL    HW1 5717   4.168   6.339   4.845
 1606SOL    HW2 5718   4.231   6.356   4.696
 1607SOL     OW 5719   4.719   6.086   2.989
 1607SOL    HW1 5720   4.720   6.032   3.073
 1607SOL    HW2 5721   4.756   6.177   3.007
 1608SOL     OW 5722   6.407   0.584   2.771
 1608SOL    HW1 5723   6.330   0.607   2.711
 1608SOL    HW2 5724   6.441   0.668   2.815
 1609SOL     OW 5725   3.222   6.033   1.004
 1609SOL    HW1 5726   3.224   5.977   1.087
 1609SOL    HW2 5727   3.248   6.126   1.027
 1610SOL     OW 5728   4.768   0.408   0.030
 1610SOL    HW1 5729   4.828   0.486   0.049
 1610SOL    HW2 5730   4.722   0.381   0.114
 1611SOL     OW 5731   1.339   3.658   0.824
 1611SOL    HW1 5732   1.313   3.711   0.905
 1611SOL    HW2 5733   1.327   3.561   0.843
 1612SOL     OW 5734   3.428   6.774   1.828
 1612SOL    HW1 5735   3.453   6.700   1.765
 1612SOL    HW2 5736   3.328   6.776   1.839
 1613SOL     OW 5737   6.609   5.734   2.535
 1613SOL    HW1 5738   6.588   5.663   2.603
 1613SOL    HW2 5739   6.609   5.824   2.580
 1614SOL     OW 5740   6.082   2.418   6.142
 1614SOL    HW1 5741   6.125   2.498   6.100
 1614SOL    HW2 5742   5.986   2.437   6.162
 1615SOL     OW 5743   0.830   5.090   6.102
 1615SOL    HW1 5744   0.793   5.174   6.143
 1615SOL    HW2 5745   0.871   5.033   6.173
 1616SOL     OW 5746   2.367   1.485   5.014
 1616SOL    HW1 5747   2.283   1.434   4.993
 1616SOL    HW2 5748   2.361   1.578   4.978
 1617SOL     OW 5749   5.249   6.269   3.301
 1617SOL    HW1 5750   5.248   6.188   3.358
 1617SOL    HW2 5751   5.192   6.340   3.342
 1618SOL     OW 5752   2.681   5.720   3.113
 1618SOL    HW1 5753   2.718   5.659   3.183
 1618SOL    HW2 5754   2.713   5.691   3.023
 1619SOL     OW 5755   1.164   5.095   0.161
 1619SOL    HW1 5756   1.241   5.038   0.189
 1619SOL    HW2 5757   1.081   5.066   0.209
 1620SOL     OW 5758   3.606   5.472   6.762
 1620SOL    HW1 5759   3.674   5.451   6.832
 1620SOL    HW2 5760   3.597   5.571   6.753
 1621SOL     OW 5761   5.548   6.499   0.527
 1621SOL    HW1 5762   5.468   6.553   0.502
 1621SOL    HW2 5763   5.568   6.511   0.624
 1622SOL     OW 5764   0.495   4.185   4.719
 1622SOL    HW1 5765   0.518   4.229   4.632
 1622SOL    HW2 5766   0.579   4.153   4.763
 1623SOL     OW 5767   0.568   2.113   4.635
 1623SOL    HW1 5768   0.511   2.038   4.600
 1623SOL    HW2 5769   0.641   2.132   4.569
 1624SOL     OW 5770   3.990   0.939   0.773
 1624SOL    HW1 5771   3.928   0.936   0.851
 1624SOL    HW2 5772   3.994   0.848   0.730
 1625SOL     OW 5773   1.786   5.331   0.985
 1625SOL    HW1 5774   1.798   5.421   0.943
 1625SOL    HW2 5775   1.688   5.313   0.997
 1626SOL     OW 5776   3.015   1.742   1.253
 1626SOL    HW1 5777   3.096   1.686   1.269
 1626SOL    HW2 5778   2.939   1.683   1.225
 1627SOL     OW 5779   4.119   1.920   3.806
 1627SOL    HW1 5780   4.027   1.934   3.771
 1627SOL    HW2 5781   4.124   1.952   3.901
 1628SOL     OW 5782   5.497   6.502   6.400
 1628SOL    HW1 5783   5.537   6.420   6.442
 1628SOL    HW2 5784   5.570   6.566   6.376
 1629SOL     OW 5785   2.206   1.096   3.143
 1629SOL    HW1 5786   2.265   1.031   3.094
 1629SOL    HW2 5787   2.153   1.149   3.077
 1630SOL     OW 5788   0.858   3.781   6.834
 1630SOL    HW1 5789   0.759   3.790   6.844
 1630SOL    HW2 5790   0.904   3.812   6.917
 1631SOL     OW 5791   0.364   3.333   0.461
 1631SOL    HW1 5792   0.289   3.399   0.468
 1631SOL    HW2 5793   0.382   3.313   0.365
 1632SOL     OW 5794   6.435   4.843   2.681
 1632SOL    HW1 5795   6.483   4.911   2.625
 1632SOL    HW2 5796   6.496   4.810   2.753
 1633SOL     OW 5797   4.946   3.146   3.904
 1633SOL    HW1 5798   4.993   3.166   3.990
 1633SOL    HW2 5799   4.909   3.232   3.866
 1634SOL     OW 5800   5.304   0.344   4.663
 1634SOL    HW1 5801   5.299   0.438   4.630
 1634SOL    HW2 5802   5.229   0.290   4.624
 1635SOL     OW 5803   3.302   5.429   4.216
 1635SOL    HW1 5804   3.343   5.415   4.306
 1635SOL    HW2 5805   3.303   5.343   4.165
 1636SOL     OW 5806   5.607   6.052   1.337
 1636SOL    HW1 5807   5.593   6.144   1.373
 1636SOL    HW2 5808   5.706   6.034   1.330
 1637SOL     OW 5809   0.369   7.006   2.254
 1637SOL    HW1 5810   0.418   6.922   2.231
 1637SOL    HW2 5811   0.370   7.019   2.353
 1638SOL     OW 5812   0.146   3.155   1.795
 1638SOL    HW1 5813   0.113   3.071   1.839
 1638SOL    HW2 5814   0.102   3.234   1.838
 1639SOL     OW 5815   5.207   2.941   2.568
 1639SOL    HW1 5816   5.111   2.916   2.577
 1639SOL    HW2 5817   5.227   2.960   2.472
 1640SOL     OW 5818   6.438   0.172   0.407
 1640SOL    HW1 5819   6.489   0.224   0.475
 1640SOL    HW2 5820   6.411   0.232   0.332
 1641SOL     OW 5821   6.724   2.460   2.829
 1641SOL    HW1 5822   6.799   2.433   2.769
 1641SOL    HW2 5823   6.643   2.405   2.809
 1642SOL     OW 5824   5.561   2.254   5.463
 1642SOL    HW1 5825   5.575   2.240   5.364
 1642SOL    HW2 5826   5.468   2.227   5.487
 1643SOL     OW 5827   3.255   5.363   4.762
 1643SOL    HW1 5828   3.208   5.292   4.710
 1643SOL    HW2 5829   3.292   5.324   4.847
 1644SOL     OW 5830   5.898   2.784   1.044
 1644SOL    HW1 5831   5.808   2.796   1.002
 1644SOL    HW2 5832   5.905   2.842   1.125
 1645SOL     OW 5833   2.523   0.735   5.523
 1645SOL    HW1 5834   2.472   0.769   5.602
 1645SOL    HW2 5835   2.461   0.684   5.463
 1646SOL     OW 5836   0.828   5.631   0.811
 1646SOL    HW1 5837   0.816   5.654   0.907
 1646SOL    HW2 5838   0.918   5.588   0.798
 1647SOL     OW 5839   6.199   2.630   4.713
 1647SOL    HW1 5840   6.118   2.688   4.702
 1647SOL    HW2 5841   6.169   2.537   4.735
 1648SOL     OW 5842   5.228   6.460   0.832
 1648SOL    HW1 5843   5.171   6.542   0.843
 1648SOL    HW2 5844   5.317   6.476   0.875
 1649SOL     OW 5845   3.086   0.554   3.311
 1649SOL    HW1 5846   3.052   0.564   3.218
 1649SOL    HW2 5847   3.179   0.591   3.316
 1650SOL     OW 5848   3.116   5.205   6.820
 1650SOL    HW1 5849   3.212   5.218   6.799
 1650SOL    HW2 5850   3.078   5.133   6.761
 1651SOL     OW 5851   0.780   2.861   3.976
 1651SOL    HW1 5852   0.844   2.800   4.024
 1651SOL    HW2 5853   0.745   2.930   4.039
 1652SOL     OW 5854   0.828   2.780   1.314
 1652SOL    HW1 5855   0.782   2.840   1.379
 1652SOL    HW2 5856   0.762   2.752   1.243
 1653SOL     OW 5857   0.249   4.871   3.094
 1653SOL    HW1 5858   0.280   4.918   3.176
 1653SOL    HW2 5859   0.150   4.857   3.099
 1654SOL     OW 5860   0.654   3.050   1.936
 1654SOL    HW1 5861   0.695   2.982   1.874
 1654SOL    HW2 5862   0.579   3.097   1.889
 1655SOL     OW 5863   6.777   0.378   4.738
 1655SOL    HW1 5864   6.694   0.433   4.726
 1655SOL    HW2 5865   6.799   0.372   4.835
 1656SOL     OW 5866   2.448   5.007   4.012
 1656SOL    HW1 5867   2.362   5.055   4.027
 1656SOL    HW2 5868   2.458   4.987   3.914
 1657SOL     OW 5869   0.964   0.207   5.541
 1657SOL    HW1 5870   1.052   0.219   5.495
 1657SOL    HW2 5871   0.978   0.198   5.639
 1658SOL     OW 5872   6.865   6.903   6.876
 1658SOL    HW1 5873   6.860   6.940   6.969
 1658SOL    HW2 5874   6.852   6.977   6.811
 1659SOL     OW 5875   4.501   6.853   6.576
 1659SOL    HW1 5876   4.458   6.907   6.503
 1659SOL    HW2 5877   4.600   6.863   6.571
 1660SOL     OW 5878   1.594   6.935   1.646
 1660SOL    HW1 5879   1.669   7.001   1.637
 1660SOL    HW2 5880   1.597   6.871   1.569
 1661SOL     OW 5881   3.906   4.825   2.757
 1661SOL    HW1 5882   3.981   4.838   2.692
 1661SOL    HW2 5883   3.943   4.790   2.843
 1662SOL     OW 5884   0.311   1.153   4.840
 1662SOL    HW1 5885   0.371   1.150   4.760
 1662SOL    HW2 5886   0.220   1.119   4.815
 1663SOL     OW 5887   4.398   4.341   1.173
 1663SOL    HW1 5888   4.462   4.397   1.225
 1663SOL    HW2 5889   4.358   4.271   1.232
 1664SOL     OW 5890   0.629   0.254   4.988
 1664SOL    HW1 5891   0.637   0.208   5.076
 1664SOL    HW2 5892   0.663   0.194   4.916
 1665SOL     OW 5893   2.261   4.282   1.242
 1665SOL    HW1 5894   2.292   4.225   1.166
 1665SOL    HW2 5895   2.258   4.378   1.213
 1666SOL     OW 5896   5.594   0.011   6.386
 1666SOL    HW1 5897   5.647   6.976   6.323
 1666SOL    HW2 5898   5.571   0.097   6.341
 1667SOL     OW 5899   0.551   6.715   1.233
 1667SOL    HW1 5900   0.517   6.726   1.326
 1667SOL    HW2 5901   0.487   6.759   1.169
 1668SOL     OW 5902   4.851   4.366   4.127
 1668SOL    HW1 5903   4.829   4.289   4.067
 1668SOL    HW2 5904   4.829   4.452   4.081
 1669SOL     OW 5905   0.045   3.790   5.187
 1669SOL    HW1 5906   0.105   3.792   5.107
 1669SOL    HW2 5907   0.093   3.828   5.266
 1670SOL     OW 5908   2.485   4.547   5.858
 1670SOL    HW1 5909   2.448   4.525   5.767
 1670SOL    HW2 5910   2.412   4.541   5.926
 1671SOL     OW 5911   5.310   1.662   1.573
 1671SOL    HW1 5912   5.289   1.672   1.476
 1671SOL    HW2 5913   5.249   1.720   1.627
 1672SOL     OW 5914   0.806   3.120   7.010
 1672SOL    HW1 5915   0.888   3.067   6.990
 1672SOL    HW2 5916   0.761   3.081   0.068
 1673SOL     OW 5917   2.295   1.642   4.414
 1673SOL    HW1 5918   2.367   1.710   4.403
 1673SOL    HW2 5919   2.216   1.684   4.459
 1674SOL     OW 5920   4.816   2.455   3.077
 1674SOL    HW1 5921   4.862   2.452   2.988
 1674SOL    HW2 5922   4.727   2.410   3.071
 1675SOL     OW 5923   5.277   0.769   1.164
 1675SOL    HW1 5924   5.251   0.672   1.171
 1675SOL    HW2 5925   5.238   0.808   1.081
 1676SOL     OW 5926   1.781   1.620   3.011
 1676SOL    HW1 5927   1.812   1.654   3.099
 1676SOL    HW2 5928   1.764   1.696   2.949
 1677SOL     OW 5929   4.114   3.596   3.512
 1677SOL    HW1 5930   4.083   3.505   3.540
 1677SOL    HW2 5931   4.042   3.663   3.532
 1678SOL     OW 5932   0.506   6.716   0.956
 1678SOL    HW1 5933   0.585   6.656   0.964
 1678SOL    HW2 5934   0.535   6.811   0.962
 1679SOL     OW 5935   1.750   1.683   5.564
 1679SOL    HW1 5936   1.782   1.710   5.473
 1679SOL    HW2 5937   1.704   1.760   5.608
 1680SOL     OW 5938   4.552   2.584   4.158
 1680SOL    HW1 5939   4.530   2.561   4.252
 1680SOL    HW2 5940   4.539   2.503   4.100
 1681SOL     OW 5941   2.085   6.315   3.683
 1681SOL    HW1 5942   2.101   6.294   3.779
 1681SOL    HW2 5943   2.101   6.413   3.667
 1682SOL     OW 5944   2.449   0.063   5.583
 1682SOL    HW1 5945   2.402   0.059   5.495
 1682SOL    HW2 5946   2.530   0.120   5.576
 1683SOL     OW 5947   6.213   4.675   2.682
 1683SOL    HW1 5948   6.289   4.740   2.685
 1683SOL    HW2 5949   6.176   4.672   2.589
 1684SOL     OW 5950   2.054   4.697   1.508
 1684SOL    HW1 5951   2.147   4.711   1.543
 1684SOL    HW2 5952   1.990   4.755   1.558
 1685SOL     OW 5953   0.296   1.247   5.665
 1685SOL    HW1 5954   0.318   1.205   5.753
 1685SOL    HW2 5955   0.378   1.290   5.626
 1686SOL     OW 5956   4.681   5.362   3.289
 1686SOL    HW1 5957   4.623   5.291   3.329
 1686SOL    HW2 5958   4.755   5.385   3.352
 1687SOL     OW 5959   6.496   3.782   2.812
 1687SOL    HW1 5960   6.572   3.818   2.867
 1687SOL    HW2 5961   6.487   3.684   2.829
 1688SOL     OW 5962   2.173   1.853   3.858
 1688SOL    HW1 5963   2.216   1.802   3.783
 1688SOL    HW2 5964   2.243   1.880   3.924
 1689SOL     OW 5965   5.952   0.679   1.815
 1689SOL    HW1 5966   5.995   0.762   1.781
 1689SOL    HW2 5967   6.013   0.635   1.881
 1690SOL     OW 5968   0.922   4.115   4.506
 1690SOL    HW1 5969   1.021   4.109   4.522
 1690SOL    HW2 5970   0.883   4.184   4.567
 1691SOL     OW 5971   4.941   2.848   5.082
 1691SOL    HW1 5972   5.015   2.867   5.146
 1691SOL    HW2 5973   4.858   2.895   5.113
 1692SOL     OW 5974   6.131   5.154   1.440
 1692SOL    HW1 5975   6.090   5.238   1.403
 1692SOL    HW2 5976   6.171   5.101   1.365
 1693SOL     OW 5977   6.036   0.477   5.566
 1693SOL    HW1 5978   5.986   0.496   5.481
 1693SOL    HW2 5979   6.064   0.563   5.608
 1694SOL     OW 5980   5.608   0.553   5.310
 1694SOL    HW1 5981   5.619   0.554   5.211
 1694SOL    HW2 5982   5.542   0.623   5.337
 1695SOL     OW 5983   3.638   0.543   6.669
 1695SOL    HW1 5984   3.584   0.549   6.753
 1695SOL    HW2 5985   3.708   0.474   6.680
 1696SOL     OW 5986   4.614   5.720   0.105
 1696SOL    HW1 5987   4.655   5.723   0.014
 1696SOL    HW2 5988   4.649   5.641   0.155
 1697SOL     OW 5989   5.788   1.836   1.368
 1697SOL    HW1 5990   5.792   1.755   1.309
 1697SOL    HW2 5991   5.699   1.880   1.358
 1698SOL     OW 5992   3.478   0.707   2.093
 1698SOL    HW1 5993   3.468   0.703   1.993
 1698SOL    HW2 5994   3.432   0.629   2.134
 1699SOL     OW 5995   2.326   0.519   0.092
 1699SOL    HW1 5996   2.275   0.561   0.017
 1699SOL    HW2 5997   2.423   0.542   0.083
 1700SOL     OW 5998   5.855   3.615   3.063
 1700SOL    HW1 5999   5.944   3.576   3.086
 1700SOL    HW2 6000   5.807   3.639   3.147
 1701SOL     OW 6001   6.825   4.971   4.866
 1701SOL    HW1 6002   6.905   4.951   4.809
 1701SOL    HW2 6003   6.846   5.049   4.925
 1702SOL     OW 6004   2.027   2.598   5.687
 1702SOL    HW1 6005   1.984   2.551   5.609
 1702SOL    HW2 6006   1.975   2.578   5.770
 1703SOL     OW 6007   3.270   2.171   6.795
 1703SOL    HW1 6008   3.251   2.075   6.816
 1703SOL    HW2 6009   3.313   2.178   6.705
 1704SOL     OW 6010   2.650   1.813   0.953
 1704SOL    HW1 6011   2.665   1.840   1.048
 1704SOL    HW2 6012   2.699   1.876   0.893
 1705SOL     OW 6013   3.852   1.147   1.561
 1705SOL    HW1 6014   3.848   1.066   1.503
 1705SOL    HW2 6015   3.783   1.140   1.634
 1706SOL     OW 6016   3.849   1.913   0.866
 1706SOL    HW1 6017   3.896   2.000   0.856
 1706SOL    HW2 6018   3.752   1.924   0.843
 1707SOL     OW 6019   4.637   1.445   2.293
 1707SOL    HW1 6020   4.647   1.428   2.391
 1707SOL    HW2 6021   4.658   1.361   2.242
 1708SOL     OW 6022   3.345   5.149   1.679
 1708SOL    HW1 6023   3.403   5.077   1.716
 1708SOL    HW2 6024   3.318   5.126   1.586
 1709SOL     OW 6025   4.930   5.597   0.633
 1709SOL    HW1 6026   4.867   5.627   0.562
 1709SOL    HW2 6027   5.023   5.594   0.595
 1710SOL     OW 6028   4.320   5.412   2.890
 1710SOL    HW1 6029   4.255   5.461   2.833
 1710SOL    HW2 6030   4.410   5.410   2.846
 1711SOL     OW 6031   3.574   5.411   6.178
 1711SOL    HW1 6032   3.576   5.490   6.116
 1711SOL    HW2 6033   3.488   5.362   6.165
 1712SOL     OW 6034   6.977   2.090   4.156
 1712SOL    HW1 6035   6.910   2.034   4.108
 1712SOL    HW2 6036   0.041   2.090   4.106
 1713SOL     OW 6037   4.029   0.661   2.757
 1713SOL    HW1 6038   3.963   0.599   2.799
 1713SOL    HW2 6039   3.981   0.727   2.699
 1714SOL     OW 6040   3.769   2.724   6.646
 1714SOL    HW1 6041   3.695   2.729   6.578
 1714SOL    HW2 6042   3.808   2.632   6.644
 1715SOL     OW 6043   1.416   6.339   2.605
 1715SOL    HW1 6044   1.431   6.317   2.509
 1715SOL    HW2 6045   1.319   6.362   2.619
 1716SOL     OW 6046   4.483   0.504   4.168
 1716SOL    HW1 6047   4.446   0.414   4.189
 1716SOL    HW2 6048   4.581   0.496   4.147
 1717SOL     OW 6049   3.771   5.879   5.626
 1717SOL    HW1 6050   3.754   5.975   5.649
 1717SOL    HW2 6051   3.868   5.858   5.642
 1718SOL     OW 6052   1.866   2.792   2.088
 1718SOL    HW1 6053   1.933   2.745   2.145
 1718SOL    HW2 6054   1.841   2.734   2.011
 1719SOL     OW 6055   0.932   5.027   1.428
 1719SOL    HW1 6056   0.919   5.097   1.357
 1719SOL    HW2 6057   0.949   4.939   1.385
 1720SOL     OW 6058   6.504   3.035   5.578
 1720SOL    HW1 6059   6.412   3.016   5.611
 1720SOL    HW2 6060   6.547   3.104   5.636
 1721SOL     OW 6061   1.595   1.552   1.724
 1721SOL    HW1 6062   1.611   1.543   1.626
 1721SOL    HW2 6063   1.556   1.641   1.744
 1722SOL     OW 6064   3.077   2.180   3.356
 1722SOL    HW1 6065   3.157   2.157   3.300
 1722SOL    HW2 6066   2.996   2.135   3.319
 1723SOL     OW 6067   5.402   2.973   0.312
 1723SOL    HW1 6068   5.465   3.050   0.320
 1723SOL    HW2 6069   5.402   2.920   0.397
 1724SOL     OW 6070   6.972   2.483   1.253
 1724SOL    HW1 6071   6.900   2.414   1.250
 1724SOL    HW2 6072   6.949   2.552   1.322
 1725SOL     OW 6073   2.015   5.828   6.791
 1725SOL    HW1 6074   1.998   5.895   6.864
 1725SOL    HW2 6075   1.989   5.867   6.703
 1726SOL     OW 6076   5.768   3.975   4.131
 1726SOL    HW1 6077   5.669   3.967   4.132
 1726SOL    HW2 6078   5.802   3.961   4.038
 1727SOL     OW 6079   3.340   3.221   3.137
 1727SOL    HW1 6080   3.264   3.162   3.165
 1727SOL    HW2 6081   3.313   3.274   3.057
 1728SOL     OW 6082   4.968   2.437   4.895
 1728SOL    HW1 6083   4.930   2.476   4.979
 1728SOL    HW2 6084   4.963   2.337   4.900
 1729SOL     OW 6085   1.828   4.095   1.743
 1729SOL    HW1 6086   1.877   4.077   1.828
 1729SOL    HW2 6087   1.782   4.184   1.750
 1730SOL     OW 6088   2.717   4.877   5.974
 1730SOL    HW1 6089   2.778   4.949   6.008
 1730SOL    HW2 6090   2.631   4.880   6.024
 1731SOL     OW 6091   6.175   4.034   4.079
 1731SOL    HW1 6092   6.269   4.038   4.113
 1731SOL    HW2 6093   6.112   4.067   4.149
 1732SOL     OW 6094   2.044   4.749   6.440
 1732SOL    HW1 6095   2.028   4.720   6.346
 1732SOL    HW2 6096   2.132   4.796   6.447
 1733SOL     OW 6097   3.077   4.067   0.233
 1733SOL    HW1 6098   3.016   4.045   0.309
 1733SOL    HW2 6099   3.099   3.984   0.181
 1734SOL     OW 6100   0.197   2.839   1.145
 1734SOL    HW1 6101   0.188   2.811   1.240
 1734SOL    HW2 6102   0.289   2.877   1.131
 1735SOL     OW 6103   4.070   5.284   6.237
 1735SOL    HW1 6104   3.984   5.322   6.204
 1735SOL    HW2 6105   4.126   5.256   6.159
 1736SOL     OW 6106   4.642   3.457   0.947
 1736SOL    HW1 6107   4.732   3.454   0.902
 1736SOL    HW2 6108   4.577   3.401   0.895
 1737SOL     OW 6109   4.923   1.059   4.839
 1737SOL    HW1 6110   4.833   1.103   4.843
 1737SOL    HW2 6111   4.984   1.103   4.904
 1738SOL     OW 6112   1.063   3.379   4.338
 1738SOL    HW1 6113   1.158   3.376   4.371
 1738SOL    HW2 6114   1.021   3.290   4.352
 1739SOL     OW 6115   5.187   0.233   4.284
 1739SOL    HW1 6116   5.124   0.299   4.242
 1739SOL    HW2 6117   5.264   0.281   4.325
 1740SOL     OW 6118   6.566   2.765   4.363
 1740SOL    HW1 6119   6.633   2.691   4.357
 1740SOL    HW2 6120   6.607   2.843   4.411
 1741SOL     OW 6121   1.084   1.855   4.457
 1741SOL    HW1 6122   1.001   1.805   4.432
 1741SOL    HW2 6123   1.059   1.947   4.486
 1742SOL     OW 6124   6.238   5.717   6.335
 1742SOL    HW1 6125   6.223   5.765   6.248
 1742SOL    HW2 6126   6.324   5.665   6.330
 1743SOL     OW 6127   1.584   0.929   3.033
 1743SOL    HW1 6128   1.641   0.854   3.000
 1743SOL    HW2 6129   1.640   1.011   3.046
 1744SOL     OW 6130   4.509   1.894   4.052
 1744SOL    HW1 6131   4.464   1.929   3.970
 1744SOL    HW2 6132   4.536   1.971   4.110
 1745SOL     OW 6133   0.055   6.610   1.468
 1745SOL    HW1 6134   0.098   6.679   1.410
 1745SOL    HW2 6135   0.125   6.548   1.503
 1746SOL     OW 6136   1.782   4.167   3.369
 1746SOL    HW1 6137   1.697   4.214   3.392
 1746SOL    HW2 6138   1.854   4.194   3.433
 1747SOL     OW 6139   3.655   0.833   2.422
 1747SOL    HW1 6140   3.563   0.863   2.400
 1747SOL    HW2 6141   3.673   0.745   2.378
 1748SOL     OW 6142   6.803   1.991   5.020
 1748SOL    HW1 6143   6.881   2.000   5.082
 1748SOL    HW2 6144   6.792   1.895   4.996
 1749SOL     OW 6145   1.853   5.076   0.965
 1749SOL    HW1 6146   1.850   5.044   1.060
 1749SOL    HW2 6147   1.820   5.170   0.960
 1750SOL     OW 6148   4.394   0.275   5.360
 1750SOL    HW1 6149   4.464   0.205   5.373
 1750SOL    HW2 6150   4.312   0.233   5.319
 1751SOL     OW 6151   5.925   2.516   4.973
 1751SOL    HW1 6152   6.021   2.499   4.993
 1751SOL    HW2 6153   5.893   2.596   5.024
 1752SOL     OW 6154   6.656   0.803   1.351
 1752SOL    HW1 6155   6.753   0.803   1.326
 1752SOL    HW2 6156   6.601   0.775   1.273
 1753SOL     OW 6157   6.296   1.359   1.779
 1753SOL    HW1 6158   6.341   1.273   1.803
 1753SOL    HW2 6159   6.272   1.358   1.682
 1754SOL     OW 6160   3.192   5.181   5.627
 1754SOL    HW1 6161   3.249   5.244   5.680
 1754SOL    HW2 6162   3.170   5.223   5.538
 1755SOL     OW 6163   6.582   7.009   5.054
 1755SOL    HW1 6164   6.545   7.004   4.961
 1755SOL    HW2 6165   6.647   6.935   5.068
 1756SOL     OW 6166   5.610   0.653   6.074
 1756SOL    HW1 6167   5.629   0.749   6.052
 1756SOL    HW2 6168   5.553   0.648   6.156
 1757SOL     OW 6169   2.348   5.220   5.165
 1757SOL    HW1 6170   2.317   5.315   5.162
 1757SOL    HW2 6171   2.379   5.198   5.258
 1758SOL     OW 6172   2.109   6.518   4.690
 1758SOL    HW1 6173   2.059   6.588   4.741
 1758SOL    HW2 6174   2.052   6.484   4.615
 1759SOL     OW 6175   1.472   6.734   6.917
 1759SOL    HW1 6176   1.433   6.770   7.002
 1759SOL    HW2 6177   1.485   6.809   6.852
 1760SOL     OW 6178   5.952   1.140   5.170
 1760SOL    HW1 6179   6.014   1.182   5.236
 1760SOL    HW2 6180   5.881   1.089   5.218
 1761SOL     OW 6181   6.023   1.983   2.054
 1761SOL    HW1 6182   5.955   1.926   2.007
 1761SOL    HW2 6183   5.977   2.041   2.121
 1762SOL     OW 6184   0.293   1.453   4.945
 1762SOL    HW1 6185   0.310   1.360   4.912
 1762SOL    HW2 6186   0.255   1.509   4.871
 1763SOL     OW 6187   0.695   3.913   4.588
 1763SOL    HW1 6188   0.731   3.977   4.520
 1763SOL    HW2 6189   0.596   3.924   4.594
 1764SOL     OW 6190   0.956   5.292   2.483
 1764SOL    HW1 6191   1.020   5.337   2.545
 1764SOL    HW2 6192   0.893   5.235   2.536
 1765SOL     OW 6193   5.308   3.311   2.254
 1765SOL    HW1 6194   5.334   3.286   2.347
 1765SOL    HW2 6195   5.271   3.403   2.253
 1766SOL     OW 6196   4.165   4.871   4.367
 1766SOL    HW1 6197   4.224   4.790   4.367
 1766SOL    HW2 6198   4.175   4.920   4.454
 1767SOL     OW 6199   0.558   4.899   2.319
 1767SOL    HW1 6200   0.617   4.855   2.250
 1767SOL    HW2 6201   0.596   4.988   2.342
 1768SOL     OW 6202   5.069   6.549   2.230
 1768SOL    HW1 6203   4.972   6.536   2.213
 1768SOL    HW2 6204   5.088   6.646   2.244
 1769SOL     OW 6205   5.395   0.596   0.059
 1769SOL    HW1 6206   5.446   0.550   7.009
 1769SOL    HW2 6207   5.438   0.684   0.080
 1770SOL     OW 6208   2.364   4.947   6.460
 1770SOL    HW1 6209   2.308   5.014   6.508
 1770SOL    HW2 6210   2.344   4.856   6.496
 1771SOL     OW 6211   0.944   3.677   6.168
 1771SOL    HW1 6212   1.001   3.605   6.207
 1771SOL    HW2 6213   0.978   3.702   6.077
 1772SOL     OW 6214   2.327   4.472   3.956
 1772SOL    HW1 6215   2.245   4.519   3.921
 1772SOL    HW2 6216   2.404   4.489   3.894
 1773SOL     OW 6217   0.656   6.471   5.023
 1773SOL    HW1 6218   0.733   6.407   5.015
 1773SOL    HW2 6219   0.614   6.461   5.114
 1774SOL     OW 6220   5.789   4.892   1.359
 1774SOL    HW1 6221   5.817   4.931   1.271
 1774SOL    HW2 6222   5.689   4.889   1.364
 1775SOL     OW 6223   2.164   5.651   6.235
 1775SOL    HW1 6224   2.211   5.575   6.279
 1775SOL    HW2 6225   2.225   5.730   6.229
 1776SOL     OW 6226   4.665   1.151   6.234
 1776SOL    HW1 6227   4.577   1.194   6.253
 1776SOL    HW2 6228   4.723   1.215   6.184
 1777SOL     OW 6229   4.747   6.742   6.793
 1777SOL    HW1 6230   4.674   6.674   6.787
 1777SOL    HW2 6231   4.767   6.777   6.702
 1778SOL     OW 6232   5.850   0.148   4.059
 1778SOL    HW1 6233   5.831   0.245   4.071
 1778SOL    HW2 6234   5.764   0.096   4.068
 1779SOL     OW 6235   5.375   5.991   3.801
 1779SOL    HW1 6236   5.444   6.034   3.743
 1779SOL    HW2 6237   5.419   5.946   3.878
 1780SOL     OW 6238   2.313   5.497   5.130
 1780SOL    HW1 6239   2.366   5.541   5.202
 1780SOL    HW2 6240   2.363   5.503   5.044
 1781SOL     OW 6241   4.448   0.737   3.932
 1781SOL    HW1 6242   4.533   0.685   3.935
 1781SOL    HW2 6243   4.423   0.764   4.025
 1782SOL     OW 6244   1.685   1.574   2.384
 1782SOL    HW1 6245   1.756   1.505   2.398
 1782SOL    HW2 6246   1.728   1.659   2.354
 1783SOL     OW 6247   2.104   4.381   6.595
 1783SOL    HW1 6248   2.068   4.381   6.502
 1783SOL    HW2 6249   2.196   4.419   6.595
 1784SOL     OW 6250   2.442   0.067   0.888
 1784SOL    HW1 6251   2.436   0.121   0.804
 1784SOL    HW2 6252   2.497   7.007   0.871
 1785SOL     OW 6253   1.033   6.531   4.187
 1785SOL    HW1 6254   0.974   6.510   4.109
 1785SOL    HW2 6255   1.064   6.626   4.180
 1786SOL     OW 6256   0.762   6.039   0.548
 1786SOL    HW1 6257   0.848   6.090   0.550
 1786SOL    HW2 6258   0.709   6.061   0.630
 1787SOL     OW 6259   2.156   3.903   6.185
 1787SOL    HW1 6260   2.151   3.961   6.266
 1787SOL    HW2 6261   2.170   3.961   6.104
 1788SOL     OW 6262   4.608   3.730   0.891
 1788SOL    HW1 6263   4.633   3.639   0.925
 1788SOL    HW2 6264   4.628   3.736   0.793
 1789SOL     OW 6265   6.625   3.850   1.687
 1789SOL    HW1 6266   6.655   3.755   1.698
 1789SOL    HW2 6267   6.577   3.880   1.770
 1790SOL     OW 6268   2.662   2.351   4.595
 1790SOL    HW1 6269   2.684   2.435   4.645
 1790SOL    HW2 6270   2.743   2.291   4.593
 1791SOL     OW 6271   5.275   6.821   3.190
 1791SOL    HW1 6272   5.346   6.753   3.176
 1791SOL    HW2 6273   5.297   6.905   3.140
 1792SOL     OW 6274   6.959   1.357   5.418
 1792SOL    HW1 6275   6.863   1.340   5.437
 1792SOL    HW2 6276   7.015   1.295   5.473
 1793SOL     OW 6277   0.015   1.471   5.920
 1793SOL    HW1 6278   6.975   1.398   5.892
 1793SOL    HW2 6279   0.010   1.484   6.019
 1794SOL     OW 6280   0.800   6.888   6.060
 1794SOL    HW1 6281   0.754   6.901   6.147
 1794SOL    HW2 6282   0.899   6.899   6.072
 1795SOL     OW 6283   6.144   4.497   0.421
 1795SOL    HW1 6284   6.097   4.446   0.493
 1795SOL    HW2 6285   6.243   4.489   0.433
 1796SOL     OW 6286   1.059   0.064   6.377
 1796SOL    HW1 6287   0.966   0.093   6.401
 1796SOL    HW2 6288   1.055   7.018   6.304
 1797SOL     OW 6289   2.704   5.533   5.023
 1797SOL    HW1 6290   2.617   5.579   5.008
 1797SOL    HW2 6291   2.712   5.508   5.120
 1798SOL     OW 6292   3.029   3.703   4.382
 1798SOL    HW1 6293   2.958   3.693   4.313
 1798SOL    HW2 6294   3.076   3.615   4.394
 1799SOL     OW 6295   3.494   1.130   0.480
 1799SOL    HW1 6296   3.397   1.109   0.491
 1799SOL    HW2 6297   3.510   1.226   0.502
 1800SOL     OW 6298   5.571   3.677   4.520
 1800SOL    HW1 6299   5.475   3.656   4.502
 1800SOL    HW2 6300   5.626   3.594   4.508
 1801SOL     OW 6301   1.002   1.741   1.877
 1801SOL    HW1 6302   1.082   1.686   1.901
 1801SOL    HW2 6303   0.924   1.680   1.860
 1802SOL     OW 6304   6.642   4.927   3.407
 1802SOL    HW1 6305   6.685   4.987   3.475
 1802SOL    HW2 6306   6.543   4.945   3.405
 1803SOL     OW 6307   1.033   0.011   3.452
 1803SOL    HW1 6308   0.997   6.941   3.464
 1803SOL    HW2 6309   1.122   0.019   3.497
 1804SOL     OW 6310   2.105   3.301   5.790
 1804SOL    HW1 6311   2.201   3.302   5.818
 1804SOL    HW2 6312   2.059   3.222   5.830
 1805SOL     OW 6313   0.339   6.281   6.761
 1805SOL    HW1 6314   0.364   6.190   6.796
 1805SOL    HW2 6315   0.344   6.280   6.661
 1806SOL     OW 6316   7.016   1.875   2.114
 1806SOL    HW1 6317   6.987   1.898   2.207
 1806SOL    HW2 6318   0.093   1.873   2.109
 1807SOL     OW 6319   6.670   3.205   2.033
 1807SOL    HW1 6320   6.633   3.115   2.009
 1807SOL    HW2 6321   6.691   3.256   1.950
 1808SOL     OW 6322   5.157   2.141   6.029
 1808SOL    HW1 6323   5.139   2.230   6.071
 1808SOL    HW2 6324   5.206   2.083   6.094
 1809SOL     OW 6325   3.840   1.501   5.779
 1809SOL    HW1 6326   3.815   1.571   5.712
 1809SOL    HW2 6327   3.762   1.482   5.838
 1810SOL     OW 6328   0.313   0.336   4.373
 1810SOL    HW1 6329   0.308   0.349   4.274
 1810SOL    HW2 6330   0.334   0.424   4.416
 1811SOL     OW 6331   4.452   5.650   2.041
 1811SOL    HW1 6332   4.541   5.683   2.010
 1811SOL    HW2 6333   4.450   5.550   2.038
 1812SOL     OW 6334   4.353   6.679   5.090
 1812SOL    HW1 6335   4.308   6.761   5.056
 1812SOL    HW2 6336   4.446   6.701   5.118
 1813SOL     OW 6337   4.534   4.469   2.723
 1813SOL    HW1 6338   4.455   4.408   2.711
 1813SOL    HW2 6339   4.584   4.475   2.636
 1814SOL     OW 6340   0.201   6.346   0.536
 1814SOL    HW1 6341   0.252   6.308   0.459
 1814SOL    HW2 6342   0.231   6.440   0.552
 1815SOL     OW 6343   5.923   6.544   1.478
 1815SOL    HW1 6344   5.995   6.614   1.470
 1815SOL    HW2 6345   5.933   6.496   1.565
 1816SOL     OW 6346   4.680   5.065   6.059
 1816SOL    HW1 6347   4.729   5.151   6.052
 1816SOL    HW2 6348   4.697   5.023   6.148
 1817SOL     OW 6349   1.016   1.453   3.549
 1817SOL    HW1 6350   0.996   1.396   3.469
 1817SOL    HW2 6351   1.011   1.550   3.522
 1818SOL     OW 6352   1.812   6.781   1.162
 1818SOL    HW1 6353   1.825   6.865   1.213
 1818SOL    HW2 6354   1.862   6.786   1.075
 1819SOL     OW 6355   2.301   5.082   3.481
 1819SOL    HW1 6356   2.340   5.006   3.532
 1819SOL    HW2 6357   2.231   5.048   3.419
 1820SOL     OW 6358   4.067   0.283   4.238
 1820SOL    HW1 6359   4.011   0.212   4.195
 1820SOL    HW2 6360   4.013   0.330   4.307
 1821SOL     OW 6361   3.464   2.132   2.619
 1821SOL    HW1 6362   3.454   2.045   2.571
 1821SOL    HW2 6363   3.487   2.116   2.715
 1822SOL     OW 6364   7.003   2.698   2.089
 1822SOL    HW1 6365   6.903   2.700   2.086
 1822SOL    HW2 6366   0.014   2.787   2.118
 1823SOL     OW 6367   3.479   6.688   2.561
 1823SOL    HW1 6368   3.565   6.646   2.590
 1823SOL    HW2 6369   3.477   6.693   2.461
 1824SOL     OW 6370   3.868   2.881   1.312
 1824SOL    HW1 6371   3.819   2.907   1.396
 1824SOL    HW2 6372   3.806   2.887   1.234
 1825SOL     OW 6373   1.984   1.636   5.064
 1825SOL    HW1 6374   1.902   1.644   5.008
 1825SOL    HW2 6375   2.036   1.721   5.061
 1826SOL     OW 6376   3.656   2.183   1.616
 1826SOL    HW1 6377   3.665   2.234   1.701
 1826SOL    HW2 6378   3.648   2.247   1.540
 1827SOL     OW 6379   5.784   4.046   1.272
 1827SOL    HW1 6380   5.725   3.975   1.311
 1827SOL    HW2 6381   5.780   4.128   1.330
 1828SOL     OW 6382   1.608   3.349   5.103
 1828SOL    HW1 6383   1.694   3.400   5.098
 1828SOL    HW2 6384   1.589   3.326   5.198
 1829SOL     OW 6385   3.433   0.506   3.623
 1829SOL    HW1 6386   3.527   0.505   3.657
 1829SOL    HW2 6387   3.431   0.473   3.529
 1830SOL     OW 6388   4.753   6.681   4.926
 1830SOL    HW1 6389   4.750   6.604   4.862
 1830SOL    HW2 6390   4.765   6.767   4.875
 1831SOL     OW 6391   4.251   5.456   1.629
 1831SOL    HW1 6392   4.225   5.438   1.724
 1831SOL    HW2 6393   4.310   5.382   1.596
 1832SOL     OW 6394   2.627   3.291   0.218
 1832SOL    HW1 6395   2.594   3.329   0.131
 1832SOL    HW2 6396   2.549   3.280   0.280
 1833SOL     OW 6397   4.804   0.103   0.791
 1833SOL    HW1 6398   4.855   0.122   0.874
 1833SOL    HW2 6399   4.867   0.074   0.719
 1834SOL     OW 6400   2.365   2.431   6.199
 1834SOL    HW1 6401   2.284   2.457   6.252
 1834SOL    HW2 6402   2.339   2.369   6.126
 1835SOL     OW 6403   6.177   5.718   0.713
 1835SOL    HW1 6404   6.218   5.740   0.801
 1835SOL    HW2 6405   6.247   5.678   0.653
 1836SOL     OW 6406   5.324   2.058   1.657
 1836SOL    HW1 6407   5.264   1.978   1.658
 1836SOL    HW2 6408   5.274   2.137   1.621
 1837SOL     OW 6409   3.270   2.415   6.477
 1837SOL    HW1 6410   3.317   2.366   6.404
 1837SOL    HW2 6411   3.192   2.361   6.509
 1838SOL     OW 6412   6.422   0.908   0.329
 1838SOL    HW1 6413   6.393   0.987   0.383
 1838SOL    HW2 6414   6.405   0.924   0.232
 1839SOL     OW 6415   0.413   1.304   6.902
 1839SOL    HW1 6416   0.486   1.291   6.835
 1839SOL    HW2 6417   0.390   1.401   6.906
 1840SOL     OW 6418   4.863   6.596   3.192
 1840SOL    HW1 6419   4.864   6.565   3.287
 1840SOL    HW2 6420   4.796   6.670   3.182
 1841SOL     OW 6421   2.469   1.421   2.239
 1841SOL    HW1 6422   2.386   1.364   2.241
 1841SOL    HW2 6423   2.509   1.419   2.147
 1842SOL     OW 6424   1.467   5.213   0.039
 1842SOL    HW1 6425   1.521   5.273   7.003
 1842SOL    HW2 6426   1.527   5.167   0.105
 1843SOL     OW 6427   3.329   1.306   4.695
 1843SOL    HW1 6428   3.365   1.396   4.670
 1843SOL    HW2 6429   3.258   1.279   4.630
 1844SOL     OW 6430   5.600   2.003   6.914
 1844SOL    HW1 6431   5.540   1.937   6.958
 1844SOL    HW2 6432   5.615   2.081   6.976
 1845SOL     OW 6433   1.287   1.550   3.124
 1845SOL    HW1 6434   1.386   1.552   3.137
 1845SOL    HW2 6435   1.250   1.465   3.162
 1846SOL     OW 6436   4.350   1.440   2.054
 1846SOL    HW1 6437   4.271   1.486   2.095
 1846SOL    HW2 6438   4.434   1.479   2.093
 1847SOL     OW 6439   2.068   6.987   5.485
 1847SOL    HW1 6440   1.985   6.933   5.471
 1847SOL    HW2 6441   2.127   6.941   5.552
 1848SOL     OW 6442   2.780   5.758   4.358
 1848SOL    HW1 6443   2.873   5.721   4.355
 1848SOL    HW2 6444   2.784   5.858   4.359
 1849SOL     OW 6445   4.563   2.792   1.764
 1849SOL    HW1 6446   4.646   2.741   1.787
 1849SOL    HW2 6447   4.552   2.868   1.828
 1850SOL     OW 6448   5.066   1.400   1.164
 1850SOL    HW1 6449   5.027   1.439   1.248
 1850SOL    HW2 6450   5.048   1.461   1.087
 1851SOL     OW 6451   0.077   4.142   5.219
 1851SOL    HW1 6452   0.143   4.079   5.259
 1851SOL    HW2 6453   7.013   4.137   5.269
 1852SOL     OW 6454   1.028   6.392   2.487
 1852SOL    HW1 6455   1.051   6.418   2.393
 1852SOL    HW2 6456   1.064   6.301   2.506
 1853SOL     OW 6457   0.148   2.739   4.334
 1853SOL    HW1 6458   0.113   2.830   4.354
 1853SOL    HW2 6459   0.203   2.706   4.411
 1854SOL     OW 6460   0.156   0.037   3.585
 1854SOL    HW1 6461   0.081   6.994   3.576
 1854SOL    HW2 6462   0.121   0.129   3.569
 1855SOL     OW 6463   4.735   2.796   4.504
 1855SOL    HW1 6464   4.783   2.822   4.421
 1855SOL    HW2 6465   4.772   2.709   4.538
 1856SOL     OW 6466   3.824   2.436   6.673
 1856SOL    HW1 6467   3.924   2.441   6.675
 1856SOL    HW2 6468   3.794   2.429   6.578
 1857SOL     OW 6469   4.312   1.408   1.161
 1857SOL    HW1 6470   4.256   1.344   1.109
 1857SOL    HW2 6471   4.296   1.394   1.259
 1858SOL     OW 6472   4.151   2.239   4.239
 1858SOL    HW1 6473   4.197   2.296   4.307
 1858SOL    HW2 6474   4.201   2.244   4.152
 1859SOL     OW 6475   5.995   2.298   3.977
 1859SOL    HW1 6476   5.963   2.347   4.058
 1859SOL    HW2 6477   5.928   2.227   3.953
 1860SOL     OW 6478   1.114   1.445   4.716
 1860SOL    HW1 6479   1.085   1.456   4.621
 1860SOL    HW2 6480   1.036   1.419   4.772
 1861SOL     OW 6481   6.821   0.226   3.308
 1861SOL    HW1 6482   6.805   0.203   3.212
 1861SOL    HW2 6483   6.764   0.167   3.366
 1862SOL     OW 6484   2.584   5.810   6.404
 1862SOL    HW1 6485   2.663   5.805   6.343
 1862SOL    HW2 6486   2.546   5.718   6.417
 1863SOL     OW 6487   1.115   2.785   0.963
 1863SOL    HW1 6488   1.193   2.790   0.899
 1863SOL    HW2 6489   1.149   2.781   1.057
 1864SOL     OW 6490   3.971   5.558   2.944
 1864SOL    HW1 6491   3.888   5.610   2.965
 1864SOL    HW2 6492   3.966   5.469   2.988
 1865SOL     OW 6493   5.281   1.863   6.562
 1865SOL    HW1 6494   5.184   1.867   6.584
 1865SOL    HW2 6495   5.307   1.769   6.542
 1866SOL     OW 6496   0.523   4.877   3.641
 1866SOL    HW1 6497   0.517   4.837   3.733
 1866SOL    HW2 6498   0.460   4.829   3.580
 1867SOL     OW 6499   1.931   2.318   1.572
 1867SOL    HW1 6500   1.888   2.407   1.592
 1867SOL    HW2 6501   2.003   2.300   1.639
 1868SOL     OW 6502   5.736   4.426   5.687
 1868SOL    HW1 6503   5.718   4.522   5.708
 1868SOL    HW2 6504   5.830   4.403   5.714
 1869SOL     OW 6505   4.749   1.440   4.374
 1869SOL    HW1 6506   4.711   1.503   4.443
 1869SOL    HW2 6507   4.713   1.464   4.284
 1870SOL     OW 6508   0.206   5.850   4.377
 1870SOL    HW1 6509   0.255   5.920   4.429
 1870SOL    HW2 6510   0.124   5.891   4.336
 1871SOL     OW 6511   0.533   6.429   0.798
 1871SOL    HW1 6512   0.594   6.485   0.854
 1871SOL    HW2 6513   0.555   6.332   0.812
 1872SOL     OW 6514   2.496   2.582   1.239
 1872SOL    HW1 6515   2.558   2.593   1.317
 1872SOL    HW2 6516   2.541   2.614   1.156
 1873SOL     OW 6517   0.157   1.514   0.447
 1873SOL    HW1 6518   0.171   1.506   0.349
 1873SOL    HW2 6519   0.175   1.608   0.476
 1874SOL     OW 6520   0.598   6.395   0.165
 1874SOL    HW1 6521   0.532   6.460   0.202
 1874SOL    HW2 6522   0.550   6.325   0.112
 1875SOL     OW 6523   6.413   4.817   0.668
 1875SOL    HW1 6524   6.384   4.802   0.762
 1875SOL    HW2 6525   6.433   4.915   0.655
 1876SOL     OW 6526   0.085   6.184   6.835
 1876SOL    HW1 6527   0.137   6.266   6.810
 1876SOL    HW2 6528   0.003   6.211   6.885
 1877SOL     OW 6529   0.371   1.011   2.573
 1877SOL    HW1 6530   0.329   0.923   2.597
 1877SOL    HW2 6531   0.431   1.000   2.495
 1878SOL     OW 6532   6.424   4.102   3.510
 1878SOL    HW1 6533   6.522   4.082   3.510
 1878SOL    HW2 6534   6.394   4.122   3.603
 1879SOL     OW 6535   4.051   5.719   4.799
 1879SOL    HW1 6536   4.135   5.699   4.851
 1879SOL    HW2 6537   4.028   5.815   4.808
 1880SOL     OW 6538   0.605   1.622   4.070
 1880SOL    HW1 6539   0.679   1.657   4.127
 1880SOL    HW2 6540   0.536   1.694   4.058
 1881SOL     OW 6541   1.049   1.221   4.210
 1881SOL    HW1 6542   1.011   1.129   4.212
 1881SOL    HW2 6543   1.149   1.217   4.221
 1882SOL     OW 6544   1.604   5.564   6.574
 1882SOL    HW1 6545   1.522   5.618   6.594
 1882SOL    HW2 6546   1.667   5.618   6.519
 1883SOL     OW 6547   1.552   2.680   2.480
 1883SOL    HW1 6548   1.578   2.775   2.463
 1883SOL    HW2 6549   1.605   2.645   2.558
 1884SOL     OW 6550   3.074   0.789   0.270
 1884SOL    HW1 6551   3.020   0.735   0.205
 1884SOL    HW2 6552   3.122   0.862   0.220
 1885SOL     OW 6553   0.083   2.033   1.342
 1885SOL    HW1 6554   0.149   2.060   1.271
 1885SOL    HW2 6555   0.109   2.075   1.429
 1886SOL     OW 6556   3.112   3.202   6.278
 1886SOL    HW1 6557   3.121   3.103   6.267
 1886SOL    HW2 6558   3.054   3.222   6.357
 1887SOL     OW 6559   0.631   6.655   5.284
 1887SOL    HW1 6560   0.603   6.727   5.348
 1887SOL    HW2 6561   0.608   6.682   5.191
 1888SOL     OW 6562   2.548   2.211   5.880
 1888SOL    HW1 6563   2.460   2.202   5.926
 1888SOL    HW2 6564   2.556   2.303   5.840
 1889SOL     OW 6565   3.731   2.835   0.380
 1889SOL    HW1 6566   3.647   2.885   0.358
 1889SOL    HW2 6567   3.810   2.890   0.354
 1890SOL     OW 6568   6.416   5.012   6.511
 1890SOL    HW1 6569   6.454   4.959   6.586
 1890SOL    HW2 6570   6.485   5.076   6.476
 1891SOL     OW 6571   6.206   3.897   5.167
 1891SOL    HW1 6572   6.265   3.926   5.092
 1891SOL    HW2 6573   6.141   3.970   5.189
 1892SOL     OW 6574   3.981   5.788   1.449
 1892SOL    HW1 6575   3.937   5.797   1.360
 1892SOL    HW2 6576   3.913   5.799   1.522
 1893SOL     OW 6577   3.754   2.049   4.160
 1893SOL    HW1 6578   3.655   2.047   4.177
 1893SOL    HW2 6579   3.802   2.077   4.243
 1894SOL     OW 6580   3.993   4.109   0.937
 1894SOL    HW1 6581   4.084   4.133   0.903
 1894SOL    HW2 6582   3.998   4.023   0.988
 1895SOL     OW 6583   5.158   0.628   3.317
 1895SOL    HW1 6584   5.200   0.704   3.365
 1895SOL    HW2 6585   5.223   0.589   3.251
 1896SOL     OW 6586   6.707   1.159   5.891
 1896SOL    HW1 6587   6.697   1.248   5.936
 1896SOL    HW2 6588   6.640   1.095   5.929
 1897SOL     OW 6589   5.871   4.749   3.449
 1897SOL    HW1 6590   5.936   4.821   3.474
 1897SOL    HW2 6591   5.914   4.659   3.461
 1898SOL     OW 6592   6.044   4.905   6.919
 1898SOL    HW1 6593   6.042   4.931   6.822
 1898SOL    HW2 6594   5.978   4.832   6.935
 1899SOL     OW 6595   1.280   3.005   2.888
 1899SOL    HW1 6596   1.202   3.064   2.907
 1899SOL    HW2 6597   1.250   2.924   2.838
 1900SOL     OW 6598   2.492   5.723   6.822
 1900SOL    HW1 6599   2.394   5.700   6.826
 1900SOL    HW2 6600   2.505   5.806   6.768
 1901SOL     OW 6601   1.443   1.074   6.640
 1901SOL    HW1 6602   1.416   1.154   6.586
 1901SOL    HW2 6603   1.530   1.091   6.684
 1902SOL     OW 6604   0.881   3.199   4.752
 1902SOL    HW1 6605   0.860   3.209   4.850
 1902SOL    HW2 6606   0.980   3.205   4.739
 1903SOL     OW 6607   6.251   2.952   3.922
 1903SOL    HW1 6608   6.238   2.985   3.828
 1903SOL    HW2 6609   6.304   3.020   3.974
 1904SOL     OW 6610   6.326   6.794   3.724
 1904SOL    HW1 6611   6.287   6.882   3.698
 1904SOL    HW2 6612   6.400   6.807   3.790
 1905SOL     OW 6613   6.792   2.947   3.590
 1905SOL    HW1 6614   6.850   2.991   3.522
 1905SOL    HW2 6615   6.704   2.993   3.593
 1906SOL     OW 6616   2.277   0.142   0.320
 1906SOL    HW1 6617   2.337   0.165   0.244
 1906SOL    HW2 6618   2.232   0.225   0.353
 1907SOL     OW 6619   3.828   5.810   3.547
 1907SOL    HW1 6620   3.780   5.896   3.566
 1907SOL    HW2 6621   3.862   5.812   3.453
 1908SOL     OW 6622   4.573   1.457   6.406
 1908SOL    HW1 6623   4.507   1.394   6.364
 1908SOL    HW2 6624   4.526   1.515   6.473
 1909SOL     OW 6625   2.746   5.176   4.451
 1909SOL    HW1 6626   2.820   5.208   4.510
 1909SOL    HW2 6627   2.757   5.079   4.433
 1910SOL     OW 6628   5.192   1.732   5.638
 1910SOL    HW1 6629   5.179   1.795   5.714
 1910SOL    HW2 6630   5.272   1.675   5.655
 1911SOL     OW 6631   6.390   3.391   5.520
 1911SOL    HW1 6632   6.410   3.403   5.618
 1911SOL    HW2 6633   6.417   3.473   5.470
 1912SOL     OW 6634   3.682   0.204   3.255
 1912SOL    HW1 6635   3.590   0.221   3.219
 1912SOL    HW2 6636   3.748   0.203   3.180
 1913SOL     OW 6637   1.555   4.727   5.529
 1913SOL    HW1 6638   1.586   4.738   5.434
 1913SOL    HW2 6639   1.457   4.748   5.534
 1914SOL     OW 6640   3.912   2.042   5.905
 1914SOL    HW1 6641   3.899   2.117   5.840
 1914SOL    HW2 6642   3.823   2.003   5.929
 1915SOL     OW 6643   3.178   0.372   5.793
 1915SOL    HW1 6644   3.234   0.358   5.875
 1915SOL    HW2 6645   3.238   0.390   5.715
 1916SOL     OW 6646   3.521   6.227   1.756
 1916SOL    HW1 6647   3.491   6.265   1.843
 1916SOL    HW2 6648   3.612   6.187   1.766
 1917SOL     OW 6649   2.902   3.339   4.188
 1917SOL    HW1 6650   2.920   3.388   4.103
 1917SOL    HW2 6651   2.803   3.336   4.204
 1918SOL     OW 6652   5.429   6.806   4.332
 1918SOL    HW1 6653   5.480   6.874   4.385
 1918SOL    HW2 6654   5.463   6.805   4.238
 1919SOL     OW 6655   6.437   7.000   1.870
 1919SOL    HW1 6656   6.405   6.926   1.811
 1919SOL    HW2 6657   6.520   6.971   1.919
 1920SOL     OW 6658   6.638   6.171   4.356
 1920SOL    HW1 6659   6.661   6.255   4.405
 1920SOL    HW2 6660   6.584   6.111   4.416
 1921SOL     OW 6661   1.063   6.817   6.691
 1921SOL    HW1 6662   1.037   6.748   6.759
 1921SOL    HW2 6663   0.984   6.875   6.670
 1922SOL     OW 6664   3.817   4.306   0.766
 1922SOL    HW1 6665   3.860   4.319   0.856
 1922SOL    HW2 6666   3.865   4.233   0.717
 1923SOL     OW 6667   1.853   1.929   0.754
 1923SOL    HW1 6668   1.854   1.970   0.663
 1923SOL    HW2 6669   1.945   1.899   0.778
 1924SOL     OW 6670   0.379   4.646   1.507
 1924SOL    HW1 6671   0.281   4.662   1.513
 1924SOL    HW2 6672   0.427   4.733   1.505
 1925SOL     OW 6673   3.071   4.031   1.278
 1925SOL    HW1 6674   3.125   4.016   1.361
 1925SOL    HW2 6675   3.133   4.038   1.199
 1926SOL     OW 6676   1.188   6.875   4.058
 1926SOL    HW1 6677   1.150   6.934   3.987
 1926SOL    HW2 6678   1.280   6.846   4.032
 1927SOL     OW 6679   4.178   3.863   6.666
 1927SOL    HW1 6680   4.116   3.906   6.600
 1927SOL    HW2 6681   4.194   3.768   6.640
 1928SOL     OW 6682   6.260   4.313   5.725
 1928SOL    HW1 6683   6.313   4.299   5.641
 1928SOL    HW2 6684   6.251   4.225   5.773
 1929SOL     OW 6685   1.434   0.210   1.583
 1929SOL    HW1 6686   1.446   0.269   1.663
 1929SOL    HW2 6687   1.391   0.124   1.610
 1930SOL     OW 6688   5.829   3.929   5.917
 1930SOL    HW1 6689   5.833   3.840   5.960
 1930SOL    HW2 6690   5.876   3.926   5.828
 1931SOL     OW 6691   0.581   2.927   4.612
 1931SOL    HW1 6692   0.538   3.017   4.603
 1931SOL    HW2 6693   0.515   2.857   4.586
 1932SOL     OW 6694   5.889   3.769   1.452
 1932SOL    HW1 6695   5.819   3.821   1.403
 1932SOL    HW2 6696   5.948   3.832   1.502
 1933SOL     OW 6697   3.157   4.392   1.206
 1933SOL    HW1 6698   3.082   4.342   1.248
 1933SOL    HW2 6699   3.148   4.388   1.106
 1934SOL     OW 6700   0.952   6.238   5.672
 1934SOL    HW1 6701   0.969   6.173   5.746
 1934SOL    HW2 6702   0.868   6.289   5.691
 1935SOL     OW 6703   2.600   0.826   3.495
 1935SOL    HW1 6704   2.663   0.811   3.572
 1935SOL    HW2 6705   2.541   0.904   3.516
 1936SOL     OW 6706   6.018   5.550   5.545
 1936SOL    HW1 6707   6.102   5.580   5.592
 1936SOL    HW2 6708   5.971   5.482   5.601
 1937SOL     OW 6709   3.787   6.433   2.075
 1937SOL    HW1 6710   3.689   6.412   2.081
 1937SOL    HW2 6711   3.819   6.414   1.981
 1938SOL     OW 6712   4.582   0.994   3.826
 1938SOL    HW1 6713   4.667   0.951   3.857
 1938SOL    HW2 6714   4.504   0.941   3.858
 1939SOL     OW 6715   1.950   1.081   3.474
 1939SOL    HW1 6716   2.042   1.120   3.468
 1939SOL    HW2 6717   1.911   1.072   3.382
 1940SOL     OW 6718   0.024   5.182   0.203
 1940SOL    HW1 6719   0.115   5.212   0.232
 1940SOL    HW2 6720   0.028   5.148   0.110
 1941SOL     OW 6721   4.912   3.949   2.750
 1941SOL    HW1 6722   4.913   3.867   2.692
 1941SOL    HW2 6723   4.929   3.922   2.845
 1942SOL     OW 6724   6.207   4.959   2.536
 1942SOL    HW1 6725   6.290   4.934   2.585
 1942SOL    HW2 6726   6.222   5.047   2.489
 1943SOL     OW 6727   2.777   4.662   3.277
 1943SOL    HW1 6728   2.818   4.708   3.355
 1943SOL    HW2 6729   2.839   4.668   3.198
 1944SOL     OW 6730   6.694   1.202   0.980
 1944SOL    HW1 6731   6.750   1.125   1.010
 1944SOL    HW2 6732   6.752   1.275   0.944
 1945SOL     OW 6733   3.373   4.932   3.738
 1945SOL    HW1 6734   3.298   4.932   3.805
 1945SOL    HW2 6735   3.338   4.901   3.650
 1946SOL     OW 6736   1.273   0.556   6.749
 1946SOL    HW1 6737   1.207   0.612   6.800
 1946SOL    HW2 6738   1.248   0.555   6.653
 1947SOL     OW 6739   5.610   5.632   3.522
 1947SOL    HW1 6740   5.596   5.677   3.610
 1947SOL    HW2 6741   5.527   5.639   3.467
 1948SOL     OW 6742   6.720   5.344   4.418
 1948SOL    HW1 6743   6.706   5.324   4.515
 1948SOL    HW2 6744   6.709   5.443   4.402
 1949SOL     OW 6745   4.011   4.302   6.655
 1949SOL    HW1 6746   4.074   4.365   6.611
 1949SOL    HW2 6747   3.945   4.353   6.710
 1950SOL     OW 6748   3.462   3.932   6.375
 1950SOL    HW1 6749   3.457   3.907   6.471
 1950SOL    HW2 6750   3.420   3.860   6.320
 1951SOL     OW 6751   6.083   1.652   6.580
 1951SOL    HW1 6752   6.128   1.588   6.517
 1951SOL    HW2 6753   5.984   1.639   6.576
 1952SOL     OW 6754   3.745   2.164   0.070
 1952SOL    HW1 6755   3.733   2.212   7.005
 1952SOL    HW2 6756   3.775   2.070   0.051
 1953SOL     OW 6757   0.222   2.389   6.279
 1953SOL    HW1 6758   0.152   2.402   6.349
 1953SOL    HW2 6759   0.199   2.441   6.197
 1954SOL     OW 6760   3.361   1.966   4.087
 1954SOL    HW1 6761   3.264   1.987   4.073
 1954SOL    HW2 6762   3.416   2.018   4.022
 1955SOL     OW 6763   0.131   6.280   2.838
 1955SOL    HW1 6764   0.182   6.356   2.880
 1955SOL    HW2 6765   0.077   6.234   2.908
 1956SOL     OW 6766   6.209   5.721   2.285
 1956SOL    HW1 6767   6.243   5.695   2.376
 1956SOL    HW2 6768   6.147   5.651   2.251
 1957SOL     OW 6769   0.128   6.482   5.471
 1957SOL    HW1 6770   0.031   6.502   5.479
 1957SOL    HW2 6771   0.173   6.498   5.560
 1958SOL     OW 6772   5.492   3.265   5.768
 1958SOL    HW1 6773   5.409   3.223   5.730
 1958SOL    HW2 6774   5.504   3.235   5.863
 1959SOL     OW 6775   1.651   2.200   6.226
 1959SOL    HW1 6776   1.748   2.192   6.204
 1959SOL    HW2 6777   1.636   2.171   6.321
 1960SOL     OW 6778   5.762   5.387   0.701
 1960SOL    HW1 6779   5.741   5.366   0.606
 1960SOL    HW2 6780   5.681   5.369   0.757
 1961SOL     OW 6781   5.738   4.169   3.831
 1961SOL    HW1 6782   5.674   4.194   3.903
 1961SOL    HW2 6783   5.778   4.080   3.852
 1962SOL     OW 6784   1.377   6.206   3.543
 1962SOL    HW1 6785   1.441   6.255   3.602
 1962SOL    HW2 6786   1.427   6.141   3.485
 1963SOL     OW 6787   1.214   0.272   2.661
 1963SOL    HW1 6788   1.303   0.228   2.664
 1963SOL    HW2 6789   1.196   0.317   2.749
 1964SOL     OW 6790   4.936   3.082   2.848
 1964SOL    HW1 6791   4.961   3.172   2.812
 1964SOL    HW2 6792   4.892   3.092   2.937
 1965SOL     OW 6793   0.959   3.864   3.277
 1965SOL    HW1 6794   0.954   3.766   3.297
 1965SOL    HW2 6795   0.881   3.891   3.223
 1966SOL     OW 6796   6.710   5.325   5.441
 1966SOL    HW1 6797   6.635   5.258   5.438
 1966SOL    HW2 6798   6.797   5.278   5.424
 1967SOL     OW 6799   4.529   2.873   5.164
 1967SOL    HW1 6800   4.524   2.789   5.218
 1967SOL    HW2 6801   4.453   2.933   5.189
 1968SOL     OW 6802   2.923   6.119   6.914
 1968SOL    HW1 6803   2.867   6.056   6.860
 1968SOL    HW2 6804   2.936   6.082   7.006
 1969SOL     OW 6805   0.190   2.181   1.553
 1969SOL    HW1 6806   0.242   2.258   1.589
 1969SOL    HW2 6807   0.094   2.208   1.542
 1970SOL     OW 6808   1.697   0.330   4.453
 1970SOL    HW1 6809   1.608   0.374   4.457
 1970SOL    HW2 6810   1.731   0.333   4.359
 1971SOL     OW 6811   0.512   6.793   6.945
 1971SOL    HW1 6812   0.478   6.732   6.874
 1971SOL    HW2 6813   0.532   6.740   0.005
 1972SOL     OW 6814   0.839   4.489   4.057
 1972SOL    HW1 6815   0.918   4.497   4.118
 1972SOL    HW2 6816   0.761   4.536   4.099
 1973SOL     OW 6817   3.332   3.058   1.783
 1973SOL    HW1 6818   3.266   3.010   1.725
 1973SOL    HW2 6819   3.327   3.156   1.767
 1974SOL     OW 6820   5.625   0.709   3.747
 1974SOL    HW1 6821   5.701   0.770   3.727
 1974SOL    HW2 6822   5.614   0.701   3.847
 1975SOL     OW 6823   3.091   0.539   3.937
 1975SOL    HW1 6824   3.162   0.477   3.902
 1975SOL    HW2 6825   3.045   0.496   4.014
 1976SOL     OW 6826   0.181   5.928   0.284
 1976SOL    HW1 6827   0.154   5.966   0.373
 1976SOL    HW2 6828   0.278   5.904   0.286
 1977SOL     OW 6829   0.835   2.396   4.793
 1977SOL    HW1 6830   0.854   2.445   4.878
 1977SOL    HW2 6831   0.860   2.453   4.715
 1978SOL     OW 6832   6.386   2.022   4.712
 1978SOL    HW1 6833   6.327   2.093   4.675
 1978SOL    HW2 6834   6.332   1.940   4.731
 1979SOL     OW 6835   6.382   4.687   3.893
 1979SOL    HW1 6836   6.329   4.744   3.955
 1979SOL    HW2 6837   6.398   4.737   3.807
 1980SOL     OW 6838   3.708   0.254   1.781
 1980SOL    HW1 6839   3.735   0.161   1.754
 1980SOL    HW2 6840   3.631   0.284   1.725
 1981SOL     OW 6841   5.035   2.985   1.917
 1981SOL    HW1 6842   5.046   2.911   1.850
 1981SOL    HW2 6843   4.938   2.993   1.941
 1982SOL     OW 6844   5.596   5.374   4.769
 1982SOL    HW1 6845   5.593   5.277   4.790
 1982SOL    HW2 6846   5.611   5.386   4.671
 1983SOL     OW 6847   1.137   2.990   3.315
 1983SOL    HW1 6848   1.203   3.061   3.287
 1983SOL    HW2 6849   1.157   2.962   3.408
 1984SOL     OW 6850   4.085   1.809   5.961
 1984SOL    HW1 6851   4.002   1.863   5.957
 1984SOL    HW2 6852   4.063   1.716   5.992
 1985SOL     OW 6853   0.989   0.813   1.458
 1985SOL    HW1 6854   0.929   0.892   1.444
 1985SOL    HW2 6855   1.078   0.845   1.491
 1986SOL     OW 6856   1.699   2.056   0.068
 1986SOL    HW1 6857   1.689   1.957   0.056
 1986SOL    HW2 6858   1.711   2.100   7.001
 1987SOL     OW 6859   2.269   3.501   0.932
 1987SOL    HW1 6860   2.258   3.584   0.985
 1987SOL    HW2 6861   2.364   3.470   0.937
 1988SOL     OW 6862   4.852   3.612   7.011
 1988SOL    HW1 6863   4.754   3.597   6.999
 1988SOL    HW2 6864   4.903   3.537   6.968
 1989SOL     OW 6865   2.475   0.386   4.324
 1989SOL    HW1 6866   2.532   0.378   4.242
 1989SOL    HW2 6867   2.402   0.452   4.307
 1990SOL     OW 6868   2.843   0.883   0.893
 1990SOL    HW1 6869   2.796   0.922   0.972
 1990SOL    HW2 6870   2.921   0.828   0.924
 1991SOL     OW 6871   3.448   5.388   4.467
 1991SOL    HW1 6872   3.390   5.328   4.523
 1991SOL    HW2 6873   3.539   5.347   4.458
 1992SOL     OW 6874   2.406   6.701   5.436
 1992SOL    HW1 6875   2.366   6.681   5.347
 1992SOL    HW2 6876   2.340   6.751   5.492
 1993SOL     OW 6877   3.642   3.812   5.524
 1993SOL    HW1 6878   3.645   3.886   5.591
 1993SOL    HW2 6879   3.725   3.816   5.468
 1994SOL     OW 6880   6.639   1.906   2.177
 1994SOL    HW1 6881   6.578   1.963   2.123
 1994SOL    HW2 6882   6.724   1.956   2.196
 1995SOL     OW 6883   5.962   1.800   1.556
 1995SOL    HW1 6884   5.977   1.892   1.591
 1995SOL    HW2 6885   5.884   1.802   1.492
 1996SOL     OW 6886   3.482   4.254   0.080
 1996SOL    HW1 6887   3.390   4.269   0.115
 1996SOL    HW2 6888   3.494   4.157   0.058
 1997SOL     OW 6889   4.938   0.372   4.325
 1997SOL    HW1 6890   4.971   0.417   4.242
 1997SOL    HW2 6891   4.902   0.442   4.388
 1998SOL     OW 6892   2.518   4.068   6.419
 1998SOL    HW1 6893   2.529   4.165   6.396
 1998SOL    HW2 6894   2.565   4.013   6.350
 1999SOL     OW 6895   2.267   7.008   2.198
 1999SOL    HW1 6896   2.337   6.983   2.131
 1999SOL    HW2 6897   2.307   7.009   2.290
 2000SOL     OW 6898   4.015   0.899   4.972
 2000SOL    HW1 6899   4.049   0.944   5.055
 2000SOL    HW2 6900   3.925   0.860   4.990
 2001SOL     OW 6901   2.879   1.280   0.953
 2001SOL    HW1 6902   2.882   1.203   1.016
 2001SOL    HW2 6903   2.787   1.288   0.915
 2002SOL     OW 6904   2.147   5.651   5.702
 2002SOL    HW1 6905   2.191   5.721   5.758
 2002SOL    HW2 6906   2.216   5.608   5.643
 2003SOL     OW 6907   5.913   6.160   3.605
 2003SOL    HW1 6908   5.967   6.080   3.633
 2003SOL    HW2 6909   5.893   6.216   3.685
 2004SOL     OW 6910   3.105   1.065   5.777
 2004SOL    HW1 6911   3.070   1.113   5.858
 2004SOL    HW2 6912   3.204   1.054   5.785
 2005SOL     OW 6913   2.065   5.833   5.884
 2005SOL    HW1 6914   2.032   5.928   5.880
 2005SOL    HW2 6915   2.023   5.786   5.962
 2006SOL     OW 6916   4.329   4.975   4.572
 2006SOL    HW1 6917   4.379   4.893   4.544
 2006SOL    HW2 6918   4.382   5.057   4.547
 2007SOL     OW 6919   5.181   5.598   0.449
 2007SOL    HW1 6920   5.269   5.550   0.459
 2007SOL    HW2 6921   5.198   5.691   0.415
 2008SOL     OW 6922   6.844   6.217   3.136
 2008SOL    HW1 6923   6.846   6.235   3.234
 2008SOL    HW2 6924   6.882   6.126   3.117
 2009SOL     OW 6925   0.307   0.726   2.121
 2009SOL    HW1 6926   0.220   0.772   2.101
 2009SOL    HW2 6927   0.303   0.685   2.212
 2010SOL     OW 6928   0.606   0.328   0.816
 2010SOL    HW1 6929   0.668   0.405   0.803
 2010SOL    HW2 6930   0.613   0.266   0.738
 2011SOL     OW 6931   6.272   1.932   5.042
 2011SOL    HW1 6932   6.349   1.871   5.057
 2011SOL    HW2 6933   6.301   2.027   5.055
 2012SOL     OW 6934   1.287   4.307   0.856
 2012SOL    HW1 6935   1.264   4.328   0.951
 2012SOL    HW2 6936   1.366   4.363   0.828
 2013SOL     OW 6937   5.716   2.104   2.587
 2013SOL    HW1 6938   5.794   2.041   2.583
 2013SOL    HW2 6939   5.745   2.195   2.556
 2014SOL     OW 6940   1.519   5.599   3.908
 2014SOL    HW1 6941   1.584   5.655   3.858
 2014SOL    HW2 6942   1.430   5.601   3.862
 2015SOL     OW 6943   3.358   0.378   0.128
 2015SOL    HW1 6944   3.438   0.406   0.076
 2015SOL    HW2 6945   3.339   0.447   0.199
 2016SOL     OW 6946   0.847   5.537   4.280
 2016SOL    HW1 6947   0.919   5.472   4.303
 2016SOL    HW2 6948   0.773   5.530   4.347
 2017SOL     OW 6949   2.405   5.711   3.145
 2017SOL    HW1 6950   2.394   5.663   3.232
 2017SOL    HW2 6951   2.502   5.734   3.131
 2018SOL     OW 6952   0.369   5.703   6.091
 2018SOL    HW1 6953   0.431   5.747   6.155
 2018SOL    HW2 6954   0.280   5.689   6.135
 2019SOL     OW 6955   6.244   2.499   1.623
 2019SOL    HW1 6956   6.265   2.577   1.564
 2019SOL    HW2 6957   6.299   2.420   1.595
 2020SOL     OW 6958   2.106   4.750   3.610
 2020SOL    HW1 6959   2.137   4.691   3.536
 2020SOL    HW2 6960   2.167   4.739   3.689
 2021SOL     OW 6961   1.746   0.717   2.426
 2021SOL    HW1 6962   1.797   0.700   2.511
 2021SOL    HW2 6963   1.682   0.792   2.440
 2022SOL     OW 6964   2.210   3.566   1.683
 2022SOL    HW1 6965   2.248   3.651   1.720
 2022SOL    HW2 6966   2.227   3.491   1.747
 2023SOL     OW 6967   6.647   1.219   6.615
 2023SOL    HW1 6968   6.551   1.247   6.608
 2023SOL    HW2 6969   6.655   1.142   6.677
 2024SOL     OW 6970   5.960   0.666   3.680
 2024SOL    HW1 6971   6.026   0.632   3.612
 2024SOL    HW2 6972   6.001   0.661   3.771
 2025SOL     OW 6973   0.422   1.782   1.708
 2025SOL    HW1 6974   0.350   1.852   1.709
 2025SOL    HW2 6975   0.381   1.693   1.729
 2026SOL     OW 6976   2.571   1.976   5.433
 2026SOL    HW1 6977   2.539   1.995   5.526
 2026SOL    HW2 6978   2.666   2.007   5.424
 2027SOL     OW 6979   1.246   1.025   2.115
 2027SOL    HW1 6980   1.151   0.994   2.118
 2027SOL    HW2 6981   1.287   0.998   2.027
 2028SOL     OW 6982   3.623   2.198   0.325
 2028SOL    HW1 6983   3.533   2.156   0.316
 2028SOL    HW2 6984   3.669   2.199   0.236
 2029SOL     OW 6985   1.052   1.478   6.350
 2029SOL    HW1 6986   0.964   1.483   6.397
 2029SOL    HW2 6987   1.036   1.475   6.251
 2030SOL     OW 6988   1.910   1.949   3.532
 2030SOL    HW1 6989   1.824   1.908   3.502
 2030SOL    HW2 6990   1.981   1.879   3.536
 2031SOL     OW 6991   5.780   6.489   2.201
 2031SOL    HW1 6992   5.848   6.432   2.153
 2031SOL    HW2 6993   5.825   6.540   2.274
 2032SOL     OW 6994   4.844   6.254   0.279
 2032SOL    HW1 6995   4.860   6.206   0.193
 2032SOL    HW2 6996   4.932   6.281   0.319
 2033SOL     OW 6997   5.455   4.617   6.381
 2033SOL    HW1 6998   5.496   4.695   6.427
 2033SOL    HW2 6999   5.446   4.636   6.284
 2034SOL     OW 7000   2.511   6.501   2.786
 2034SOL    HW1 7001   2.558   6.581   2.751
 2034SOL    HW2 7002   2.424   6.528   2.827
 2035SOL     OW 7003   0.926   1.491   2.516
 2035SOL    HW1 7004   0.976   1.419   2.563
 2035SOL    HW2 7005   0.829   1.469   2.513
 2036SOL     OW 7006   0.355   5.353   1.018
 2036SOL    HW1 7007   0.297   5.312   1.088
 2036SOL    HW2 7008   0.303   5.363   0.933
 2037SOL     OW 7009   6.473   2.476   5.485
 2037SOL    HW1 7010   6.473   2.376   5.479
 2037SOL    HW2 7011   6.519   2.514   5.405
 2038SOL     OW 7012   0.461   1.486   4.556
 2038SOL    HW1 7013   0.477   1.484   4.457
 2038SOL    HW2 7014   0.495   1.572   4.594
 2039SOL     OW 7015   6.745   5.587   3.280
 2039SOL    HW1 7016   6.795   5.612   3.198
 2039SOL    HW2 7017   6.647   5.583   3.260
 2040SOL     OW 7018   3.642   3.037   4.560
 2040SOL    HW1 7019   3.682   3.107   4.501
 2040SOL    HW2 7020   3.636   2.950   4.511
 2041SOL     OW 7021   5.978   4.671   5.709
 2041SOL    HW1 7022   5.953   4.759   5.668
 2041SOL    HW2 7023   5.977   4.680   5.809
 2042SOL     OW 7024   5.086   4.942   0.507
 2042SOL    HW1 7025   5.060   4.871   0.441
 2042SOL    HW2 7026   5.185   4.956   0.503
 2043SOL     OW 7027   5.749   4.780   2.718
 2043SOL    HW1 7028   5.689   4.858   2.733
 2043SOL    HW2 7029   5.839   4.812   2.689
 2044SOL     OW 7030   5.954   0.121   1.713
 2044SOL    HW1 7031   5.868   0.157   1.677
 2044SOL    HW2 7032   6.030   0.154   1.657
 2045SOL     OW 7033   2.366   4.826   6.061
 2045SOL    HW1 7034   2.410   4.747   6.104
 2045SOL    HW2 7035   2.318   4.796   5.979
 2046SOL     OW 7036   6.425   0.727   4.201
 2046SOL    HW1 7037   6.403   0.759   4.109
 2046SOL    HW2 7038   6.416   0.803   4.265
 2047SOL     OW 7039   5.110   2.468   1.227
 2047SOL    HW1 7040   5.050   2.446   1.150
 2047SOL    HW2 7041   5.058   2.518   1.296
 2048SOL     OW 7042   4.154   0.267   6.918
 2048SOL    HW1 7043   4.251   0.260   6.893
 2048SOL    HW2 7044   4.145   0.327   6.998
 2049SOL     OW 7045   4.333   1.381   0.090
 2049SOL    HW1 7046   4.350   1.288   0.057
 2049SOL    HW2 7047   4.264   1.379   0.162
 2050SOL     OW 7048   6.169   2.569   3.950
 2050SOL    HW1 7049   6.259   2.610   3.942
 2050SOL    HW2 7050   6.177   2.475   3.981
 2051SOL     OW 7051   1.045   6.059   0.282
 2051SOL    HW1 7052   1.100   6.070   0.199
 2051SOL    HW2 7053   0.963   6.116   0.275
 2052SOL     OW 7054   1.015   2.981   6.557
 2052SOL    HW1 7055   1.005   3.070   6.603
 2052SOL    HW2 7056   0.933   2.926   6.573
 2053SOL     OW 7057   6.262   0.912   6.768
 2053SOL    HW1 7058   6.179   0.968   6.772
 2053SOL    HW2 7059   6.239   0.821   6.733
 2054SOL     OW 7060   5.911   2.485   0.748
 2054SOL    HW1 7061   5.980   2.441   0.691
 2054SOL    HW2 7062   5.914   2.446   0.840
 2055SOL     OW 7063   5.387   2.278   3.440
 2055SOL    HW1 7064   5.379   2.339   3.519
 2055SOL    HW2 7065   5.468   2.219   3.452
 2056SOL     OW 7066   2.212   0.864   3.332
 2056SOL    HW1 7067   2.276   0.829   3.264
 2056SOL    HW2 7068   2.150   0.929   3.289
 2057SOL     OW 7069   5.959   2.719   4.047
 2057SOL    HW1 7070   6.036   2.669   4.007
 2057SOL    HW2 7071   5.951   2.695   4.144
 2058SOL     OW 7072   0.421   1.955   2.895
 2058SOL    HW1 7073   0.458   2.038   2.852
 2058SOL    HW2 7074   0.456   1.947   2.988
 2059SOL     OW 7075   2.243   1.255   6.591
 2059SOL    HW1 7076   2.258   1.279   6.688
 2059SOL    HW2 7077   2.151   1.283   6.564
 2060SOL     OW 7078   0.045   4.744   1.792
 2060SOL    HW1 7079   0.069   4.654   1.755
 2060SOL    HW2 7080   0.016   4.734   1.887
 2061SOL     OW 7081   0.075   1.364   2.476
 2061SOL    HW1 7082   0.100   1.433   2.409
 2061SOL    HW2 7083   0.149   1.297   2.485
 2062SOL     OW 7084   4.510   6.966   2.149
 2062SOL    HW1 7085   4.489   6.897   2.218
 2062SOL    HW2 7086   4.474   0.032   2.177
 2063SOL     OW 7087   1.924   2.744   6.027
 2063SOL    HW1 7088   1.948   2.825   6.081
 2063SOL    HW2 7089   1.880   2.677   6.086
 2064SOL     OW 7090   0.840   2.038   5.612
 2064SOL    HW1 7091   0.776   2.103   5.571
 2064SOL    HW2 7092   0.870   2.072   5.701
 2065SOL     OW 7093   6.181   3.451   2.662
 2065SOL    HW1 7094   6.133   3.527   2.618
 2065SOL    HW2 7095   6.177   3.370   2.602
 2066SOL     OW 7096   0.331   6.952   5.006
 2066SOL    HW1 7097   0.370   6.918   4.921
 2066SOL    HW2 7098   0.278   0.012   4.988
 2067SOL     OW 7099   6.396   6.649   0.736
 2067SOL    HW1 7100   6.378   6.741   0.702
 2067SOL    HW2 7101   6.456   6.601   0.673
 2068SOL     OW 7102   2.122   1.483   5.266
 2068SOL    HW1 7103   2.066   1.548   5.215
 2068SOL    HW2 7104   2.067   1.440   5.337
 2069SOL     OW 7105   0.868   2.696   2.359
 2069SOL    HW1 7106   0.805   2.648   2.297
 2069SOL    HW2 7107   0.954   2.713   2.312
 2070SOL     OW 7108   1.563   0.512   2.430
 2070SOL    HW1 7109   1.517   0.533   2.516
 2070SOL    HW2 7110   1.628   0.585   2.408
 2071SOL     OW 7111   0.376   6.880   4.317
 2071SOL    HW1 7112   0.393   6.782   4.307
 2071SOL    HW2 7113   0.302   6.908   4.256
 2072SOL     OW 7114   4.842   6.329   1.602
 2072SOL    HW1 7115   4.742   6.326   1.608
 2072SOL    HW2 7116   4.882   6.315   1.692
 2073SOL     OW 7117   3.639   6.599   4.998
 2073SOL    HW1 7118   3.688   6.517   4.969
 2073SOL    HW2 7119   3.680   6.636   5.081
 2074SOL     OW 7120   6.655   1.670   0.770
 2074SOL    HW1 7121   6.711   1.733   0.717
 2074SOL    HW2 7122   6.708   1.634   0.847
 2075SOL     OW 7123   4.089   3.101   0.906
 2075SOL    HW1 7124   4.060   3.133   0.997
 2075SOL    HW2 7125   4.132   3.176   0.856
 2076SOL     OW 7126   5.174   5.892   0.425
 2076SOL    HW1 7127   5.203   5.864   0.516
 2076SOL    HW2 7128   5.241   5.956   0.387
 2077SOL     OW 7129   5.570   1.758   2.492
 2077SOL    HW1 7130   5.575   1.748   2.591
 2077SOL    HW2 7131   5.500   1.825   2.468
 2078SOL     OW 7132   2.958   5.396   6.672
 2078SOL    HW1 7133   2.960   5.427   6.577
 2078SOL    HW2 7134   3.040   5.342   6.692
 2079SOL     OW 7135   5.828   0.925   3.749
 2079SOL    HW1 7136   5.867   1.008   3.707
 2079SOL    HW2 7137   5.870   0.844   3.708
 2080SOL     OW 7138   2.564   2.219   4.868
 2080SOL    HW1 7139   2.613   2.305   4.852
 2080SOL    HW2 7140   2.618   2.162   4.931
 2081SOL     OW 7141   1.285   6.470   5.378
 2081SOL    HW1 7142   1.353   6.458   5.306
 2081SOL    HW2 7143   1.272   6.384   5.427
 2082SOL     OW 7144   5.461   0.578   0.823
 2082SOL    HW1 7145   5.423   0.500   0.873
 2082SOL    HW2 7146   5.400   0.603   0.748
 2083SOL     OW 7147   3.732   5.289   6.605
 2083SOL    HW1 7148   3.736   5.333   6.515
 2083SOL    HW2 7149   3.664   5.336   6.662
 2084SOL     OW 7150   0.007   2.311   3.340
 2084SOL    HW1 7151   0.103   2.298   3.316
 2084SOL    HW2 7152   6.979   2.343   3.260
 2085SOL     OW 7153   4.835   1.073   6.446
 2085SOL    HW1 7154   4.857   1.169   6.465
 2085SOL    HW2 7155   4.799   1.065   6.353
 2086SOL     OW 7156   3.440   4.781   0.590
 2086SOL    HW1 7157   3.479   4.843   0.658
 2086SOL    HW2 7158   3.341   4.786   0.593
 2087SOL     OW 7159   5.560   6.568   2.734
 2087SOL    HW1 7160   5.513   6.505   2.672
 2087SOL    HW2 7161   5.658   6.550   2.733
 2088SOL     OW 7162   3.497   6.729   1.204
 2088SOL    HW1 7163   3.493   6.776   1.116
 2088SOL    HW2 7164   3.456   6.787   1.274
 2089SOL     OW 7165   4.596   1.660   0.179
 2089SOL    HW1 7166   4.599   1.560   0.174
 2089SOL    HW2 7167   4.635   1.689   0.267
 2090SOL     OW 7168   3.948   3.949   4.468
 2090SOL    HW1 7169   4.027   3.934   4.527
 2090SOL    HW2 7170   3.972   3.929   4.373
 2091SOL     OW 7171   0.389   5.853   0.944
 2091SOL    HW1 7172   0.455   5.819   0.877
 2091SOL    HW2 7173   0.307   5.885   0.896
 2092SOL     OW 7174   5.860   6.098   1.179
 2092SOL    HW1 7175   5.900   6.032   1.242
 2092SOL    HW2 7176   5.892   6.190   1.201
 2093SOL     OW 7177   1.131   2.730   2.260
 2093SOL    HW1 7178   1.230   2.729   2.252
 2093SOL    HW2 7179   1.090   2.695   2.176
 2094SOL     OW 7180   5.981   0.342   1.949
 2094SOL    HW1 7181   5.993   0.243   1.940
 2094SOL    HW2 7182   5.903   0.371   1.894
 2095SOL     OW 7183   5.474   6.153   4.145
 2095SOL    HW1 7184   5.554   6.188   4.194
 2095SOL    HW2 7185   5.452   6.215   4.069
 2096SOL     OW 7186   4.681   4.249   2.436
 2096SOL    HW1 7187   4.585   4.273   2.448
 2096SOL    HW2 7188   4.712   4.195   2.514
 2097SOL     OW 7189   0.929   2.477   0.017
 2097SOL    HW1 7190   0.923   2.379   7.021
 2097SOL    HW2 7191   0.854   2.504   0.077
 2098SOL     OW 7192   4.393   6.258   3.754
 2098SOL    HW1 7193   4.359   6.323   3.822
 2098SOL    HW2 7194   4.493   6.249   3.764
 2099SOL     OW 7195   2.773   1.126   4.613
 2099SOL    HW1 7196   2.856   1.071   4.600
 2099SOL    HW2 7197   2.800   1.221   4.631
 2100SOL     OW 7198   4.184   4.123   6.782
 2100SOL    HW1 7199   4.097   4.160   6.750
 2100SOL    HW2 7200   4.195   4.030   6.746
 2101SOL     OW 7201   0.452   0.640   3.016
 2101SOL    HW1 7202   0.513   0.632   3.095
 2101SOL    HW2 7203   0.357   0.643   3.048
 2102SOL     OW 7204   0.181   5.707   2.779
 2102SOL    HW1 7205   0.129   5.630   2.816
 2102SOL    HW2 7206   0.272   5.709   2.820
 2103SOL     OW 7207   3.596   3.427   6.781
 2103SOL    HW1 7208   3.599   3.494   6.856
 2103SOL    HW2 7209   3.506   3.384   6.779
 2104SOL     OW 7210   1.499   3.408   5.816
 2104SOL    HW1 7211   1.540   3.494   5.786
 2104SOL    HW2 7212   1.567   3.353   5.865
 2105SOL     OW 7213   5.457   5.340   2.565
 2105SOL    HW1 7214   5.434   5.342   2.468
 2105SOL    HW2 7215   5.391   5.283   2.613
 2106SOL     OW 7216   4.608   5.415   6.578
 2106SOL    HW1 7217   4.546   5.349   6.621
 2106SOL    HW2 7218   4.592   5.416   6.479
 2107SOL     OW 7219   3.797   4.472   5.690
 2107SOL    HW1 7220   3.859   4.395   5.674
 2107SOL    HW2 7221   3.705   4.437   5.707
 2108SOL     OW 7222   6.216   5.636   5.714
 2108SOL    HW1 7223   6.300   5.674   5.675
 2108SOL    HW2 7224   6.238   5.581   5.794
 2109SOL     OW 7225   5.389   6.062   3.043
 2109SOL    HW1 7226   5.371   6.155   3.010
 2109SOL    HW2 7227   5.379   5.997   2.968
 2110SOL     OW 7228   2.858   4.745   6.334
 2110SOL    HW1 7229   2.905   4.665   6.369
 2110SOL    HW2 7230   2.813   4.723   6.248
 2111SOL     OW 7231   0.745   2.583   6.535
 2111SOL    HW1 7232   0.666   2.523   6.525
 2111SOL    HW2 7233   0.790   2.565   6.623
 2112SOL     OW 7234   4.074   2.779   1.605
 2112SOL    HW1 7235   4.068   2.871   1.643
 2112SOL    HW2 7236   4.123   2.781   1.518
 2113SOL     OW 7237   1.866   0.442   2.734
 2113SOL    HW1 7238   1.929   0.368   2.712
 2113SOL    HW2 7239   1.779   0.404   2.764
 2114SOL     OW 7240   1.497   4.216   0.376
 2114SOL    HW1 7241   1.413   4.194   0.328
 2114SOL    HW2 7242   1.564   4.255   0.312
 2115SOL     OW 7243   2.489   4.401   3.001
 2115SOL    HW1 7244   2.500   4.306   2.972
 2115SOL    HW2 7245   2.494   4.461   2.921
 2116SOL     OW 7246   6.706   3.878   2.987
 2116SOL    HW1 7247   6.788   3.932   2.969
 2116SOL    HW2 7248   6.723   3.783   2.962
 2117SOL     OW 7249   0.058   4.482   1.667
 2117SOL    HW1 7250   0.146   4.450   1.704
 2117SOL    HW2 7251   7.021   4.403   1.651
 2118SOL     OW 7252   0.094   3.561   2.406
 2118SOL    HW1 7253   0.107   3.643   2.351
 2118SOL    HW2 7254   0.176   3.505   2.403
 2119SOL     OW 7255   1.987   5.744   1.114
 2119SOL    HW1 7256   1.977   5.825   1.172
 2119SOL    HW2 7257   1.969   5.769   1.019
 2120SOL     OW 7258   6.187   4.593   2.398
 2120SOL    HW1 7259   6.159   4.654   2.325
 2120SOL    HW2 7260   6.247   4.521   2.362
 2121SOL     OW 7261   0.532   5.777   5.341
 2121SOL    HW1 7262   0.533   5.679   5.321
 2121SOL    HW2 7263   0.475   5.794   5.422
 2122SOL     OW 7264   5.506   4.186   5.665
 2122SOL    HW1 7265   5.493   4.249   5.741
 2122SOL    HW2 7266   5.507   4.238   5.579
 2123SOL     OW 7267   6.828   4.689   2.834
 2123SOL    HW1 7268   6.744   4.743   2.834
 2123SOL    HW2 7269   6.891   4.724   2.765
 2124SOL     OW 7270   1.890   1.453   1.470
 2124SOL    HW1 7271   1.790   1.458   1.478
 2124SOL    HW2 7272   1.929   1.544   1.482
 2125SOL     OW 7273   1.946   1.027   0.209
 2125SOL    HW1 7274   1.884   0.948   0.210
 2125SOL    HW2 7275   1.991   1.035   0.298
 2126SOL     OW 7276   2.670   0.961   6.734
 2126SOL    HW1 7277   2.715   1.041   6.695
 2126SOL    HW2 7278   2.610   0.989   6.809
 2127SOL     OW 7279   5.909   2.973   4.330
 2127SOL    HW1 7280   5.816   2.970   4.367
 2127SOL    HW2 7281   5.917   2.906   4.256
 2128SOL     OW 7282   0.659   4.433   4.837
 2128SOL    HW1 7283   0.662   4.346   4.886
 2128SOL    HW2 7284   0.644   4.508   4.902
 2129SOL     OW 7285   4.760   2.897   5.652
 2129SOL    HW1 7286   4.680   2.874   5.708
 2129SOL    HW2 7287   4.736   2.970   5.588
 2130SOL     OW 7288   5.331   6.823   2.541
 2130SOL    HW1 7289   5.327   6.816   2.641
 2130SOL    HW2 7290   5.426   6.835   2.512
 2131SOL     OW 7291   6.954   0.953   0.621
 2131SOL    HW1 7292   6.999   0.886   0.563
 2131SOL    HW2 7293   6.951   0.919   0.715
 2132SOL     OW 7294   2.613   3.008   1.249
 2132SOL    HW1 7295   2.544   3.055   1.193
 2132SOL    HW2 7296   2.592   2.910   1.253
 2133SOL     OW 7297   2.845   2.496   6.023
 2133SOL    HW1 7298   2.756   2.466   6.058
 2133SOL    HW2 7299   2.896   2.541   6.096
 2134SOL     OW 7300   6.812   1.600   0.986
 2134SOL    HW1 7301   6.893   1.658   0.994
 2134SOL    HW2 7302   6.771   1.586   1.076
 2135SOL     OW 7303   1.201   4.106   4.497
 2135SOL    HW1 7304   1.182   4.040   4.425
 2135SOL    HW2 7305   1.300   4.122   4.503
 2136SOL     OW 7306   2.500   5.347   1.610
 2136SOL    HW1 7307   2.463   5.272   1.554
 2136SOL    HW2 7308   2.588   5.376   1.573
 2137SOL     OW 7309   3.191   5.951   5.239
 2137SOL    HW1 7310   3.163   6.004   5.159
 2137SOL    HW2 7311   3.290   5.936   5.236
 2138SOL     OW 7312   6.363   1.064   2.688
 2138SOL    HW1 7313   6.278   1.017   2.711
 2138SOL    HW2 7314   6.348   1.163   2.687
 2139SOL     OW 7315   3.247   0.977   5.287
 2139SOL    HW1 7316   3.160   0.987   5.334
 2139SOL    HW2 7317   3.237   0.913   5.211
 2140SOL     OW 7318   2.949   0.879   4.918
 2140SOL    HW1 7319   2.936   0.953   4.984
 2140SOL    HW2 7320   3.011   0.909   4.846
 2141SOL     OW 7321   6.327   4.339   2.357
 2141SOL    HW1 7322   6.385   4.401   2.410
 2141SOL    HW2 7323   6.301   4.262   2.414
 2142SOL     OW 7324   1.936   2.977   4.156
 2142SOL    HW1 7325   2.029   2.979   4.119
 2142SOL    HW2 7326   1.872   3.007   4.086
 2143SOL     OW 7327   2.658   5.717   1.063
 2143SOL    HW1 7328   2.684   5.622   1.082
 2143SOL    HW2 7329   2.740   5.772   1.050
 2144SOL     OW 7330   0.075   5.728   4.813
 2144SOL    HW1 7331   0.015   5.751   4.890
 2144SOL    HW2 7332   0.021   5.691   4.738
 2145SOL     OW 7333   3.891   6.583   4.422
 2145SOL    HW1 7334   3.808   6.562   4.474
 2145SOL    HW2 7335   3.876   6.560   4.326
 2146SOL     OW 7336   2.132   3.046   0.921
 2146SOL    HW1 7337   2.047   2.994   0.921
 2146SOL    HW2 7338   2.163   3.061   1.015
 2147SOL     OW 7339   6.582   1.786   5.500
 2147SOL    HW1 7340   6.492   1.768   5.541
 2147SOL    HW2 7341   6.569   1.828   5.410
 2148SOL     OW 7342   6.973   3.098   6.426
 2148SOL    HW1 7343   0.010   3.175   6.446
 2148SOL    HW2 7344   6.891   3.130   6.378
 2149SOL     OW 7345   0.719   0.747   0.644
 2149SOL    HW1 7346   0.662   0.777   0.568
 2149SOL    HW2 7347   0.806   0.796   0.641
 2150SOL     OW 7348   2.499   2.823   1.758
 2150SOL    HW1 7349   2.529   2.746   1.813
 2150SOL    HW2 7350   2.400   2.833   1.765
 2151SOL     OW 7351   0.988   6.731   0.216
 2151SOL    HW1 7352   0.969   6.643   0.260
 2151SOL    HW2 7353   0.914   6.753   0.153
 2152SOL     OW 7354   4.157   5.634   2.507
 2152SOL    HW1 7355   4.211   5.710   2.468
 2152SOL    HW2 7356   4.172   5.552   2.452
 2153SOL     OW 7357   4.275   0.806   2.657
 2153SOL    HW1 7358   4.276   0.706   2.668
 2153SOL    HW2 7359   4.349   0.846   2.709
 2154SOL     OW 7360   3.500   6.306   3.678
 2154SOL    HW1 7361   3.538   6.297   3.586
 2154SOL    HW2 7362   3.449   6.392   3.685
 2155SOL     OW 7363   4.062   6.713   1.007
 2155SOL    HW1 7364   3.974   6.737   1.049
 2155SOL    HW2 7365   4.136   6.733   1.070
 2156SOL     OW 7366   5.944   1.370   3.567
 2156SOL    HW1 7367   5.916   1.414   3.482
 2156SOL    HW2 7368   6.015   1.425   3.612
 2157SOL     OW 7369   4.374   5.025   3.681
 2157SOL    HW1 7370   4.294   4.973   3.709
 2157SOL    HW2 7371   4.347   5.095   3.615
 2158SOL     OW 7372   3.776   0.225   0.623
 2158SOL    HW1 7373   3.812   0.254   0.534
 2158SOL    HW2 7374   3.679   0.250   0.629
 2159SOL     OW 7375   1.287   0.620   5.747
 2159SOL    HW1 7376   1.330   0.680   5.816
 2159SOL    HW2 7377   1.256   0.536   5.792
 2160SOL     OW 7378   5.238   6.057   0.036
 2160SOL    HW1 7379   5.243   6.104   6.970
 2160SOL    HW2 7380   5.329   6.052   0.076
 2161SOL     OW 7381   0.971   3.877   2.070
 2161SOL    HW1 7382   1.048   3.904   2.012
 2161SOL    HW2 7383   0.992   3.898   2.165
 2162SOL     OW 7384   2.499   6.837   3.150
 2162SOL    HW1 7385   2.504   6.932   3.182
 2162SOL    HW2 7386   2.567   6.782   3.198
 2163SOL     OW 7387   1.434   3.480   0.242
 2163SOL    HW1 7388   1.482   3.525   0.166
 2163SOL    HW2 7389   1.458   3.525   0.328
 2164SOL     OW 7390   2.263   2.722   1.167
 2164SOL    HW1 7391   2.338   2.677   1.216
 2164SOL    HW2 7392   2.273   2.705   1.069
 2165SOL     OW 7393   0.281   1.984   3.483
 2165SOL    HW1 7394   0.190   2.024   3.496
 2165SOL    HW2 7395   0.272   1.895   3.437
 2166SOL     OW 7396   0.774   4.074   4.141
 2166SOL    HW1 7397   0.709   4.081   4.216
 2166SOL    HW2 7398   0.768   3.983   4.099
 2167SOL     OW 7399   1.808   2.810   4.313
 2167SOL    HW1 7400   1.888   2.785   4.367
 2167SOL    HW2 7401   1.829   2.891   4.258
 2168SOL     OW 7402   1.238   1.919   3.339
 2168SOL    HW1 7403   1.162   1.915   3.274
 2168SOL    HW2 7404   1.248   2.012   3.373
 2169SOL     OW 7405   0.301   0.594   1.443
 2169SOL    HW1 7406   0.367   0.569   1.514
 2169SOL    HW2 7407   0.236   0.519   1.431
 2170SOL     OW 7408   1.025   4.209   5.458
 2170SOL    HW1 7409   1.015   4.110   5.469
 2170SOL    HW2 7410   1.080   4.228   5.376
 2171SOL     OW 7411   0.189   5.394   1.478
 2171SOL    HW1 7412   0.280   5.428   1.504
 2171SOL    HW2 7413   0.198   5.329   1.403
 2172SOL     OW 7414   0.169   1.898   5.140
 2172SOL    HW1 7415   0.135   1.907   5.233
 2172SOL    HW2 7416   0.229   1.817   5.135
 2173SOL     OW 7417   5.792   0.394   5.434
 2173SOL    HW1 7418   5.706   0.433   5.400
 2173SOL    HW2 7419   5.844   0.355   5.358
 2174SOL     OW 7420   0.189   6.144   5.141
 2174SOL    HW1 7421   0.212   6.047   5.144
 2174SOL    HW2 7422   0.120   6.159   5.070
 2175SOL     OW 7423   2.541   2.965   5.535
 2175SOL    HW1 7424   2.606   3.029   5.495
 2175SOL    HW2 7425   2.494   2.915   5.463
 2176SOL     OW 7426   5.481   2.849   1.228
 2176SOL    HW1 7427   5.528   2.777   1.279
 2176SOL    HW2 7428   5.496   2.937   1.273
 2177SOL     OW 7429   6.977   0.918   3.116
 2177SOL    HW1 7430   6.980   0.836   3.174
 2177SOL    HW2 7431   0.012   0.989   3.156
 2178SOL     OW 7432   0.999   1.295   2.067
 2178SOL    HW1 7433   1.062   1.331   2.137
 2178SOL    HW2 7434   1.051   1.242   2.000
 2179SOL     OW 7435   2.382   4.447   6.613
 2179SOL    HW1 7436   2.477   4.446   6.580
 2179SOL    HW2 7437   2.349   4.542   6.614
 2180SOL     OW 7438   1.390   4.709   1.980
 2180SOL    HW1 7439   1.356   4.700   2.074
 2180SOL    HW2 7440   1.342   4.643   1.922
 2181SOL     OW 7441   5.139   4.567   4.665
 2181SOL    HW1 7442   5.161   4.662   4.688
 2181SOL    HW2 7443   5.169   4.507   4.738
 2182SOL     OW 7444   0.947   4.629   3.498
 2182SOL    HW1 7445   0.987   4.720   3.507
 2182SOL    HW2 7446   0.948   4.602   3.401
 2183SOL     OW 7447   3.624   3.708   6.865
 2183SOL    HW1 7448   3.549   3.707   6.932
 2183SOL    HW2 7449   3.704   3.751   6.906
 2184SOL     OW 7450   6.268   0.592   0.166
 2184SOL    HW1 7451   6.291   0.496   0.157
 2184SOL    HW2 7452   6.215   0.607   0.250
 2185SOL     OW 7453   0.805   1.508   6.751
 2185SOL    HW1 7454   0.895   1.466   6.764
 2185SOL    HW2 7455   0.815   1.596   6.705
 2186SOL     OW 7456   6.356   4.840   5.193
 2186SOL    HW1 7457   6.435   4.847   5.132
 2186SOL    HW2 7458   6.307   4.927   5.195
 2187SOL     OW 7459   0.562   5.351   2.975
 2187SOL    HW1 7460   0.607   5.355   2.885
 2187SOL    HW2 7461   0.465   5.331   2.962
 2188SOL     OW 7462   2.082   6.253   0.061
 2188SOL    HW1 7463   2.162   6.309   0.082
 2188SOL    HW2 7464   2.007   6.311   0.030
 2189SOL     OW 7465   2.138   1.299   1.964
 2189SOL    HW1 7466   2.188   1.377   1.926
 2189SOL    HW2 7467   2.040   1.311   1.948
 2190SOL     OW 7468   6.887   3.991   2.541
 2190SOL    HW1 7469   6.839   4.029   2.620
 2190SOL    HW2 7470   6.832   4.005   2.458
 2191SOL     OW 7471   2.034   1.150   5.425
 2191SOL    HW1 7472   2.128   1.152   5.393
 2191SOL    HW2 7473   1.975   1.107   5.356
 2192SOL     OW 7474   5.084   0.544   1.978
 2192SOL    HW1 7475   5.021   0.610   1.936
 2192SOL    HW2 7476   5.038   0.497   2.053
 2193SOL     OW 7477   6.192   6.761   6.311
 2193SOL    HW1 7478   6.216   6.833   6.377
 2193SOL    HW2 7479   6.156   6.803   6.228
 2194SOL     OW 7480   0.516   4.509   5.278
 2194SOL    HW1 7481   0.605   4.552   5.265
 2194SOL    HW2 7482   0.527   4.419   5.319
 2195SOL     OW 7483   0.528   5.391   6.414
 2195SOL    HW1 7484   0.468   5.311   6.408
 2195SOL    HW2 7485   0.538   5.431   6.323
 2196SOL     OW 7486   2.666   6.738   5.499
 2196SOL    HW1 7487   2.718   6.660   5.465
 2196SOL    HW2 7488   2.582   6.747   5.447
 2197SOL     OW 7489   2.919   3.053   6.005
 2197SOL    HW1 7490   2.837   3.109   6.020
 2197SOL    HW2 7491   2.997   3.095   6.051
 2198SOL     OW 7492   0.177   6.947   6.706
 2198SOL    HW1 7493   0.122   6.871   6.740
 2198SOL    HW2 7494   0.266   6.913   6.675
 2199SOL     OW 7495   4.833   6.640   4.292
 2199SOL    HW1 7496   4.897   6.679   4.225
 2199SOL    HW2 7497   4.843   6.688   4.379
 2200SOL     OW 7498   3.555   1.084   3.872
 2200SOL    HW1 7499   3.536   1.123   3.962
 2200SOL    HW2 7500   3.490   1.010   3.854
 2201SOL     OW 7501   6.533   2.763   3.302
 2201SOL    HW1 7502   6.480   2.691   3.257
 2201SOL    HW2 7503   6.494   2.781   3.392
 2202SOL     OW 7504   3.318   5.562   2.848
 2202SOL    HW1 7505   3.234   5.566   2.794
 2202SOL    HW2 7506   3.321   5.476   2.899
 2203SOL     OW 7507   2.413   4.115   1.078
 2203SOL    HW1 7508   2.500   4.163   1.064
 2203SOL    HW2 7509   2.426   4.041   1.144
 2204SOL     OW 7510   4.276   2.872   1.060
 2204SOL    HW1 7511   4.260   2.844   1.155
 2204SOL    HW2 7512   4.192   2.911   1.022
 2205SOL     OW 7513   1.507   6.667   0.845
 2205SOL    HW1 7514   1.413   6.645   0.821
 2205SOL    HW2 7515   1.558   6.688   0.762
 2206SOL     OW 7516   2.709   3.802   6.519
 2206SOL    HW1 7517   2.709   3.859   6.437
 2206SOL    HW2 7518   2.803   3.791   6.553
 2207SOL     OW 7519   3.929   5.581   0.534
 2207SOL    HW1 7520   4.012   5.571   0.479
 2207SOL    HW2 7521   3.954   5.594   0.630
 2208SOL     OW 7522   0.966   5.968   3.440
 2208SOL    HW1 7523   0.873   5.931   3.435
 2208SOL    HW2 7524   1.018   5.916   3.508
 2209SOL     OW 7525   2.813   5.367   4.799
 2209SOL    HW1 7526   2.805   5.388   4.896
 2209SOL    HW2 7527   2.796   5.450   4.746
 2210SOL     OW 7528   6.121   6.175   1.906
 2210SOL    HW1 7529   6.206   6.144   1.949
 2210SOL    HW2 7530   6.071   6.097   1.870
 2211SOL     OW 7531   6.380   0.376   0.792
 2211SOL    HW1 7532   6.363   0.469   0.826
 2211SOL    HW2 7533   6.413   0.381   0.698
 2212SOL     OW 7534   1.815   6.195   6.777
 2212SOL    HW1 7535   1.885   6.231   6.838
 2212SOL    HW2 7536   1.747   6.144   6.829
 2213SOL     OW 7537   4.510   2.552   4.454
 2213SOL    HW1 7538   4.542   2.633   4.502
 2213SOL    HW2 7539   4.529   2.471   4.509
 2214SOL     OW 7540   3.996   2.987   5.741
 2214SOL    HW1 7541   4.031   2.983   5.648
 2214SOL    HW2 7542   3.916   3.047   5.745
 2215SOL     OW 7543   5.386   1.585   6.504
 2215SOL    HW1 7544   5.412   1.608   6.598
 2215SOL    HW2 7545   5.466   1.547   6.457
 2216SOL     OW 7546   0.526   6.097   5.846
 2216SOL    HW1 7547   0.448   6.080   5.787
 2216SOL    HW2 7548   0.580   6.173   5.809
 2217SOL     OW 7549   4.796   0.499   3.602
 2217SOL    HW1 7550   4.760   0.540   3.518
 2217SOL    HW2 7551   4.772   0.402   3.603
 2218SOL     OW 7552   0.341   5.557   6.777
 2218SOL    HW1 7553   0.415   5.622   6.760
 2218SOL    HW2 7554   0.374   5.486   6.840
 2219SOL     OW 7555   5.876   1.718   1.090
 2219SOL    HW1 7556   5.787   1.688   1.054
 2219SOL    HW2 7557   5.906   1.799   1.041
 2220SOL     OW 7558   2.038   6.296   5.493
 2220SOL    HW1 7559   2.031   6.203   5.456
 2220SOL    HW2 7560   1.947   6.338   5.494
 2221SOL     OW 7561   6.399   1.706   4.722
 2221SOL    HW1 7562   6.492   1.716   4.686
 2221SOL    HW2 7563   6.370   1.611   4.713
 2222SOL     OW 7564   6.326   6.955   1.007
 2222SOL    HW1 7565   6.337   0.029   0.983
 2222SOL    HW2 7566   6.415   6.910   1.004
 2223SOL     OW 7567   6.690   0.761   5.907
 2223SOL    HW1 7568   6.668   0.837   5.969
 2223SOL    HW2 7569   6.613   0.746   5.845
 2224SOL     OW 7570   5.819   3.642   2.117
 2224SOL    HW1 7571   5.828   3.677   2.024
 2224SOL    HW2 7572   5.909   3.638   2.161
 2225SOL     OW 7573   6.982   6.574   3.645
 2225SOL    HW1 7574   6.966   6.616   3.556
 2225SOL    HW2 7575   6.959   6.639   3.718
 2226SOL     OW 7576   3.499   5.385   0.577
 2226SOL    HW1 7577   3.516   5.481   0.554
 2226SOL    HW2 7578   3.401   5.367   0.572
 2227SOL     OW 7579   4.435   2.644   1.296
 2227SOL    HW1 7580   4.361   2.603   1.349
 2227SOL    HW2 7581   4.470   2.724   1.345
 2228SOL     OW 7582   4.513   5.308   0.313
 2228SOL    HW1 7583   4.526   5.283   0.217
 2228SOL    HW2 7584   4.447   5.245   0.355
 2229SOL     OW 7585   3.472   3.513   4.768
 2229SOL    HW1 7586   3.501   3.609   4.764
 2229SOL    HW2 7587   3.461   3.477   4.675
 2230SOL     OW 7588   5.387   6.361   1.173
 2230SOL    HW1 7589   5.440   6.281   1.144
 2230SOL    HW2 7590   5.339   6.340   1.258
 2231SOL     OW 7591   0.690   1.467   6.315
 2231SOL    HW1 7592   0.684   1.368   6.327
 2231SOL    HW2 7593   0.635   1.495   6.236
 2232SOL     OW 7594   0.731   0.486   4.775
 2232SOL    HW1 7595   0.684   0.419   4.832
 2232SOL    HW2 7596   0.828   0.464   4.769
 2233SOL     OW 7597   3.302   3.302   0.652
 2233SOL    HW1 7598   3.244   3.364   0.706
 2233SOL    HW2 7599   3.385   3.281   0.703
 2234SOL     OW 7600   3.764   1.581   0.816
 2234SOL    HW1 7601   3.804   1.635   0.890
 2234SOL    HW2 7602   3.799   1.488   0.820
 2235SOL     OW 7603   2.687   0.495   2.233
 2235SOL    HW1 7604   2.650   0.588   2.231
 2235SOL    HW2 7605   2.709   0.466   2.140
 2236SOL     OW 7606   2.185   4.038   5.936
 2236SOL    HW1 7607   2.256   3.986   5.889
 2236SOL    HW2 7608   2.110   4.058   5.872
 2237SOL     OW 7609   6.018   5.323   4.522
 2237SOL    HW1 7610   5.982   5.251   4.581
 2237SOL    HW2 7611   6.083   5.284   4.456
 2238SOL     OW 7612   4.918   5.009   2.713
 2238SOL    HW1 7613   4.831   4.960   2.704
 2238SOL    HW2 7614   4.900   5.099   2.753
 2239SOL     OW 7615   3.994   5.299   4.102
 2239SOL    HW1 7616   3.966   5.257   4.188
 2239SOL    HW2 7617   4.059   5.239   4.056
 2240SOL     OW 7618   3.558   5.607   2.461
 2240SOL    HW1 7619   3.514   5.646   2.543
 2240SOL    HW2 7620   3.642   5.657   2.441
 2241SOL     OW 7621   6.695   6.972   1.993
 2241SOL    HW1 7622   6.698   0.032   2.049
 2241SOL    HW2 7623   6.788   6.947   1.965
 2242SOL     OW 7624   5.599   2.988   2.358
 2242SOL    HW1 7625   5.627   2.895   2.333
 2242SOL    HW2 7626   5.504   3.003   2.332
 2243SOL     OW 7627   2.566   6.295   6.967
 2243SOL    HW1 7628   2.603   6.380   7.005
 2243SOL    HW2 7629   2.543   6.233   0.019
 2244SOL     OW 7630   2.868   0.032   1.506
 2244SOL    HW1 7631   2.819   0.047   1.592
 2244SOL    HW2 7632   2.888   6.957   1.495
 2245SOL     OW 7633   0.342   1.314   0.790
 2245SOL    HW1 7634   0.301   1.389   0.841
 2245SOL    HW2 7635   0.315   1.227   0.831
 2246SOL     OW 7636   1.879   0.358   3.771
 2246SOL    HW1 7637   1.929   0.380   3.854
 2246SOL    HW2 7638   1.790   0.404   3.771
 2247SOL     OW 7639   3.079   3.555   2.530
 2247SOL    HW1 7640   2.992   3.535   2.485
 2247SOL    HW2 7641   3.152   3.560   2.462
 2248SOL     OW 7642   6.735   4.277   3.939
 2248SOL    HW1 7643   6.660   4.317   3.886
 2248SOL    HW2 7644   6.711   4.183   3.964
 2249SOL     OW 7645   3.589   6.624   3.892
 2249SOL    HW1 7646   3.655   6.697   3.875
 2249SOL    HW2 7647   3.513   6.633   3.829
 2250SOL     OW 7648   3.182   3.923   5.625
 2250SOL    HW1 7649   3.188   3.825   5.642
 2250SOL    HW2 7650   3.190   3.940   5.526
 2251SOL     OW 7651   5.200   6.935   5.869
 2251SOL    HW1 7652   5.140   6.956   5.946
 2251SOL    HW2 7653   5.282   6.992   5.874
 2252SOL     OW 7654   5.350   1.544   3.104
 2252SOL    HW1 7655   5.339   1.449   3.134
 2252SOL    HW2 7656   5.359   1.546   3.004
 2253SOL     OW 7657   0.630   3.117   0.327
 2253SOL    HW1 7658   0.605   3.209   0.298
 2253SOL    HW2 7659   0.701   3.122   0.397
 2254SOL     OW 7660   3.787   3.574   3.180
 2254SOL    HW1 7661   3.732   3.548   3.101
 2254SOL    HW2 7662   3.839   3.657   3.159
 2255SOL     OW 7663   2.720   3.702   5.801
 2255SOL    HW1 7664   2.696   3.633   5.733
 2255SOL    HW2 7665   2.797   3.756   5.767
 2256SOL     OW 7666   4.349   6.275   2.001
 2256SOL    HW1 7667   4.272   6.328   1.964
 2256SOL    HW2 7668   4.406   6.242   1.925
 2257SOL     OW 7669   0.519   1.441   4.271
 2257SOL    HW1 7670   0.554   1.505   4.202
 2257SOL    HW2 7671   0.420   1.429   4.258
 2258SOL     OW 7672   2.162   6.332   3.928
 2258SOL    HW1 7673   2.133   6.250   3.978
 2258SOL    HW2 7674   2.195   6.401   3.993
 2259SOL     OW 7675   5.540   2.703   4.769
 2259SOL    HW1 7676   5.627   2.655   4.754
 2259SOL    HW2 7677   5.558   2.796   4.801
 2260SOL     OW 7678   1.124   3.479   1.113
 2260SOL    HW1 7679   1.174   3.393   1.108
 2260SOL    HW2 7680   1.165   3.538   1.182
 2261SOL     OW 7681   6.199   3.926   0.857
 2261SOL    HW1 7682   6.211   3.910   0.955
 2261SOL    HW2 7683   6.199   3.839   0.809
 2262SOL     OW 7684   6.287   0.668   3.052
 2262SOL    HW1 7685   6.226   0.621   2.989
 2262SOL    HW2 7686   6.237   0.741   3.099
 2263SOL     OW 7687   2.008   5.816   0.825
 2263SOL    HW1 7688   2.051   5.901   0.794
 2263SOL    HW2 7689   2.053   5.739   0.781
 2264SOL     OW 7690   2.492   6.691   6.848
 2264SOL    HW1 7691   2.576   6.650   6.815
 2264SOL    HW2 7692   2.456   6.754   6.779
 2265SOL     OW 7693   1.784   0.509   4.199
 2265SOL    HW1 7694   1.812   0.582   4.261
 2265SOL    HW2 7695   1.858   0.442   4.190
 2266SOL     OW 7696   4.799   1.482   6.246
 2266SOL    HW1 7697   4.717   1.459   6.299
 2266SOL    HW2 7698   4.786   1.452   6.151
 2267SOL     OW 7699   4.752   2.915   4.755
 2267SOL    HW1 7700   4.740   2.891   4.659
 2267SOL    HW2 7701   4.772   3.013   4.763
 2268SOL     OW 7702   6.008   3.626   6.402
 2268SOL    HW1 7703   6.007   3.725   6.386
 2268SOL    HW2 7704   6.022   3.608   6.500
 2269SOL     OW 7705   0.665   3.479   5.044
 2269SOL    HW1 7706   0.703   3.458   5.134
 2269SOL    HW2 7707   0.732   3.530   4.991
 2270SOL     OW 7708   4.098   3.519   6.189
 2270SOL    HW1 7709   4.008   3.479   6.203
 2270SOL    HW2 7710   4.109   3.597   6.251
 2271SOL     OW 7711   5.652   4.522   6.882
 2271SOL    HW1 7712   5.562   4.510   6.840
 2271SOL    HW2 7713   5.723   4.509   6.813
 2272SOL     OW 7714   6.853   1.708   6.521
 2272SOL    HW1 7715   6.776   1.667   6.570
 2272SOL    HW2 7716   6.823   1.737   6.430
 2273SOL     OW 7717   1.874   2.260   2.524
 2273SOL    HW1 7718   1.903   2.165   2.531
 2273SOL    HW2 7719   1.830   2.275   2.435
 2274SOL     OW 7720   0.753   1.796   6.669
 2274SOL    HW1 7721   0.807   1.821   6.749
 2274SOL    HW2 7722   0.681   1.864   6.655
 2275SOL     OW 7723   5.861   5.667   2.397
 2275SOL    HW1 7724   5.887   5.741   2.460
 2275SOL    HW2 7725   5.943   5.628   2.357
 2276SOL     OW 7726   1.416   6.103   1.539
 2276SOL    HW1 7727   1.316   6.105   1.528
 2276SOL    HW2 7728   1.450   6.195   1.554
 2277SOL     OW 7729   3.254   3.796   4.770
 2277SOL    HW1 7730   3.353   3.793   4.752
 2277SOL    HW2 7731   3.216   3.704   4.760
 2278SOL     OW 7732   6.400   2.720   3.964
 2278SOL    HW1 7733   6.484   2.756   4.005
 2278SOL    HW2 7734   6.334   2.794   3.951
 2279SOL     OW 7735   6.596   6.409   5.973
 2279SOL    HW1 7736   6.642   6.321   5.985
 2279SOL    HW2 7737   6.593   6.431   5.875
 2280SOL     OW 7738   6.380   0.821   4.930
 2280SOL    HW1 7739   6.469   0.837   4.888
 2280SOL    HW2 7740   6.348   0.729   4.905
 2281SOL     OW 7741   4.095   0.796   2.080
 2281SOL    HW1 7742   4.088   0.820   1.984
 2281SOL    HW2 7743   4.077   0.877   2.136
 2282SOL     OW 7744   4.974   6.416   5.768
 2282SOL    HW1 7745   4.906   6.358   5.723
 2282SOL    HW2 7746   5.047   6.438   5.703
 2283SOL     OW 7747   1.754   0.416   1.739
 2283SOL    HW1 7748   1.841   0.383   1.777
 2283SOL    HW2 7749   1.727   0.500   1.786
 2284SOL     OW 7750   0.823   3.624   5.791
 2284SOL    HW1 7751   0.765   3.646   5.713
 2284SOL    HW2 7752   0.867   3.536   5.776
 2285SOL     OW 7753   1.160   3.468   0.242
 2285SOL    HW1 7754   1.254   3.502   0.239
 2285SOL    HW2 7755   1.132   3.440   0.151
 2286SOL     OW 7756   5.453   6.955   3.578
 2286SOL    HW1 7757   5.405   6.868   3.566
 2286SOL    HW2 7758   5.395   7.018   3.629
 2287SOL     OW 7759   2.860   0.981   3.463
 2287SOL    HW1 7760   2.917   1.010   3.386
 2287SOL    HW2 7761   2.767   1.016   3.450
 2288SOL     OW 7762   0.403   5.482   3.930
 2288SOL    HW1 7763   0.369   5.389   3.917
 2288SOL    HW2 7764   0.484   5.480   3.989
 2289SOL     OW 7765   6.585   4.813   0.984
 2289SOL    HW1 7766   6.604   4.897   0.934
 2289SOL    HW2 7767   6.634   4.815   1.071
 2290SOL     OW 7768   0.844   4.280   1.120
 2290SOL    HW1 7769   0.748   4.257   1.102
 2290SOL    HW2 7770   0.868   4.252   1.213
 2291SOL     OW 7771   2.900   2.260   5.855
 2291SOL    HW1 7772   2.872   2.340   5.907
 2291SOL    HW2 7773   2.845   2.253   5.772
 2292SOL     OW 7774   1.482   1.121   4.825
 2292SOL    HW1 7775   1.420   1.198   4.810
 2292SOL    HW2 7776   1.576   1.154   4.832
 2293SOL     OW 7777   5.641   5.666   2.042
 2293SOL    HW1 7778   5.544   5.651   2.060
 2293SOL    HW2 7779   5.679   5.727   2.110
 2294SOL     OW 7780   3.469   6.727   0.630
 2294SOL    HW1 7781   3.422   6.639   0.625
 2294SOL    HW2 7782   3.551   6.725   0.573
 2295SOL     OW 7783   0.553   1.882   2.607
 2295SOL    HW1 7784   0.502   1.929   2.679
 2295SOL    HW2 7785   0.534   1.784   2.612
 2296SOL     OW 7786   3.187   6.758   0.815
 2296SOL    HW1 7787   3.117   6.809   0.866
 2296SOL    HW2 7788   3.278   6.780   0.853
 2297SOL     OW 7789   3.982   4.298   5.585
 2297SOL    HW1 7790   4.065   4.262   5.626
 2297SOL    HW2 7791   3.957   4.242   5.506
 2298SOL     OW 7792   3.225   2.452   1.212
 2298SOL    HW1 7793   3.275   2.438   1.297
 2298SOL    HW2 7794   3.209   2.550   1.199
 2299SOL     OW 7795   5.365   0.278   6.686
 2299SOL    HW1 7796   5.273   0.311   6.667
 2299SOL    HW2 7797   5.422   0.353   6.720
 2300SOL     OW 7798   1.691   5.195   1.747
 2300SOL    HW1 7799   1.662   5.261   1.817
 2300SOL    HW2 7800   1.786   5.168   1.765
 2301SOL     OW 7801   3.008   3.701   3.049
 2301SOL    HW1 7802   2.957   3.615   3.052
 2301SOL    HW2 7803   3.000   3.742   2.958
 2302SOL     OW 7804   3.778   6.797   2.421
 2302SOL    HW1 7805   3.856   6.771   2.365
 2302SOL    HW2 7806   3.765   6.896   2.416
 2303SOL     OW 7807   1.609   3.650   5.390
 2303SOL    HW1 7808   1.527   3.615   5.346
 2303SOL    HW2 7809   1.653   3.575   5.441
 2304SOL     OW 7810   2.702   0.375   3.562
 2304SOL    HW1 7811   2.616   0.420   3.541
 2304SOL    HW2 7812   2.755   0.431   3.626
 2305SOL     OW 7813   3.786   5.994   3.264
 2305SOL    HW1 7814   3.763   5.897   3.262
 2305SOL    HW2 7815   3.845   6.012   3.342
 2306SOL     OW 7816   2.334   5.548   1.704
 2306SOL    HW1 7817   2.390   5.476   1.665
 2306SOL    HW2 7818   2.392   5.625   1.731
 2307SOL     OW 7819   1.967   4.102   2.639
 2307SOL    HW1 7820   1.956   4.156   2.723
 2307SOL    HW2 7821   1.988   4.164   2.563
 2308SOL     OW 7822   1.337   0.132   6.579
 2308SOL    HW1 7823   1.419   0.159   6.529
 2308SOL    HW2 7824   1.341   0.169   6.671
 2309SOL     OW 7825   2.667   6.518   0.037
 2309SOL    HW1 7826   2.729   6.531   6.982
 2309SOL    HW2 7827   2.674   6.597   0.098
 2310SOL     OW 7828   6.348   6.712   1.137
 2310SOL    HW1 7829   6.371   6.641   1.071
 2310SOL    HW2 7830   6.354   6.802   1.092
 2311SOL     OW 7831   2.383   0.041   2.460
 2311SOL    HW1 7832   2.474   0.006   2.483
 2311SOL    HW2 7833   2.338   0.072   2.543
 2312SOL     OW 7834   3.122   6.735   3.390
 2312SOL    HW1 7835   3.052   6.694   3.447
 2312SOL    HW2 7836   3.122   6.691   3.300
 2313SOL     OW 7837   4.612   5.121   2.022
 2313SOL    HW1 7838   4.605   5.113   2.122
 2313SOL    HW2 7839   4.692   5.069   1.991
 2314SOL     OW 7840   5.711   0.835   3.105
 2314SOL    HW1 7841   5.632   0.852   3.165
 2314SOL    HW2 7842   5.725   0.913   3.045
 2315SOL     OW 7843   5.024   3.267   5.443
 2315SOL    HW1 7844   4.990   3.276   5.537
 2315SOL    HW2 7845   5.002   3.350   5.392
 2316SOL     OW 7846   2.592   1.594   5.150
 2316SOL    HW1 7847   2.519   1.535   5.114
 2316SOL    HW2 7848   2.617   1.563   5.242
 2317SOL     OW 7849   6.243   6.389   3.922
 2317SOL    HW1 7850   6.325   6.416   3.972
 2317SOL    HW2 7851   6.178   6.465   3.920
 2318SOL     OW 7852   2.045   3.428   4.273
 2318SOL    HW1 7853   2.101   3.352   4.241
 2318SOL    HW2 7854   2.066   3.448   4.369
 2319SOL     OW 7855   3.356   5.297   4.995
 2319SOL    HW1 7856   3.343   5.328   5.090
 2319SOL    HW2 7857   3.450   5.267   4.983
 2320SOL     OW 7858   0.968   2.152   5.329
 2320SOL    HW1 7859   0.984   2.064   5.284
 2320SOL    HW2 7860   0.870   2.165   5.344
 2321SOL     OW 7861   2.343   5.871   6.274
 2321SOL    HW1 7862   2.387   5.872   6.184
 2321SOL    HW2 7863   2.413   5.870   6.345
 2322SOL     OW 7864   1.938   4.374   2.044
 2322SOL    HW1 7865   1.978   4.459   2.010
 2322SOL    HW2 7866   1.842   4.369   2.015
 2323SOL     OW 7867   3.341   4.706   1.710
 2323SOL    HW1 7868   3.430   4.671   1.737
 2323SOL    HW2 7869   3.277   4.630   1.698
 2324SOL     OW 7870   6.666   5.831   0.949
 2324SOL    HW1 7871   6.719   5.800   0.870
 2324SOL    HW2 7872   6.668   5.931   0.953
 2325SOL     OW 7873   0.102   4.741   1.305
 2325SOL    HW1 7874   0.012   4.784   1.311
 2325SOL    HW2 7875   0.093   4.642   1.311
 2326SOL     OW 7876   1.319   6.130   6.096
 2326SOL    HW1 7877   1.371   6.161   6.016
 2326SOL    HW2 7878   1.381   6.096   6.166
 2327SOL     OW 7879   0.354   1.086   3.529
 2327SOL    HW1 7880   0.263   1.070   3.491
 2327SOL    HW2 7881   0.418   1.107   3.455
 2328SOL     OW 7882   1.754   2.097   3.032
 2328SOL    HW1 7883   1.773   2.163   3.105
 2328SOL    HW2 7884   1.661   2.060   3.044
 2329SOL     OW 7885   0.918   4.648   4.824
 2329SOL    HW1 7886   0.848   4.608   4.883
 2329SOL    HW2 7887   0.876   4.712   4.760
 2330SOL     OW 7888   0.470   2.793   0.441
 2330SOL    HW1 7889   0.408   2.815   0.517
 2330SOL    HW2 7890   0.437   2.837   0.358
 2331SOL     OW 7891   3.426   5.453   0.161
 2331SOL    HW1 7892   3.351   5.440   0.225
 2331SOL    HW2 7893   3.451   5.366   0.120
 2332SOL     OW 7894   0.112   0.111   5.769
 2332SOL    HW1 7895   0.035   0.170   5.794
 2332SOL    HW2 7896   0.163   0.085   5.851
 2333SOL     OW 7897   0.107   4.988   2.858
 2333SOL    HW1 7898   0.071   4.909   2.907
 2333SOL    HW2 7899   0.207   4.990   2.867
 2334SOL     OW 7900   1.567   1.113   7.001
 2334SOL    HW1 7901   1.574   1.144   6.907
 2334SOL    HW2 7902   1.638   1.157   0.034
 2335SOL     OW 7903   5.631   0.174   3.824
 2335SOL    HW1 7904   5.598   0.178   3.918
 2335SOL    HW2 7905   5.605   0.258   3.776
 2336SOL     OW 7906   3.242   1.175   4.284
 2336SOL    HW1 7907   3.184   1.181   4.365
 2336SOL    HW2 7908   3.257   1.267   4.247
 2337SOL     OW 7909   4.004   0.545   1.813
 2337SOL    HW1 7910   3.943   0.624   1.824
 2337SOL    HW2 7911   4.019   0.503   1.903
 2338SOL     OW 7912   0.726   3.350   4.185
 2338SOL    HW1 7913   0.714   3.403   4.269
 2338SOL    HW2 7914   0.824   3.342   4.164
 2339SOL     OW 7915   3.304   4.108   3.432
 2339SOL    HW1 7916   3.402   4.119   3.448
 2339SOL    HW2 7917   3.285   4.120   3.335
 2340SOL     OW 7918   0.538   4.391   6.951
 2340SOL    HW1 7919   0.492   4.309   6.916
 2340SOL    HW2 7920   0.618   4.412   6.894
 2341SOL     OW 7921   2.884   4.819   2.046
 2341SOL    HW1 7922   2.827   4.741   2.021
 2341SOL    HW2 7923   2.913   4.867   1.963
 2342SOL     OW 7924   1.881   0.115   4.802
 2342SOL    HW1 7925   1.885   0.125   4.703
 2342SOL    HW2 7926   1.957   0.058   4.833
 2343SOL     OW 7927   1.761   5.384   2.711
 2343SOL    HW1 7928   1.804   5.402   2.799
 2343SOL    HW2 7929   1.716   5.467   2.678
 2344SOL     OW 7930   0.380   6.022   6.829
 2344SOL    HW1 7931   0.310   5.965   6.871
 2344SOL    HW2 7932   0.447   5.964   6.783
 2345SOL     OW 7933   2.367   5.737   4.728
 2345SOL    HW1 7934   2.310   5.696   4.658
 2345SOL    HW2 7935   2.400   5.826   4.697
 2346SOL     OW 7936   3.820   3.315   5.531
 2346SOL    HW1 7937   3.913   3.285   5.512
 2346SOL    HW2 7938   3.764   3.303   5.449
 2347SOL     OW 7939   2.355   2.203   1.409
 2347SOL    HW1 7940   2.342   2.247   1.498
 2347SOL    HW2 7941   2.452   2.196   1.389
 2348SOL     OW 7942   1.612   6.365   3.618
 2348SOL    HW1 7943   1.707   6.348   3.593
 2348SOL    HW2 7944   1.577   6.443   3.565
 2349SOL     OW 7945   0.847   4.729   6.027
 2349SOL    HW1 7946   0.777   4.798   6.010
 2349SOL    HW2 7947   0.894   4.707   5.941
 2350SOL     OW 7948   6.224   5.136   6.124
 2350SOL    HW1 7949   6.132   5.153   6.087
 2350SOL    HW2 7950   6.216   5.095   6.215
 2351SOL     OW 7951   3.298   4.927   4.207
 2351SOL    HW1 7952   3.380   4.958   4.255
 2351SOL    HW2 7953   3.216   4.958   4.255
 2352SOL     OW 7954   0.179   3.451   2.662
 2352SOL    HW1 7955   0.171   3.463   2.563
 2352SOL    HW2 7956   0.250   3.512   2.697
 2353SOL     OW 7957   3.501   5.048   4.360
 2353SOL    HW1 7958   3.579   5.100   4.323
 2353SOL    HW2 7959   3.533   4.988   4.433
 2354SOL     OW 7960   2.291   2.018   4.578
 2354SOL    HW1 7961   2.319   2.035   4.484
 2354SOL    HW2 7962   2.207   1.963   4.579
 2355SOL     OW 7963   1.871   6.852   5.773
 2355SOL    HW1 7964   1.861   6.931   5.713
 2355SOL    HW2 7965   1.864   6.768   5.720
 2356SOL     OW 7966   1.343   3.075   6.019
 2356SOL    HW1 7967   1.299   3.165   6.016
 2356SOL    HW2 7968   1.318   3.028   6.103
 2357SOL     OW 7969   4.618   0.462   2.371
 2357SOL    HW1 7970   4.607   0.406   2.454
 2357SOL    HW2 7971   4.618   0.402   2.291
 2358SOL     OW 7972   3.314   5.392   5.259
 2358SOL    HW1 7973   3.394   5.451   5.276
 2358SOL    HW2 7974   3.241   5.417   5.322
 2359SOL     OW 7975   6.641   0.978   5.531
 2359SOL    HW1 7976   6.571   0.908   5.543
 2359SOL    HW2 7977   6.672   1.009   5.621
 2360SOL     OW 7978   5.416   3.391   6.783
 2360SOL    HW1 7979   5.378   3.482   6.769
 2360SOL    HW2 7980   5.487   3.395   6.854
 2361SOL     OW 7981   2.239   0.525   6.663
 2361SOL    HW1 7982   2.163   0.533   6.598
 2361SOL    HW2 7983   2.297   0.606   6.656
 2362SOL     OW 7984   2.558   5.777   3.996
 2362SOL    HW1 7985   2.576   5.865   4.039
 2362SOL    HW2 7986   2.622   5.709   4.031
 2363SOL     OW 7987   4.399   2.190   4.691
 2363SOL    HW1 7988   4.493   2.179   4.659
 2363SOL    HW2 7989   4.397   2.199   4.790
 2364SOL     OW 7990   1.157   2.549   2.471
 2364SOL    HW1 7991   1.151   2.625   2.405
 2364SOL    HW2 7992   1.089   2.563   2.543
 2365SOL     OW 7993   6.320   2.489   6.974
 2365SOL    HW1 7994   6.382   2.496   0.030
 2365SOL    HW2 7995   6.317   2.577   6.926
 2366SOL     OW 7996   2.190   5.642   6.699
 2366SOL    HW1 7997   2.134   5.718   6.733
 2366SOL    HW2 7998   2.148   5.604   6.617
 2367SOL     OW 7999   2.648   3.737   0.973
 2367SOL    HW1 8000   2.592   3.721   1.054
 2367SOL    HW2 8001   2.591   3.732   0.891
 2368SOL     OW 8002   4.954   6.252   4.551
 2368SOL    HW1 8003   5.023   6.180   4.557
 2368SOL    HW2 8004   4.955   6.306   4.636
 2369SOL     OW 8005   2.074   0.924   4.596
 2369SOL    HW1 8006   2.025   0.837   4.601
 2369SOL    HW2 8007   2.126   0.928   4.510
 2370SOL     OW 8008   5.253   3.118   0.127
 2370SOL    HW1 8009   5.176   3.132   0.189
 2370SOL    HW2 8010   5.308   3.040   0.158
 2371SOL     OW 8011   1.101   6.956   1.441
 2371SOL    HW1 8012   1.007   6.985   1.462
 2371SOL    HW2 8013   1.160   6.979   1.518
 2372SOL     OW 8014   0.250   2.632   2.018
 2372SOL    HW1 8015   0.167   2.672   2.056
 2372SOL    HW2 8016   0.283   2.688   1.942
 2373SOL     OW 8017   0.678   2.827   5.975
 2373SOL    HW1 8018   0.725   2.739   5.969
 2373SOL    HW2 8019   0.600   2.818   6.037
 2374SOL     OW 8020   5.949   1.813   4.044
 2374SOL    HW1 8021   5.877   1.795   3.977
 2374SOL    HW2 8022   5.923   1.771   4.132
 2375SOL     OW 8023   3.346   6.410   4.663
 2375SOL    HW1 8024   3.333   6.381   4.758
 2375SOL    HW2 8025   3.437   6.382   4.632
 2376SOL     OW 8026   6.186   3.034   4.386
 2376SOL    HW1 8027   6.197   3.108   4.452
 2376SOL    HW2 8028   6.102   3.049   4.333
 2377SOL     OW 8029   3.616   3.857   3.754
 2377SOL    HW1 8030   3.534   3.909   3.731
 2377SOL    HW2 8031   3.617   3.839   3.853
 2378SOL     OW 8032   4.675   1.659   0.714
 2378SOL    HW1 8033   4.728   1.744   0.721
 2378SOL    HW2 8034   4.676   1.627   0.619
 2379SOL     OW 8035   7.013   1.365   0.591
 2379SOL    HW1 8036   0.065   1.408   0.540
 2379SOL    HW2 8037   0.001   1.266   0.589
 2380SOL     OW 8038   0.376   2.081   6.610
 2380SOL    HW1 8039   0.306   2.132   6.662
 2380SOL    HW2 8040   0.331   2.018   6.547
 2381SOL     OW 8041   1.934   5.113   4.410
 2381SOL    HW1 8042   1.900   5.046   4.476
 2381SOL    HW2 8043   1.966   5.195   4.459
 2382SOL     OW 8044   1.993   3.789   4.526
 2382SOL    HW1 8045   1.997   3.887   4.548
 2382SOL    HW2 8046   2.069   3.741   4.570
 2383SOL     OW 8047   5.130   6.624   0.259
 2383SOL    HW1 8048   5.220   6.597   0.225
 2383SOL    HW2 8049   5.140   6.700   0.322
 2384SOL     OW 8050   5.768   0.947   2.771
 2384SOL    HW1 8051   5.671   0.971   2.779
 2384SOL    HW2 8052   5.818   0.984   2.850
 2385SOL     OW 8053   1.203   0.289   0.588
 2385SOL    HW1 8054   1.186   0.209   0.530
 2385SOL    HW2 8055   1.261   0.353   0.538
 2386SOL     OW 8056   5.954   6.155   4.369
 2386SOL    HW1 8057   5.946   6.204   4.456
 2386SOL    HW2 8058   5.968   6.057   4.387
 2387SOL     OW 8059   1.121   2.269   4.306
 2387SOL    HW1 8060   1.108   2.340   4.237
 2387SOL    HW2 8061   1.035   2.222   4.323
 2388SOL     OW 8062   0.495   1.968   3.959
 2388SOL    HW1 8063   0.446   2.006   3.880
 2388SOL    HW2 8064   0.559   2.037   3.994
 2389SOL     OW 8065   4.643   4.343   2.944
 2389SOL    HW1 8066   4.602   4.383   2.862
 2389SOL    HW2 8067   4.677   4.416   3.003
 2390SOL     OW 8068   3.692   2.912   3.349
 2390SOL    HW1 8069   3.715   2.903   3.253
 2390SOL    HW2 8070   3.595   2.932   3.359
 2391SOL     OW 8071   5.286   4.012   5.717
 2391SOL    HW1 8072   5.340   4.084   5.674
 2391SOL    HW2 8073   5.188   4.029   5.700
 2392SOL     OW 8074   3.437   6.290   5.231
 2392SOL    HW1 8075   3.420   6.373   5.285
 2392SOL    HW2 8076   3.456   6.213   5.292
 2393SOL     OW 8077   5.381   3.906   5.969
 2393SOL    HW1 8078   5.392   3.914   5.870
 2393SOL    HW2 8079   5.465   3.934   6.015
 2394SOL     OW 8080   1.209   4.245   4.753
 2394SOL    HW1 8081   1.213   4.256   4.654
 2394SOL    HW2 8082   1.186   4.333   4.795
 2395SOL     OW 8083   5.319   1.275   5.828
 2395SOL    HW1 8084   5.282   1.325   5.750
 2395SOL    HW2 8085   5.337   1.338   5.903
 2396SOL     OW 8086   3.899   4.982   1.110
 2396SOL    HW1 8087   3.801   4.992   1.127
 2396SOL    HW2 8088   3.920   5.015   1.018
 2397SOL     OW 8089   0.146   3.705   5.863
 2397SOL    HW1 8090   0.209   3.638   5.904
 2397SOL    HW2 8091   0.064   3.658   5.831
 2398SOL     OW 8092   4.348   4.335   6.791
 2398SOL    HW1 8093   4.294   4.252   6.775
 2398SOL    HW2 8094   4.444   4.311   6.799
 2399SOL     OW 8095   4.076   0.659   1.525
 2399SOL    HW1 8096   4.058   0.735   1.587
 2399SOL    HW2 8097   4.077   0.574   1.577
 2400SOL     OW 8098   2.891   4.219   1.007
 2400SOL    HW1 8099   2.879   4.127   1.043
 2400SOL    HW2 8100   2.986   4.229   0.974
 2401SOL     OW 8101   4.794   6.627   6.365
 2401SOL    HW1 8102   4.776   6.691   6.440
 2401SOL    HW2 8103   4.827   6.540   6.403
 2402SOL     OW 8104   0.386   0.717   3.691
 2402SOL    HW1 8105   0.391   0.810   3.728
 2402SOL    HW2 8106   0.467   0.665   3.719
 2403SOL     OW 8107   1.984   2.100   6.671
 2403SOL    HW1 8108   1.947   2.065   6.584
 2403SOL    HW2 8109   2.073   2.059   6.688
 2404SOL     OW 8110   2.676   0.684   0.819
 2404SOL    HW1 8111   2.651   0.710   0.726
 2404SOL    HW2 8112   2.751   0.743   0.851
 2405SOL     OW 8113   3.323   3.596   2.355
 2405SOL    HW1 8114   3.302   3.648   2.272
 2405SOL    HW2 8115   3.408   3.630   2.396
 2406SOL     OW 8116   3.080   0.377   2.101
 2406SOL    HW1 8117   3.000   0.437   2.096
 2406SOL    HW2 8118   3.094   0.333   2.013
 2407SOL     OW 8119   5.644   1.662   3.066
 2407SOL    HW1 8120   5.579   1.650   3.141
 2407SOL    HW2 8121   5.729   1.702   3.101
 2408SOL     OW 8122   4.687   4.239   3.388
 2408SOL    HW1 8123   4.756   4.179   3.346
 2408SOL    HW2 8124   4.596   4.203   3.368
 2409SOL     OW 8125   2.456   5.024   1.421
 2409SOL    HW1 8126   2.475   5.033   1.519
 2409SOL    HW2 8127   2.358   5.014   1.407
 2410SOL     OW 8128   4.100   3.217   5.120
 2410SOL    HW1 8129   4.182   3.200   5.174
 2410SOL    HW2 8130   4.097   3.314   5.093
 2411SOL     OW 8131   4.844   5.886   4.661
 2411SOL    HW1 8132   4.755   5.925   4.638
 2411SOL    HW2 8133   4.896   5.871   4.576
 2412SOL     OW 8134   5.698   4.397   1.091
 2412SOL    HW1 8135   5.676   4.299   1.092
 2412SOL    HW2 8136   5.785   4.411   1.138
 2413SOL     OW 8137   6.592   1.142   1.229
 2413SOL    HW1 8138   6.540   1.061   1.205
 2413SOL    HW2 8139   6.626   1.186   1.146
 2414SOL     OW 8140   5.113   4.201   2.894
 2414SOL    HW1 8141   5.027   4.215   2.942
 2414SOL    HW2 8142   5.154   4.290   2.872
 2415SOL     OW 8143   6.463   1.067   2.965
 2415SOL    HW1 8144   6.561   1.057   2.980
 2415SOL    HW2 8145   6.444   1.066   2.866
 2416SOL     OW 8146   5.055   2.584   4.677
 2416SOL    HW1 8147   5.013   2.542   4.757
 2416SOL    HW2 8148   5.008   2.555   4.594
 2417SOL     OW 8149   3.808   3.704   4.618
 2417SOL    HW1 8150   3.830   3.650   4.699
 2417SOL    HW2 8151   3.871   3.780   4.610
 2418SOL     OW 8152   3.821   3.018   4.755
 2418SOL    HW1 8153   3.757   3.022   4.678
 2418SOL    HW2 8154   3.795   2.945   4.817
 2419SOL     OW 8155   6.984   0.042   4.126
 2419SOL    HW1 8156   7.010   0.097   4.205
 2419SOL    HW2 8157   6.888   0.017   4.133
 2420SOL     OW 8158   3.536   0.491   2.976
 2420SOL    HW1 8159   3.582   0.515   2.891
 2420SOL    HW2 8160   3.447   0.537   2.979
 2421SOL     OW 8161   2.319   2.413   4.873
 2421SOL    HW1 8162   2.400   2.376   4.918
 2421SOL    HW2 8163   2.310   2.372   4.782
 2422SOL     OW 8164   4.956   1.624   0.973
 2422SOL    HW1 8165   4.894   1.604   1.049
 2422SOL    HW2 8166   4.938   1.561   0.897
 2423SOL     OW 8167   1.713   5.741   2.761
 2423SOL    HW1 8168   1.668   5.669   2.707
 2423SOL    HW2 8169   1.706   5.828   2.712
 2424SOL     OW 8170   6.447   6.747   6.451
 2424SOL    HW1 8171   6.470   6.650   6.445
 2424SOL    HW2 8172   6.418   6.781   6.362
 2425SOL     OW 8173   5.858   0.401   4.117
 2425SOL    HW1 8174   5.911   0.479   4.082
 2425SOL    HW2 8175   5.874   0.390   4.215
 2426SOL     OW 8176   1.339   5.559   5.224
 2426SOL    HW1 8177   1.412   5.574   5.292
 2426SOL    HW2 8178   1.324   5.643   5.173
 2427SOL     OW 8179   5.396   6.116   5.399
 2427SOL    HW1 8180   5.403   6.080   5.492
 2427SOL    HW2 8181   5.324   6.067   5.350
 2428SOL     OW 8182   0.223   0.202   2.564
 2428SOL    HW1 8183   0.258   0.274   2.623
 2428SOL    HW2 8184   0.205   0.238   2.473
 2429SOL     OW 8185   5.845   5.391   2.644
 2429SOL    HW1 8186   5.767   5.432   2.692
 2429SOL    HW2 8187   5.867   5.303   2.686
 2430SOL     OW 8188   6.432   1.146   1.928
 2430SOL    HW1 8189   6.510   1.181   1.979
 2430SOL    HW2 8190   6.461   1.068   1.872
 2431SOL     OW 8191   4.068   0.256   2.403
 2431SOL    HW1 8192   4.117   0.193   2.463
 2431SOL    HW2 8193   3.970   0.250   2.421
 2432SOL     OW 8194   4.110   6.851   2.700
 2432SOL    HW1 8195   4.093   6.752   2.703
 2432SOL    HW2 8196   4.202   6.867   2.665
 2433SOL     OW 8197   4.095   1.788   0.219
 2433SOL    HW1 8198   4.094   1.855   0.293
 2433SOL    HW2 8199   4.184   1.789   0.174
 2434SOL     OW 8200   4.077   1.521   6.052
 2434SOL    HW1 8201   4.172   1.544   6.073
 2434SOL    HW2 8202   4.075   1.452   5.979
 2435SOL     OW 8203   5.078   5.545   5.332
 2435SOL    HW1 8204   5.060   5.478   5.259
 2435SOL    HW2 8205   5.166   5.589   5.314
 2436SOL     OW 8206   1.484   5.410   6.380
 2436SOL    HW1 8207   1.551   5.413   6.305
 2436SOL    HW2 8208   1.529   5.431   6.466
 2437SOL     OW 8209   6.131   6.947   6.768
 2437SOL    HW1 8210   6.106   6.851   6.785
 2437SOL    HW2 8211   6.191   6.979   6.841
 2438SOL     OW 8212   3.236   2.256   0.224
 2438SOL    HW1 8213   3.313   2.303   0.182
 2438SOL    HW2 8214   3.268   2.172   0.267
 2439SOL     OW 8215   0.781   4.163   6.394
 2439SOL    HW1 8216   0.709   4.142   6.328
 2439SOL    HW2 8217   0.750   4.238   6.453
 2440SOL     OW 8218   4.639   5.747   5.881
 2440SOL    HW1 8219   4.654   5.836   5.836
 2440SOL    HW2 8220   4.578   5.692   5.825
 2441SOL     OW 8221   6.942   2.646   0.066
 2441SOL    HW1 8222   6.946   2.709   7.011
 2441SOL    HW2 8223   6.926   2.553   0.032
 2442SOL     OW 8224   1.214   3.833   5.796
 2442SOL    HW1 8225   1.116   3.851   5.810
 2442SOL    HW2 8226   1.236   3.848   5.699
 2443SOL     OW 8227   3.296   4.654   6.360
 2443SOL    HW1 8228   3.243   4.713   6.300
 2443SOL    HW2 8229   3.393   4.660   6.336
 2444SOL     OW 8230   2.804   5.066   6.352
 2444SOL    HW1 8231   2.794   4.976   6.311
 2444SOL    HW2 8232   2.848   5.128   6.286
 2445SOL     OW 8233   0.313   0.622   0.894
 2445SOL    HW1 8234   0.356   0.708   0.865
 2445SOL    HW2 8235   0.305   0.620   0.993
 2446SOL     OW 8236   6.311   4.230   4.363
 2446SOL    HW1 8237   6.262   4.282   4.294
 2446SOL    HW2 8238   6.247   4.193   4.429
 2447SOL     OW 8239   1.979   2.288   6.889
 2447SOL    HW1 8240   1.881   2.276   6.873
 2447SOL    HW2 8241   2.029   2.216   6.840
 2448SOL     OW 8242   0.375   0.631   4.260
 2448SOL    HW1 8243   0.443   0.650   4.189
 2448SOL    HW2 8244   0.396   0.686   4.341
 2449SOL     OW 8245   0.130   3.695   0.160
 2449SOL    HW1 8246   0.222   3.655   0.168
 2449SOL    HW2 8247   0.104   3.698   0.064
 2450SOL     OW 8248   2.446   4.530   2.746
 2450SOL    HW1 8249   2.384   4.597   2.787
 2450SOL    HW2 8250   2.394   4.448   2.721
 2451SOL     OW 8251   2.203   6.894   4.194
 2451SOL    HW1 8252   2.234   6.946   4.115
 2451SOL    HW2 8253   2.115   6.931   4.226
 2452SOL     OW 8254   1.262   3.745   2.705
 2452SOL    HW1 8255   1.344   3.688   2.714
 2452SOL    HW2 8256   1.184   3.687   2.681
 2453SOL     OW 8257   6.641   4.385   1.130
 2453SOL    HW1 8258   6.649   4.437   1.045
 2453SOL    HW2 8259   6.582   4.305   1.115
 2454SOL     OW 8260   3.474   0.731   2.644
 2454SOL    HW1 8261   3.474   0.795   2.567
 2454SOL    HW2 8262   3.563   0.685   2.649
 2455SOL     OW 8263   5.405   5.438   0.973
 2455SOL    HW1 8264   5.457   5.362   0.932
 2455SOL    HW2 8265   5.381   5.503   0.901
 2456SOL     OW 8266   5.287   6.584   1.733
 2456SOL    HW1 8267   5.319   6.679   1.730
 2456SOL    HW2 8268   5.187   6.584   1.741
 2457SOL     OW 8269   6.043   6.929   0.914
 2457SOL    HW1 8270   6.133   6.949   0.954
 2457SOL    HW2 8271   6.027   6.831   0.917
 2458SOL     OW 8272   2.089   6.071   3.375
 2458SOL    HW1 8273   2.156   6.145   3.375
 2458SOL    HW2 8274   2.072   6.041   3.281
 2459SOL     OW 8275   2.403   0.058   0.544
 2459SOL    HW1 8276   2.474   0.126   0.561
 2459SOL    HW2 8277   2.356   0.079   0.458
 2460SOL     OW 8278   2.680   5.968   2.174
 2460SOL    HW1 8279   2.760   5.911   2.194
 2460SOL    HW2 8280   2.677   6.045   2.237
 2461SOL     OW 8281   5.515   0.418   2.102
 2461SOL    HW1 8282   5.565   0.335   2.129
 2461SOL    HW2 8283   5.474   0.459   2.184
 2462SOL     OW 8284   2.365   5.281   6.897
 2462SOL    HW1 8285   2.442   5.342   6.914
 2462SOL    HW2 8286   2.387   5.189   6.929
 2463SOL     OW 8287   6.320   1.761   3.456
 2463SOL    HW1 8288   6.419   1.773   3.458
 2463SOL    HW2 8289   6.276   1.844   3.422
 2464SOL     OW 8290   1.244   3.238   1.184
 2464SOL    HW1 8291   1.300   3.224   1.266
 2464SOL    HW2 8292   1.268   3.168   1.116
 2465SOL     OW 8293   0.100   5.755   2.072
 2465SOL    HW1 8294   0.125   5.846   2.105
 2465SOL    HW2 8295   0.170   5.689   2.101
 2466SOL     OW 8296   4.150   1.944   2.520
 2466SOL    HW1 8297   4.236   1.910   2.483
 2466SOL    HW2 8298   4.152   2.044   2.522
 2467SOL     OW 8299   6.947   0.954   6.053
 2467SOL    HW1 8300   6.945   0.854   6.058
 2467SOL    HW2 8301   6.922   0.983   5.960
 2468SOL     OW 8302   6.792   6.269   1.246
 2468SOL    HW1 8303   6.811   6.311   1.335
 2468SOL    HW2 8304   6.804   6.170   1.253
 2469SOL     OW 8305   2.780   3.618   5.311
 2469SOL    HW1 8306   2.879   3.626   5.313
 2469SOL    HW2 8307   2.754   3.533   5.264
 2470SOL     OW 8308   4.230   3.581   6.576
 2470SOL    HW1 8309   4.237   3.481   6.572
 2470SOL    HW2 8310   4.308   3.622   6.529
 2471SOL     OW 8311   0.320   6.530   2.916
 2471SOL    HW1 8312   0.358   6.590   2.845
 2471SOL    HW2 8313   0.263   6.584   2.978
 2472SOL     OW 8314   5.553   2.590   4.473
 2472SOL    HW1 8315   5.639   2.613   4.519
 2472SOL    HW2 8316   5.532   2.659   4.405
 2473SOL     OW 8317   0.915   5.944   4.538
 2473SOL    HW1 8318   0.886   6.040   4.540
 2473SOL    HW2 8319   0.901   5.903   4.628
 2474SOL     OW 8320   6.629   4.688   5.445
 2474SOL    HW1 8321   6.569   4.763   5.415
 2474SOL    HW2 8322   6.615   4.609   5.386
 2475SOL     OW 8323   4.106   2.547   0.504
 2475SOL    HW1 8324   4.034   2.486   0.472
 2475SOL    HW2 8325   4.144   2.512   0.590
 2476SOL     OW 8326   0.713   1.737   3.692
 2476SOL    HW1 8327   0.621   1.760   3.661
 2476SOL    HW2 8328   0.723   1.638   3.695
 2477SOL     OW 8329   5.391   5.435   1.453
 2477SOL    HW1 8330   5.407   5.339   1.476
 2477SOL    HW2 8331   5.332   5.441   1.373
 2478SOL     OW 8332   5.873   6.692   2.725
 2478SOL    HW1 8333   5.922   6.746   2.794
 2478SOL    HW2 8334   5.794   6.744   2.692
 2479SOL     OW 8335   0.443   2.489   0.681
 2479SOL    HW1 8336   0.535   2.484   0.644
 2479SOL    HW2 8337   0.442   2.547   0.763
 2480SOL     OW 8338   0.642   3.645   1.090
 2480SOL    HW1 8339   0.569   3.620   1.155
 2480SOL    HW2 8340   0.640   3.582   1.012
 2481SOL     OW 8341   4.103   5.338   2.364
 2481SOL    HW1 8342   4.185   5.352   2.308
 2481SOL    HW2 8343   4.085   5.241   2.374
 2482SOL     OW 8344   5.101   2.808   4.844
 2482SOL    HW1 8345   5.113   2.709   4.832
 2482SOL    HW2 8346   5.041   2.824   4.923
 2483SOL     OW 8347   1.155   1.550   6.816
 2483SOL    HW1 8348   1.119   1.457   6.815
 2483SOL    HW2 8349   1.153   1.586   6.909
 2484SOL     OW 8350   3.271   1.410   0.198
 2484SOL    HW1 8351   3.259   1.501   0.238
 2484SOL    HW2 8352   3.226   1.342   0.256
 2485SOL     OW 8353   0.243   5.288   2.120
 2485SOL    HW1 8354   0.330   5.242   2.139
 2485SOL    HW2 8355   0.239   5.375   2.170
 2486SOL     OW 8356   1.469   5.699   2.897
 2486SOL    HW1 8357   1.473   5.640   2.978
 2486SOL    HW2 8358   1.562   5.723   2.869
 2487SOL     OW 8359   3.618   0.014   0.904
 2487SOL    HW1 8360   3.713   7.020   0.876
 2487SOL    HW2 8361   3.559   0.012   0.824
 2488SOL     OW 8362   2.908   5.038   1.505
 2488SOL    HW1 8363   2.978   4.979   1.467
 2488SOL    HW2 8364   2.943   5.131   1.512
 2489SOL     OW 8365   1.627   5.545   4.824
 2489SOL    HW1 8366   1.571   5.510   4.749
 2489SOL    HW2 8367   1.603   5.498   4.909
 2490SOL     OW 8368   5.946   3.643   1.173
 2490SOL    HW1 8369   5.884   3.564   1.171
 2490SOL    HW2 8370   5.978   3.658   1.266
 2491SOL     OW 8371   2.813   5.444   2.754
 2491SOL    HW1 8372   2.867   5.453   2.838
 2491SOL    HW2 8373   2.735   5.506   2.757
 2492SOL     OW 8374   5.122   3.245   6.373
 2492SOL    HW1 8375   5.184   3.174   6.405
 2492SOL    HW2 8376   5.133   3.327   6.430
 2493SOL     OW 8377   6.066   1.886   3.081
 2493SOL    HW1 8378   6.098   1.801   3.039
 2493SOL    HW2 8379   6.106   1.964   3.034
 2494SOL     OW 8380   5.006   2.769   2.560
 2494SOL    HW1 8381   4.966   2.769   2.651
 2494SOL    HW2 8382   5.017   2.674   2.528
 2495SOL     OW 8383   5.412   1.081   5.077
 2495SOL    HW1 8384   5.495   1.028   5.090
 2495SOL    HW2 8385   5.334   1.031   5.113
 2496SOL     OW 8386   0.946   6.444   7.006
 2496SOL    HW1 8387   0.859   6.456   0.030
 2496SOL    HW2 8388   1.020   6.477   0.043
 2497SOL     OW 8389   6.616   1.635   6.873
 2497SOL    HW1 8390   6.661   1.724   6.877
 2497SOL    HW2 8391   6.664   1.571   6.933
 2498SOL     OW 8392   1.710   3.024   4.915
 2498SOL    HW1 8393   1.791   3.039   4.972
 2498SOL    HW2 8394   1.719   2.938   4.866
 2499SOL     OW 8395   5.713   0.499   4.695
 2499SOL    HW1 8396   5.651   0.574   4.671
 2499SOL    HW2 8397   5.759   0.520   4.781
 2500SOL     OW 8398   4.937   2.893   6.938
 2500SOL    HW1 8399   4.849   2.896   6.985
 2500SOL    HW2 8400   4.992   2.817   6.974
 2501SOL     OW 8401   6.776   4.076   0.465
 2501SOL    HW1 8402   6.783   4.149   0.533
 2501SOL    HW2 8403   6.868   4.048   0.437
 2502SOL     OW 8404   2.873   6.977   2.905
 2502SOL    HW1 8405   2.783   7.006   2.874
 2502SOL    HW2 8406   2.896   6.889   2.863
 2503SOL     OW 8407   4.329   5.020   5.556
 2503SOL    HW1 8408   4.367   5.049   5.644
 2503SOL    HW2 8409   4.374   5.071   5.482
 2504SOL     OW 8410   1.681   4.546   4.064
 2504SOL    HW1 8411   1.730   4.489   3.998
 2504SOL    HW2 8412   1.582   4.534   4.053
 2505SOL     OW 8413   4.725   5.112   4.153
 2505SOL    HW1 8414   4.742   5.210   4.153
 2505SOL    HW2 8415   4.769   5.070   4.232
 2506SOL     OW 8416   6.913   2.406   6.195
 2506SOL    HW1 8417   6.844   2.474   6.170
 2506SOL    HW2 8418   6.976   2.393   6.118
 2507SOL     OW 8419   6.782   6.087   0.061
 2507SOL    HW1 8420   6.688   6.120   0.050
 2507SOL    HW2 8421   6.783   5.987   0.063
 2508SOL     OW 8422   2.568   2.135   2.402
 2508SOL    HW1 8423   2.504   2.161   2.474
 2508SOL    HW2 8424   2.661   2.140   2.437
 2509SOL     OW 8425   4.874   2.859   3.854
 2509SOL    HW1 8426   4.862   2.953   3.885
 2509SOL    HW2 8427   4.799   2.803   3.889
 2510SOL     OW 8428   3.896   5.273   0.566
 2510SOL    HW1 8429   3.890   5.365   0.603
 2510SOL    HW2 8430   3.985   5.233   0.588
 2511SOL     OW 8431   1.062   0.716   4.927
 2511SOL    HW1 8432   0.969   0.735   4.894
 2511SOL    HW2 8433   1.059   0.640   4.992
 2512SOL     OW 8434   5.201   3.451   5.157
 2512SOL    HW1 8435   5.238   3.365   5.192
 2512SOL    HW2 8436   5.103   3.455   5.178
 2513SOL     OW 8437   1.061   2.907   0.267
 2513SOL    HW1 8438   1.054   2.989   0.211
 2513SOL    HW2 8439   1.156   2.875   0.268
 2514SOL     OW 8440   1.083   0.470   3.371
 2514SOL    HW1 8441   1.168   0.428   3.338
 2514SOL    HW2 8442   1.098   0.509   3.462
 2515SOL     OW 8443   0.567   5.719   0.790
 2515SOL    HW1 8444   0.608   5.803   0.754
 2515SOL    HW2 8445   0.637   5.648   0.797
 2516SOL     OW 8446   5.248   6.519   3.448
 2516SOL    HW1 8447   5.203   6.448   3.502
 2516SOL    HW2 8448   5.347   6.506   3.451
 2517SOL     OW 8449   1.917   4.651   0.309
 2517SOL    HW1 8450   1.928   4.552   0.312
 2517SOL    HW2 8451   1.999   4.694   0.348
 2518SOL     OW 8452   2.658   2.529   6.852
 2518SOL    HW1 8453   2.651   2.534   6.753
 2518SOL    HW2 8454   2.676   2.620   6.889
 2519SOL     OW 8455   4.872   4.597   4.998
 2519SOL    HW1 8456   4.795   4.573   5.058
 2519SOL    HW2 8457   4.947   4.532   5.013
 2520SOL     OW 8458   2.397   4.249   1.833
 2520SOL    HW1 8459   2.446   4.229   1.748
 2520SOL    HW2 8460   2.338   4.328   1.819
 2521SOL     OW 8461   5.600   6.667   5.171
 2521SOL    HW1 8462   5.616   6.633   5.078
 2521SOL    HW2 8463   5.687   6.694   5.212
 2522SOL     OW 8464   0.920   3.417   4.577
 2522SOL    HW1 8465   0.908   3.343   4.643
 2522SOL    HW2 8466   0.832   3.442   4.538
 2523SOL     OW 8467   0.898   3.513   6.841
 2523SOL    HW1 8468   0.834   3.466   6.780
 2523SOL    HW2 8469   0.877   3.611   6.842
 2524SOL     OW 8470   1.568   6.658   4.160
 2524SOL    HW1 8471   1.533   6.565   4.174
 2524SOL    HW2 8472   1.534   6.695   4.074
 2525SOL     OW 8473   1.404   3.476   3.713
 2525SOL    HW1 8474   1.406   3.461   3.615
 2525SOL    HW2 8475   1.369   3.393   3.758
 2526SOL     OW 8476   6.634   1.962   4.780
 2526SOL    HW1 8477   6.540   1.989   4.761
 2526SOL    HW2 8478   6.654   1.976   4.877
 2527SOL     OW 8479   5.527   6.548   3.855
 2527SOL    HW1 8480   5.521   6.567   3.757
 2527SOL    HW2 8481   5.508   6.451   3.872
 2528SOL     OW 8482   6.715   5.636   6.922
 2528SOL    HW1 8483   6.785   5.704   6.947
 2528SOL    HW2 8484   6.635   5.648   6.981
 2529SOL     OW 8485   4.953   4.135   4.448
 2529SOL    HW1 8486   4.930   4.073   4.373
 2529SOL    HW2 8487   4.890   4.212   4.449
 2530SOL     OW 8488   0.643   0.568   3.735
 2530SOL    HW1 8489   0.662   0.474   3.762
 2530SOL    HW2 8490   0.634   0.573   3.635
 2531SOL     OW 8491   3.763   1.789   6.660
 2531SOL    HW1 8492   3.845   1.733   6.649
 2531SOL    HW2 8493   3.790   1.885   6.675
 2532SOL     OW 8494   1.201   4.927   6.686
 2532SOL    HW1 8495   1.122   4.880   6.647
 2532SOL    HW2 8496   1.190   4.932   6.785
 2533SOL     OW 8497   5.370   6.704   5.984
 2533SOL    HW1 8498   5.370   6.648   6.066
 2533SOL    HW2 8499   5.288   6.762   5.983
 2534SOL     OW 8500   1.020   0.968   3.405
 2534SOL    HW1 8501   1.110   0.938   3.374
 2534SOL    HW2 8502   1.018   0.970   3.505
 2535SOL     OW 8503   2.065   1.205   3.706
 2535SOL    HW1 8504   1.999   1.163   3.643
 2535SOL    HW2 8505   2.132   1.136   3.734
 2536SOL     OW 8506   5.964   0.900   4.030
 2536SOL    HW1 8507   5.938   0.904   3.933
 2536SOL    HW2 8508   5.888   0.934   4.085
 2537SOL     OW 8509   5.027   5.530   1.148
 2537SOL    HW1 8510   4.949   5.508   1.090
 2537SOL    HW2 8511   4.996   5.580   1.229
 2538SOL     OW 8512   2.352   4.654   4.392
 2538SOL    HW1 8513   2.271   4.711   4.384
 2538SOL    HW2 8514   2.432   4.704   4.358
 2539SOL     OW 8515   3.796   6.979   5.115
 2539SOL    HW1 8516   3.837   6.917   5.181
 2539SOL    HW2 8517   3.749   0.031   5.163
 2540SOL     OW 8518   5.728   1.785   2.251
 2540SOL    HW1 8519   5.720   1.765   2.348
 2540SOL    HW2 8520   5.639   1.776   2.207
 2541SOL     OW 8521   1.055   6.556   5.899
 2541SOL    HW1 8522   1.067   6.463   5.936
 2541SOL    HW2 8523   1.063   6.622   5.973
 2542SOL     OW 8524   3.417   1.871   4.729
 2542SOL    HW1 8525   3.329   1.827   4.711
 2542SOL    HW2 8526   3.407   1.936   4.804
 2543SOL     OW 8527   0.458   1.718   3.533
 2543SOL    HW1 8528   0.423   1.694   3.624
 2543SOL    HW2 8529   0.383   1.748   3.475
 2544SOL     OW 8530   6.648   5.037   1.470
 2544SOL    HW1 8531   6.695   5.120   1.500
 2544SOL    HW2 8532   6.605   4.994   1.549
 2545SOL     OW 8533   0.565   1.617   1.176
 2545SOL    HW1 8534   0.664   1.629   1.178
 2545SOL    HW2 8535   0.521   1.692   1.225
 2546SOL     OW 8536   0.117   4.037   2.202
 2546SOL    HW1 8537   0.030   4.086   2.198
 2546SOL    HW2 8538   0.155   4.043   2.295
 2547SOL     OW 8539   5.836   3.529   0.770
 2547SOL    HW1 8540   5.838   3.605   0.835
 2547SOL    HW2 8541   5.910   3.539   0.704
 2548SOL     OW 8542   6.998   0.094   5.078
 2548SOL    HW1 8543   7.001   7.017   5.091
 2548SOL    HW2 8544   0.067   0.128   5.060
 2549SOL     OW 8545   2.469   2.477   0.684
 2549SOL    HW1 8546   2.416   2.532   0.619
 2549SOL    HW2 8547   2.566   2.480   0.658
 2550SOL     OW 8548   4.286   6.806   6.252
 2550SOL    HW1 8549   4.347   6.824   6.174
 2550SOL    HW2 8550   4.290   6.708   6.275
 2551SOL     OW 8551   3.147   5.718   0.215
 2551SOL    HW1 8552   3.131   5.659   0.136
 2551SOL    HW2 8553   3.065   5.771   0.234
 2552SOL     OW 8554   2.200   6.064   0.800
 2552SOL    HW1 8555   2.109   6.105   0.799
 2552SOL    HW2 8556   2.233   6.052   0.707
 2553SOL     OW 8557   4.332   1.263   6.764
 2553SOL    HW1 8558   4.389   1.227   6.690
 2553SOL    HW2 8559   4.265   1.194   6.791
 2554SOL     OW 8560   1.303   5.703   1.431
 2554SOL    HW1 8561   1.277   5.733   1.523
 2554SOL    HW2 8562   1.369   5.768   1.393
 2555SOL     OW 8563   5.715   5.807   5.361
 2555SOL    HW1 8564   5.659   5.797   5.279
 2555SOL    HW2 8565   5.788   5.873   5.345
 2556SOL     OW 8566   3.905   6.946   1.385
 2556SOL    HW1 8567   3.850   6.994   1.317
 2556SOL    HW2 8568   3.863   6.955   1.475
 2557SOL     OW 8569   3.575   0.029   6.944
 2557SOL    HW1 8570   3.524   6.996   6.878
 2557SOL    HW2 8571   3.545   0.124   6.937
 2558SOL     OW 8572   6.039   4.191   6.157
 2558SOL    HW1 8573   5.944   4.175   6.129
 2558SOL    HW2 8574   6.041   4.257   6.232
 2559SOL     OW 8575   0.986   4.467   4.271
 2559SOL    HW1 8576   1.018   4.379   4.235
 2559SOL    HW2 8577   0.965   4.457   4.369
 2560SOL     OW 8578   4.951   1.899   3.283
 2560SOL    HW1 8579   4.925   1.984   3.238
 2560SOL    HW2 8580   5.034   1.863   3.241
 2561SOL     OW 8581   3.714   0.699   4.193
 2561SOL    HW1 8582   3.690   0.660   4.282
 2561SOL    HW2 8583   3.810   0.724   4.192
 2562SOL     OW 8584   3.236   6.968   3.508
 2562SOL    HW1 8585   3.215   6.888   3.452
 2562SOL    HW2 8586   3.151   7.011   3.538
 2563SOL     OW 8587   3.526   1.353   0.181
 2563SOL    HW1 8588   3.510   1.261   0.147
 2563SOL    HW2 8589   3.439   1.400   0.193
 2564SOL     OW 8590   1.341   1.318   0.718
 2564SOL    HW1 8591   1.427   1.282   0.753
 2564SOL    HW2 8592   1.348   1.333   0.619
 2565SOL     OW 8593   1.721   2.192   6.839
 2565SOL    HW1 8594   1.734   2.103   6.796
 2565SOL    HW2 8595   1.687   2.257   6.772
 2566SOL     OW 8596   2.374   0.837   1.028
 2566SOL    HW1 8597   2.437   0.900   0.983
 2566SOL    HW2 8598   2.425   0.776   1.088
 2567SOL     OW 8599   1.473   0.600   0.693
 2567SOL    HW1 8600   1.450   0.567   0.785
 2567SOL    HW2 8601   1.434   0.537   0.625
 2568SOL     OW 8602   2.888   6.354   1.565
 2568SOL    HW1 8603   2.908   6.259   1.541
 2568SOL    HW2 8604   2.801   6.382   1.524
 2569SOL     OW 8605   0.578   0.573   1.538
 2569SOL    HW1 8606   0.668   0.555   1.499
 2569SOL    HW2 8607   0.578   0.663   1.582
 2570SOL     OW 8608   5.357   6.522   6.180
 2570SOL    HW1 8609   5.392   6.508   6.273
 2570SOL    HW2 8610   5.326   6.435   6.142
 2571SOL     OW 8611   3.421   3.027   4.769
 2571SOL    HW1 8612   3.499   3.022   4.708
 2571SOL    HW2 8613   3.421   3.116   4.816
 2572SOL     OW 8614   2.007   6.272   2.072
 2572SOL    HW1 8615   2.051   6.198   2.022
 2572SOL    HW2 8616   2.075   6.320   2.127
 2573SOL     OW 8617   6.858   2.341   4.210
 2573SOL    HW1 8618   6.926   2.414   4.207
 2573SOL    HW2 8619   6.902   2.253   4.193
 2574SOL     OW 8620   1.002   3.959   1.612
 2574SOL    HW1 8621   0.910   3.960   1.572
 2574SOL    HW2 8622   1.070   3.951   1.539
 2575SOL     OW 8623   5.814   3.848   0.243
 2575SOL    HW1 8624   5.782   3.921   0.183
 2575SOL    HW2 8625   5.907   3.822   0.218
 2576SOL     OW 8626   2.076   6.801   2.967
 2576SOL    HW1 8627   2.055   6.879   3.026
 2576SOL    HW2 8628   2.041   6.819   2.875
 2577SOL     OW 8629   2.264   6.086   2.895
 2577SOL    HW1 8630   2.241   6.028   2.817
 2577SOL    HW2 8631   2.307   6.030   2.966
 2578SOL     OW 8632   5.055   2.835   4.519
 2578SOL    HW1 8633   5.085   2.925   4.551
 2578SOL    HW2 8634   5.062   2.769   4.594
 2579SOL     OW 8635   0.189   2.661   6.643
 2579SOL    HW1 8636   0.185   2.709   6.555
 2579SOL    HW2 8637   0.097   2.652   6.681
 2580SOL     OW 8638   1.725   2.744   6.456
 2580SOL    HW1 8639   1.646   2.778   6.506
 2580SOL    HW2 8640   1.800   2.810   6.462
 2581SOL     OW 8641   6.313   6.671   2.990
 2581SOL    HW1 8642   6.216   6.689   2.972
 2581SOL    HW2 8643   6.327   6.658   3.088
 2582SOL     OW 8644   0.832   5.333   2.086
 2582SOL    HW1 8645   0.930   5.314   2.073
 2582SOL    HW2 8646   0.821   5.408   2.151
 2583SOL     OW 8647   1.346   6.996   0.472
 2583SOL    HW1 8648   1.357   6.925   0.542
 2583SOL    HW2 8649   1.436   0.006   0.443
 2584SOL     OW 8650   3.603   6.151   1.183
 2584SOL    HW1 8651   3.680   6.139   1.121
 2584SOL    HW2 8652   3.598   6.073   1.245
 2585SOL     OW 8653   3.545   0.229   1.279
 2585SOL    HW1 8654   3.450   0.258   1.282
 2585SOL    HW2 8655   3.596   0.289   1.218
 2586SOL     OW 8656   6.338   2.067   3.765
 2586SOL    HW1 8657   6.263   2.001   3.776
 2586SOL    HW2 8658   6.424   2.023   3.792
 2587SOL     OW 8659   5.820   6.269   3.988
 2587SOL    HW1 8660   5.726   6.297   3.973
 2587SOL    HW2 8661   5.879   6.308   3.916
 2588SOL     OW 8662   5.380   0.294   1.562
 2588SOL    HW1 8663   5.455   0.352   1.530
 2588SOL    HW2 8664   5.416   0.204   1.585
 2589SOL     OW 8665   6.702   6.148   6.008
 2589SOL    HW1 8666   6.654   6.082   5.950
 2589SOL    HW2 8667   6.689   6.122   6.104
 2590SOL     OW 8668   4.769   0.029   2.740
 2590SOL    HW1 8669   4.697   6.987   2.767
 2590SOL    HW2 8670   4.757   0.115   2.788
 2591SOL     OW 8671   5.347   6.428   1.495
 2591SOL    HW1 8672   5.319   6.468   1.582
 2591SOL    HW2 8673   5.272   6.373   1.458
 2592SOL     OW 8674   3.731   5.251   2.097
 2592SOL    HW1 8675   3.666   5.324   2.075
 2592SOL    HW2 8676   3.743   5.246   2.196
 2593SOL     OW 8677   3.081   6.342   2.652
 2593SOL    HW1 8678   3.110   6.394   2.732
 2593SOL    HW2 8679   3.101   6.394   2.569
 2594SOL     OW 8680   0.822   6.674   6.449
 2594SOL    HW1 8681   0.852   6.584   6.419
 2594SOL    HW2 8682   0.804   6.673   6.547
 2595SOL     OW 8683   6.157   3.479   4.641
 2595SOL    HW1 8684   6.246   3.524   4.638
 2595SOL    HW2 8685   6.086   3.545   4.618
 2596SOL     OW 8686   3.870   2.061   1.888
 2596SOL    HW1 8687   3.955   2.065   1.941
 2596SOL    HW2 8688   3.797   2.106   1.939
 2597SOL     OW 8689   2.354   3.848   0.341
 2597SOL    HW1 8690   2.332   3.754   0.367
 2597SOL    HW2 8691   2.274   3.906   0.355
 2598SOL     OW 8692   6.586   3.238   3.373
 2598SOL    HW1 8693   6.630   3.159   3.330
 2598SOL    HW2 8694   6.627   3.254   3.463
 2599SOL     OW 8695   3.746   5.397   6.992
 2599SOL    HW1 8696   3.824   5.347   0.008
 2599SOL    HW2 8697   3.661   5.355   7.022
 2600SOL     OW 8698   5.791   3.540   3.364
 2600SOL    HW1 8699   5.698   3.510   3.384
 2600SOL    HW2 8700   5.845   3.464   3.329
 2601SOL     OW 8701   3.543   3.667   6.152
 2601SOL    HW1 8702   3.455   3.687   6.197
 2601SOL    HW2 8703   3.541   3.705   6.059
 2602SOL     OW 8704   6.695   5.327   3.916
 2602SOL    HW1 8705   6.741   5.302   4.001
 2602SOL    HW2 8706   6.735   5.274   3.841
 2603SOL     OW 8707   2.852   1.983   1.254
 2603SOL    HW1 8708   2.927   1.922   1.282
 2603SOL    HW2 8709   2.845   2.058   1.320
 2604SOL     OW 8710   5.644   0.480   1.213
 2604SOL    HW1 8711   5.643   0.380   1.214
 2604SOL    HW2 8712   5.557   0.514   1.179
 2605SOL     OW 8713   4.294   5.022   4.837
 2605SOL    HW1 8714   4.207   5.068   4.855
 2605SOL    HW2 8715   4.306   5.010   4.738
 2606SOL     OW 8716   6.703   4.356   0.467
 2606SOL    HW1 8717   6.717   4.332   0.371
 2606SOL    HW2 8718   6.783   4.403   0.503
 2607SOL     OW 8719   0.839   0.224   3.472
 2607SOL    HW1 8720   0.802   0.221   3.379
 2607SOL    HW2 8721   0.894   0.142   3.488
 2608SOL     OW 8722   4.469   1.044   1.253
 2608SOL    HW1 8723   4.458   1.048   1.154
 2608SOL    HW2 8724   4.561   1.074   1.277
 2609SOL     OW 8725   0.995   2.066   2.396
 2609SOL    HW1 8726   1.006   1.990   2.460
 2609SOL    HW2 8727   0.901   2.066   2.361
 2610SOL     OW 8728   6.180   5.914   4.767
 2610SOL    HW1 8729   6.111   5.942   4.700
 2610SOL    HW2 8730   6.178   5.814   4.777
 2611SOL     OW 8731   4.962   6.558   1.447
 2611SOL    HW1 8732   4.926   6.522   1.533
 2611SOL    HW2 8733   4.986   6.482   1.387
 2612SOL     OW 8734   5.468   6.603   3.138
 2612SOL    HW1 8735   5.549   6.648   3.100
 2612SOL    HW2 8736   5.463   6.509   3.105
 2613SOL     OW 8737   3.765   0.282   2.368
 2613SOL    HW1 8738   3.765   0.197   2.419
 2613SOL    HW2 8739   3.705   0.274   2.288
 2614SOL     OW 8740   6.560   6.656   6.074
 2614SOL    HW1 8741   6.624   6.584   6.047
 2614SOL    HW2 8742   6.607   6.725   6.128
 2615SOL     OW 8743   4.960   5.415   2.592
 2615SOL    HW1 8744   4.941   5.393   2.496
 2615SOL    HW2 8745   4.974   5.513   2.602
 2616SOL     OW 8746   3.821   3.168   2.925
 2616SOL    HW1 8747   3.888   3.157   2.999
 2616SOL    HW2 8748   3.728   3.165   2.963
 2617SOL     OW 8749   3.545   6.332   1.449
 2617SOL    HW1 8750   3.605   6.270   1.501
 2617SOL    HW2 8751   3.589   6.357   1.363
 2618SOL     OW 8752   7.009   0.311   0.817
 2618SOL    HW1 8753   7.021   0.245   0.744
 2618SOL    HW2 8754   0.049   0.289   0.893
 2619SOL     OW 8755   4.514   2.199   2.300
 2619SOL    HW1 8756   4.580   2.202   2.375
 2619SOL    HW2 8757   4.562   2.183   2.214
 2620SOL     OW 8758   0.971   5.005   3.648
 2620SOL    HW1 8759   0.887   4.985   3.598
 2620SOL    HW2 8760   1.049   4.960   3.604
 2621SOL     OW 8761   0.651   5.349   3.540
 2621SOL    HW1 8762   0.689   5.385   3.455
 2621SOL    HW2 8763   0.613   5.424   3.593
 2622SOL     OW 8764   2.671   2.918   6.953
 2622SOL    HW1 8765   2.701   2.910   6.858
 2622SOL    HW2 8766   2.572   2.929   6.955
 2623SOL     OW 8767   3.578   1.201   5.487
 2623SOL    HW1 8768   3.678   1.208   5.480
 2623SOL    HW2 8769   3.550   1.107   5.467
 2624SOL     OW 8770   5.677   2.484   3.397
 2624SOL    HW1 8771   5.760   2.537   3.414
 2624SOL    HW2 8772   5.600   2.525   3.444
 2625SOL     OW 8773   2.656   2.542   5.499
 2625SOL    HW1 8774   2.653   2.625   5.555
 2625SOL    HW2 8775   2.566   2.500   5.497
 2626SOL     OW 8776   1.941   6.366   3.239
 2626SOL    HW1 8777   1.980   6.315   3.162
 2626SOL    HW2 8778   1.955   6.464   3.224
 2627SOL     OW 8779   0.227   0.045   4.605
 2627SOL    HW1 8780   0.193   0.066   4.697
 2627SOL    HW2 8781   0.249   6.970   4.600
 2628SOL     OW 8782   3.922   6.548   6.843
 2628SOL    HW1 8783   3.856   6.501   6.784
 2628SOL    HW2 8784   3.954   6.485   6.914
 2629SOL     OW 8785   4.043   4.099   1.329
 2629SOL    HW1 8786   3.974   4.048   1.278
 2629SOL    HW2 8787   4.018   4.100   1.426
 2630SOL     OW 8788   3.525   1.906   2.438
 2630SOL    HW1 8789   3.446   1.879   2.383
 2630SOL    HW2 8790   3.608   1.868   2.398
 2631SOL     OW 8791   4.475   6.971   4.163
 2631SOL    HW1 8792   4.476   7.009   4.071
 2631SOL    HW2 8793   4.429   6.882   4.163
 2632SOL     OW 8794   3.360   2.013   0.275
 2632SOL    HW1 8795   3.401   1.988   0.187
 2632SOL    HW2 8796   3.365   1.935   0.337
 2633SOL     OW 8797   6.012   2.427   6.748
 2633SOL    HW1 8798   5.914   2.444   6.750
 2633SOL    HW2 8799   6.032   2.341   6.795
 2634SOL     OW 8800   1.984   4.333   1.364
 2634SOL    HW1 8801   1.971   4.248   1.415
 2634SOL    HW2 8802   2.075   4.332   1.322
 2635SOL     OW 8803   5.656   4.669   4.819
 2635SOL    HW1 8804   5.604   4.660   4.733
 2635SOL    HW2 8805   5.674   4.579   4.857
 2636SOL     OW 8806   4.941   0.551   5.724
 2636SOL    HW1 8807   4.956   0.461   5.765
 2636SOL    HW2 8808   4.890   0.541   5.639
 2637SOL     OW 8809   5.438   6.339   3.107
 2637SOL    HW1 8810   5.520   6.283   3.121
 2637SOL    HW2 8811   5.368   6.312   3.174
 2638SOL     OW 8812   5.883   5.986   0.648
 2638SOL    HW1 8813   5.835   6.044   0.582
 2638SOL    HW2 8814   5.834   5.900   0.659
 2639SOL     OW 8815   6.185   6.465   1.178
 2639SOL    HW1 8816   6.218   6.372   1.161
 2639SOL    HW2 8817   6.262   6.527   1.185
 2640SOL     OW 8818   6.838   6.119   5.444
 2640SOL    HW1 8819   6.746   6.094   5.414
 2640SOL    HW2 8820   6.889   6.159   5.368
 2641SOL     OW 8821   5.120   3.992   6.408
 2641SOL    HW1 8822   5.046   3.954   6.465
 2641SOL    HW2 8823   5.202   4.002   6.464
 2642SOL     OW 8824   5.064   0.384   3.903
 2642SOL    HW1 8825   5.004   0.313   3.864
 2642SOL    HW2 8826   5.107   0.435   3.829
 2643SOL     OW 8827   0.052   6.850   3.159
 2643SOL    HW1 8828   0.020   6.820   3.249
 2643SOL    HW2 8829   0.031   6.947   3.148
 2644SOL     OW 8830   0.552   4.993   5.767
 2644SOL    HW1 8831   0.571   4.917   5.704
 2644SOL    HW2 8832   0.453   4.998   5.783
 2645SOL     OW 8833   5.458   6.218   5.868
 2645SOL    HW1 8834   5.498   6.181   5.952
 2645SOL    HW2 8835   5.479   6.316   5.861
 2646SOL     OW 8836   7.001   0.092   6.389
 2646SOL    HW1 8837   6.946   0.050   6.318
 2646SOL    HW2 8838   0.036   0.163   6.349
 2647SOL     OW 8839   4.193   1.950   1.178
 2647SOL    HW1 8840   4.156   2.021   1.119
 2647SOL    HW2 8841   4.118   1.898   1.219
 2648SOL     OW 8842   5.914   0.017   2.310
 2648SOL    HW1 8843   5.989   0.079   2.284
 2648SOL    HW2 8844   5.953   6.955   2.347
 2649SOL     OW 8845   3.431   1.541   6.350
 2649SOL    HW1 8846   3.341   1.531   6.392
 2649SOL    HW2 8847   3.499   1.561   6.421
 2650SOL     OW 8848   0.333   5.256   3.471
 2650SOL    HW1 8849   0.277   5.180   3.438
 2650SOL    HW2 8850   0.410   5.270   3.409
 2651SOL     OW 8851   0.077   1.610   1.828
 2651SOL    HW1 8852   0.163   1.560   1.835
 2651SOL    HW2 8853   0.013   1.576   1.896
 2652SOL     OW 8854   2.971   3.396   3.288
 2652SOL    HW1 8855   2.938   3.411   3.194
 2652SOL    HW2 8856   3.009   3.481   3.324
 2653SOL     OW 8857   5.552   6.800   6.189
 2653SOL    HW1 8858   5.494   6.739   6.135
 2653SOL    HW2 8859   5.646   6.765   6.189
 2654SOL     OW 8860   4.782   2.334   5.790
 2654SOL    HW1 8861   4.791   2.434   5.790
 2654SOL    HW2 8862   4.842   2.295   5.720
 2655SOL     OW 8863   4.302   6.056   4.555
 2655SOL    HW1 8864   4.384   6.067   4.498
 2655SOL    HW2 8865   4.237   6.129   4.535
 2656SOL     OW 8866   5.296   3.631   3.360
 2656SOL    HW1 8867   5.224   3.638   3.430
 2656SOL    HW2 8868   5.314   3.722   3.323
 2657SOL     OW 8869   2.075   4.670   0.014
 2657SOL    HW1 8870   1.981   4.675   0.048
 2657SOL    HW2 8871   2.116   4.584   0.043
 2658SOL     OW 8872   6.095   4.140   5.898
 2658SOL    HW1 8873   6.079   4.159   5.995
 2658SOL    HW2 8874   6.121   4.045   5.886
 2659SOL     OW 8875   6.829   2.641   4.663
 2659SOL    HW1 8876   6.741   2.663   4.704
 2659SOL    HW2 8877   6.817   2.625   4.565
 2660SOL     OW 8878   6.469   2.144   2.480
 2660SOL    HW1 8879   6.439   2.050   2.464
 2660SOL    HW2 8880   6.454   2.198   2.398
 2661SOL     OW 8881   3.816   5.893   1.228
 2661SOL    HW1 8882   3.863   5.981   1.227
 2661SOL    HW2 8883   3.839   5.841   1.146
 2662SOL     OW 8884   4.049   6.933   4.619
 2662SOL    HW1 8885   4.038   6.906   4.523
 2662SOL    HW2 8886   4.128   6.995   4.626
 2663SOL     OW 8887   1.952   5.087   2.524
 2663SOL    HW1 8888   2.019   5.026   2.567
 2663SOL    HW2 8889   1.989   5.180   2.521
 2664SOL     OW 8890   3.996   3.870   2.923
 2664SOL    HW1 8891   4.034   3.877   3.016
 2664SOL    HW2 8892   3.933   3.793   2.919
 2665SOL     OW 8893   3.314   1.278   5.159
 2665SOL    HW1 8894   3.409   1.306   5.167
 2665SOL    HW2 8895   3.273   1.273   5.250
 2666SOL     OW 8896   5.151   4.046   1.020
 2666SOL    HW1 8897   5.171   4.007   1.110
 2666SOL    HW2 8898   5.211   4.124   1.004
 2667SOL     OW 8899   1.856   6.058   4.901
 2667SOL    HW1 8900   1.874   6.092   4.808
 2667SOL    HW2 8901   1.792   5.982   4.897
 2668SOL     OW 8902   6.920   3.367   5.180
 2668SOL    HW1 8903   6.876   3.297   5.237
 2668SOL    HW2 8904   6.855   3.400   5.111
 2669SOL     OW 8905   4.205   5.461   5.573
 2669SOL    HW1 8906   4.224   5.537   5.510
 2669SOL    HW2 8907   4.109   5.463   5.600
 2670SOL     OW 8908   0.911   1.173   0.017
 2670SOL    HW1 8909   0.812   1.182   0.024
 2670SOL    HW2 8910   0.937   1.076   0.025
 2671SOL     OW 8911   2.456   3.705   6.520
 2671SOL    HW1 8912   2.484   3.619   6.478
 2671SOL    HW2 8913   2.536   3.751   6.558
 2672SOL     OW 8914   2.243   5.520   0.156
 2672SOL    HW1 8915   2.166   5.559   0.105
 2672SOL    HW2 8916   2.316   5.587   0.162
 2673SOL     OW 8917   4.107   2.251   2.984
 2673SOL    HW1 8918   4.027   2.192   2.979
 2673SOL    HW2 8919   4.135   2.278   2.891
 2674SOL     OW 8920   0.216   5.574   4.363
 2674SOL    HW1 8921   0.242   5.669   4.348
 2674SOL    HW2 8922   0.125   5.557   4.325
 2675SOL     OW 8923   0.255   4.752   5.401
 2675SOL    HW1 8924   0.331   4.763   5.337
 2675SOL    HW2 8925   0.242   4.836   5.454
 2676SOL     OW 8926   4.585   1.577   1.834
 2676SOL    HW1 8927   4.494   1.617   1.823
 2676SOL    HW2 8928   4.631   1.573   1.745
 2677SOL     OW 8929   1.730   4.404   1.352
 2677SOL    HW1 8930   1.829   4.389   1.351
 2677SOL    HW2 8931   1.693   4.375   1.440
 2678SOL     OW 8932   1.157   5.199   6.093
 2678SOL    HW1 8933   1.101   5.266   6.143
 2678SOL    HW2 8934   1.146   5.109   6.136
 2679SOL     OW 8935   3.219   5.059   0.817
 2679SOL    HW1 8936   3.205   5.038   0.914
 2679SOL    HW2 8937   3.131   5.058   0.770
 2680SOL     OW 8938   2.209   1.736   1.079
 2680SOL    HW1 8939   2.245   1.659   1.131
 2680SOL    HW2 8940   2.123   1.767   1.121
 2681SOL     OW 8941   1.195   3.032   4.122
 2681SOL    HW1 8942   1.220   2.940   4.154
 2681SOL    HW2 8943   1.276   3.090   4.120
 2682SOL     OW 8944   5.300   2.990   2.318
 2682SOL    HW1 8945   5.329   3.061   2.254
 2682SOL    HW2 8946   5.240   2.926   2.271
 2683SOL     OW 8947   0.669   5.647   1.253
 2683SOL    HW1 8948   0.706   5.623   1.342
 2683SOL    HW2 8949   0.741   5.689   1.197
 2684SOL     OW 8950   2.953   6.793   2.739
 2684SOL    HW1 8951   3.015   6.870   2.724
 2684SOL    HW2 8952   2.938   6.744   2.653
 2685SOL     OW 8953   4.968   5.911   4.912
 2685SOL    HW1 8954   4.911   5.883   4.989
 2685SOL    HW2 8955   4.918   5.895   4.826
 2686SOL     OW 8956   2.298   2.913   4.219
 2686SOL    HW1 8957   2.310   2.922   4.318
 2686SOL    HW2 8958   2.357   2.840   4.185
 2687SOL     OW 8959   3.760   5.189   2.363
 2687SOL    HW1 8960   3.746   5.276   2.409
 2687SOL    HW2 8961   3.696   5.121   2.400
 2688SOL     OW 8962   4.854   4.845   6.592
 2688SOL    HW1 8963   4.795   4.926   6.594
 2688SOL    HW2 8964   4.934   4.861   6.650
 2689SOL     OW 8965   0.970   2.390   3.565
 2689SOL    HW1 8966   0.919   2.304   3.557
 2689SOL    HW2 8967   1.024   2.388   3.649
 2690SOL     OW 8968   3.887   3.198   3.945
 2690SOL    HW1 8969   3.900   3.155   3.856
 2690SOL    HW2 8970   3.855   3.292   3.932
 2691SOL     OW 8971   1.669   5.482   2.247
 2691SOL    HW1 8972   1.721   5.562   2.217
 2691SOL    HW2 8973   1.571   5.502   2.242
 2692SOL     OW 8974   0.335   5.543   3.545
 2692SOL    HW1 8975   0.331   5.443   3.542
 2692SOL    HW2 8976   0.425   5.572   3.578
 2693SOL     OW 8977   1.907   3.836   3.662
 2693SOL    HW1 8978   1.993   3.879   3.690
 2693SOL    HW2 8979   1.841   3.907   3.639
 2694SOL     OW 8980   2.722   6.695   3.269
 2694SOL    HW1 8981   2.785   6.773   3.269
 2694SOL    HW2 8982   2.765   6.617   3.224
 2695SOL     OW 8983   5.072   2.266   2.463
 2695SOL    HW1 8984   5.110   2.358   2.465
 2695SOL    HW2 8985   5.146   2.199   2.474
 2696SOL     OW 8986   4.030   3.898   5.569
 2696SOL    HW1 8987   3.982   3.932   5.488
 2696SOL    HW2 8988   4.057   3.803   5.554
 2697SOL     OW 8989   3.548   1.993   3.773
 2697SOL    HW1 8990   3.584   1.919   3.716
 2697SOL    HW2 8991   3.448   1.987   3.777
 2698SOL     OW 8992   0.877   3.885   0.488
 2698SOL    HW1 8993   0.823   3.967   0.507
 2698SOL    HW2 8994   0.832   3.806   0.529
 2699SOL     OW 8995   3.686   5.600   1.551
 2699SOL    HW1 8996   3.684   5.558   1.642
 2699SOL    HW2 8997   3.690   5.529   1.481
 2700SOL     OW 8998   1.726   3.370   2.771
 2700SOL    HW1 8999   1.689   3.343   2.682
 2700SOL    HW2 9000   1.813   3.324   2.787
 2701SOL     OW 9001   3.639   0.147   6.549
 2701SOL    HW1 9002   3.724   0.113   6.588
 2701SOL    HW2 9003   3.584   0.070   6.515
 2702SOL     OW 9004   6.961   1.457   3.138
 2702SOL    HW1 9005   6.894   1.422   3.074
 2702SOL    HW2 9006   6.914   1.499   3.216
 2703SOL     OW 9007   2.422   1.672   2.655
 2703SOL    HW1 9008   2.511   1.631   2.674
 2703SOL    HW2 9009   2.386   1.634   2.569
 2704SOL     OW 9010   3.051   5.208   1.730
 2704SOL    HW1 9011   3.029   5.253   1.817
 2704SOL    HW2 9012   3.150   5.201   1.720
 2705SOL     OW 9013   6.235   5.972   3.896
 2705SOL    HW1 9014   6.164   6.019   3.949
 2705SOL    HW2 9015   6.192   5.925   3.819
 2706SOL     OW 9016   6.738   1.495   2.225
 2706SOL    HW1 9017   6.753   1.534   2.316
 2706SOL    HW2 9018   6.683   1.558   2.170
 2707SOL     OW 9019   1.707   1.910   6.734
 2707SOL    HW1 9020   1.779   1.841   6.725
 2707SOL    HW2 9021   1.622   1.866   6.765
 2708SOL     OW 9022   2.042   2.617   2.188
 2708SOL    HW1 9023   2.007   2.527   2.162
 2708SOL    HW2 9024   2.053   2.622   2.287
 2709SOL     OW 9025   5.468   6.032   0.833
 2709SOL    HW1 9026   5.523   6.062   0.911
 2709SOL    HW2 9027   5.516   6.055   0.748
 2710SOL     OW 9028   0.068   3.826   2.617
 2710SOL    HW1 9029   0.026   3.736   2.610
 2710SOL    HW2 9030   0.001   3.896   2.592
 2711SOL     OW 9031   1.031   0.477   2.018
 2711SOL    HW1 9032   0.939   0.484   1.979
 2711SOL    HW2 9033   1.099   0.474   1.945
 2712SOL     OW 9034   2.382   4.597   0.841
 2712SOL    HW1 9035   2.302   4.638   0.798
 2712SOL    HW2 9036   2.425   4.663   0.902
 2713SOL     OW 9037   2.229   3.195   5.278
 2713SOL    HW1 9038   2.307   3.138   5.253
 2713SOL    HW2 9039   2.199   3.247   5.198
 2714SOL     OW 9040   5.035   0.847   5.851
 2714SOL    HW1 9041   4.947   0.830   5.896
 2714SOL    HW2 9042   5.104   0.869   5.920
 2715SOL     OW 9043   5.840   1.561   6.613
 2715SOL    HW1 9044   5.821   1.467   6.583
 2715SOL    HW2 9045   5.820   1.569   6.710
 2716SOL     OW 9046   6.516   5.884   2.311
 2716SOL    HW1 9047   6.549   5.827   2.387
 2716SOL    HW2 9048   6.593   5.935   2.272
 2717SOL     OW 9049   0.775   6.554   2.529
 2717SOL    HW1 9050   0.846   6.486   2.547
 2717SOL    HW2 9051   0.805   6.643   2.565
 2718SOL     OW 9052   1.966   4.023   4.032
 2718SOL    HW1 9053   2.061   3.996   4.014
 2718SOL    HW2 9054   1.904   3.955   3.992
 2719SOL     OW 9055   4.344   5.310   2.235
 2719SOL    HW1 9056   4.400   5.325   2.153
 2719SOL    HW2 9057   4.377   5.369   2.308
 2720SOL     OW 9058   2.033   6.674   4.068
 2720SOL    HW1 9059   2.112   6.616   4.090
 2720SOL    HW2 9060   2.054   6.769   4.091
 2721SOL     OW 9061   3.011   6.927   4.544
 2721SOL    HW1 9062   3.001   7.011   4.490
 2721SOL    HW2 9063   3.100   6.885   4.525
 2722SOL     OW 9064   0.543   5.655   3.282
 2722SOL    HW1 9065   0.457   5.605   3.294
 2722SOL    HW2 9066   0.604   5.602   3.224
 2723SOL     OW 9067   2.306   1.320   5.573
 2723SOL    HW1 9068   2.321   1.342   5.476
 2723SOL    HW2 9069   2.328   1.224   5.589
 2724SOL     OW 9070   3.982   5.877   6.814
 2724SOL    HW1 9071   3.944   5.804   6.758
 2724SOL    HW2 9072   4.080   5.863   6.825
 2725SOL     OW 9073   4.338   4.698   3.495
 2725SOL    HW1 9074   4.269   4.700   3.567
 2725SOL    HW2 9075   4.375   4.605   3.487
 2726SOL     OW 9076   5.161   5.090   1.715
 2726SOL    HW1 9077   5.163   5.175   1.769
 2726SOL    HW2 9078   5.068   5.055   1.711
 2727SOL     OW 9079   0.859   4.862   2.582
 2727SOL    HW1 9080   0.815   4.774   2.566
 2727SOL    HW2 9081   0.790   4.934   2.584
 2728SOL     OW 9082   2.708   6.793   5.806
 2728SOL    HW1 9083   2.796   6.839   5.818
 2728SOL    HW2 9084   2.685   6.788   5.709
 2729SOL     OW 9085   6.121   4.873   3.283
 2729SOL    HW1 9086   6.128   4.815   3.201
 2729SOL    HW2 9087   6.082   4.962   3.257
 2730SOL     OW 9088   2.175   0.213   0.646
 2730SOL    HW1 9089   2.268   0.175   0.641
 2730SOL    HW2 9090   2.114   0.144   0.686
 2731SOL     OW 9091   2.931   3.774   1.884
 2731SOL    HW1 9092   2.993   3.840   1.925
 2731SOL    HW2 9093   2.975   3.685   1.879
 2732SOL     OW 9094   5.538   2.634   2.654
 2732SOL    HW1 9095   5.565   2.728   2.673
 2732SOL    HW2 9096   5.560   2.577   2.732
 2733SOL     OW 9097   0.918   6.785   5.493
 2733SOL    HW1 9098   0.910   6.710   5.560
 2733SOL    HW2 9099   0.948   6.748   5.405
 2734SOL     OW 9100   1.869   6.656   3.759
 2734SOL    HW1 9101   1.962   6.654   3.722
 2734SOL    HW2 9102   1.872   6.633   3.857
 2735SOL     OW 9103   1.361   4.958   2.275
 2735SOL    HW1 9104   1.304   4.881   2.304
 2735SOL    HW2 9105   1.427   4.980   2.347
 2736SOL     OW 9106   3.814   0.379   4.957
 2736SOL    HW1 9107   3.776   0.459   4.910
 2736SOL    HW2 9108   3.837   0.309   4.890
 2737SOL     OW 9109   4.326   3.967   6.322
 2737SOL    HW1 9110   4.391   3.999   6.254
 2737SOL    HW2 9111   4.320   4.034   6.397
 2738SOL     OW 9112   5.635   5.072   4.789
 2738SOL    HW1 9113   5.650   5.079   4.690
 2738SOL    HW2 9114   5.695   5.001   4.827
 2739SOL     OW 9115   5.460   3.324   1.294
 2739SOL    HW1 9116   5.452   3.378   1.211
 2739SOL    HW2 9117   5.401   3.364   1.365
 2740SOL     OW 9118   6.182   2.248   2.632
 2740SOL    HW1 9119   6.089   2.247   2.669
 2740SOL    HW2 9120   6.246   2.212   2.700
 2741SOL     OW 9121   0.329   2.221   5.519
 2741SOL    HW1 9122   0.326   2.198   5.617
 2741SOL    HW2 9123   0.236   2.239   5.487
 2742SOL     OW 9124   1.668   6.304   6.590
 2742SOL    HW1 9125   1.732   6.259   6.652
 2742SOL    HW2 9126   1.637   6.390   6.631
 2743SOL     OW 9127   5.367   4.896   1.359
 2743SOL    HW1 9128   5.375   4.812   1.413
 2743SOL    HW2 9129   5.399   4.879   1.266
 2744SOL     OW 9130   3.772   2.399   6.149
 2744SOL    HW1 9131   3.846   2.357   6.096
 2744SOL    HW2 9132   3.696   2.334   6.158
 2745SOL     OW 9133   2.339   6.255   1.107
 2745SOL    HW1 9134   2.319   6.157   1.114
 2745SOL    HW2 9135   2.254   6.305   1.092
 2746SOL     OW 9136   2.115   1.743   5.868
 2746SOL    HW1 9137   2.096   1.774   5.961
 2746SOL    HW2 9138   2.046   1.677   5.839
 2747SOL     OW 9139   5.166   6.559   4.169
 2747SOL    HW1 9140   5.146   6.500   4.247
 2747SOL    HW2 9141   5.265   6.575   4.165
 2748SOL     OW 9142   4.242   1.493   2.784
 2748SOL    HW1 9143   4.316   1.429   2.805
 2748SOL    HW2 9144   4.183   1.503   2.865
 2749SOL     OW 9145   4.431   4.823   4.102
 2749SOL    HW1 9146   4.421   4.912   4.147
 2749SOL    HW2 9147   4.342   4.793   4.068
 2750SOL     OW 9148   0.630   5.706   2.328
 2750SOL    HW1 9149   0.602   5.749   2.242
 2750SOL    HW2 9150   0.565   5.731   2.401
 2751SOL     OW 9151   2.071   6.741   6.418
 2751SOL    HW1 9152   2.040   6.788   6.501
 2751SOL    HW2 9153   1.993   6.696   6.374
 2752SOL     OW 9154   5.945   5.977   5.329
 2752SOL    HW1 9155   6.035   6.011   5.303
 2752SOL    HW2 9156   5.901   6.042   5.391
 2753SOL     OW 9157   3.918   6.112   6.654
 2753SOL    HW1 9158   3.888   6.021   6.683
 2753SOL    HW2 9159   4.014   6.108   6.627
 2754SOL     OW 9160   0.448   0.789   4.488
 2754SOL    HW1 9161   0.451   0.876   4.439
 2754SOL    HW2 9162   0.540   0.751   4.495
 2755SOL     OW 9163   3.111   6.248   2.299
 2755SOL    HW1 9164   3.160   6.171   2.259
 2755SOL    HW2 9165   3.024   6.217   2.337
 2756SOL     OW 9166   6.365   3.152   5.836
 2756SOL    HW1 9167   6.349   3.058   5.808
 2756SOL    HW2 9168   6.445   3.188   5.787
 2757SOL     OW 9169   4.399   2.623   6.700
 2757SOL    HW1 9170   4.426   2.710   6.741
 2757SOL    HW2 9171   4.428   2.621   6.604
 2758SOL     OW 9172   6.171   5.404   2.779
 2758SOL    HW1 9173   6.114   5.362   2.708
 2758SOL    HW2 9174   6.139   5.497   2.796
 2759SOL     OW 9175   3.122   4.565   6.541
 2759SOL    HW1 9176   3.198   4.597   6.485
 2759SOL    HW2 9177   3.074   4.643   6.581
 2760SOL     OW 9178   5.183   5.694   3.602
 2760SOL    HW1 9179   5.271   5.697   3.555
 2760SOL    HW2 9180   5.171   5.778   3.655
 2761SOL     OW 9181   2.009   3.441   2.535
 2761SOL    HW1 9182   2.047   3.364   2.584
 2761SOL    HW2 9183   1.983   3.413   2.442
 2762SOL     OW 9184   2.175   1.842   0.423
 2762SOL    HW1 9185   2.176   1.940   0.440
 2762SOL    HW2 9186   2.087   1.804   0.448
 2763SOL     OW 9187   4.695   1.433   5.323
 2763SOL    HW1 9188   4.705   1.532   5.334
 2763SOL    HW2 9189   4.771   1.399   5.268
 2764SOL     OW 9190   1.011   4.214   1.759
 2764SOL    HW1 9191   1.101   4.239   1.796
 2764SOL    HW2 9192   1.023   4.152   1.682
 2765SOL     OW 9193   6.204   6.654   6.849
 2765SOL    HW1 9194   6.281   6.696   6.799
 2765SOL    HW2 9195   6.150   6.599   6.786
 2766SOL     OW 9196   5.815   0.866   6.875
 2766SOL    HW1 9197   5.780   0.791   6.817
 2766SOL    HW2 9198   5.859   0.828   6.955
 2767SOL     OW 9199   6.882   5.166   6.450
 2767SOL    HW1 9200   6.896   5.092   6.515
 2767SOL    HW2 9201   6.952   5.162   6.379
 2768SOL     OW 9202   4.324   6.926   1.102
 2768SOL    HW1 9203   4.230   6.960   1.102
 2768SOL    HW2 9204   4.382   6.989   1.154
 2769SOL     OW 9205   1.972   4.731   5.657
 2769SOL    HW1 9206   1.983   4.809   5.719
 2769SOL    HW2 9207   2.060   4.685   5.646
 2770SOL     OW 9208   2.396   6.721   0.464
 2770SOL    HW1 9209   2.389   6.749   0.560
 2770SOL    HW2 9210   2.471   6.771   0.420
 2771SOL     OW 9211   4.430   0.346   4.857
 2771SOL    HW1 9212   4.348   0.358   4.913
 2771SOL    HW2 9213   4.422   0.399   4.773
 2772SOL     OW 9214   3.839   0.545   2.910
 2772SOL    HW1 9215   3.815   0.457   2.951
 2772SOL    HW2 9216   3.882   0.603   2.978
 2773SOL     OW 9217   5.686   2.734   4.038
 2773SOL    HW1 9218   5.671   2.822   3.992
 2773SOL    HW2 9219   5.782   2.709   4.032
 2774SOL     OW 9220   5.276   1.632   3.679
 2774SOL    HW1 9221   5.219   1.553   3.655
 2774SOL    HW2 9222   5.218   1.704   3.718
 2775SOL     OW 9223   0.823   4.319   4.652
 2775SOL    HW1 9224   0.878   4.392   4.613
 2775SOL    HW2 9225   0.758   4.357   4.717
 2776SOL     OW 9226   5.039   4.455   6.046
 2776SOL    HW1 9227   4.954   4.428   6.092
 2776SOL    HW2 9228   5.076   4.377   5.995
 2777SOL     OW 9229   3.078   2.304   6.228
 2777SOL    HW1 9230   3.173   2.336   6.217
 2777SOL    HW2 9231   3.038   2.289   6.138
 2778SOL     OW 9232   2.933   6.050   6.461
 2778SOL    HW1 9233   2.961   5.988   6.388
 2778SOL    HW2 9234   2.844   6.022   6.497
 2779SOL     OW 9235   6.034   6.851   2.078
 2779SOL    HW1 9236   6.096   6.877   2.152
 2779SOL    HW2 9237   6.067   6.768   2.034
 2780SOL     OW 9238   0.210   1.791   5.817
 2780SOL    HW1 9239   0.244   1.697   5.829
 2780SOL    HW2 9240   0.250   1.849   5.888
 2781SOL     OW 9241   6.443   0.348   2.642
 2781SOL    HW1 9242   6.447   0.436   2.691
 2781SOL    HW2 9243   6.359   0.343   2.588
 2782SOL     OW 9244   4.133   1.076   6.851
 2782SOL    HW1 9245   4.076   1.068   6.933
 2782SOL    HW2 9246   4.123   0.994   6.796
 2783SOL     OW 9247   5.533   3.960   1.850
 2783SOL    HW1 9248   5.581   3.918   1.773
 2783SOL    HW2 9249   5.502   3.889   1.913
 2784SOL     OW 9250   1.133   1.671   0.868
 2784SOL    HW1 9251   1.186   1.607   0.812
 2784SOL    HW2 9252   1.136   1.643   0.963
 2785SOL     OW 9253   5.426   2.879   1.662
 2785SOL    HW1 9254   5.524   2.889   1.676
 2785SOL    HW2 9255   5.395   2.794   1.705
 2786SOL     OW 9256   6.986   6.296   0.047
 2786SOL    HW1 9257   6.925   6.219   0.065
 2786SOL    HW2 9258   6.933   6.381   0.047
 2787SOL     OW 9259   6.250   4.770   6.361
 2787SOL    HW1 9260   6.240   4.867   6.337
 2787SOL    HW2 9261   6.345   4.753   6.388
 2788SOL     OW 9262   3.341   6.370   5.864
 2788SOL    HW1 9263   3.405   6.321   5.805
 2788SOL    HW2 9264   3.247   6.347   5.838
 2789SOL     OW 9265   0.621   2.596   5.128
 2789SOL    HW1 9266   0.713   2.633   5.138
 2789SOL    HW2 9267   0.591   2.606   5.033
 2790SOL     OW 9268   1.666   5.861   1.156
 2790SOL    HW1 9269   1.679   5.762   1.162
 2790SOL    HW2 9270   1.740   5.908   1.205
 2791SOL     OW 9271   0.047   3.861   3.381
 2791SOL    HW1 9272   7.012   3.785   3.348
 2791SOL    HW2 9273   0.139   3.852   3.343
 2792SOL     OW 9274   3.025   1.551   5.300
 2792SOL    HW1 9275   2.990   1.559   5.393
 2792SOL    HW2 9276   3.115   1.593   5.294
 2793SOL     OW 9277   3.668   4.263   1.399
 2793SOL    HW1 9278   3.620   4.216   1.474
 2793SOL    HW2 9279   3.641   4.359   1.398
 2794SOL     OW 9280   0.671   2.164   6.085
 2794SOL    HW1 9281   0.645   2.099   6.157
 2794SOL    HW2 9282   0.612   2.245   6.091
 2795SOL     OW 9283   1.266   4.817   1.598
 2795SOL    HW1 9284   1.280   4.794   1.502
 2795SOL    HW2 9285   1.221   4.742   1.645
 2796SOL     OW 9286   1.446   5.990   5.540
 2796SOL    HW1 9287   1.483   5.908   5.584
 2796SOL    HW2 9288   1.494   6.006   5.453
 2797SOL     OW 9289   5.689   6.941   3.766
 2797SOL    HW1 9290   5.620   6.918   3.697
 2797SOL    HW2 9291   5.677   0.014   3.795
 2798SOL     OW 9292   5.841   6.877   1.724
 2798SOL    HW1 9293   5.775   6.866   1.650
 2798SOL    HW2 9294   5.868   6.974   1.730
 2799SOL     OW 9295   3.560   6.107   4.846
 2799SOL    HW1 9296   3.574   6.030   4.909
 2799SOL    HW2 9297   3.610   6.091   4.761
 2800SOL     OW 9298   6.211   0.630   6.725
 2800SOL    HW1 9299   6.265   0.550   6.698
 2800SOL    HW2 9300   6.201   0.631   6.824
 2801SOL     OW 9301   0.764   5.042   5.347
 2801SOL    HW1 9302   0.695   5.001   5.407
 2801SOL    HW2 9303   0.720   5.105   5.283
 2802SOL     OW 9304   6.851   5.204   5.702
 2802SOL    HW1 9305   6.779   5.216   5.769
 2802SOL    HW2 9306   6.868   5.290   5.655
 2803SOL     OW 9307   3.835   2.899   6.878
 2803SOL    HW1 9308   3.783   2.820   6.847
 2803SOL    HW2 9309   3.911   2.916   6.815
 2804SOL     OW 9310   0.282   2.638   3.652
 2804SOL    HW1 9311   0.207   2.588   3.695
 2804SOL    HW2 9312   0.291   2.727   3.695
 2805SOL     OW 9313   4.416   3.428   1.139
 2805SOL    HW1 9314   4.447   3.348   1.088
 2805SOL    HW2 9315   4.426   3.510   1.083
 2806SOL     OW 9316   0.260   4.628   5.880
 2806SOL    HW1 9317   0.356   4.626   5.908
 2806SOL    HW2 9318   0.252   4.669   5.789
 2807SOL     OW 9319   3.112   0.342   3.537
 2807SOL    HW1 9320   3.120   0.422   3.478
 2807SOL    HW2 9321   3.170   0.353   3.617
 2808SOL     OW 9322   6.509   4.727   0.127
 2808SOL    HW1 9323   6.486   4.791   0.053
 2808SOL    HW2 9324   6.604   4.740   0.153
 2809SOL     OW 9325   6.511   5.077   2.217
 2809SOL    HW1 9326   6.483   5.170   2.242
 2809SOL    HW2 9327   6.429   5.020   2.206
 2810SOL     OW 9328   2.467   5.339   3.444
 2810SOL    HW1 9329   2.433   5.423   3.401
 2810SOL    HW2 9330   2.397   5.268   3.438
 2811SOL     OW 9331   0.713   0.662   2.079
 2811SOL    HW1 9332   0.733   0.757   2.054
 2811SOL    HW2 9333   0.760   0.601   2.016
 2812SOL     OW 9334   0.877   3.106   1.165
 2812SOL    HW1 9335   0.869   3.048   1.084
 2812SOL    HW2 9336   0.963   3.088   1.211
 2813SOL     OW 9337   0.967   2.360   1.604
 2813SOL    HW1 9338   0.990   2.457   1.597
 2813SOL    HW2 9339   0.879   2.343   1.560
 2814SOL     OW 9340   2.242   4.159   0.001
 2814SOL    HW1 9341   2.233   4.164   6.924
 2814SOL    HW2 9342   2.155   4.180   0.045
 2815SOL     OW 9343   0.380   5.840   5.574
 2815SOL    HW1 9344   0.330   5.923   5.597
 2815SOL    HW2 9345   0.475   5.848   5.605
 2816SOL     OW 9346   0.726   5.938   5.942
 2816SOL    HW1 9347   0.650   5.988   5.902
 2816SOL    HW2 9348   0.719   5.841   5.918
 2817SOL     OW 9349   4.425   0.702   2.238
 2817SOL    HW1 9350   4.378   0.763   2.301
 2817SOL    HW2 9351   4.361   0.667   2.170
 2818SOL     OW 9352   1.022   0.272   1.227
 2818SOL    HW1 9353   0.994   0.334   1.154
 2818SOL    HW2 9354   1.017   0.177   1.194
 2819SOL     OW 9355   0.879   0.402   0.344
 2819SOL    HW1 9356   0.789   0.367   0.371
 2819SOL    HW2 9357   0.889   0.397   0.245
 2820SOL     OW 9358   1.035   2.966   1.320
 2820SOL    HW1 9359   0.949   2.914   1.323
 2820SOL    HW2 9360   1.055   3.002   1.411
 2821SOL     OW 9361   2.961   4.128   6.425
 2821SOL    HW1 9362   3.030   4.077   6.375
 2821SOL    HW2 9363   2.977   4.119   6.523
 2822SOL     OW 9364   4.803   2.796   0.999
 2822SOL    HW1 9365   4.734   2.734   0.959
 2822SOL    HW2 9366   4.758   2.860   1.061
 2823SOL     OW 9367   5.668   2.075   1.256
 2823SOL    HW1 9368   5.686   2.172   1.272
 2823SOL    HW2 9369   5.570   2.059   1.255
 2824SOL     OW 9370   1.109   3.903   5.251
 2824SOL    HW1 9371   1.119   3.980   5.188
 2824SOL    HW2 9372   1.093   3.819   5.198
 2825SOL     OW 9373   5.126   1.493   6.506
 2825SOL    HW1 9374   5.105   1.536   6.594
 2825SOL    HW2 9375   5.220   1.515   6.479
 2826SOL     OW 9376   2.155   3.429   6.510
 2826SOL    HW1 9377   2.138   3.342   6.556
 2826SOL    HW2 9378   2.193   3.494   6.576
 2827SOL     OW 9379   6.629   0.978   6.319
 2827SOL    HW1 9380   6.710   1.020   6.360
 2827SOL    HW2 9381   6.559   1.048   6.304
 2828SOL     OW 9382   1.620   3.772   0.862
 2828SOL    HW1 9383   1.540   3.793   0.807
 2828SOL    HW2 9384   1.699   3.823   0.828
 2829SOL     OW 9385   3.951   3.864   3.441
 2829SOL    HW1 9386   3.869   3.879   3.387
 2829SOL    HW2 9387   3.949   3.922   3.522
 2830SOL     OW 9388   3.324   4.951   5.643
 2830SOL    HW1 9389   3.269   4.888   5.587
 2830SOL    HW2 9390   3.269   5.032   5.663
 2831SOL     OW 9391   6.251   1.822   2.117
 2831SOL    HW1 9392   6.169   1.876   2.099
 2831SOL    HW2 9393   6.255   1.745   2.053
 2832SOL     OW 9394   0.790   3.366   1.074
 2832SOL    HW1 9395   0.728   3.324   1.141
 2832SOL    HW2 9396   0.868   3.306   1.058
 2833SOL     OW 9397   1.775   2.181   2.013
 2833SOL    HW1 9398   1.723   2.165   2.097
 2833SOL    HW2 9399   1.712   2.187   1.936
 2834SOL     OW 9400   3.736   6.034   5.281
 2834SOL    HW1 9401   3.803   6.062   5.349
 2834SOL    HW2 9402   3.778   5.968   5.218
 2835SOL     OW 9403   0.520   6.778   0.638
 2835SOL    HW1 9404   0.534   6.874   0.614
 2835SOL    HW2 9405   0.519   6.768   0.738
 2836SOL     OW 9406   3.441   6.327   3.149
 2836SOL    HW1 9407   3.369   6.266   3.116
 2836SOL    HW2 9408   3.529   6.279   3.143
 2837SOL     OW 9409   5.325   4.219   2.550
 2837SOL    HW1 9410   5.385   4.296   2.572
 2837SOL    HW2 9411   5.239   4.228   2.600
 2838SOL     OW 9412   5.346   4.243   6.097
 2838SOL    HW1 9413   5.317   4.300   6.174
 2838SOL    HW2 9414   5.291   4.159   6.096
 2839SOL     OW 9415   5.870   2.755   5.108
 2839SOL    HW1 9416   5.877   2.784   5.203
 2839SOL    HW2 9417   5.933   2.810   5.052
 2840SOL     OW 9418   0.127   6.377   3.736
 2840SOL    HW1 9419   0.072   6.436   3.677
 2840SOL    HW2 9420   0.068   6.308   3.777
 2841SOL     OW 9421   6.236   2.770   2.131
 2841SOL    HW1 9422   6.301   2.828   2.179
 2841SOL    HW2 9423   6.204   2.697   2.192
 2842SOL     OW 9424   1.363   6.558   3.000
 2842SOL    HW1 9425   1.425   6.627   2.963
 2842SOL    HW2 9426   1.358   6.567   3.100
 2843SOL     OW 9427   2.335   2.778   3.375
 2843SOL    HW1 9428   2.376   2.747   3.460
 2843SOL    HW2 9429   2.376   2.729   3.298
 2844SOL     OW 9430   4.794   4.589   1.213
 2844SOL    HW1 9431   4.803   4.538   1.127
 2844SOL    HW2 9432   4.866   4.657   1.218
 2845SOL     OW 9433   3.479   1.899   2.838
 2845SOL    HW1 9434   3.476   1.852   2.926
 2845SOL    HW2 9435   3.491   1.833   2.764
 2846SOL     OW 9436   5.614   0.532   0.288
 2846SOL    HW1 9437   5.627   0.476   0.369
 2846SOL    HW2 9438   5.531   0.587   0.298
 2847SOL     OW 9439   4.642   4.769   2.429
 2847SOL    HW1 9440   4.659   4.672   2.450
 2847SOL    HW2 9441   4.604   4.814   2.510
 2848SOL     OW 9442   0.745   4.199   5.488
 2848SOL    HW1 9443   0.844   4.200   5.472
 2848SOL    HW2 9444   0.714   4.105   5.501
 2849SOL     OW 9445   4.914   0.594   2.647
 2849SOL    HW1 9446   4.844   0.567   2.712
 2849SOL    HW2 9447   4.921   0.694   2.644
 2850SOL     OW 9448   2.251   6.542   2.821
 2850SOL    HW1 9449   2.202   6.574   2.740
 2850SOL    HW2 9450   2.188   6.534   2.898
 2851SOL     OW 9451   3.842   3.693   0.825
 2851SOL    HW1 9452   3.771   3.627   0.849
 2851SOL    HW2 9453   3.900   3.710   0.904
 2852SOL     OW 9454   6.166   3.870   5.856
 2852SOL    HW1 9455   6.208   3.779   5.860
 2852SOL    HW2 9456   6.092   3.869   5.789
 2853SOL     OW 9457   0.403   3.949   6.690
 2853SOL    HW1 9458   0.319   3.919   6.646
 2853SOL    HW2 9459   0.482   3.920   6.635
 2854SOL     OW 9460   3.267   1.711   6.188
 2854SOL    HW1 9461   3.258   1.799   6.235
 2854SOL    HW2 9462   3.303   1.643   6.252
 2855SOL     OW 9463   2.109   1.412   4.957
 2855SOL    HW1 9464   2.047   1.464   5.016
 2855SOL    HW2 9465   2.080   1.316   4.954
 2856SOL     OW 9466   0.358   4.829   3.391
 2856SOL    HW1 9467   0.306   4.896   3.444
 2856SOL    HW2 9468   0.295   4.764   3.349
 2857SOL     OW 9469   0.142   3.513   0.402
 2857SOL    HW1 9470   0.052   3.470   0.407
 2857SOL    HW2 9471   0.141   3.586   0.334
 2858SOL     OW 9472   4.625   5.313   2.707
 2858SOL    HW1 9473   4.589   5.244   2.769
 2858SOL    HW2 9474   4.625   5.277   2.614
 2859SOL     OW 9475   5.161   4.616   1.400
 2859SOL    HW1 9476   5.135   4.609   1.303
 2859SOL    HW2 9477   5.193   4.527   1.433
 2860SOL     OW 9478   1.037   6.168   2.143
 2860SOL    HW1 9479   0.944   6.194   2.116
 2860SOL    HW2 9480   1.037   6.075   2.179
 2861SOL     OW 9481   4.533   5.260   0.045
 2861SOL    HW1 9482   4.496   5.168   0.032
 2861SOL    HW2 9483   4.628   5.263   0.014
 2862SOL     OW 9484   3.782   3.083   0.570
 2862SOL    HW1 9485   3.789   3.126   0.480
 2862SOL    HW2 9486   3.855   3.117   0.629
 2863SOL     OW 9487   5.744   6.950   5.418
 2863SOL    HW1 9488   5.798   6.902   5.488
 2863SOL    HW2 9489   5.707   0.012   5.456
 2864SOL     OW 9490   4.224   3.855   0.377
 2864SOL    HW1 9491   4.188   3.845   0.470
 2864SOL    HW2 9492   4.307   3.800   0.368
 2865SOL     OW 9493   4.834   5.470   4.590
 2865SOL    HW1 9494   4.847   5.374   4.615
 2865SOL    HW2 9495   4.920   5.519   4.603
 2866SOL     OW 9496   4.292   4.550   6.921
 2866SOL    HW1 9497   4.314   4.473   6.862
 2866SOL    HW2 9498   4.377   4.594   6.952
 2867SOL     OW 9499   5.632   6.226   1.672
 2867SOL    HW1 9500   5.548   6.263   1.713
 2867SOL    HW2 9501   5.636   6.252   1.576
 2868SOL     OW 9502   1.571   1.639   6.130
 2868SOL    HW1 9503   1.545   1.547   6.100
 2868SOL    HW2 9504   1.574   1.642   6.230
 2869SOL     OW 9505   5.561   5.829   4.525
 2869SOL    HW1 9506   5.477   5.777   4.540
 2869SOL    HW2 9507   5.546   5.924   4.551
 2870SOL     OW 9508   6.545   1.934   1.488
 2870SOL    HW1 9509   6.469   1.991   1.457
 2870SOL    HW2 9510   6.623   1.946   1.427
 2871SOL     OW 9511   4.987   1.808   1.365
 2871SOL    HW1 9512   4.941   1.828   1.279
 2871SOL    HW2 9513   4.951   1.868   1.437
 2872SOL     OW 9514   2.836   2.261   2.631
 2872SOL    HW1 9515   2.842   2.219   2.541
 2872SOL    HW2 9516   2.926   2.260   2.674
 2873SOL     OW 9517   0.872   6.133   1.422
 2873SOL    HW1 9518   0.932   6.056   1.445
 2873SOL    HW2 9519   0.794   6.099   1.370
 2874SOL     OW 9520   2.671   0.836   2.861
 2874SOL    HW1 9521   2.593   0.885   2.822
 2874SOL    HW2 9522   2.742   0.902   2.885
 2875SOL     OW 9523   3.295   6.564   3.106
 2875SOL    HW1 9524   3.355   6.485   3.106
 2875SOL    HW2 9525   3.201   6.535   3.122
 2876SOL     OW 9526   1.202   6.063   1.867
 2876SOL    HW1 9527   1.263   5.992   1.901
 2876SOL    HW2 9528   1.242   6.153   1.885
 2877SOL     OW 9529   1.005   1.543   6.079
 2877SOL    HW1 9530   0.914   1.562   6.041
 2877SOL    HW2 9531   1.061   1.625   6.073
 2878SOL     OW 9532   4.053   3.464   4.248
 2878SOL    HW1 9533   4.048   3.499   4.154
 2878SOL    HW2 9534   4.035   3.366   4.249
 2879SOL     OW 9535   4.608   4.170   0.193
 2879SOL    HW1 9536   4.676   4.203   0.128
 2879SOL    HW2 9537   4.563   4.248   0.236
 2880SOL     OW 9538   1.354   1.387   4.896
 2880SOL    HW1 9539   1.337   1.405   4.799
 2880SOL    HW2 9540   1.394   1.469   4.938
 2881SOL     OW 9541   4.231   6.138   6.611
 2881SOL    HW1 9542   4.258   6.189   6.693
 2881SOL    HW2 9543   4.201   6.203   6.541
 2882SOL     OW 9544   4.881   6.635   0.139
 2882SOL    HW1 9545   4.962   6.641   0.197
 2882SOL    HW2 9546   4.866   6.723   0.092
 2883SOL     OW 9547   6.414   6.174   3.904
 2883SOL    HW1 9548   6.363   6.090   3.916
 2883SOL    HW2 9549   6.354   6.253   3.920
 2884SOL     OW 9550   0.300   5.262   2.939
 2884SOL    HW1 9551   0.333   5.177   2.898
 2884SOL    HW2 9552   0.210   5.285   2.900
 2885SOL     OW 9553   0.706   2.830   3.120
 2885SOL    HW1 9554   0.661   2.891   3.055
 2885SOL    HW2 9555   0.805   2.843   3.116
 2886SOL     OW 9556   2.679   4.372   5.883
 2886SOL    HW1 9557   2.628   4.458   5.879
 2886SOL    HW2 9558   2.721   4.355   5.794
 2887SOL     OW 9559   1.238   5.762   3.489
 2887SOL    HW1 9560   1.238   5.662   3.479
 2887SOL    HW2 9561   1.327   5.792   3.523
 2888SOL     OW 9562   6.293   6.806   0.383
 2888SOL    HW1 9563   6.269   6.710   0.367
 2888SOL    HW2 9564   6.284   6.826   0.481
 2889SOL     OW 9565   3.711   6.300   3.432
 2889SOL    HW1 9566   3.801   6.328   3.400
 2889SOL    HW2 9567   3.658   6.265   3.355
 2890SOL     OW 9568   2.767   0.295   1.441
 2890SOL    HW1 9569   2.708   0.331   1.513
 2890SOL    HW2 9570   2.790   0.200   1.460
 2891SOL     OW 9571   0.423   2.569   3.929
 2891SOL    HW1 9572   0.520   2.586   3.908
 2891SOL    HW2 9573   0.387   2.644   3.984
 2892SOL     OW 9574   0.088   3.781   2.237
 2892SOL    HW1 9575   0.023   3.767   2.163
 2892SOL    HW2 9576   0.093   3.879   2.258
 2893SOL     OW 9577   6.960   5.660   4.585
 2893SOL    HW1 9578   6.999   5.642   4.495
 2893SOL    HW2 9579   6.873   5.611   4.594
 2894SOL     OW 9580   1.223   5.316   2.615
 2894SOL    HW1 9581   1.312   5.299   2.572
 2894SOL    HW2 9582   1.236   5.338   2.711
 2895SOL     OW 9583   4.045   6.489   6.193
 2895SOL    HW1 9584   4.059   6.543   6.110
 2895SOL    HW2 9585   4.127   6.494   6.250
 2896SOL     OW 9586   5.870   5.978   4.939
 2896SOL    HW1 9587   5.847   5.890   4.979
 2896SOL    HW2 9588   5.933   5.965   4.862
 2897SOL     OW 9589   4.011   4.779   2.997
 2897SOL    HW1 9590   4.105   4.756   2.970
 2897SOL    HW2 9591   4.009   4.803   3.094
 2898SOL     OW 9592   5.833   3.732   2.410
 2898SOL    HW1 9593   5.803   3.769   2.322
 2898SOL    HW2 9594   5.754   3.705   2.464
 2899SOL     OW 9595   0.183   3.322   0.994
 2899SOL    HW1 9596   0.086   3.317   1.018
 2899SOL    HW2 9597   0.193   3.369   0.906
 2900SOL     OW 9598   2.873   3.983   6.685
 2900SOL    HW1 9599   2.906   3.994   6.779
 2900SOL    HW2 9600   2.788   3.929   6.686
 2901SOL     OW 9601   1.329   3.911   3.709
 2901SOL    HW1 9602   1.273   3.975   3.657
 2901SOL    HW2 9603   1.372   3.846   3.647
 2902SOL     OW 9604   0.718   6.009   3.793
 2902SOL    HW1 9605   0.644   6.076   3.793
 2902SOL    HW2 9606   0.805   6.057   3.803
 2903SOL     OW 9607   4.996   5.826   0.786
 2903SOL    HW1 9608   4.976   5.758   0.715
 2903SOL    HW2 9609   5.048   5.782   0.860
 2904SOL     OW 9610   2.332   4.355   5.170
 2904SOL    HW1 9611   2.376   4.281   5.221
 2904SOL    HW2 9612   2.263   4.316   5.109
 2905SOL     OW 9613   0.478   4.764   1.773
 2905SOL    HW1 9614   0.497   4.862   1.766
 2905SOL    HW2 9615   0.388   4.745   1.735
 2906SOL     OW 9616   6.034   5.826   3.069
 2906SOL    HW1 9617   6.086   5.911   3.064
 2906SOL    HW2 9618   6.067   5.770   3.145
 2907SOL     OW 9619   0.484   0.780   3.355
 2907SOL    HW1 9620   0.448   0.768   3.448
 2907SOL    HW2 9621   0.492   0.878   3.336
 2908SOL     OW 9622   4.256   0.072   2.530
 2908SOL    HW1 9623   4.286   0.115   2.616
 2908SOL    HW2 9624   4.332   0.071   2.465
 2909SOL     OW 9625   1.097   5.890   2.530
 2909SOL    HW1 9626   1.043   5.867   2.448
 2909SOL    HW2 9627   1.067   5.832   2.606
 2910SOL     OW 9628   6.940   0.995   3.458
 2910SOL    HW1 9629   7.019   1.041   3.417
 2910SOL    HW2 9630   6.856   1.035   3.420
 2911SOL     OW 9631   6.926   4.128   4.558
 2911SOL    HW1 9632   6.902   4.096   4.466
 2911SOL    HW2 9633   7.016   4.170   4.556
 2912SOL     OW 9634   0.229   6.843   1.408
 2912SOL    HW1 9635   0.305   6.864   1.470
 2912SOL    HW2 9636   0.254   6.871   1.315
 2913SOL     OW 9637   2.318   5.979   1.025
 2913SOL    HW1 9638   2.298   6.039   0.948
 2913SOL    HW2 9639   2.314   5.884   0.995
 2914SOL     OW 9640   5.094   5.202   0.208
 2914SOL    HW1 9641   4.998   5.179   0.227
 2914SOL    HW2 9642   5.130   5.259   0.281
 2915SOL     OW 9643   2.957   1.121   2.971
 2915SOL    HW1 9644   2.935   1.125   3.069
 2915SOL    HW2 9645   2.911   1.195   2.923
 2916SOL     OW 9646   1.186   5.667   0.235
 2916SOL    HW1 9647   1.266   5.634   0.285
 2916SOL    HW2 9648   1.125   5.715   0.298
 2917SOL     OW 9649   2.761   6.214   3.970
 2917SOL    HW1 9650   2.820   6.203   3.890
 2917SOL    HW2 9651   2.807   6.271   4.038
 2918SOL     OW 9652   5.978   3.480   1.710
 2918SOL    HW1 9653   5.896   3.435   1.745
 2918SOL    HW2 9654   5.984   3.572   1.747
 2919SOL     OW 9655   1.326   5.459   4.101
 2919SOL    HW1 9656   1.357   5.543   4.144
 2919SOL    HW2 9657   1.309   5.475   4.003
 2920SOL     OW 9658   1.863   1.753   2.156
 2920SOL    HW1 9659   1.896   1.796   2.072
 2920SOL    HW2 9660   1.857   1.822   2.229
 2921SOL     OW 9661   0.742   0.368   5.424
 2921SOL    HW1 9662   0.771   0.382   5.330
 2921SOL    HW2 9663   0.816   0.324   5.476
 2922SOL     OW 9664   3.644   0.541   3.232
 2922SOL    HW1 9665   3.591   0.477   3.287
 2922SOL    HW2 9666   3.616   0.534   3.136
 2923SOL     OW 9667   5.862   5.544   4.573
 2923SOL    HW1 9668   5.779   5.530   4.520
 2923SOL    HW2 9669   5.926   5.469   4.556
 2924SOL     OW 9670   6.053   2.714   5.529
 2924SOL    HW1 9671   6.000   2.633   5.554
 2924SOL    HW2 9672   6.005   2.763   5.456
 2925SOL     OW 9673   4.855   0.102   5.878
 2925SOL    HW1 9674   4.919   0.043   5.925
 2925SOL    HW2 9675   4.801   0.048   5.813
 2926SOL     OW 9676   7.017   2.163   4.445
 2926SOL    HW1 9677   6.960   2.107   4.505
 2926SOL    HW2 9678   6.986   2.155   4.351
 2927SOL     OW 9679   1.232   2.363   1.936
 2927SOL    HW1 9680   1.143   2.400   1.965
 2927SOL    HW2 9681   1.301   2.385   2.005
 2928SOL     OW 9682   0.420   3.122   0.610
 2928SOL    HW1 9683   0.377   3.199   0.562
 2928SOL    HW2 9684   0.375   3.037   0.583
 2929SOL     OW 9685   2.117   2.494   5.047
 2929SOL    HW1 9686   2.209   2.466   5.021
 2929SOL    HW2 9687   2.051   2.425   5.019
 2930SOL     OW 9688   6.687   5.016   5.555
 2930SOL    HW1 9689   6.722   4.964   5.477
 2930SOL    HW2 9690   6.763   5.061   5.602
 2931SOL     OW 9691   4.832   4.205   5.804
 2931SOL    HW1 9692   4.775   4.275   5.846
 2931SOL    HW2 9693   4.774   4.145   5.747
 2932SOL     OW 9694   6.370   5.369   0.466
 2932SOL    HW1 9695   6.464   5.361   0.434
 2932SOL    HW2 9696   6.309   5.316   0.407
 2933SOL     OW 9697   1.650   0.365   1.002
 2933SOL    HW1 9698   1.624   0.347   1.097
 2933SOL    HW2 9699   1.567   0.384   0.949
 2934SOL     OW 9700   4.117   4.660   0.520
 2934SOL    HW1 9701   4.147   4.685   0.612
 2934SOL    HW2 9702   4.186   4.688   0.453
 2935SOL     OW 9703   6.846   2.372   5.879
 2935SOL    HW1 9704   6.770   2.313   5.908
 2935SOL    HW2 9705   6.933   2.327   5.900
 2936SOL     OW 9706   4.472   6.675   1.302
 2936SOL    HW1 9707   4.373   6.673   1.290
 2936SOL    HW2 9708   4.514   6.729   1.229
 2937SOL     OW 9709   4.927   5.372   2.170
 2937SOL    HW1 9710   4.849   5.389   2.109
 2937SOL    HW2 9711   4.901   5.301   2.236
 2938SOL     OW 9712   6.313   5.653   6.812
 2938SOL    HW1 9713   6.322   5.677   6.908
 2938SOL    HW2 9714   6.389   5.692   6.760
 2939SOL     OW 9715   0.177   5.874   0.765
 2939SOL    HW1 9716   0.085   5.852   0.734
 2939SOL    HW2 9717   0.224   5.929   0.696
 2940SOL     OW 9718   4.576   6.028   3.863
 2940SOL    HW1 9719   4.516   6.016   3.784
 2940SOL    HW2 9720   4.530   6.085   3.931
 2941SOL     OW 9721   1.706   3.551   3.916
 2941SOL    HW1 9722   1.611   3.578   3.900
 2941SOL    HW2 9723   1.721   3.538   4.014
 2942SOL     OW 9724   3.745   1.882   1.256
 2942SOL    HW1 9725   3.680   1.806   1.242
 2942SOL    HW2 9726   3.724   1.956   1.192
 2943SOL     OW 9727   6.000   4.204   3.503
 2943SOL    HW1 9728   6.043   4.205   3.593
 2943SOL    HW2 9729   5.998   4.297   3.466
 2944SOL     OW 9730   1.528   6.047   3.384
 2944SOL    HW1 9731   1.506   6.088   3.295
 2944SOL    HW2 9732   1.627   6.053   3.401
 2945SOL     OW 9733   5.103   4.331   1.340
 2945SOL    HW1 9734   5.122   4.254   1.402
 2945SOL    HW2 9735   5.020   4.378   1.369
 2946SOL     OW 9736   3.157   3.856   6.045
 2946SOL    HW1 9737   3.122   3.767   6.019
 2946SOL    HW2 9738   3.248   3.869   6.005
 2947SOL     OW 9739   5.915   6.814   0.646
 2947SOL    HW1 9740   5.889   6.766   0.562
 2947SOL    HW2 9741   5.900   6.912   0.635
 2948SOL     OW 9742   6.724   4.025   2.334
 2948SOL    HW1 9743   6.640   4.040   2.387
 2948SOL    HW2 9744   6.700   4.008   2.238
 2949SOL     OW 9745   1.333   6.891   0.942
 2949SOL    HW1 9746   1.410   6.830   0.921
 2949SOL    HW2 9747   1.304   6.876   1.037
 2950SOL     OW 9748   5.596   5.055   2.666
 2950SOL    HW1 9749   5.681   5.101   2.693
 2950SOL    HW2 9750   5.519   5.095   2.716
 2951SOL     OW 9751   6.218   1.771   1.712
 2951SOL    HW1 9752   6.130   1.788   1.666
 2951SOL    HW2 9753   6.287   1.748   1.643
 2952SOL     OW 9754   5.585   1.465   4.180
 2952SOL    HW1 9755   5.497   1.509   4.161
 2952SOL    HW2 9756   5.572   1.391   4.246
 2953SOL     OW 9757   0.953   5.794   4.304
 2953SOL    HW1 9758   0.931   5.844   4.387
 2953SOL    HW2 9759   0.883   5.724   4.287
 2954SOL     OW 9760   0.034   4.656   6.007
 2954SOL    HW1 9761   0.129   4.656   5.977
 2954SOL    HW2 9762   7.016   4.566   5.992
 2955SOL     OW 9763   2.046   4.931   6.803
 2955SOL    HW1 9764   2.104   4.922   6.884
 2955SOL    HW2 9765   2.032   4.841   6.762
 2956SOL     OW 9766   6.044   4.477   3.499
 2956SOL    HW1 9767   6.092   4.475   3.411
 2956SOL    HW2 9768   6.092   4.538   3.562
 2957SOL     OW 9769   2.418   5.274   1.249
 2957SOL    HW1 9770   2.359   5.355   1.252
 2957SOL    HW2 9771   2.366   5.194   1.279
 2958SOL     OW 9772   2.738   5.358   3.078
 2958SOL    HW1 9773   2.716   5.320   3.168
 2958SOL    HW2 9774   2.670   5.328   3.011
 2959SOL     OW 9775   6.956   2.702   3.356
 2959SOL    HW1 9776   0.013   2.750   3.393
 2959SOL    HW2 9777   6.936   2.622   3.413
 2960SOL     OW 9778   4.579   0.917   0.426
 2960SOL    HW1 9779   4.514   0.951   0.494
 2960SOL    HW2 9780   4.619   0.831   0.459
 2961SOL     OW 9781   5.542   4.094   2.332
 2961SOL    HW1 9782   5.470   4.132   2.275
 2961SOL    HW2 9783   5.582   4.166   2.388
 2962SOL     OW 9784   0.139   6.750   2.440
 2962SOL    HW1 9785   0.053   6.700   2.431
 2962SOL    HW2 9786   0.216   6.688   2.423
 2963SOL     OW 9787   1.730   1.237   4.842
 2963SOL    HW1 9788   1.796   1.202   4.775
 2963SOL    HW2 9789   1.726   1.337   4.835
 2964SOL     OW 9790   1.199   2.197   0.246
 2964SOL    HW1 9791   1.133   2.178   0.173
 2964SOL    HW2 9792   1.284   2.149   0.226
 2965SOL     OW 9793   1.212   0.086   4.552
 2965SOL    HW1 9794   1.307   0.112   4.569
 2965SOL    HW2 9795   1.204   7.009   4.557
 2966SOL     OW 9796   3.991   5.716   3.317
 2966SOL    HW1 9797   4.024   5.747   3.227
 2966SOL    HW2 9798   3.920   5.647   3.304
 2967SOL     OW 9799   6.404   6.937   5.398
 2967SOL    HW1 9800   6.307   6.956   5.413
 2967SOL    HW2 9801   6.420   6.838   5.398
 2968SOL     OW 9802   1.759   2.407   1.160
 2968SOL    HW1 9803   1.820   2.487   1.158
 2968SOL    HW2 9804   1.701   2.411   1.241
 2969SOL     OW 9805   5.214   3.321   4.446
 2969SOL    HW1 9806   5.257   3.231   4.444
 2969SOL    HW2 9807   5.235   3.366   4.533
 2970SOL     OW 9808   2.375   2.626   4.133
 2970SOL    HW1 9809   2.466   2.604   4.169
 2970SOL    HW2 9810   2.311   2.554   4.158
 2971SOL     OW 9811   5.432   2.998   6.227
 2971SOL    HW1 9812   5.367   3.054   6.175
 2971SOL    HW2 9813   5.423   3.019   6.325
 2972SOL     OW 9814   5.774   4.752   6.976
 2972SOL    HW1 9815   5.716   4.671   6.970
 2972SOL    HW2 9816   5.780   4.782   0.048
 2973SOL     OW 9817   4.664   0.752   2.396
 2973SOL    HW1 9818   4.601   0.700   2.338
 2973SOL    HW2 9819   4.742   0.693   2.420
 2974SOL     OW 9820   4.712   5.851   3.155
 2974SOL    HW1 9821   4.712   5.771   3.096
 2974SOL    HW2 9822   4.619   5.868   3.188
 2975SOL     OW 9823   4.826   4.394   4.405
 2975SOL    HW1 9824   4.912   4.436   4.432
 2975SOL    HW2 9825   4.810   4.410   4.307
 2976SOL     OW 9826   4.067   2.059   2.128
 2976SOL    HW1 9827   4.121   1.975   2.124
 2976SOL    HW2 9828   4.124   2.133   2.165
 2977SOL     OW 9829   1.270   0.838   1.702
 2977SOL    HW1 9830   1.277   0.751   1.654
 2977SOL    HW2 9831   1.360   0.864   1.737
 2978SOL     OW 9832   4.838   5.386   6.744
 2978SOL    HW1 9833   4.919   5.432   6.708
 2978SOL    HW2 9834   4.760   5.407   6.687
 2979SOL     OW 9835   3.513   0.778   4.042
 2979SOL    HW1 9836   3.506   0.704   3.975
 2979SOL    HW2 9837   3.589   0.759   4.105
 2980SOL     OW 9838   3.672   4.067   5.992
 2980SOL    HW1 9839   3.688   4.034   6.085
 2980SOL    HW2 9840   3.596   4.133   5.993
 2981SOL     OW 9841   1.126   0.925   0.896
 2981SOL    HW1 9842   1.183   0.949   0.817
 2981SOL    HW2 9843   1.145   0.987   0.971
 2982SOL     OW 9844   0.563   0.835   1.598
 2982SOL    HW1 9845   0.649   0.863   1.555
 2982SOL    HW2 9846   0.511   0.917   1.624
 2983SOL     OW 9847   5.685   2.893   6.145
 2983SOL    HW1 9848   5.588   2.913   6.159
 2983SOL    HW2 9849   5.696   2.798   6.117
 2984SOL     OW 9850   0.343   4.899   0.276
 2984SOL    HW1 9851   0.363   4.992   0.246
 2984SOL    HW2 9852   0.423   4.860   0.321
 2985SOL     OW 9853   0.216   6.540   4.405
 2985SOL    HW1 9854   0.262   6.579   4.326
 2985SOL    HW2 9855   0.251   6.449   4.423
 2986SOL     OW 9856   3.491   3.909   2.573
 2986SOL    HW1 9857   3.440   3.977   2.521
 2986SOL    HW2 9858   3.471   3.919   2.670
 2987SOL     OW 9859   2.054   0.732   4.241
 2987SOL    HW1 9860   2.005   0.810   4.281
 2987SOL    HW2 9861   1.997   0.690   4.171
 2988SOL     OW 9862   0.613   1.897   0.092
 2988SOL    HW1 9863   0.614   1.810   0.044
 2988SOL    HW2 9864   0.706   1.930   0.106
 2989SOL     OW 9865   5.495   3.923   4.242
 2989SOL    HW1 9866   5.426   3.853   4.256
 2989SOL    HW2 9867   5.524   3.959   4.331
 2990SOL     OW 9868   5.157   1.770   4.459
 2990SOL    HW1 9869   5.182   1.761   4.555
 2990SOL    HW2 9870   5.090   1.845   4.449
 2991SOL     OW 9871   6.492   4.038   0.700
 2991SOL    HW1 9872   6.498   4.137   0.701
 2991SOL    HW2 9873   6.397   4.010   0.718
 2992SOL     OW 9874   0.369   3.537   5.391
 2992SOL    HW1 9875   0.317   3.452   5.393
 2992SOL    HW2 9876   0.396   3.557   5.297
 2993SOL     OW 9877   1.203   4.285   7.007
 2993SOL    HW1 9878   1.133   4.227   6.967
 2993SOL    HW2 9879   1.160   4.364   0.028
 2994SOL     OW 9880   4.327   6.998   6.745
 2994SOL    HW1 9881   4.340   0.074   6.755
 2994SOL    HW2 9882   4.398   6.960   6.686
 2995SOL     OW 9883   5.014   0.430   1.131
 2995SOL    HW1 9884   4.926   0.453   1.089
 2995SOL    HW2 9885   5.018   0.470   1.223
 2996SOL     OW 9886   0.186   1.681   4.792
 2996SOL    HW1 9887   0.121   1.749   4.825
 2996SOL    HW2 9888   0.201   1.694   4.694
 2997SOL     OW 9889   5.328   0.294   3.850
 2997SOL    HW1 9890   5.238   0.338   3.848
 2997SOL    HW2 9891   5.396   0.355   3.808
 2998SOL     OW 9892   2.355   1.613   2.401
 2998SOL    HW1 9893   2.409   1.551   2.343
 2998SOL    HW2 9894   2.374   1.707   2.375
 2999SOL     OW 9895   2.454   4.604   0.567
 2999SOL    HW1 9896   2.537   4.657   0.584
 2999SOL    HW2 9897   2.422   4.564   0.652
 3000SOL     OW 9898   2.940   3.839   4.900
 3000SOL    HW1 9899   2.900   3.915   4.848
 3000SOL    HW2 9900   2.958   3.763   4.838
 3001SOL     OW 9901   6.196   0.398   5.835
 3001SOL    HW1 9902   6.286   0.426   5.869
 3001SOL    HW2 9903   6.196   0.399   5.735
 3002SOL     OW 9904   2.562   1.679   1.748
 3002SOL    HW1 9905   2.522   1.751   1.691
 3002SOL    HW2 9906   2.619   1.721   1.819
 3003SOL     OW 9907   1.644   6.577   0.056
 3003SOL    HW1 9908   1.587   6.631   7.017
 3003SOL    HW2 9909   1.680   6.635   0.128
 3004SOL     OW 9910   2.427   6.082   3.891
 3004SOL    HW1 9911   2.390   6.107   3.981
 3004SOL    HW2 9912   2.365   6.018   3.847
 3005SOL     OW 9913   0.921   2.596   5.638
 3005SOL    HW1 9914   0.878   2.575   5.550
 3005SOL    HW2 9915   1.009   2.549   5.643
 3006SOL     OW 9916   5.514   1.594   5.896
 3006SOL    HW1 9917   5.443   1.560   5.957
 3006SOL    HW2 9918   5.603   1.586   5.942
 3007SOL     OW 9919   5.206   4.290   6.579
 3007SOL    HW1 9920   5.113   4.254   6.586
 3007SOL    HW2 9921   5.213   4.374   6.633
 3008SOL     OW 9922   4.383   2.560   6.197
 3008SOL    HW1 9923   4.325   2.507   6.134
 3008SOL    HW2 9924   4.477   2.528   6.190
 3009SOL     OW 9925   0.591   3.456   2.242
 3009SOL    HW1 9926   0.620   3.546   2.211
 3009SOL    HW2 9927   0.650   3.386   2.203
 3010SOL     OW 9928   4.338   5.921   6.269
 3010SOL    HW1 9929   4.350   5.890   6.363
 3010SOL    HW2 9930   4.351   6.020   6.265
 3011SOL     OW 9931   6.756   6.793   0.777
 3011SOL    HW1 9932   6.837   6.843   0.809
 3011SOL    HW2 9933   6.725   6.831   0.690
 3012SOL     OW 9934   2.558   2.835   6.027
 3012SOL    HW1 9935   2.616   2.856   6.105
 3012SOL    HW2 9936   2.605   2.770   5.966
 3013SOL     OW 9937   0.781   5.339   4.947
 3013SOL    HW1 9938   0.854   5.364   5.011
 3013SOL    HW2 9939   0.714   5.413   4.943
 3014SOL     OW 9940   4.999   0.288   5.358
 3014SOL    HW1 9941   4.949   0.374   5.349
 3014SOL    HW2 9942   4.973   0.226   5.285
 3015SOL     OW 9943   1.240   1.166   0.309
 3015SOL    HW1 9944   1.282   1.175   0.219
 3015SOL    HW2 9945   1.269   1.241   0.367
 3016SOL     OW 9946   2.008   6.754   4.468
 3016SOL    HW1 9947   1.999   6.707   4.556
 3016SOL    HW2 9948   2.004   6.853   4.482
 3017SOL     OW 9949   0.023   5.591   0.864
 3017SOL    HW1 9950   0.061   5.640   0.943
 3017SOL    HW2 9951   0.081   5.512   0.844
 3018SOL     OW 9952   3.165   0.157   0.340
 3018SOL    HW1 9953   3.236   0.087   0.340
 3018SOL    HW2 9954   3.084   0.122   0.293
 3019SOL     OW 9955   2.220   0.529   4.982
 3019SOL    HW1 9956   2.222   0.429   4.989
 3019SOL    HW2 9957   2.125   0.560   4.983
 3020SOL     OW 9958   5.208   3.242   6.892
 3020SOL    HW1 9959   5.229   3.210   6.984
 3020SOL    HW2 9960   5.285   3.296   6.857
 3021SOL     OW 9961   3.584   6.284   4.570
 3021SOL    HW1 9962   3.646   6.215   4.608
 3021SOL    HW2 9963   3.517   6.239   4.510
 3022SOL     OW 9964   4.339   5.620   3.951
 3022SOL    HW1 9965   4.273   5.682   3.992
 3022SOL    HW2 9966   4.322   5.612   3.853
 3023SOL     OW 9967   4.942   6.778   2.947
 3023SOL    HW1 9968   4.907   6.759   2.856
 3023SOL    HW2 9969   4.903   6.712   3.012
 3024SOL     OW 9970   0.401   6.674   6.622
 3024SOL    HW1 9971   0.376   6.654   6.527
 3024SOL    HW2 9972   0.334   6.632   6.684
 3025SOL     OW 9973   3.578   6.204   0.895
 3025SOL    HW1 9974   3.580   6.104   0.884
 3025SOL    HW2 9975   3.491   6.231   0.934
 3026SOL     OW 9976   6.304   0.767   0.527
 3026SOL    HW1 9977   6.362   0.813   0.459
 3026SOL    HW2 9978   6.227   0.722   0.480
 3027SOL     OW 9979   4.561   1.384   1.437
 3027SOL    HW1 9980   4.615   1.303   1.459
 3027SOL    HW2 9981   4.584   1.415   1.345
 3028SOL     OW 9982   3.014   4.220   5.681
 3028SOL    HW1 9983   3.017   4.172   5.768
 3028SOL    HW2 9984   3.041   4.158   5.608
 3029SOL     OW 9985   0.565   2.597   4.302
 3029SOL    HW1 9986   0.647   2.648   4.277
 3029SOL    HW2 9987   0.549   2.605   4.401
 3030SOL     OW 9988   2.429   3.222   0.394
 3030SOL    HW1 9989   2.345   3.263   0.359
 3030SOL    HW2 9990   2.421   3.122   0.392
 3031SOL     OW 9991   0.921   6.418   1.456
 3031SOL    HW1 9992   1.010   6.430   1.411
 3031SOL    HW2 9993   0.894   6.322   1.449
 3032SOL     OW 9994   2.077   0.749   2.180
 3032SOL    HW1 9995   2.123   0.748   2.091
 3032SOL    HW2 9996   2.014   0.672   2.185
 3033SOL     OW 9997   6.532   2.328   4.633
 3033SOL    HW1 9998   6.482   2.243   4.648
 3033SOL    HW2 9999   6.524   2.355   4.537
 3034SOL     OW10000   6.860   5.323   3.274
 3034SOL    HW110001   6.915   5.363   3.201
 3034SOL    HW210002   6.805   5.394   3.318
 3035SOL     OW10003   1.125   2.703   6.662
 3035SOL    HW110004   1.113   2.788   6.610
 3035SOL    HW210005   1.184   2.719   6.741
 3036SOL     OW10006   3.406   2.352   6.255
 3036SOL    HW110007   3.422   2.270   6.202
 3036SOL    HW210008   3.475   2.421   6.232
 3037SOL     OW10009   0.189   5.462   0.078
 3037SOL    HW110010   0.153   5.496   0.165
 3037SOL    HW210011   0.247   5.383   0.094
 3038SOL     OW10012   5.374   4.069   6.500
 3038SOL    HW110013   5.465   4.069   6.542
 3038SOL    HW210014   5.335   4.161   6.507
 3039SOL     OW10015   6.633   3.712   6.642
 3039SOL    HW110016   6.702   3.641   6.631
 3039SOL    HW210017   6.605   3.746   6.552
 3040SOL     OW10018   4.813   3.863   5.746
 3040SOL    HW110019   4.863   3.780   5.720
 3040SOL    HW210020   4.861   3.908   5.821
 3041SOL     OW10021   2.217   4.225   4.891
 3041SOL    HW110022   2.250   4.142   4.937
 3041SOL    HW210023   2.220   4.211   4.792
 3042SOL     OW10024   0.156   5.309   3.172
 3042SOL    HW110025   0.185   5.403   3.190
 3042SOL    HW210026   0.178   5.285   3.078
 3043SOL     OW10027   3.165   4.815   0.622
 3043SOL    HW110028   3.124   4.822   0.713
 3043SOL    HW210029   3.109   4.867   0.557
 3044SOL     OW10030   3.313   3.310   5.110
 3044SOL    HW110031   3.266   3.275   5.191
 3044SOL    HW210032   3.301   3.409   5.104
 3045SOL     OW10033   4.853   1.636   1.911
 3045SOL    HW110034   4.759   1.621   1.882
 3045SOL    HW210035   4.856   1.709   1.980
 3046SOL     OW10036   5.709   5.734   0.928
 3046SOL    HW110037   5.782   5.671   0.954
 3046SOL    HW210038   5.746   5.827   0.922
 3047SOL     OW10039   6.275   0.916   6.115
 3047SOL    HW110040   6.236   1.008   6.110
 3047SOL    HW210041   6.272   0.884   6.210
 3048SOL     OW10042   3.602   3.956   0.834
 3048SOL    HW110043   3.621   3.982   0.740
 3048SOL    HW210044   3.566   3.862   0.837
 3049SOL     OW10045   1.405   0.803   4.140
 3049SOL    HW110046   1.348   0.755   4.207
 3049SOL    HW210047   1.464   0.868   4.187
 3050SOL     OW10048   2.678   2.231   1.466
 3050SOL    HW110049   2.650   2.294   1.538
 3050SOL    HW210050   2.777   2.217   1.471
 3051SOL     OW10051   2.356   6.083   5.502
 3051SOL    HW110052   2.340   6.166   5.449
 3051SOL    HW210053   2.273   6.027   5.501
 3052SOL     OW10054   6.733   6.248   2.579
 3052SOL    HW110055   6.702   6.308   2.653
 3052SOL    HW210056   6.776   6.303   2.507
 3053SOL     OW10057   1.680   4.285   0.192
 3053SOL    HW110058   1.668   4.186   0.186
 3053SOL    HW210059   1.716   4.320   0.105
 3054SOL     OW10060   5.749   1.290   2.686
 3054SOL    HW110061   5.668   1.275   2.629
 3054SOL    HW210062   5.825   1.236   2.650
 3055SOL     OW10063   5.997   5.504   6.347
 3055SOL    HW110064   6.084   5.553   6.342
 3055SOL    HW210065   5.935   5.538   6.277
 3056SOL     OW10066   4.703   1.371   6.015
 3056SOL    HW110067   4.659   1.301   5.958
 3056SOL    HW210068   4.789   1.398   5.972
 3057SOL     OW10069   5.830   5.066   3.108
 3057SOL    HW110070   5.838   5.152   3.058
 3057SOL    HW210071   5.913   5.012   3.097
 3058SOL     OW10072   0.548   4.664   6.888
 3058SOL    HW110073   0.511   4.573   6.909
 3058SOL    HW210074   0.522   4.728   6.959
 3059SOL     OW10075   2.299   2.377   4.268
 3059SOL    HW110076   2.365   2.425   4.326
 3059SOL    HW210077   2.206   2.401   4.297
 3060SOL     OW10078   5.120   5.017   5.078
 3060SOL    HW110079   5.187   5.072   5.028
 3060SOL    HW210080   5.073   4.955   5.016
 3061SOL     OW10081   5.033   5.208   5.261
 3061SOL    HW110082   5.036   5.291   5.206
 3061SOL    HW210083   5.055   5.129   5.205
 3062SOL     OW10084   4.934   4.618   2.038
 3062SOL    HW110085   4.917   4.709   2.075
 3062SOL    HW210086   4.848   4.568   2.031
 3063SOL     OW10087   0.428   4.356   1.510
 3063SOL    HW110088   0.419   4.258   1.527
 3063SOL    HW210089   0.350   4.388   1.457
 3064SOL     OW10090   4.614   1.871   6.733
 3064SOL    HW110091   4.711   1.882   6.754
 3064SOL    HW210092   4.573   1.961   6.719
 3065SOL     OW10093   7.019   1.493   6.563
 3065SOL    HW110094   6.936   1.548   6.551
 3065SOL    HW210095   0.061   1.512   6.489
 3066SOL     OW10096   5.195   6.065   5.931
 3066SOL    HW110097   5.117   6.128   5.928
 3066SOL    HW210098   5.280   6.118   5.929
 3067SOL     OW10099   1.864   2.469   5.901
 3067SOL    HW110100   1.831   2.457   5.994
 3067SOL    HW210101   1.786   2.469   5.838
 3068SOL     OW10102   0.570   0.790   1.003
 3068SOL    HW110103   0.579   0.882   0.964
 3068SOL    HW210104   0.530   0.797   1.094
 3069SOL     OW10105   5.059   0.176   2.772
 3069SOL    HW110106   5.151   0.215   2.771
 3069SOL    HW210107   5.065   0.077   2.785
 3070SOL     OW10108   2.645   0.874   1.182
 3070SOL    HW110109   2.743   0.888   1.197
 3070SOL    HW210110   2.624   0.777   1.185
 3071SOL     OW10111   6.864   3.581   4.015
 3071SOL    HW110112   6.903   3.515   4.079
 3071SOL    HW210113   6.820   3.655   4.067
 3072SOL     OW10114   1.972   6.700   6.110
 3072SOL    HW110115   2.068   6.721   6.127
 3072SOL    HW210116   1.955   6.603   6.124
 3073SOL     OW10117   6.095   5.086   1.033
 3073SOL    HW110118   6.121   5.182   1.033
 3073SOL    HW210119   6.073   5.057   0.939
 3074SOL     OW10120   1.838   3.289   0.902
 3074SOL    HW110121   1.858   3.194   0.877
 3074SOL    HW210122   1.915   3.327   0.953
 3075SOL     OW10123   2.650   5.033   2.663
 3075SOL    HW110124   2.580   5.010   2.731
 3075SOL    HW210125   2.713   5.101   2.700
 3076SOL     OW10126   0.045   0.544   4.826
 3076SOL    HW110127   6.992   0.483   4.851
 3076SOL    HW210128   0.120   0.490   4.788
 3077SOL     OW10129   6.453   3.830   2.191
 3077SOL    HW110130   6.363   3.857   2.158
 3077SOL    HW210131   6.523   3.893   2.156
 3078SOL     OW10132   6.940   2.727   1.740
 3078SOL    HW110133   6.954   2.807   1.798
 3078SOL    HW210134   6.918   2.648   1.797
 3079SOL     OW10135   2.196   3.412   5.457
 3079SOL    HW110136   2.190   3.327   5.405
 3079SOL    HW210137   2.271   3.406   5.523
 3080SOL     OW10138   4.300   5.316   0.848
 3080SOL    HW110139   4.246   5.391   0.888
 3080SOL    HW210140   4.376   5.294   0.909
 3081SOL     OW10141   1.578   4.009   0.565
 3081SOL    HW110142   1.541   4.031   0.655
 3081SOL    HW210143   1.550   4.081   0.500
 3082SOL     OW10144   4.308   5.421   4.894
 3082SOL    HW110145   4.292   5.517   4.917
 3082SOL    HW210146   4.380   5.384   4.952
 3083SOL     OW10147   2.903   5.409   2.436
 3083SOL    HW110148   2.969   5.482   2.454
 3083SOL    HW210149   2.897   5.350   2.517
 3084SOL     OW10150   0.254   3.310   3.980
 3084SOL    HW110151   0.210   3.237   4.032
 3084SOL    HW210152   0.309   3.366   4.042
 3085SOL     OW10153   5.224   4.394   0.771
 3085SOL    HW110154   5.262   4.317   0.823
 3085SOL    HW210155   5.253   4.480   0.812
 3086SOL     OW10156   5.700   0.598   6.413
 3086SOL    HW110157   5.764   0.547   6.355
 3086SOL    HW210158   5.617   0.545   6.427
 3087SOL     OW10159   3.063   0.397   2.502
 3087SOL    HW110160   3.039   0.338   2.579
 3087SOL    HW210161   3.095   0.342   2.425
 3088SOL     OW10162   1.523   2.566   5.330
 3088SOL    HW110163   1.453   2.604   5.391
 3088SOL    HW210164   1.586   2.638   5.303
 3089SOL     OW10165   4.279   6.924   4.984
 3089SOL    HW110166   4.331   6.983   4.922
 3089SOL    HW210167   4.181   6.938   4.970
 3090SOL     OW10168   1.789   1.871   2.459
 3090SOL    HW110169   1.873   1.912   2.495
 3090SOL    HW210170   1.712   1.900   2.516
 3091SOL     OW10171   0.731   2.472   0.980
 3091SOL    HW110172   0.682   2.397   1.025
 3091SOL    HW210173   0.722   2.463   0.881
 3092SOL     OW10174   6.577   0.522   2.324
 3092SOL    HW110175   6.489   0.534   2.371
 3092SOL    HW210176   6.628   0.448   2.368
 3093SOL     OW10177   4.947   4.905   0.021
 3093SOL    HW110178   4.902   4.973   0.079
 3093SOL    HW210179   4.998   4.951   6.971
 3094SOL     OW10180   3.027   1.213   6.059
 3094SOL    HW110181   2.972   1.297   6.056
 3094SOL    HW210182   2.972   1.138   6.093
 3095SOL     OW10183   1.839   3.458   5.128
 3095SOL    HW110184   1.872   3.400   5.203
 3095SOL    HW210185   1.913   3.517   5.097
 3096SOL     OW10186   0.346   3.966   4.085
 3096SOL    HW110187   0.321   3.874   4.114
 3096SOL    HW210188   0.431   3.993   4.130
 3097SOL     OW10189   5.477   2.239   6.239
 3097SOL    HW110190   5.500   2.263   6.145
 3097SOL    HW210191   5.466   2.322   6.293
 3098SOL     OW10192   2.093   2.658   2.470
 3098SOL    HW110193   2.170   2.709   2.432
 3098SOL    HW210194   2.020   2.722   2.495
 3099SOL     OW10195   0.009   5.991   3.895
 3099SOL    HW110196   0.046   6.069   3.945
 3099SOL    HW210197   6.955   5.952   3.947
 3100SOL     OW10198   6.719   5.524   2.270
 3100SOL    HW110199   6.626   5.526   2.234
 3100SOL    HW210200   6.717   5.501   2.368
 3101SOL     OW10201   4.053   6.182   5.626
 3101SOL    HW110202   4.103   6.252   5.679
 3101SOL    HW210203   4.015   6.114   5.689
 3102SOL     OW10204   0.109   4.565   0.868
 3102SOL    HW110205   0.036   4.512   0.824
 3102SOL    HW210206   0.077   4.658   0.884
 3103SOL     OW10207   3.376   0.305   1.543
 3103SOL    HW110208   3.409   0.350   1.626
 3103SOL    HW210209   3.283   0.270   1.559
 3104SOL     OW10210   4.834   0.222   6.231
 3104SOL    HW110211   4.810   0.246   6.137
 3104SOL    HW210212   4.778   0.145   6.262
 3105SOL     OW10213   5.855   3.326   0.101
 3105SOL    HW110214   5.786   3.352   0.169
 3105SOL    HW210215   5.881   3.231   0.116
 3106SOL     OW10216   6.057   0.039   5.161
 3106SOL    HW110217   6.135   7.003   5.139
 3106SOL    HW210218   6.038   0.034   5.259
 3107SOL     OW10219   3.798   1.126   5.912
 3107SOL    HW110220   3.779   1.032   5.940
 3107SOL    HW210221   3.717   1.164   5.865
 3108SOL     OW10222   1.981   4.129   3.551
 3108SOL    HW110223   2.064   4.076   3.534
 3108SOL    HW210224   1.979   4.159   3.646
 3109SOL     OW10225   6.674   6.029   3.883
 3109SOL    HW110226   6.647   5.964   3.811
 3109SOL    HW210227   6.606   6.102   3.887
 3110SOL     OW10228   1.272   4.579   3.446
 3110SOL    HW110229   1.189   4.560   3.393
 3110SOL    HW210230   1.315   4.663   3.412
 3111SOL     OW10231   6.137   4.456   4.295
 3111SOL    HW110232   6.219   4.507   4.268
 3111SOL    HW210233   6.082   4.436   4.214
 3112SOL     OW10234   3.826   2.035   6.767
 3112SOL    HW110235   3.782   2.120   6.798
 3112SOL    HW210236   3.922   2.035   6.795
 3113SOL     OW10237   2.121   5.741   3.795
 3113SOL    HW110238   2.134   5.823   3.739
 3113SOL    HW210239   2.183   5.743   3.873
 3114SOL     OW10240   4.364   0.751   6.719
 3114SOL    HW110241   4.424   0.787   6.791
 3114SOL    HW210242   4.397   0.783   6.630
 3115SOL     OW10243   4.331   5.090   5.240
 3115SOL    HW110244   4.411   5.031   5.224
 3115SOL    HW210245   4.356   5.165   5.301
 3116SOL     OW10246   0.596   1.956   1.127
 3116SOL    HW110247   0.540   1.921   1.052
 3116SOL    HW210248   0.555   1.929   1.214
 3117SOL     OW10249   4.898   1.505   5.872
 3117SOL    HW110250   4.813   1.498   5.820
 3117SOL    HW210251   4.892   1.582   5.936
 3118SOL     OW10252   1.635   1.199   3.384
 3118SOL    HW110253   1.627   1.102   3.360
 3118SOL    HW210254   1.557   1.226   3.440
 3119SOL     OW10255   4.743   4.521   5.686
 3119SOL    HW110256   4.701   4.469   5.761
 3119SOL    HW210257   4.824   4.568   5.720
 3120SOL     OW10258   1.998   6.763   4.769
 3120SOL    HW110259   2.048   6.844   4.800
 3120SOL    HW210260   1.905   6.788   4.746
 3121SOL     OW10261   4.495   1.284   4.689
 3121SOL    HW110262   4.563   1.216   4.661
 3121SOL    HW210263   4.494   1.359   4.622
 3122SOL     OW10264   3.759   5.281   4.965
 3122SOL    HW110265   3.716   5.319   4.883
 3122SOL    HW210266   3.789   5.356   5.024
 3123SOL     OW10267   2.667   1.538   3.759
 3123SOL    HW110268   2.591   1.564   3.699
 3123SOL    HW210269   2.713   1.620   3.792
 3124SOL     OW10270   5.245   0.063   3.705
 3124SOL    HW110271   5.181   0.098   3.637
 3124SOL    HW210272   5.282   0.140   3.758
 3125SOL     OW10273   1.480   2.152   5.494
 3125SOL    HW110274   1.427   2.235   5.477
 3125SOL    HW210275   1.431   2.073   5.457
 3126SOL     OW10276   5.977   4.864   4.561
 3126SOL    HW110277   6.049   4.909   4.615
 3126SOL    HW210278   6.018   4.818   4.483
 3127SOL     OW10279   6.849   1.633   4.578
 3127SOL    HW110280   6.871   1.535   4.574
 3127SOL    HW210281   6.889   1.679   4.499
 3128SOL     OW10282   4.608   0.631   0.217
 3128SOL    HW110283   4.561   0.598   0.136
 3128SOL    HW210284   4.586   0.573   0.296
 3129SOL     OW10285   4.392   3.291   0.589
 3129SOL    HW110286   4.325   3.230   0.546
 3129SOL    HW210287   4.410   3.260   0.682
 3130SOL     OW10288   0.993   4.671   1.810
 3130SOL    HW110289   0.927   4.596   1.809
 3130SOL    HW210290   0.947   4.755   1.782
 3131SOL     OW10291   6.888   4.281   2.659
 3131SOL    HW110292   6.952   4.265   2.584
 3131SOL    HW210293   6.938   4.306   2.742
 3132SOL     OW10294   3.802   4.522   6.980
 3132SOL    HW110295   3.824   4.609   0.001
 3132SOL    HW210296   3.849   4.515   6.892
 3133SOL     OW10297   4.004   0.669   3.636
 3133SOL    HW110298   4.082   0.621   3.594
 3133SOL    HW210299   3.983   0.626   3.724
 3134SOL     OW10300   4.134   5.199   2.829
 3134SOL    HW110301   4.089   5.264   2.768
 3134SOL    HW210302   4.206   5.245   2.880
 3135SOL     OW10303   4.802   6.781   6.134
 3135SOL    HW110304   4.787   6.735   6.222
 3135SOL    HW210305   4.871   6.730   6.082
 3136SOL     OW10306   6.203   1.671   2.987
 3136SOL    HW110307   6.195   1.642   3.082
 3136SOL    HW210308   6.146   1.612   2.929
 3137SOL     OW10309   6.491   6.950   0.035
 3137SOL    HW110310   6.485   6.922   6.962
 3137SOL    HW210311   6.530   6.876   0.089
 3138SOL     OW10312   5.650   5.528   3.945
 3138SOL    HW110313   5.737   5.511   3.991
 3138SOL    HW210314   5.585   5.568   4.009
 3139SOL     OW10315   2.318   5.185   0.982
 3139SOL    HW110316   2.314   5.159   1.078
 3139SOL    HW210317   2.401   5.238   0.965
 3140SOL     OW10318   0.032   6.817   6.460
 3140SOL    HW110319   0.058   6.788   6.368
 3140SOL    HW210320   0.032   6.917   6.465
 3141SOL     OW10321   6.507   2.423   6.389
 3141SOL    HW110322   6.455   2.460   6.465
 3141SOL    HW210323   6.443   2.389   6.319
 3142SOL     OW10324   5.074   0.909   2.815
 3142SOL    HW110325   5.005   0.882   2.748
 3142SOL    HW210326   5.164   0.882   2.782
 3143SOL     OW10327   6.356   1.378   0.557
 3143SOL    HW110328   6.273   1.395   0.503
 3143SOL    HW210329   6.362   1.445   0.631
 3144SOL     OW10330   4.154   3.747   6.320
 3144SOL    HW110331   4.222   3.820   6.315
 3144SOL    HW210332   4.087   3.769   6.391
 3145SOL     OW10333   0.484   6.273   1.669
 3145SOL    HW110334   0.436   6.219   1.600
 3145SOL    HW210335   0.571   6.230   1.691
 3146SOL     OW10336   0.424   0.412   4.876
 3146SOL    HW110337   0.505   0.372   4.917
 3146SOL    HW210338   0.450   0.471   4.800
 3147SOL     OW10339   4.137   4.920   6.574
 3147SOL    HW110340   4.037   4.912   6.574
 3147SOL    HW210341   4.169   4.934   6.480
 3148SOL     OW10342   0.022   5.495   2.850
 3148SOL    HW110343   0.050   5.419   2.792
 3148SOL    HW210344   6.970   5.466   2.910
 3149SOL     OW10345   3.200   1.054   0.508
 3149SOL    HW110346   3.157   0.965   0.525
 3149SOL    HW210347   3.190   1.112   0.589
 3150SOL     OW10348   6.796   5.964   4.808
 3150SOL    HW110349   6.784   5.886   4.747
 3150SOL    HW210350   6.722   5.964   4.876
 3151SOL     OW10351   6.186   1.621   5.888
 3151SOL    HW110352   6.197   1.615   5.987
 3151SOL    HW210353   6.257   1.680   5.850
 3152SOL     OW10354   1.180   2.633   6.169
 3152SOL    HW110355   1.084   2.630   6.199
 3152SOL    HW210356   1.183   2.644   6.070
 3153SOL     OW10357   6.244   4.997   1.240
 3153SOL    HW110358   6.288   4.909   1.223
 3153SOL    HW210359   6.175   5.014   1.169
 3154SOL     OW10360   4.704   1.470   0.944
 3154SOL    HW110361   4.660   1.476   1.034
 3154SOL    HW210362   4.663   1.538   0.883
 3155SOL     OW10363   0.312   4.869   1.222
 3155SOL    HW110364   0.295   4.908   1.131
 3155SOL    HW210365   0.241   4.802   1.244
 3156SOL     OW10366   3.543   4.168   1.949
 3156SOL    HW110367   3.579   4.235   2.013
 3156SOL    HW210368   3.613   4.142   1.883
 3157SOL     OW10369   0.535   1.895   5.156
 3157SOL    HW110370   0.481   1.941   5.226
 3157SOL    HW210371   0.474   1.850   5.091
 3158SOL     OW10372   2.623   1.431   5.633
 3158SOL    HW110373   2.557   1.365   5.597
 3158SOL    HW210374   2.607   1.520   5.590
 3159SOL     OW10375   6.273   6.528   0.346
 3159SOL    HW110376   6.238   6.528   0.252
 3159SOL    HW210377   6.364   6.487   0.347
 3160SOL     OW10378   2.359   0.202   6.144
 3160SOL    HW110379   2.384   0.118   6.094
 3160SOL    HW210380   2.387   0.282   6.090
 3161SOL     OW10381   2.257   2.934   3.094
 3161SOL    HW110382   2.310   2.850   3.107
 3161SOL    HW210383   2.199   2.949   3.174
 3162SOL     OW10384   1.809   5.578   0.877
 3162SOL    HW110385   1.896   5.536   0.850
 3162SOL    HW210386   1.799   5.667   0.831
 3163SOL     OW10387   4.855   3.733   0.618
 3163SOL    HW110388   4.921   3.731   0.543
 3163SOL    HW210389   4.765   3.709   0.583
 3164SOL     OW10390   2.733   5.974   3.151
 3164SOL    HW110391   2.718   5.996   3.248
 3164SOL    HW210392   2.707   5.879   3.135
 3165SOL     OW10393   0.656   6.120   0.802
 3165SOL    HW110394   0.719   6.116   0.879
 3165SOL    HW210395   0.562   6.132   0.836
 3166SOL     OW10396   4.016   0.896   5.366
 3166SOL    HW110397   3.923   0.861   5.351
 3166SOL    HW210398   4.080   0.819   5.371
 3167SOL     OW10399   5.192   3.405   0.710
 3167SOL    HW110400   5.246   3.483   0.740
 3167SOL    HW210401   5.214   3.326   0.768
 3168SOL     OW10402   4.290   1.803   0.485
 3168SOL    HW110403   4.196   1.783   0.512
 3168SOL    HW210404   4.334   1.720   0.453
 3169SOL     OW10405   2.047   4.678   2.352
 3169SOL    HW110406   1.971   4.644   2.297
 3169SOL    HW210407   2.015   4.696   2.445
 3170SOL     OW10408   3.264   5.255   3.270
 3170SOL    HW110409   3.326   5.333   3.264
 3170SOL    HW210410   3.297   5.193   3.342
 3171SOL     OW10411   5.384   2.797   3.207
 3171SOL    HW110412   5.310   2.852   3.246
 3171SOL    HW210413   5.441   2.855   3.149
 3172SOL     OW10414   0.296   4.664   0.644
 3172SOL    HW110415   0.346   4.623   0.567
 3172SOL    HW210416   0.298   4.601   0.722
 3173SOL     OW10417   3.647   1.678   0.598
 3173SOL    HW110418   3.707   1.641   0.527
 3173SOL    HW210419   3.686   1.658   0.688
 3174SOL     OW10420   2.929   3.468   5.918
 3174SOL    HW110421   2.977   3.401   5.861
 3174SOL    HW210422   2.831   3.447   5.916
 3175SOL     OW10423   6.999   0.480   3.819
 3175SOL    HW110424   6.927   0.548   3.813
 3175SOL    HW210425   7.001   0.442   3.912
 3176SOL     OW10426   1.299   4.671   5.014
 3176SOL    HW110427   1.241   4.745   4.980
 3176SOL    HW210428   1.388   4.675   4.968
 3177SOL     OW10429   5.590   3.727   3.260
 3177SOL    HW110430   5.577   3.637   3.300
 3177SOL    HW210431   5.515   3.746   3.196
 3178SOL     OW10432   6.923   0.813   1.293
 3178SOL    HW110433   7.007   0.802   1.346
 3178SOL    HW210434   6.938   0.881   1.221
 3179SOL     OW10435   0.989   1.906   1.657
 3179SOL    HW110436   1.013   1.848   1.735
 3179SOL    HW210437   0.896   1.942   1.669
 3180SOL     OW10438   6.942   5.795   6.932
 3180SOL    HW110439   7.000   5.722   6.898
 3180SOL    HW210440   6.987   5.841   7.009
 3181SOL     OW10441   0.753   1.160   4.736
 3181SOL    HW110442   0.733   1.149   4.834
 3181SOL    HW210443   0.671   1.192   4.689
 3182SOL     OW10444   2.879   0.341   0.095
 3182SOL    HW110445   2.956   0.392   0.132
 3182SOL    HW210446   2.882   0.341   7.018
 3183SOL     OW10447   4.618   4.637   2.086
 3183SOL    HW110448   4.661   4.572   2.023
 3183SOL    HW210449   4.689   4.694   2.128
 3184SOL     OW10450   0.310   2.066   4.330
 3184SOL    HW110451   0.374   2.142   4.324
 3184SOL    HW210452   0.229   2.094   4.381
 3185SOL     OW10453   0.103   5.986   6.277
 3185SOL    HW110454   0.156   6.023   6.201
 3185SOL    HW210455   0.091   6.057   6.347
 3186SOL     OW10456   0.344   1.571   6.482
 3186SOL    HW110457   0.258   1.603   6.442
 3186SOL    HW210458   0.349   1.471   6.474
 3187SOL     OW10459   4.087   5.927   3.125
 3187SOL    HW110460   4.075   6.007   3.066
 3187SOL    HW210461   4.048   5.945   3.215
 3188SOL     OW10462   2.221   4.672   5.554
 3188SOL    HW110463   2.257   4.610   5.484
 3188SOL    HW210464   2.249   4.766   5.532
 3189SOL     OW10465   2.716   1.581   0.061
 3189SOL    HW110466   2.803   1.610   0.022
 3189SOL    HW210467   2.729   1.552   0.155
 3190SOL     OW10468   6.969   5.927   4.259
 3190SOL    HW110469   6.926   5.987   4.326
 3190SOL    HW210470   6.919   5.931   4.172
 3191SOL     OW10471   4.652   5.499   1.840
 3191SOL    HW110472   4.626   5.554   1.761
 3191SOL    HW210473   4.734   5.536   1.882
 3192SOL     OW10474   6.403   2.265   2.219
 3192SOL    HW110475   6.310   2.276   2.255
 3192SOL    HW210476   6.399   2.223   2.128
 3193SOL     OW10477   3.583   0.129   5.435
 3193SOL    HW110478   3.640   0.184   5.374
 3193SOL    HW210479   3.603   0.153   5.530
 3194SOL     OW10480   1.106   1.404   5.740
 3194SOL    HW110481   1.187   1.389   5.682
 3194SOL    HW210482   1.024   1.376   5.690
 3195SOL     OW10483   0.028   1.806   1.665
 3195SOL    HW110484   0.017   1.897   1.706
 3195SOL    HW210485   0.016   1.736   1.736
 3196SOL     OW10486   6.435   0.245   4.490
 3196SOL    HW110487   6.446   0.318   4.423
 3196SOL    HW210488   6.409   0.283   4.578
 3197SOL     OW10489   2.323   0.646   6.335
 3197SOL    HW110490   2.389   0.698   6.281
 3197SOL    HW210491   2.267   0.709   6.389
 3198SOL     OW10492   6.518   2.388   3.797
 3198SOL    HW110493   6.422   2.374   3.820
 3198SOL    HW210494   6.533   2.363   3.701
 3199SOL     OW10495   5.455   4.165   3.108
 3199SOL    HW110496   5.533   4.104   3.126
 3199SOL    HW210497   5.415   4.194   3.195
 3200SOL     OW10498   5.354   3.285   3.922
 3200SOL    HW110499   5.318   3.377   3.928
 3200SOL    HW210500   5.417   3.278   3.845
 3201SOL     OW10501   6.027   4.226   2.607
 3201SOL    HW110502   5.985   4.161   2.544
 3201SOL    HW210503   5.965   4.246   2.682
 3202SOL     OW10504   1.205   5.155   0.584
 3202SOL    HW110505   1.158   5.067   0.594
 3202SOL    HW210506   1.254   5.176   0.669
 3203SOL     OW10507   4.116   6.083   1.064
 3203SOL    HW110508   4.158   6.167   1.029
 3203SOL    HW210509   4.175   6.044   1.135
 3204SOL     OW10510   2.634   1.190   3.407
 3204SOL    HW110511   2.686   1.233   3.480
 3204SOL    HW210512   2.621   1.255   3.332
 3205SOL     OW10513   5.458   2.881   5.546
 3205SOL    HW110514   5.535   2.829   5.509
 3205SOL    HW210515   5.384   2.818   5.570
 3206SOL     OW10516   2.748   2.816   1.605
 3206SOL    HW110517   2.815   2.880   1.644
 3206SOL    HW210518   2.666   2.816   1.662
 3207SOL     OW10519   1.041   6.956   5.127
 3207SOL    HW110520   0.975   6.881   5.137
 3207SOL    HW210521   1.103   6.936   5.050
 3208SOL     OW10522   6.119   6.065   5.549
 3208SOL    HW110523   6.128   5.979   5.497
 3208SOL    HW210524   6.066   6.130   5.496
 3209SOL     OW10525   5.181   5.801   6.028
 3209SOL    HW110526   5.116   5.789   6.102
 3209SOL    HW210527   5.188   5.898   6.004
 3210SOL     OW10528   6.695   4.824   1.243
 3210SOL    HW110529   6.690   4.879   1.327
 3210SOL    HW210530   6.676   4.729   1.265
 3211SOL     OW10531   1.271   6.119   0.027
 3211SOL    HW110532   1.312   6.179   6.980
 3211SOL    HW210533   1.325   6.124   0.111
 3212SOL     OW10534   2.592   6.741   2.912
 3212SOL    HW110535   2.652   6.679   2.962
 3212SOL    HW210536   2.563   6.816   2.972
 3213SOL     OW10537   1.206   1.155   6.199
 3213SOL    HW110538   1.281   1.171   6.262
 3213SOL    HW210539   1.203   1.228   6.131
 3214SOL     OW10540   3.925   1.298   2.936
 3214SOL    HW110541   3.877   1.211   2.926
 3214SOL    HW210542   3.884   1.366   2.876
 3215SOL     OW10543   1.598   2.691   0.722
 3215SOL    HW110544   1.662   2.622   0.756
 3215SOL    HW210545   1.598   2.689   0.622
 3216SOL     OW10546   5.645   4.064   0.716
 3216SOL    HW110547   5.576   4.094   0.651
 3216SOL    HW210548   5.611   3.984   0.766
 3217SOL     OW10549   0.771   4.742   3.075
 3217SOL    HW110550   0.735   4.796   3.151
 3217SOL    HW210551   0.869   4.728   3.088
 3218SOL     OW10552   6.640   2.123   2.947
 3218SOL    HW110553   6.715   2.168   2.996
 3218SOL    HW210554   6.646   2.144   2.849
 3219SOL     OW10555   6.405   0.597   5.312
 3219SOL    HW110556   6.480   0.542   5.276
 3219SOL    HW210557   6.400   0.684   5.263
 3220SOL     OW10558   6.700   5.119   6.844
 3220SOL    HW110559   6.796   5.146   6.844
 3220SOL    HW210560   6.642   5.200   6.854
 3221SOL     OW10561   4.393   6.985   1.900
 3221SOL    HW110562   4.442   6.930   1.967
 3221SOL    HW210563   4.458   0.016   1.846
 3222SOL     OW10564   2.829   1.277   2.537
 3222SOL    HW110565   2.803   1.351   2.475
 3222SOL    HW210566   2.800   1.189   2.498
 3223SOL     OW10567   1.317   6.517   1.057
 3223SOL    HW110568   1.329   6.462   0.974
 3223SOL    HW210569   1.406   6.551   1.088
 3224SOL     OW10570   4.675   2.367   4.652
 3224SOL    HW110571   4.699   2.284   4.702
 3224SOL    HW210572   4.626   2.430   4.713
 3225SOL     OW10573   4.220   0.508   4.062
 3225SOL    HW110574   4.178   0.446   4.129
 3225SOL    HW210575   4.318   0.512   4.077
 3226SOL     OW10576   0.444   0.533   1.990
 3226SOL    HW110577   0.541   0.531   2.016
 3226SOL    HW210578   0.396   0.600   2.046
 3227SOL     OW10579   4.314   2.586   5.717
 3227SOL    HW110580   4.260   2.612   5.638
 3227SOL    HW210581   4.393   2.533   5.688
 3228SOL     OW10582   0.869   4.444   0.366
 3228SOL    HW110583   0.926   4.363   0.377
 3228SOL    HW210584   0.773   4.417   0.359
 3229SOL     OW10585   2.154   1.878   6.702
 3229SOL    HW110586   2.075   1.833   6.743
 3229SOL    HW210587   2.234   1.864   6.760
 3230SOL     OW10588   2.704   5.823   5.594
 3230SOL    HW110589   2.733   5.917   5.611
 3230SOL    HW210590   2.641   5.820   5.516
 3231SOL     OW10591   2.604   1.340   1.985
 3231SOL    HW110592   2.554   1.299   1.908
 3231SOL    HW210593   2.683   1.391   1.950
 3232SOL     OW10594   4.006   5.773   4.259
 3232SOL    HW110595   3.913   5.762   4.226
 3232SOL    HW210596   4.008   5.844   4.329
 3233SOL     OW10597   1.046   2.071   0.051
 3233SOL    HW110598   0.982   2.013   0.102
 3233SOL    HW210599   1.003   2.102   6.989
 3234SOL     OW10600   2.722   3.263   0.729
 3234SOL    HW110601   2.810   3.258   0.776
 3234SOL    HW210602   2.657   3.200   0.772
 3235SOL     OW10603   6.723   6.337   2.120
 3235SOL    HW110604   6.624   6.354   2.121
 3235SOL    HW210605   6.743   6.252   2.168
 3236SOL     OW10606   2.826   4.385   0.517
 3236SOL    HW110607   2.826   4.437   0.432
 3236SOL    HW210608   2.754   4.315   0.513
 3237SOL     OW10609   6.059   1.298   5.358
 3237SOL    HW110610   6.127   1.371   5.347
 3237SOL    HW210611   6.028   1.295   5.453
 3238SOL     OW10612   6.248   5.430   0.906
 3238SOL    HW110613   6.167   5.425   0.848
 3238SOL    HW210614   6.330   5.417   0.849
 3239SOL     OW10615   0.244   0.351   3.882
 3239SOL    HW110616   0.296   0.299   3.814
 3239SOL    HW210617   0.182   0.415   3.836
 3240SOL     OW10618   0.544   0.904   6.248
 3240SOL    HW110619   0.578   0.896   6.342
 3240SOL    HW210620   0.554   0.817   6.201
 3241SOL     OW10621   5.486   1.690   6.765
 3241SOL    HW110622   5.585   1.699   6.756
 3241SOL    HW210623   5.459   1.700   6.861
 3242SOL     OW10624   4.918   4.306   5.526
 3242SOL    HW110625   4.870   4.322   5.612
 3242SOL    HW210626   4.964   4.391   5.497
 3243SOL     OW10627   4.393   5.373   5.743
 3243SOL    HW110628   4.449   5.291   5.730
 3243SOL    HW210629   4.348   5.397   5.657
 3244SOL     OW10630   5.933   6.483   6.635
 3244SOL    HW110631   5.887   6.551   6.578
 3244SOL    HW210632   6.032   6.488   6.621
 3245SOL     OW10633   4.102   1.556   3.862
 3245SOL    HW110634   4.024   1.514   3.815
 3245SOL    HW210635   4.177   1.568   3.797
 3246SOL     OW10636   0.623   0.191   2.114
 3246SOL    HW110637   0.636   0.155   2.207
 3246SOL    HW210638   0.604   0.289   2.119
 3247SOL     OW10639   0.369   3.998   2.690
 3247SOL    HW110640   0.464   4.026   2.698
 3247SOL    HW210641   0.328   3.992   2.781
 3248SOL     OW10642   5.620   2.080   3.148
 3248SOL    HW110643   5.651   2.046   3.059
 3248SOL    HW210644   5.690   2.140   3.187
 3249SOL     OW10645   3.717   3.595   3.433
 3249SOL    HW110646   3.753   3.571   3.343
 3249SOL    HW210647   3.667   3.682   3.427
 3250SOL     OW10648   5.237   6.147   2.209
 3250SOL    HW110649   5.161   6.084   2.197
 3250SOL    HW210650   5.323   6.096   2.213
 3251SOL     OW10651   2.605   1.075   4.369
 3251SOL    HW110652   2.674   1.086   4.442
 3251SOL    HW210653   2.591   1.163   4.324
 3252SOL     OW10654   2.647   1.627   4.230
 3252SOL    HW110655   2.630   1.662   4.322
 3252SOL    HW210656   2.578   1.663   4.167
 3253SOL     OW10657   6.241   3.016   0.923
 3253SOL    HW110658   6.339   3.033   0.935
 3253SOL    HW210659   6.190   3.098   0.949
 3254SOL     OW10660   6.072   0.727   0.742
 3254SOL    HW110661   6.092   0.794   0.670
 3254SOL    HW210662   5.987   0.751   0.788
 3255SOL     OW10663   5.995   4.745   1.441
 3255SOL    HW110664   5.937   4.815   1.400
 3255SOL    HW210665   6.050   4.786   1.514
 3256SOL     OW10666   4.657   2.444   1.289
 3256SOL    HW110667   4.588   2.516   1.290
 3256SOL    HW210668   4.674   2.415   1.195
 3257SOL     OW10669   2.548   2.114   2.814
 3257SOL    HW110670   2.506   2.034   2.771
 3257SOL    HW210671   2.501   2.134   2.900
 3258SOL     OW10672   2.444   5.732   3.632
 3258SOL    HW110673   2.511   5.806   3.639
 3258SOL    HW210674   2.355   5.769   3.606
 3259SOL     OW10675   5.204   4.190   4.590
 3259SOL    HW110676   5.115   4.174   4.547
 3259SOL    HW210677   5.263   4.111   4.577
 3260SOL     OW10678   2.278   4.480   1.757
 3260SOL    HW110679   2.372   4.506   1.733
 3260SOL    HW210680   2.229   4.559   1.791
 3261SOL     OW10681   4.424   0.567   3.167
 3261SOL    HW110682   4.356   0.533   3.102
 3261SOL    HW210683   4.398   0.658   3.198
 3262SOL     OW10684   3.768   1.957   2.738
 3262SOL    HW110685   3.679   1.912   2.730
 3262SOL    HW210686   3.789   2.003   2.652
 3263SOL     OW10687   2.112   1.508   3.058
 3263SOL    HW110688   2.189   1.565   3.029
 3263SOL    HW210689   2.050   1.563   3.114
 3264SOL     OW10690   2.464   5.354   0.151
 3264SOL    HW110691   2.520   5.375   0.071
 3264SOL    HW210692   2.375   5.397   0.142
 3265SOL     OW10693   5.983   5.336   5.875
 3265SOL    HW110694   5.976   5.435   5.861
 3265SOL    HW210695   5.910   5.290   5.825
 3266SOL     OW10696   3.026   4.982   0.446
 3266SOL    HW110697   3.004   4.902   0.390
 3266SOL    HW210698   3.051   5.059   0.387
 3267SOL     OW10699   4.070   0.083   0.902
 3267SOL    HW110700   4.060   0.081   1.001
 3267SOL    HW210701   4.161   0.114   0.878
 3268SOL     OW10702   6.727   4.501   1.552
 3268SOL    HW110703   6.718   4.459   1.643
 3268SOL    HW210704   6.780   4.585   1.560
 3269SOL     OW10705   1.066   5.024   2.431
 3269SOL    HW110706   1.061   5.119   2.459
 3269SOL    HW210707   1.005   5.009   2.353
 3270SOL     OW10708   0.804   2.449   5.406
 3270SOL    HW110709   0.848   2.464   5.318
 3270SOL    HW210710   0.718   2.398   5.392
 3271SOL     OW10711   0.377   3.352   2.077
 3271SOL    HW110712   0.411   3.372   2.169
 3271SOL    HW210713   0.331   3.432   2.040
 3272SOL     OW10714   4.419   6.137   0.205
 3272SOL    HW110715   4.416   6.154   0.303
 3272SOL    HW210716   4.356   6.199   0.158
 3273SOL     OW10717   4.527   3.684   6.175
 3273SOL    HW110718   4.604   3.625   6.150
 3273SOL    HW210719   4.517   3.757   6.107
 3274SOL     OW10720   6.070   1.099   0.079
 3274SOL    HW110721   6.124   1.172   0.120
 3274SOL    HW210722   5.973   1.112   0.102
 3275SOL     OW10723   4.515   0.331   1.085
 3275SOL    HW110724   4.458   0.413   1.090
 3275SOL    HW210725   4.470   0.263   1.026
 3276SOL     OW10726   4.893   0.174   0.353
 3276SOL    HW110727   4.798   0.205   0.359
 3276SOL    HW210728   4.952   0.252   0.330
 3277SOL     OW10729   3.225   1.658   1.758
 3277SOL    HW110730   3.306   1.706   1.791
 3277SOL    HW210731   3.203   1.688   1.666
 3278SOL     OW10732   0.185   0.520   6.868
 3278SOL    HW110733   0.264   0.576   6.843
 3278SOL    HW210734   0.127   0.570   6.932
 3279SOL     OW10735   4.316   6.207   0.678
 3279SOL    HW110736   4.319   6.203   0.778
 3279SOL    HW210737   4.298   6.301   0.650
 3280SOL     OW10738   5.369   3.657   4.307
 3280SOL    HW110739   5.297   3.677   4.374
 3280SOL    HW210740   5.352   3.568   4.266
 3281SOL     OW10741   6.978   4.330   1.985
 3281SOL    HW110742   0.051   4.361   1.987
 3281SOL    HW210743   6.920   4.405   1.953
 3282SOL     OW10744   0.546   4.068   5.157
 3282SOL    HW110745   0.607   4.026   5.224
 3282SOL    HW210746   0.539   4.009   5.076
 3283SOL     OW10747   3.509   0.915   1.550
 3283SOL    HW110748   3.430   0.871   1.506
 3283SOL    HW210749   3.492   1.013   1.558
 3284SOL     OW10750   1.556   5.934   4.665
 3284SOL    HW110751   1.629   5.896   4.721
 3284SOL    HW210752   1.481   5.868   4.659
 3285SOL     OW10753   5.609   1.095   4.512
 3285SOL    HW110754   5.672   1.024   4.481
 3285SOL    HW210755   5.556   1.062   4.590
 3286SOL     OW10756   3.104   2.014   1.618
 3286SOL    HW110757   3.184   2.068   1.645
 3286SOL    HW210758   3.129   1.950   1.546
 3287SOL     OW10759   1.690   0.458   6.365
 3287SOL    HW110760   1.762   0.512   6.322
 3287SOL    HW210761   1.651   0.509   6.442
 3288SOL     OW10762   1.678   6.252   0.799
 3288SOL    HW110763   1.610   6.186   0.831
 3288SOL    HW210764   1.651   6.344   0.830
 3289SOL     OW10765   3.581   1.571   6.573
 3289SOL    HW110766   3.598   1.483   6.616
 3289SOL    HW210767   3.642   1.640   6.612
 3290SOL     OW10768   6.716   5.234   0.502
 3290SOL    HW110769   6.778   5.157   0.518
 3290SOL    HW210770   6.734   5.274   0.413
 3291SOL     OW10771   4.688   0.004   5.339
 3291SOL    HW110772   4.742   0.017   5.422
 3291SOL    HW210773   4.605   6.976   5.361
 3292SOL     OW10774   0.309   1.559   0.898
 3292SOL    HW110775   0.408   1.573   0.898
 3292SOL    HW210776   0.273   1.572   0.990
 3293SOL     OW10777   6.575   5.296   3.124
 3293SOL    HW110778   6.535   5.316   3.213
 3293SOL    HW210779   6.531   5.215   3.085
 3294SOL     OW10780   5.281   2.228   5.565
 3294SOL    HW110781   5.257   2.249   5.660
 3294SOL    HW210782   5.244   2.299   5.505
 3295SOL     OW10783   1.851   2.932   0.831
 3295SOL    HW110784   1.786   2.923   0.756
 3295SOL    HW210785   1.895   2.844   0.847
 3296SOL     OW10786   0.347   0.116   5.627
 3296SOL    HW110787   0.254   0.105   5.661
 3296SOL    HW210788   0.357   0.069   5.539
 3297SOL     OW10789   2.978   1.867   5.367
 3297SOL    HW110790   2.932   1.795   5.419
 3297SOL    HW210791   3.011   1.830   5.281
 3298SOL     OW10792   6.442   4.061   4.717
 3298SOL    HW110793   6.367   4.058   4.651
 3298SOL    HW210794   6.513   3.995   4.690
 3299SOL     OW10795   3.608   4.902   3.582
 3299SOL    HW110796   3.677   4.877   3.649
 3299SOL    HW210797   3.525   4.934   3.629
 3300SOL     OW10798   1.836   0.089   5.634
 3300SOL    HW110799   1.809   0.185   5.645
 3300SOL    HW210800   1.922   0.084   5.584
 3301SOL     OW10801   1.793   3.180   2.495
 3301SOL    HW110802   1.835   3.137   2.574
 3301SOL    HW210803   1.858   3.184   2.420
 3302SOL     OW10804   2.352   4.899   5.507
 3302SOL    HW110805   2.392   4.864   5.422
 3302SOL    HW210806   2.414   4.879   5.584
 3303SOL     OW10807   3.475   2.954   0.761
 3303SOL    HW110808   3.422   2.905   0.692
 3303SOL    HW210809   3.493   2.893   0.838
 3304SOL     OW10810   2.511   4.605   6.153
 3304SOL    HW110811   2.606   4.610   6.122
 3304SOL    HW210812   2.507   4.560   6.242
 3305SOL     OW10813   3.418   0.567   1.437
 3305SOL    HW110814   3.407   0.471   1.464
 3305SOL    HW210815   3.336   0.596   1.387
 3306SOL     OW10816   1.366   0.242   0.108
 3306SOL    HW110817   1.437   0.244   0.177
 3306SOL    HW210818   1.307   0.162   0.123
 3307SOL     OW10819   1.205   6.871   4.889
 3307SOL    HW110820   1.302   6.849   4.880
 3307SOL    HW210821   1.150   6.792   4.860
 3308SOL     OW10822   3.736   4.455   1.125
 3308SOL    HW110823   3.757   4.503   1.210
 3308SOL    HW210824   3.820   4.429   1.078
 3309SOL     OW10825   5.146   4.356   4.035
 3309SOL    HW110826   5.167   4.300   4.115
 3309SOL    HW210827   5.054   4.335   4.002
 3310SOL     OW10828   0.714   5.384   4.647
 3310SOL    HW110829   0.669   5.416   4.564
 3310SOL    HW210830   0.646   5.350   4.711
 3311SOL     OW10831   3.029   3.633   0.412
 3311SOL    HW110832   2.943   3.582   0.415
 3311SOL    HW210833   3.105   3.570   0.429
 3312SOL     OW10834   4.887   2.976   6.377
 3312SOL    HW110835   4.940   3.049   6.334
 3312SOL    HW210836   4.859   2.910   6.307
 3313SOL     OW10837   1.070   0.411   2.858
 3313SOL    HW110838   0.973   0.391   2.845
 3313SOL    HW210839   1.095   0.493   2.807
 3314SOL     OW10840   2.265   6.705   3.154
 3314SOL    HW110841   2.223   6.711   3.063
 3314SOL    HW210842   2.355   6.748   3.152
 3315SOL     OW10843   0.451   5.444   5.079
 3315SOL    HW110844   0.386   5.368   5.081
 3315SOL    HW210845   0.523   5.428   5.147
 3316SOL     OW10846   2.715   1.147   6.387
 3316SOL    HW110847   2.796   1.179   6.437
 3316SOL    HW210848   2.643   1.216   6.392
 3317SOL     OW10849   5.102   2.530   1.924
 3317SOL    HW110850   5.111   2.507   1.827
 3317SOL    HW210851   5.030   2.475   1.966
 3318SOL     OW10852   3.133   2.620   0.340
 3318SOL    HW110853   3.109   2.714   0.316
 3318SOL    HW210854   3.231   2.616   0.362
 3319SOL     OW10855   6.735   6.714   2.657
 3319SOL    HW110856   6.738   6.618   2.684
 3319SOL    HW210857   6.822   6.758   2.680
 3320SOL     OW10858   6.416   0.182   0.963
 3320SOL    HW110859   6.398   0.264   0.909
 3320SOL    HW210860   6.470   0.207   1.044
 3321SOL     OW10861   5.837   1.647   0.488
 3321SOL    HW110862   5.770   1.652   0.562
 3321SOL    HW210863   5.922   1.690   0.517
 3322SOL     OW10864   6.567   3.059   0.822
 3322SOL    HW110865   6.623   2.978   0.836
 3322SOL    HW210866   6.603   3.111   0.745
 3323SOL     OW10867   2.628   1.881   1.974
 3323SOL    HW110868   2.530   1.873   1.992
 3323SOL    HW210869   2.659   1.973   2.001
 3324SOL     OW10870   4.823   5.470   5.739
 3324SOL    HW110871   4.837   5.512   5.650
 3324SOL    HW210872   4.850   5.535   5.811
 3325SOL     OW10873   1.458   3.275   6.500
 3325SOL    HW110874   1.409   3.359   6.524
 3325SOL    HW210875   1.445   3.255   6.403
 3326SOL     OW10876   5.477   1.171   3.136
 3326SOL    HW110877   5.390   1.202   3.175
 3326SOL    HW210878   5.526   1.116   3.203
 3327SOL     OW10879   1.014   5.873   1.443
 3327SOL    HW110880   1.036   5.861   1.346
 3327SOL    HW210881   1.098   5.873   1.497
 3328SOL     OW10882   3.337   1.491   1.060
 3328SOL    HW110883   3.239   1.482   1.046
 3328SOL    HW210884   3.386   1.467   0.976
 3329SOL     OW10885   6.473   5.735   5.569
 3329SOL    HW110886   6.546   5.770   5.510
 3329SOL    HW210887   6.498   5.644   5.602
 3330SOL     OW10888   6.717   2.694   2.129
 3330SOL    HW110889   6.697   2.597   2.139
 3330SOL    HW210890   6.696   2.742   2.214
 3331SOL     OW10891   1.455   2.189   1.345
 3331SOL    HW110892   1.520   2.264   1.360
 3331SOL    HW210893   1.362   2.222   1.362
 3332SOL     OW10894   5.721   4.467   0.387
 3332SOL    HW110895   5.796   4.472   0.452
 3332SOL    HW210896   5.688   4.373   0.380
 3333SOL     OW10897   4.412   5.169   6.150
 3333SOL    HW110898   4.485   5.145   6.086
 3333SOL    HW210899   4.324   5.166   6.104
 3334SOL     OW10900   3.511   3.454   1.462
 3334SOL    HW110901   3.591   3.397   1.482
 3334SOL    HW210902   3.509   3.532   1.525
 3335SOL     OW10903   5.020   5.078   5.831
 3335SOL    HW110904   5.079   5.024   5.891
 3335SOL    HW210905   5.042   5.059   5.736
 3336SOL     OW10906   3.317   5.360   6.092
 3336SOL    HW110907   3.270   5.280   6.053
 3336SOL    HW210908   3.335   5.427   6.020
 3337SOL     OW10909   3.402   2.382   1.556
 3337SOL    HW110910   3.457   2.413   1.478
 3337SOL    HW210911   3.418   2.442   1.634
 3338SOL     OW10912   0.095   4.053   1.530
 3338SOL    HW110913   0.048   4.008   1.454
 3338SOL    HW210914   0.189   4.073   1.503
 3339SOL     OW10915   6.555   6.024   6.736
 3339SOL    HW110916   6.540   5.925   6.726
 3339SOL    HW210917   6.578   6.045   6.830
 3340SOL     OW10918   3.338   6.388   2.456
 3340SOL    HW110919   3.265   6.323   2.433
 3340SOL    HW210920   3.297   6.471   2.496
 3341SOL     OW10921   0.925   0.058   2.759
 3341SOL    HW110922   0.937   0.146   2.713
 3341SOL    HW210923   1.014   0.013   2.769
 3342SOL     OW10924   1.902   6.960   4.237
 3342SOL    HW110925   1.832   6.888   4.240
 3342SOL    HW210926   1.858   0.027   4.240
 3343SOL     OW10927   5.066   2.807   1.060
 3343SOL    HW110928   5.092   2.891   1.012
 3343SOL    HW210929   4.973   2.781   1.034
 3344SOL     OW10930   5.749   3.802   5.198
 3344SOL    HW110931   5.746   3.779   5.296
 3344SOL    HW210932   5.684   3.875   5.179
 3345SOL     OW10933   2.980   4.047   5.910
 3345SOL    HW110934   2.947   3.982   5.842
 3345SOL    HW210935   3.035   3.999   5.978
 3346SOL     OW10936   0.457   1.031   2.148
 3346SOL    HW110937   0.459   0.949   2.090
 3346SOL    HW210938   0.376   1.085   2.125
 3347SOL     OW10939   6.244   3.919   4.574
 3347SOL    HW110940   6.170   3.853   4.563
 3347SOL    HW210941   6.319   3.896   4.512
 3348SOL     OW10942   3.356   3.438   3.781
 3348SOL    HW110943   3.360   3.521   3.726
 3348SOL    HW210944   3.362   3.358   3.720
 3349SOL     OW10945   6.605   3.667   4.379
 3349SOL    HW110946   6.596   3.572   4.408
 3349SOL    HW210947   6.699   3.684   4.348
 3350SOL     OW10948   1.946   1.063   6.763
 3350SOL    HW110949   1.959   1.000   6.840
 3350SOL    HW210950   1.998   1.147   6.781
 3351SOL     OW10951   5.595   1.084   1.168
 3351SOL    HW110952   5.603   1.118   1.261
 3351SOL    HW210953   5.546   1.151   1.112
 3352SOL     OW10954   0.712   4.015   1.159
 3352SOL    HW110955   0.728   3.951   1.084
 3352SOL    HW210956   0.736   3.972   1.245
 3353SOL     OW10957   1.562   6.840   6.481
 3353SOL    HW110958   1.469   6.840   6.517
 3353SOL    HW210959   1.621   6.786   6.541
 3354SOL     OW10960   0.040   2.152   3.557
 3354SOL    HW110961   0.014   2.187   3.647
 3354SOL    HW210962   0.012   2.218   3.487
 3355SOL     OW10963   0.484   1.843   1.400
 3355SOL    HW110964   0.395   1.798   1.401
 3355SOL    HW210965   0.539   1.810   1.477
 3356SOL     OW10966   3.054   3.699   6.767
 3356SOL    HW110967   3.012   3.708   6.676
 3356SOL    HW210968   2.983   3.709   6.837
 3357SOL     OW10969   2.929   5.307   1.350
 3357SOL    HW110970   2.959   5.224   1.304
 3357SOL    HW210971   3.003   5.374   1.349
 3358SOL     OW10972   4.749   6.546   2.503
 3358SOL    HW110973   4.699   6.460   2.513
 3358SOL    HW210974   4.817   6.553   2.576
 3359SOL     OW10975   1.104   0.749   2.530
 3359SOL    HW110976   1.012   0.769   2.497
 3359SOL    HW210977   1.136   0.663   2.491
 3360SOL     OW10978   0.423   0.988   0.242
 3360SOL    HW110979   0.496   0.929   0.275
 3360SOL    HW210980   0.335   0.954   0.275
 3361SOL     OW10981   5.816   5.979   3.154
 3361SOL    HW110982   5.890   5.928   3.110
 3361SOL    HW210983   5.735   5.921   3.162
 3362SOL     OW10984   2.975   1.551   4.599
 3362SOL    HW110985   3.044   1.541   4.528
 3362SOL    HW210986   2.920   1.632   4.581
 3363SOL     OW10987   0.166   1.774   0.084
 3363SOL    HW110988   0.161   1.863   0.039
 3363SOL    HW210989   0.083   1.760   0.139
 3364SOL     OW10990   1.043   5.721   6.010
 3364SOL    HW110991   1.073   5.808   5.971
 3364SOL    HW210992   1.079   5.713   6.104
 3365SOL     OW10993   0.117   2.612   4.633
 3365SOL    HW110994   0.081   2.523   4.607
 3365SOL    HW210995   0.086   2.635   4.726
 3366SOL     OW10996   5.262   0.440   5.385
 3366SOL    HW110997   5.183   0.386   5.414
 3366SOL    HW210998   5.320   0.385   5.324
 3367SOL     OW10999   1.565   2.278   2.593
 3367SOL    HW111000   1.475   2.317   2.574
 3367SOL    HW211001   1.620   2.344   2.644
 3368SOL     OW11002   6.328   5.411   6.646
 3368SOL    HW111003   6.315   5.501   6.688
 3368SOL    HW211004   6.242   5.380   6.606
 3369SOL     OW11005   3.697   0.422   0.328
 3369SOL    HW111006   3.646   0.375   0.256
 3369SOL    HW211007   3.782   0.372   0.346
 3370SOL     OW11008   6.765   6.810   5.075
 3370SOL    HW111009   6.741   6.723   5.032
 3370SOL    HW211010   6.831   6.793   5.149
 3371SOL     OW11011   1.235   4.548   1.816
 3371SOL    HW111012   1.152   4.603   1.817
 3371SOL    HW211013   1.211   4.452   1.829
 3372SOL     OW11014   0.584   0.968   2.402
 3372SOL    HW111015   0.609   0.872   2.396
 3372SOL    HW211016   0.569   1.005   2.311
 3373SOL     OW11017   5.827   1.552   4.754
 3373SOL    HW111018   5.791   1.547   4.661
 3373SOL    HW211019   5.818   1.463   4.799
 3374SOL     OW11020   3.368   6.184   5.635
 3374SOL    HW111021   3.351   6.088   5.658
 3374SOL    HW211022   3.367   6.195   5.536
 3375SOL     OW11023   4.635   4.458   5.046
 3375SOL    HW111024   4.676   4.429   4.959
 3375SOL    HW211025   4.543   4.492   5.031
 3376SOL     OW11026   3.135   3.008   2.389
 3376SOL    HW111027   3.116   2.969   2.478
 3376SOL    HW211028   3.221   2.972   2.353
 3377SOL     OW11029   1.170   6.342   4.720
 3377SOL    HW111030   1.114   6.361   4.640
 3377SOL    HW211031   1.267   6.351   4.697
 3378SOL     OW11032   6.763   1.251   1.422
 3378SOL    HW111033   6.699   1.212   1.356
 3378SOL    HW211034   6.721   1.253   1.513
 3379SOL     OW11035   0.650   4.824   5.540
 3379SOL    HW111036   0.721   4.798   5.606
 3379SOL    HW211037   0.588   4.747   5.526
 3380SOL     OW11038   0.223   4.557   6.804
 3380SOL    HW111039   0.276   4.512   6.733
 3380SOL    HW211040   0.269   4.642   6.832
 3381SOL     OW11041   3.102   2.727   0.638
 3381SOL    HW111042   3.191   2.766   0.613
 3381SOL    HW211043   3.066   2.674   0.561
 3382SOL     OW11044   6.808   1.806   0.457
 3382SOL    HW111045   6.849   1.736   0.516
 3382SOL    HW211046   6.832   1.897   0.490
 3383SOL     OW11047   5.988   4.626   2.965
 3383SOL    HW111048   6.075   4.658   3.005
 3383SOL    HW211049   6.007   4.557   2.896
 3384SOL     OW11050   3.140   3.026   4.836
 3384SOL    HW111051   3.239   3.018   4.821
 3384SOL    HW211052   3.099   3.075   4.758
 3385SOL     OW11053   6.579   3.723   3.340
 3385SOL    HW111054   6.620   3.640   3.303
 3385SOL    HW211055   6.633   3.755   3.418
 3386SOL     OW11056   6.103   4.724   4.368
 3386SOL    HW111057   6.185   4.773   4.338
 3386SOL    HW211058   6.123   4.626   4.369
 3387SOL     OW11059   2.588   2.338   2.676
 3387SOL    HW111060   2.564   2.258   2.732
 3387SOL    HW211061   2.684   2.334   2.651
 3388SOL     OW11062   5.719   2.347   1.325
 3388SOL    HW111063   5.696   2.340   1.422
 3388SOL    HW211064   5.785   2.420   1.312
 3389SOL     OW11065   4.767   4.195   3.942
 3389SOL    HW111066   4.696   4.245   3.893
 3389SOL    HW211067   4.855   4.208   3.896
 3390SOL     OW11068   4.839   2.611   5.769
 3390SOL    HW111069   4.789   2.693   5.740
 3390SOL    HW211070   4.892   2.632   5.851
 3391SOL     OW11071   3.730   2.061   4.925
 3391SOL    HW111072   3.725   2.010   4.839
 3391SOL    HW211073   3.743   1.997   5.001
 3392SOL     OW11074   2.605   0.666   3.846
 3392SOL    HW111075   2.515   0.686   3.807
 3392SOL    HW211076   2.655   0.606   3.784
 3393SOL     OW11077   6.451   6.594   0.119
 3393SOL    HW111078   6.351   6.600   0.113
 3393SOL    HW211079   6.484   6.655   0.192
 3394SOL     OW11080   5.925   1.972   0.783
 3394SOL    HW111081   5.916   1.989   0.881
 3394SOL    HW211082   5.839   1.934   0.748
 3395SOL     OW11083   0.474   3.415   4.154
 3395SOL    HW111084   0.434   3.335   4.198
 3395SOL    HW211085   0.573   3.401   4.143
 3396SOL     OW11086   0.404   3.266   3.207
 3396SOL    HW111087   0.434   3.172   3.224
 3396SOL    HW211088   0.306   3.273   3.225
 3397SOL     OW11089   3.791   7.017   5.853
 3397SOL    HW111090   3.868   0.049   5.819
 3397SOL    HW211091   3.727   0.054   5.902
 3398SOL     OW11092   1.098   0.408   4.112
 3398SOL    HW111093   1.139   0.336   4.167
 3398SOL    HW211094   1.001   0.416   4.135
 3399SOL     OW11095   4.442   5.138   4.145
 3399SOL    HW111096   4.539   5.160   4.136
 3399SOL    HW211097   4.399   5.206   4.205
 3400SOL     OW11098   4.783   2.276   6.592
 3400SOL    HW111099   4.812   2.246   6.502
 3400SOL    HW211100   4.858   2.261   6.657
 3401SOL     OW11101   6.914   3.460   0.316
 3401SOL    HW111102   6.906   3.463   0.217
 3401SOL    HW211103   6.881   3.546   0.355
 3402SOL     OW11104   5.545   5.686   1.471
 3402SOL    HW111105   5.493   5.604   1.448
 3402SOL    HW211106   5.489   5.768   1.454
 3403SOL     OW11107   3.560   0.204   4.764
 3403SOL    HW111108   3.463   0.230   4.771
 3403SOL    HW211109   3.571   0.111   4.799
 3404SOL     OW11110   4.267   1.230   0.594
 3404SOL    HW111111   4.170   1.239   0.619
 3404SOL    HW211112   4.274   1.224   0.494
 3405SOL     OW11113   6.287   4.098   6.202
 3405SOL    HW111114   6.188   4.110   6.194
 3405SOL    HW211115   6.332   4.186   6.187
 3406SOL     OW11116   2.535   4.579   1.870
 3406SOL    HW111117   2.462   4.578   1.938
 3406SOL    HW211118   2.624   4.575   1.917
 3407SOL     OW11119   1.442   5.631   1.872
 3407SOL    HW111120   1.459   5.606   1.776
 3407SOL    HW211121   1.347   5.662   1.881
 3408SOL     OW11122   4.878   3.993   3.229
 3408SOL    HW111123   4.906   3.921   3.166
 3408SOL    HW211124   4.856   4.076   3.177
 3409SOL     OW11125   3.985   6.899   6.056
 3409SOL    HW111126   3.999   6.929   6.151
 3409SOL    HW211127   3.940   6.972   6.005
 3410SOL     OW11128   6.135   5.462   6.935
 3410SOL    HW111129   6.194   5.536   6.900
 3410SOL    HW211130   6.192   5.383   6.959
 3411SOL     OW11131   4.998   2.279   1.976
 3411SOL    HW111132   5.053   2.238   2.049
 3411SOL    HW211133   4.903   2.285   2.005
 3412SOL     OW11134   4.243   3.576   6.859
 3412SOL    HW111135   4.240   3.603   6.763
 3412SOL    HW211136   4.302   3.640   6.910
 3413SOL     OW11137   4.071   1.484   2.557
 3413SOL    HW111138   4.127   1.491   2.639
 3413SOL    HW211139   4.114   1.420   2.493
 3414SOL     OW11140   2.634   1.842   4.867
 3414SOL    HW111141   2.575   1.879   4.938
 3414SOL    HW211142   2.690   1.768   4.905
 3415SOL     OW11143   0.754   4.969   4.011
 3415SOL    HW111144   0.838   5.014   3.980
 3415SOL    HW211145   0.776   4.905   4.085
 3416SOL     OW11146   0.457   4.176   5.639
 3416SOL    HW111147   0.501   4.261   5.669
 3416SOL    HW211148   0.435   4.183   5.541
 3417SOL     OW11149   6.975   6.550   2.401
 3417SOL    HW111150   7.009   6.567   2.308
 3417SOL    HW211151   6.886   6.594   2.413
 3418SOL     OW11152   2.847   1.374   4.737
 3418SOL    HW111153   2.909   1.443   4.699
 3418SOL    HW211154   2.879   1.347   4.828
 3419SOL     OW11155   4.484   4.706   7.017
 3419SOL    HW111156   4.548   4.716   6.941
 3419SOL    HW211157   4.534   4.672   0.075
 3420SOL     OW11158   5.017   1.533   4.164
 3420SOL    HW111159   5.001   1.604   4.095
 3420SOL    HW211160   4.934   1.521   4.218
 3421SOL     OW11161   7.006   0.345   5.685
 3421SOL    HW111162   0.068   0.327   5.635
 3421SOL    HW211163   6.981   0.442   5.675
 3422SOL     OW11164   3.193   6.938   1.197
 3422SOL    HW111165   3.263   6.917   1.265
 3422SOL    HW211166   3.133   7.011   1.232
 3423SOL     OW11167   2.087   0.746   0.199
 3423SOL    HW111168   2.183   0.774   0.211
 3423SOL    HW211169   2.056   0.777   0.109
 3424SOL     OW11170   3.495   1.190   2.317
 3424SOL    HW111171   3.491   1.180   2.416
 3424SOL    HW211172   3.443   1.271   2.290
 3425SOL     OW11173   5.049   4.423   2.201
 3425SOL    HW111174   4.972   4.363   2.227
 3425SOL    HW211175   5.017   4.491   2.136
 3426SOL     OW11176   3.508   3.461   0.424
 3426SOL    HW111177   3.434   3.459   0.357
 3426SOL    HW211178   3.498   3.541   0.483
 3427SOL     OW11179   6.600   0.178   0.054
 3427SOL    HW111180   6.549   0.093   0.068
 3427SOL    HW211181   6.698   0.160   0.061
 3428SOL     OW11182   3.946   4.976   1.978
 3428SOL    HW111183   3.888   5.049   2.015
 3428SOL    HW211184   3.902   4.936   1.897
 3429SOL     OW11185   1.310   2.338   6.915
 3429SOL    HW111186   1.278   2.246   6.939
 3429SOL    HW211187   1.256   2.372   6.838
 3430SOL     OW11188   1.290   6.770   0.129
 3430SOL    HW111189   1.268   6.867   0.134
 3430SOL    HW211190   1.206   6.717   0.123
 3431SOL     OW11191   1.440   5.930   1.306
 3431SOL    HW111192   1.519   5.917   1.246
 3431SOL    HW211193   1.462   5.999   1.375
 3432SOL     OW11194   2.737   2.419   5.200
 3432SOL    HW111195   2.817   2.366   5.229
 3432SOL    HW211196   2.724   2.409   5.102
 3433SOL     OW11197   3.096   0.841   6.105
 3433SOL    HW111198   3.065   0.826   6.011
 3433SOL    HW211199   3.166   0.912   6.105
 3434SOL     OW11200   3.741   2.902   1.067
 3434SOL    HW111201   3.705   2.994   1.053
 3434SOL    HW211202   3.805   2.880   0.993
 3435SOL     OW11203   0.059   2.540   1.611
 3435SOL    HW111204   0.004   2.617   1.645
 3435SOL    HW211205   0.092   2.486   1.689
 3436SOL     OW11206   4.003   7.020   4.911
 3436SOL    HW111207   3.931   7.003   4.978
 3436SOL    HW211208   4.007   6.944   4.846
 3437SOL     OW11209   4.363   0.112   5.632
 3437SOL    HW111210   4.377   0.051   5.554
 3437SOL    HW211211   4.446   0.166   5.647
 3438SOL     OW11212   2.101   2.511   6.770
 3438SOL    HW111213   2.027   2.578   6.777
 3438SOL    HW211214   2.070   2.423   6.805
 3439SOL     OW11215   2.737   0.039   5.344
 3439SOL    HW111216   2.796   7.012   5.280
 3439SOL    HW211217   2.776   0.035   5.435
 3440SOL     OW11218   4.328   3.899   0.844
 3440SOL    HW111219   4.425   3.922   0.830
 3440SOL    HW211220   4.312   3.881   0.941
 3441SOL     OW11221   4.007   6.838   3.841
 3441SOL    HW111222   4.053   6.924   3.863
 3441SOL    HW211223   4.076   6.766   3.829
 3442SOL     OW11224   2.125   5.329   3.456
 3442SOL    HW111225   2.166   5.243   3.485
 3442SOL    HW211226   2.037   5.311   3.412
 3443SOL     OW11227   5.848   1.800   3.220
 3443SOL    HW111228   5.936   1.826   3.181
 3443SOL    HW211229   5.803   1.882   3.257
 3444SOL     OW11230   4.880   5.711   6.513
 3444SOL    HW111231   4.841   5.762   6.590
 3444SOL    HW211232   4.978   5.698   6.528
 3445SOL     OW11233   6.896   4.051   4.298
 3445SOL    HW111234   6.866   4.138   4.260
 3445SOL    HW211235   6.995   4.042   4.287
 3446SOL     OW11236   4.101   1.047   2.668
 3446SOL    HW111237   4.003   1.031   2.657
 3446SOL    HW211238   4.152   0.968   2.636
 3447SOL     OW11239   5.935   5.382   0.103
 3447SOL    HW111240   5.954   5.286   0.123
 3447SOL    HW211241   6.013   5.421   0.054
 3448SOL     OW11242   3.161   0.351   0.959
 3448SOL    HW111243   3.186   0.324   0.866
 3448SOL    HW211244   3.066   0.325   0.976
 3449SOL     OW11245   6.186   6.674   2.346
 3449SOL    HW111246   6.195   6.630   2.257
 3449SOL    HW211247   6.209   6.609   2.419
 3450SOL     OW11248   0.804   1.943   1.334
 3450SOL    HW111249   0.740   1.934   1.258
 3450SOL    HW211250   0.840   1.853   1.358
 3451SOL     OW11251   0.863   5.582   3.557
 3451SOL    HW111252   0.805   5.646   3.608
 3451SOL    HW211253   0.906   5.518   3.621
 3452SOL     OW11254   6.898   0.916   6.753
 3452SOL    HW111255   6.946   0.944   6.669
 3452SOL    HW211256   6.913   0.984   6.824
 3453SOL     OW11257   5.269   5.558   4.908
 3453SOL    HW111258   5.368   5.568   4.918
 3453SOL    HW211259   5.224   5.638   4.946
 3454SOL     OW11260   1.889   1.406   6.952
 3454SOL    HW111261   1.841   1.455   6.879
 3454SOL    HW211262   1.986   1.398   6.929
 3455SOL     OW11263   1.362   3.306   4.837
 3455SOL    HW111264   1.384   3.401   4.858
 3455SOL    HW211265   1.415   3.245   4.896
 3456SOL     OW11266   5.840   6.216   1.910
 3456SOL    HW111267   5.879   6.265   1.988
 3456SOL    HW211268   5.837   6.118   1.930
 3457SOL     OW11269   2.738   5.350   4.216
 3457SOL    HW111270   2.746   5.294   4.298
 3457SOL    HW211271   2.755   5.294   4.135
 3458SOL     OW11272   5.998   6.898   0.204
 3458SOL    HW111273   6.091   6.887   0.169
 3458SOL    HW211274   5.948   6.962   0.146
 3459SOL     OW11275   0.422   3.453   3.002
 3459SOL    HW111276   0.429   3.399   2.918
 3459SOL    HW211277   0.410   3.392   3.080
 3460SOL     OW11278   2.966   3.269   0.510
 3460SOL    HW111279   2.920   3.306   0.429
 3460SOL    HW211280   2.929   3.313   0.592
 3461SOL     OW11281   3.719   5.408   4.426
 3461SOL    HW111282   3.800   5.349   4.418
 3461SOL    HW211283   3.735   5.477   4.497
 3462SOL     OW11284   6.254   2.868   2.539
 3462SOL    HW111285   6.197   2.941   2.502
 3462SOL    HW211286   6.343   2.904   2.564
 3463SOL     OW11287   0.947   3.243   2.240
 3463SOL    HW111288   0.894   3.230   2.156
 3463SOL    HW211289   0.977   3.339   2.246
 3464SOL     OW11290   5.738   2.438   6.763
 3464SOL    HW111291   5.692   2.448   6.851
 3464SOL    HW211292   5.683   2.380   6.702
 3465SOL     OW11293   2.152   3.569   1.392
 3465SOL    HW111294   2.153   3.562   1.492
 3465SOL    HW211295   2.200   3.491   1.352
 3466SOL     OW11296   5.583   4.985   5.830
 3466SOL    HW111297   5.538   5.022   5.748
 3466SOL    HW211298   5.651   5.051   5.862
 3467SOL     OW11299   3.487   1.508   0.834
 3467SOL    HW111300   3.429   1.540   0.759
 3467SOL    HW211301   3.582   1.538   0.819
 3468SOL     OW11302   4.572   1.688   2.212
 3468SOL    HW111303   4.591   1.590   2.223
 3468SOL    HW211304   4.648   1.740   2.251
 3469SOL     OW11305   4.720   0.316   5.990
 3469SOL    HW111306   4.784   0.256   5.941
 3469SOL    HW211307   4.633   0.319   5.941
 3470SOL     OW11308   0.621   3.132   1.299
 3470SOL    HW111309   0.704   3.104   1.251
 3470SOL    HW211310   0.552   3.160   1.232
 3471SOL     OW11311   4.816   4.202   3.091
 3471SOL    HW111312   4.822   4.277   3.158
 3471SOL    HW211313   4.761   4.232   3.013
 3472SOL     OW11314   4.449   1.949   2.721
 3472SOL    HW111315   4.398   1.913   2.644
 3472SOL    HW211316   4.535   1.899   2.731
 3473SOL     OW11317   0.041   3.466   3.712
 3473SOL    HW111318   0.058   3.552   3.759
 3473SOL    HW211319   6.966   3.456   3.693
 3474SOL     OW11320   0.429   4.152   3.877
 3474SOL    HW111321   0.379   4.083   3.929
 3474SOL    HW211322   0.485   4.106   3.807
 3475SOL     OW11323   0.514   5.147   4.457
 3475SOL    HW111324   0.525   5.148   4.358
 3475SOL    HW211325   0.424   5.181   4.482
 3476SOL     OW11326   1.786   1.001   3.689
 3476SOL    HW111327   1.845   1.002   3.609
 3476SOL    HW211328   1.730   1.083   3.691
 3477SOL     OW11329   0.658   3.383   0.610
 3477SOL    HW111330   0.584   3.340   0.558
 3477SOL    HW211331   0.730   3.316   0.628
 3478SOL     OW11332   2.159   6.977   0.170
 3478SOL    HW111333   2.201   7.011   0.255
 3478SOL    HW211334   2.231   6.958   0.103
 3479SOL     OW11335   0.963   2.242   3.991
 3479SOL    HW111336   1.000   2.315   3.933
 3479SOL    HW211337   1.030   2.218   4.061
 3480SOL     OW11338   1.129   6.000   6.676
 3480SOL    HW111339   1.218   6.032   6.646
 3480SOL    HW211340   1.077   6.077   6.713
 3481SOL     OW11341   5.483   0.755   0.551
 3481SOL    HW111342   5.577   0.739   0.581
 3481SOL    HW211343   5.483   0.799   0.462
 3482SOL     OW11344   6.022   2.156   3.481
 3482SOL    HW111345   5.934   2.192   3.452
 3482SOL    HW211346   6.076   2.230   3.522
 3483SOL     OW11347   5.400   2.378   2.965
 3483SOL    HW111348   5.455   2.309   2.918
 3483SOL    HW211349   5.365   2.340   3.051
 3484SOL     OW11350   1.769   3.584   6.670
 3484SOL    HW111351   1.814   3.620   6.752
 3484SOL    HW211352   1.761   3.657   6.602
 3485SOL     OW11353   6.907   2.338   5.476
 3485SOL    HW111354   6.956   2.253   5.457
 3485SOL    HW211355   6.902   2.393   5.392
 3486SOL     OW11356   2.203   0.249   4.155
 3486SOL    HW111357   2.286   0.278   4.201
 3486SOL    HW211358   2.220   0.165   4.104
 3487SOL     OW11359   6.674   2.226   6.908
 3487SOL    HW111360   6.602   2.157   6.910
 3487SOL    HW211361   6.678   2.273   6.996
 3488SOL     OW11362   5.633   0.308   4.942
 3488SOL    HW111363   5.619   0.242   5.015
 3488SOL    HW211364   5.731   0.321   4.928
 3489SOL     OW11365   3.366   6.859   1.406
 3489SOL    HW111366   3.358   6.921   1.485
 3489SOL    HW211367   3.358   6.764   1.437
 3490SOL     OW11368   3.605   4.867   1.456
 3490SOL    HW111369   3.654   4.788   1.419
 3490SOL    HW211370   3.601   4.859   1.556
 3491SOL     OW11371   4.704   4.068   6.485
 3491SOL    HW111372   4.628   4.041   6.544
 3491SOL    HW211373   4.757   3.987   6.461
 3492SOL     OW11374   6.845   3.580   1.506
 3492SOL    HW111375   6.840   3.601   1.603
 3492SOL    HW211376   6.782   3.639   1.455
 3493SOL     OW11377   6.444   4.260   4.019
 3493SOL    HW111378   6.496   4.198   4.078
 3493SOL    HW211379   6.421   4.213   3.934
 3494SOL     OW11380   3.060   2.016   2.231
 3494SOL    HW111381   3.116   2.045   2.154
 3494SOL    HW211382   3.028   1.922   2.217
 3495SOL     OW11383   0.721   3.710   2.188
 3495SOL    HW111384   0.816   3.729   2.163
 3495SOL    HW211385   0.661   3.744   2.116
 3496SOL     OW11386   5.788   4.666   0.993
 3496SOL    HW111387   5.736   4.602   1.050
 3496SOL    HW211388   5.880   4.630   0.979
 3497SOL     OW11389   3.554   1.314   3.708
 3497SOL    HW111390   3.564   1.226   3.754
 3497SOL    HW211391   3.481   1.309   3.641
 3498SOL     OW11392   2.696   1.760   2.222
 3498SOL    HW111393   2.634   1.817   2.276
 3498SOL    HW211394   2.675   1.770   2.125
 3499SOL     OW11395   6.232   5.830   5.066
 3499SOL    HW111396   6.210   5.853   4.971
 3499SOL    HW211397   6.306   5.763   5.067
 3500SOL     OW11398   1.875   2.652   4.071
 3500SOL    HW111399   1.814   2.725   4.039
 3500SOL    HW211400   1.967   2.689   4.083
 3501SOL     OW11401   2.495   6.857   6.280
 3501SOL    HW111402   2.402   6.877   6.312
 3501SOL    HW211403   2.556   6.846   6.359
 3502SOL     OW11404   6.216   3.323   1.683
 3502SOL    HW111405   6.119   3.331   1.708
 3502SOL    HW211406   6.263   3.408   1.707
 3503SOL     OW11407   6.907   6.347   6.068
 3503SOL    HW111408   6.899   6.360   5.969
 3503SOL    HW211409   6.842   6.278   6.098
 3504SOL     OW11410   1.889   0.893   2.296
 3504SOL    HW111411   1.831   0.831   2.349
 3504SOL    HW211412   1.963   0.841   2.253
 3505SOL     OW11413   6.013   5.714   5.204
 3505SOL    HW111414   5.987   5.753   5.292
 3505SOL    HW211415   6.095   5.761   5.169
 3506SOL     OW11416   5.670   4.404   4.966
 3506SOL    HW111417   5.757   4.389   5.012
 3506SOL    HW211418   5.599   4.420   5.034
 3507SOL     OW11419   2.192   6.401   0.658
 3507SOL    HW111420   2.251   6.336   0.611
 3507SOL    HW211421   2.233   6.425   0.746
 3508SOL     OW11422   3.144   2.662   6.400
 3508SOL    HW111423   3.202   2.582   6.412
 3508SOL    HW211424   3.160   2.726   6.475
 3509SOL     OW11425   5.538   0.094   0.091
 3509SOL    HW111426   5.604   0.153   0.044
 3509SOL    HW211427   5.540   0.003   0.049
 3510SOL     OW11428   1.805   0.661   1.330
 3510SOL    HW111429   1.744   0.712   1.269
 3510SOL    HW211430   1.873   0.723   1.369
 3511SOL     OW11431   1.870   4.883   1.673
 3511SOL    HW111432   1.910   4.927   1.753
 3511SOL    HW211433   1.781   4.843   1.698
 3512SOL     OW11434   1.065   3.527   0.666
 3512SOL    HW111435   1.010   3.532   0.749
 3512SOL    HW211436   1.132   3.601   0.665
 3513SOL     OW11437   5.965   2.055   1.642
 3513SOL    HW111438   5.989   2.136   1.589
 3513SOL    HW211439   5.914   2.083   1.724
 3514SOL     OW11440   5.500   0.789   2.157
 3514SOL    HW111441   5.527   0.881   2.130
 3514SOL    HW211442   5.479   0.787   2.254
 3515SOL     OW11443   5.074   6.176   4.034
 3515SOL    HW111444   5.027   6.260   4.062
 3515SOL    HW211445   5.019   6.097   4.060
 3516SOL     OW11446   5.446   6.571   1.002
 3516SOL    HW111447   5.514   6.633   1.041
 3516SOL    HW211448   5.425   6.499   1.068
 3517SOL     OW11449   0.372   1.475   1.511
 3517SOL    HW111450   0.470   1.456   1.505
 3517SOL    HW211451   0.333   1.429   1.591
 3518SOL     OW11452   4.966   2.156   4.885
 3518SOL    HW111453   4.982   2.080   4.948
 3518SOL    HW211454   5.022   2.143   4.803
 3519SOL     OW11455   2.284   1.165   6.187
 3519SOL    HW111456   2.221   1.141   6.261
 3519SOL    HW211457   2.305   1.084   6.132
 3520SOL     OW11458   3.456   6.712   0.179
 3520SOL    HW111459   3.501   6.647   0.240
 3520SOL    HW211460   3.441   6.669   0.090
 3521SOL     OW11461   3.944   3.021   6.528
 3521SOL    HW111462   3.985   2.951   6.587
 3521SOL    HW211463   3.978   3.009   6.434
 3522SOL     OW11464   6.343   4.833   6.927
 3522SOL    HW111465   6.310   4.874   7.013
 3522SOL    HW211466   6.265   4.797   6.876
 3523SOL     OW11467   1.289   4.402   5.624
 3523SOL    HW111468   1.288   4.311   5.583
 3523SOL    HW211469   1.197   4.441   5.621
 3524SOL     OW11470   5.171   1.997   2.369
 3524SOL    HW111471   5.260   1.967   2.403
 3524SOL    HW211472   5.127   1.922   2.320
 3525SOL     OW11473   6.222   3.694   4.206
 3525SOL    HW111474   6.123   3.698   4.219
 3525SOL    HW211475   6.262   3.636   4.277
 3526SOL     OW11476   2.213   6.465   3.289
 3526SOL    HW111477   2.114   6.453   3.281
 3526SOL    HW211478   2.243   6.535   3.224
 3527SOL     OW11479   6.096   3.187   6.438
 3527SOL    HW111480   6.028   3.118   6.413
 3527SOL    HW211481   6.156   3.204   6.360
 3528SOL     OW11482   2.021   6.247   5.078
 3528SOL    HW111483   1.968   6.167   5.049
 3528SOL    HW211484   1.958   6.323   5.096
 3529SOL     OW11485   4.107   6.759   0.153
 3529SOL    HW111486   4.028   6.732   0.098
 3529SOL    HW211487   4.114   6.700   0.234
 3530SOL     OW11488   6.989   5.144   1.356
 3530SOL    HW111489   6.922   5.190   1.414
 3530SOL    HW211490   0.039   5.105   1.412
 3531SOL     OW11491   5.877   2.654   1.521
 3531SOL    HW111492   5.957   2.712   1.505
 3531SOL    HW211493   5.907   2.564   1.552
 3532SOL     OW11494   2.481   1.159   1.753
 3532SOL    HW111495   2.567   1.158   1.702
 3532SOL    HW211496   2.428   1.239   1.727
 3533SOL     OW11497   0.659   1.630   2.680
 3533SOL    HW111498   0.664   1.543   2.632
 3533SOL    HW211499   0.748   1.652   2.720
 3534SOL     OW11500   1.030   2.176   1.788
 3534SOL    HW111501   1.028   2.096   1.728
 3534SOL    HW211502   0.991   2.254   1.739
 3535SOL     OW11503   2.316   5.281   5.813
 3535SOL    HW111504   2.300   5.314   5.720
 3535SOL    HW211505   2.230   5.282   5.864
 3536SOL     OW11506   2.993   2.143   3.604
 3536SOL    HW111507   3.006   2.044   3.596
 3536SOL    HW211508   3.030   2.188   3.523
 3537SOL     OW11509   1.713   5.436   1.911
 3537SOL    HW111510   1.748   5.418   2.003
 3537SOL    HW211511   1.768   5.508   1.868
 3538SOL     OW11512   2.948   5.369   5.710
 3538SOL    HW111513   3.004   5.400   5.634
 3538SOL    HW211514   2.975   5.276   5.736
 3539SOL     OW11515   3.590   3.354   4.557
 3539SOL    HW111516   3.632   3.418   4.493
 3539SOL    HW211517   3.661   3.302   4.603
 3540SOL     OW11518   2.347   2.277   4.624
 3540SOL    HW111519   2.447   2.275   4.633
 3540SOL    HW211520   2.314   2.187   4.599
 3541SOL     OW11521   3.123   2.875   5.544
 3541SOL    HW111522   3.101   2.859   5.448
 3541SOL    HW211523   3.187   2.805   5.576
 3542SOL     OW11524   1.480   5.041   3.150
 3542SOL    HW111525   1.403   5.060   3.089
 3542SOL    HW211526   1.490   5.116   3.216
 3543SOL     OW11527   6.241   2.996   3.650
 3543SOL    HW111528   6.216   3.063   3.580
 3543SOL    HW211529   6.200   2.908   3.629
 3544SOL     OW11530   2.227   4.139   6.754
 3544SOL    HW111531   2.185   4.217   6.709
 3544SOL    HW211532   2.318   4.122   6.715
 3545SOL     OW11533   4.089   6.275   6.422
 3545SOL    HW111534   4.052   6.215   6.351
 3545SOL    HW211535   4.052   6.367   6.411
 3546SOL     OW11536   0.654   4.798   3.373
 3546SOL    HW111537   0.556   4.787   3.355
 3546SOL    HW211538   0.667   4.870   3.441
 3547SOL     OW11539   4.811   4.982   3.372
 3547SOL    HW111540   4.851   4.991   3.281
 3547SOL    HW211541   4.881   4.997   3.442
 3548SOL     OW11542   4.891   1.973   5.605
 3548SOL    HW111543   4.934   1.957   5.694
 3548SOL    HW211544   4.791   1.970   5.615
 3549SOL     OW11545   6.883   4.931   4.478
 3549SOL    HW111546   6.968   4.977   4.503
 3549SOL    HW211547   6.869   4.852   4.538
 3550SOL     OW11548   5.159   2.436   2.765
 3550SOL    HW111549   5.209   2.415   2.849
 3550SOL    HW211550   5.216   2.491   2.705
 3551SOL     OW11551   3.857   6.393   2.967
 3551SOL    HW111552   3.861   6.387   2.867
 3551SOL    HW211553   3.849   6.302   3.006
 3552SOL     OW11554   4.917   6.227   2.137
 3552SOL    HW111555   5.014   6.249   2.130
 3552SOL    HW211556   4.894   6.206   2.232
 3553SOL     OW11557   5.737   3.213   2.122
 3553SOL    HW111558   5.823   3.194   2.170
 3553SOL    HW211559   5.697   3.297   2.158
 3554SOL     OW11560   3.908   3.552   0.519
 3554SOL    HW111561   3.854   3.505   0.450
 3554SOL    HW211562   3.864   3.639   0.542
 3555SOL     OW11563   0.671   3.071   2.724
 3555SOL    HW111564   0.693   3.120   2.640
 3555SOL    HW211565   0.734   3.099   2.797
 3556SOL     OW11566   3.396   0.384   5.298
 3556SOL    HW111567   3.426   0.332   5.219
 3556SOL    HW211568   3.321   0.445   5.272
 3557SOL     OW11569   0.839   0.459   4.247
 3557SOL    HW111570   0.850   0.474   4.345
 3557SOL    HW211571   0.778   0.381   4.232
 3558SOL     OW11572   6.979   5.673   1.465
 3558SOL    HW111573   0.006   5.704   1.384
 3558SOL    HW211574   7.005   5.579   1.486
 3559SOL     OW11575   0.487   0.186   4.522
 3559SOL    HW111576   0.448   0.260   4.467
 3559SOL    HW211577   0.415   0.121   4.546
 3560SOL     OW11578   1.175   5.855   1.201
 3560SOL    HW111579   1.236   5.935   1.205
 3560SOL    HW211580   1.209   5.784   1.263
 3561SOL     OW11581   5.081   5.352   5.922
 3561SOL    HW111582   5.127   5.267   5.895
 3561SOL    HW211583   5.149   5.418   5.954
 3562SOL     OW11584   4.979   0.930   4.574
 3562SOL    HW111585   4.921   0.850   4.563
 3562SOL    HW211586   4.937   0.993   4.640
 3563SOL     OW11587   5.476   0.745   1.654
 3563SOL    HW111588   5.550   0.811   1.657
 3563SOL    HW211589   5.458   0.710   1.746
 3564SOL     OW11590   1.160   4.463   3.921
 3564SOL    HW111591   1.179   4.367   3.942
 3564SOL    HW211592   1.069   4.470   3.879
 3565SOL     OW11593   3.258   6.467   5.095
 3565SOL    HW111594   3.301   6.556   5.079
 3565SOL    HW211595   3.316   6.413   5.157
 3566SOL     OW11596   6.968   3.504   5.792
 3566SOL    HW111597   6.949   3.427   5.853
 3566SOL    HW211598   6.906   3.579   5.813
 3567SOL     OW11599   1.770   2.102   0.530
 3567SOL    HW111600   1.703   2.134   0.596
 3567SOL    HW211601   1.772   2.163   0.451
 3568SOL     OW11602   5.337   5.302   2.323
 3568SOL    HW111603   5.413   5.262   2.270
 3568SOL    HW211604   5.270   5.231   2.344
 3569SOL     OW11605   2.789   3.372   5.221
 3569SOL    HW111606   2.862   3.366   5.288
 3569SOL    HW211607   2.814   3.321   5.139
 3570SOL     OW11608   5.772   1.215   5.508
 3570SOL    HW111609   5.756   1.135   5.566
 3570SOL    HW211610   5.816   1.287   5.563
 3571SOL     OW11611   1.947   0.608   4.898
 3571SOL    HW111612   1.952   0.636   4.802
 3571SOL    HW211613   1.893   0.525   4.905
 3572SOL     OW11614   5.234   3.941   2.913
 3572SOL    HW111615   5.320   3.971   2.870
 3572SOL    HW211616   5.175   4.020   2.929
 3573SOL     OW11617   6.901   4.613   2.290
 3573SOL    HW111618   6.856   4.702   2.282
 3573SOL    HW211619   6.832   4.541   2.299
 3574SOL     OW11620   2.268   2.926   6.567
 3574SOL    HW111621   2.191   2.909   6.506
 3574SOL    HW211622   2.334   2.987   6.521
 3575SOL     OW11623   5.346   5.579   0.735
 3575SOL    HW111624   5.406   5.562   0.657
 3575SOL    HW211625   5.306   5.670   0.726
 3576SOL     OW11626   0.496   2.511   0.111
 3576SOL    HW111627   0.449   2.455   0.043
 3576SOL    HW211628   0.441   2.515   0.194
 3577SOL     OW11629   2.124   2.978   5.462
 3577SOL    HW111630   2.177   2.979   5.547
 3577SOL    HW211631   2.161   3.045   5.398
 3578SOL     OW11632   3.643   3.492   0.856
 3578SOL    HW111633   3.660   3.501   0.954
 3578SOL    HW211634   3.605   3.402   0.836
 3579SOL     OW11635   0.410   3.221   2.523
 3579SOL    HW111636   0.500   3.188   2.492
 3579SOL    HW211637   0.407   3.320   2.514
 3580SOL     OW11638   0.240   3.095   1.543
 3580SOL    HW111639   0.167   3.095   1.474
 3580SOL    HW211640   0.199   3.108   1.634
 3581SOL     OW11641   0.766   6.900   3.381
 3581SOL    HW111642   0.796   6.818   3.331
 3581SOL    HW211643   0.761   6.978   3.319
 3582SOL     OW11644   3.256   4.783   5.907
 3582SOL    HW111645   3.252   4.808   5.810
 3582SOL    HW211646   3.166   4.796   5.948
 3583SOL     OW11647   0.445   4.228   0.886
 3583SOL    HW111648   0.401   4.252   0.972
 3583SOL    HW211649   0.422   4.133   0.862
 3584SOL     OW11650   6.059   4.457   5.534
 3584SOL    HW111651   6.031   4.523   5.605
 3584SOL    HW211652   6.111   4.383   5.577
 3585SOL     OW11653   2.623   1.989   4.630
 3585SOL    HW111654   2.593   2.079   4.660
 3585SOL    HW211655   2.633   1.929   4.709
 3586SOL     OW11656   6.388   3.169   4.040
 3586SOL    HW111657   6.346   3.260   4.030
 3586SOL    HW211658   6.487   3.178   4.042
 3587SOL     OW11659   3.774   5.884   6.990
 3587SOL    HW111660   3.854   5.894   6.930
 3587SOL    HW211661   3.797   5.823   0.043
 3588SOL     OW11662   6.464   4.452   3.647
 3588SOL    HW111663   6.454   4.541   3.602
 3588SOL    HW211664   6.387   4.393   3.622
 3589SOL     OW11665   0.234   6.966   5.982
 3589SOL    HW111666   0.323   6.931   6.013
 3589SOL    HW211667   0.165   6.947   6.052
 3590SOL     OW11668   0.157   4.317   0.557
 3590SOL    HW111669   0.206   4.230   0.550
 3590SOL    HW211670   0.160   4.363   0.469
 3591SOL     OW11671   5.632   2.715   6.879
 3591SOL    HW111672   5.542   2.753   6.855
 3591SOL    HW211673   5.621   2.622   6.912
 3592SOL     OW11674   1.343   0.257   2.137
 3592SOL    HW111675   1.387   0.340   2.171
 3592SOL    HW211676   1.404   0.210   2.074
 3593SOL     OW11677   0.074   4.534   5.402
 3593SOL    HW111678   0.104   4.480   5.324
 3593SOL    HW211679   0.134   4.614   5.413
 3594SOL     OW11680   4.140   5.834   5.153
 3594SOL    HW111681   4.203   5.904   5.119
 3594SOL    HW211682   4.048   5.853   5.117
 3595SOL     OW11683   6.068   5.839   6.929
 3595SOL    HW111684   6.128   5.773   6.884
 3595SOL    HW211685   6.009   5.791   6.995
 3596SOL     OW11686   4.414   2.097   3.248
 3596SOL    HW111687   4.474   2.085   3.327
 3596SOL    HW211688   4.466   2.081   3.164
 3597SOL     OW11689   1.883   3.331   5.362
 3597SOL    HW111690   1.880   3.382   5.448
 3597SOL    HW211691   1.900   3.235   5.381
 3598SOL     OW11692   1.734   6.106   5.591
 3598SOL    HW111693   1.777   6.017   5.602
 3598SOL    HW211694   1.715   6.121   5.494
 3599SOL     OW11695   4.780   1.851   6.416
 3599SOL    HW111696   4.738   1.820   6.501
 3599SOL    HW211697   4.713   1.903   6.363
 3600SOL     OW11698   2.201   3.354   0.303
 3600SOL    HW111699   2.196   3.441   0.352
 3600SOL    HW211700   2.167   3.281   0.362
 3601SOL     OW11701   4.996   1.240   5.593
 3601SOL    HW111702   5.057   1.180   5.542
 3601SOL    HW211703   5.047   1.320   5.625
 3602SOL     OW11704   2.149   2.876   1.532
 3602SOL    HW111705   2.127   2.778   1.528
 3602SOL    HW211706   2.074   2.929   1.491
 3603SOL     OW11707   3.157   0.924   6.496
 3603SOL    HW111708   3.179   1.012   6.453
 3603SOL    HW211709   3.101   0.870   6.434
 3604SOL     OW11710   6.822   0.626   3.534
 3604SOL    HW111711   6.781   0.707   3.576
 3604SOL    HW211712   6.772   0.545   3.564
 3605SOL     OW11713   1.201   5.477   3.476
 3605SOL    HW111714   1.145   5.403   3.512
 3605SOL    HW211715   1.157   5.517   3.395
 3606SOL     OW11716   1.574   6.453   1.525
 3606SOL    HW111717   1.488   6.475   1.569
 3606SOL    HW211718   1.630   6.536   1.516
 3607SOL     OW11719   5.268   2.655   2.611
 3607SOL    HW111720   5.219   2.740   2.631
 3607SOL    HW211721   5.365   2.667   2.631
 3608SOL     OW11722   4.760   1.887   3.908
 3608SOL    HW111723   4.745   1.905   3.810
 3608SOL    HW211724   4.674   1.900   3.957
 3609SOL     OW11725   2.330   6.341   4.509
 3609SOL    HW111726   2.423   6.343   4.471
 3609SOL    HW211727   2.321   6.412   4.579
 3610SOL     OW11728   1.690   0.338   5.587
 3610SOL    HW111729   1.674   0.367   5.493
 3610SOL    HW211730   1.760   0.396   5.629
 3611SOL     OW11731   4.499   4.473   4.486
 3611SOL    HW111732   4.583   4.437   4.445
 3611SOL    HW211733   4.510   4.477   4.585
 3612SOL     OW11734   6.554   1.577   6.603
 3612SOL    HW111735   6.580   1.591   6.699
 3612SOL    HW211736   6.485   1.505   6.598
 3613SOL     OW11737   3.866   5.204   1.383
 3613SOL    HW111738   3.875   5.286   1.326
 3613SOL    HW211739   3.957   5.169   1.405
 3614SOL     OW11740   4.041   4.082   0.063
 3614SOL    HW111741   3.999   4.079   0.153
 3614SOL    HW211742   4.121   4.023   0.061
 3615SOL     OW11743   5.820   3.047   5.950
 3615SOL    HW111744   5.739   3.100   5.924
 3615SOL    HW211745   5.792   2.967   6.002
 3616SOL     OW11746   2.209   2.080   6.176
 3616SOL    HW111747   2.136   2.012   6.160
 3616SOL    HW211748   2.214   2.101   6.273
 3617SOL     OW11749   4.433   6.915   5.807
 3617SOL    HW111750   4.391   6.995   5.763
 3617SOL    HW211751   4.373   6.836   5.797
 3618SOL     OW11752   2.086   3.600   4.894
 3618SOL    HW111753   1.988   3.620   4.899
 3618SOL    HW211754   2.135   3.682   4.865
 3619SOL     OW11755   5.924   2.777   0.701
 3619SOL    HW111756   5.959   2.694   0.746
 3619SOL    HW211757   5.824   2.774   0.699
 3620SOL     OW11758   6.304   6.404   4.267
 3620SOL    HW111759   6.338   6.444   4.352
 3620SOL    HW211760   6.349   6.448   4.189
 3621SOL     OW11761   3.562   3.219   3.928
 3621SOL    HW111762   3.478   3.230   3.874
 3621SOL    HW211763   3.546   3.254   4.021
 3622SOL     OW11764   0.324   0.498   1.165
 3622SOL    HW111765   0.370   0.581   1.197
 3622SOL    HW211766   0.393   0.428   1.147
 3623SOL     OW11767   0.820   5.607   6.157
 3623SOL    HW111768   0.850   5.672   6.088
 3623SOL    HW211769   0.770   5.532   6.114
 3624SOL     OW11770   2.769   0.462   1.918
 3624SOL    HW111771   2.703   0.522   1.875
 3624SOL    HW211772   2.861   0.498   1.904
 3625SOL     OW11773   6.585   2.716   6.595
 3625SOL    HW111774   6.573   2.813   6.616
 3625SOL    HW211775   6.667   2.704   6.540
 3626SOL     OW11776   0.375   3.775   4.393
 3626SOL    HW111777   0.287   3.744   4.427
 3626SOL    HW211778   0.394   3.733   4.304
 3627SOL     OW11779   4.697   2.982   1.173
 3627SOL    HW111780   4.761   3.059   1.170
 3627SOL    HW211781   4.608   3.012   1.140
 3628SOL     OW11782   1.428   1.787   1.743
 3628SOL    HW111783   1.402   1.850   1.816
 3628SOL    HW211784   1.370   1.802   1.664
 3629SOL     OW11785   1.160   1.195   3.601
 3629SOL    HW111786   1.128   1.268   3.541
 3629SOL    HW211787   1.093   1.181   3.674
 3630SOL     OW11788   6.761   2.684   3.177
 3630SOL    HW111789   6.840   2.685   3.238
 3630SOL    HW211790   6.680   2.716   3.226
 3631SOL     OW11791   1.792   6.626   2.896
 3631SOL    HW111792   1.736   6.590   2.821
 3631SOL    HW211793   1.743   6.614   2.983
 3632SOL     OW11794   3.936   4.076   0.653
 3632SOL    HW111795   4.008   4.061   0.722
 3632SOL    HW211796   3.969   4.047   0.564
 3633SOL     OW11797   3.435   2.757   5.818
 3633SOL    HW111798   3.447   2.796   5.727
 3633SOL    HW211799   3.523   2.726   5.853
 3634SOL     OW11800   2.670   5.997   6.040
 3634SOL    HW111801   2.625   6.073   6.087
 3634SOL    HW211802   2.604   5.924   6.025
 3635SOL     OW11803   2.747   1.174   1.440
 3635SOL    HW111804   2.807   1.096   1.421
 3635SOL    HW211805   2.802   1.250   1.476
 3636SOL     OW11806   0.109   5.417   0.452
 3636SOL    HW111807   0.168   5.489   0.415
 3636SOL    HW211808   0.151   5.328   0.436
 3637SOL     OW11809   0.788   2.847   6.594
 3637SOL    HW111810   0.769   2.754   6.561
 3637SOL    HW211811   0.769   2.853   6.691
 3638SOL     OW11812   6.139   4.431   2.797
 3638SOL    HW111813   6.189   4.509   2.759
 3638SOL    HW211814   6.100   4.377   2.722
 3639SOL     OW11815   3.962   3.969   4.939
 3639SOL    HW111816   3.889   4.037   4.942
 3639SOL    HW211817   3.978   3.942   4.844
 3640SOL     OW11818   5.673   2.617   0.266
 3640SOL    HW111819   5.701   2.580   0.354
 3640SOL    HW211820   5.700   2.712   0.259
 3641SOL     OW11821   6.294   3.899   1.129
 3641SOL    HW111822   6.331   3.807   1.131
 3641SOL    HW211823   6.195   3.896   1.143
 3642SOL     OW11824   5.618   2.301   6.553
 3642SOL    HW111825   5.709   2.262   6.541
 3642SOL    HW211826   5.555   2.230   6.584
 3643SOL     OW11827   4.622   6.101   5.911
 3643SOL    HW111828   4.655   6.138   5.998
 3643SOL    HW211829   4.530   6.063   5.924
 3644SOL     OW11830   3.153   0.731   2.046
 3644SOL    HW111831   3.065   0.737   2.094
 3644SOL    HW211832   3.142   0.674   1.964
 3645SOL     OW11833   1.551   4.069   4.691
 3645SOL    HW111834   1.525   4.078   4.595
 3645SOL    HW211835   1.483   4.115   4.748
 3646SOL     OW11836   2.669   4.681   4.836
 3646SOL    HW111837   2.716   4.650   4.918
 3646SOL    HW211838   2.697   4.626   4.757
 3647SOL     OW11839   1.842   6.536   0.252
 3647SOL    HW111840   1.894   6.622   0.253
 3647SOL    HW211841   1.861   6.486   0.168
 3648SOL     OW11842   5.371   5.249   3.588
 3648SOL    HW111843   5.389   5.170   3.646
 3648SOL    HW211844   5.458   5.284   3.553
 3649SOL     OW11845   5.172   3.623   0.015
 3649SOL    HW111846   5.181   3.716   0.053
 3649SOL    HW211847   5.075   3.598   0.013
 3650SOL     OW11848   4.914   4.554   0.939
 3650SOL    HW111849   4.818   4.583   0.931
 3650SOL    HW211850   4.947   4.525   0.850
 3651SOL     OW11851   1.526   2.432   6.210
 3651SOL    HW111852   1.585   2.352   6.224
 3651SOL    HW211853   1.449   2.428   6.273
 3652SOL     OW11854   5.301   1.145   2.184
 3652SOL    HW111855   5.202   1.132   2.185
 3652SOL    HW211856   5.323   1.238   2.216
 3653SOL     OW11857   1.464   1.050   2.297
 3653SOL    HW111858   1.437   1.087   2.386
 3653SOL    HW211859   1.382   1.039   2.240
 3654SOL     OW11860   4.941   0.146   1.052
 3654SOL    HW111861   4.972   0.068   1.106
 3654SOL    HW211862   4.943   0.229   1.108
 3655SOL     OW11863   2.103   1.282   3.970
 3655SOL    HW111864   2.072   1.253   3.879
 3655SOL    HW211865   2.161   1.362   3.963
 3656SOL     OW11866   0.510   5.188   2.179
 3656SOL    HW111867   0.597   5.165   2.221
 3656SOL    HW211868   0.506   5.150   2.086
 3657SOL     OW11869   4.772   5.909   5.109
 3657SOL    HW111870   4.808   5.956   5.190
 3657SOL    HW211871   4.703   5.966   5.065
 3658SOL     OW11872   0.767   5.635   6.432
 3658SOL    HW111873   0.814   5.642   6.345
 3658SOL    HW211874   0.783   5.545   6.472
 3659SOL     OW11875   6.830   1.829   6.261
 3659SOL    HW111876   6.876   1.916   6.278
 3659SOL    HW211877   6.755   1.842   6.197
 3660SOL     OW11878   5.288   5.595   5.845
 3660SOL    HW111879   5.251   5.604   5.753
 3660SOL    HW211880   5.252   5.668   5.903
 3661SOL     OW11881   6.899   1.631   5.130
 3661SOL    HW111882   6.978   1.669   5.178
 3661SOL    HW211883   6.824   1.618   5.194
 3662SOL     OW11884   3.695   0.885   5.945
 3662SOL    HW111885   3.708   0.788   5.925
 3662SOL    HW211886   3.642   0.895   6.029
 3663SOL     OW11887   2.427   3.203   6.880
 3663SOL    HW111888   2.332   3.200   6.850
 3663SOL    HW211889   2.444   3.133   6.948
 3664SOL     OW11890   4.185   1.817   2.183
 3664SOL    HW111891   4.206   1.849   2.276
 3664SOL    HW211892   4.268   1.818   2.128
 3665SOL     OW11893   0.301   6.062   5.682
 3665SOL    HW111894   0.221   6.025   5.730
 3665SOL    HW211895   0.271   6.114   5.602
 3666SOL     OW11896   1.587   2.505   4.023
 3666SOL    HW111897   1.531   2.422   4.031
 3666SOL    HW211898   1.620   2.533   4.113
 3667SOL     OW11899   2.223   1.287   2.215
 3667SOL    HW111900   2.155   1.282   2.289
 3667SOL    HW211901   2.176   1.302   2.128
 3668SOL     OW11902   0.879   0.124   2.065
 3668SOL    HW111903   0.933   0.155   2.143
 3668SOL    HW211904   0.782   0.146   2.081
 3669SOL     OW11905   6.558   1.932   3.818
 3669SOL    HW111906   6.599   1.841   3.814
 3669SOL    HW211907   6.628   2.001   3.798
 3670SOL     OW11908   3.319   5.070   1.423
 3670SOL    HW111909   3.380   5.012   1.367
 3670SOL    HW211910   3.232   5.082   1.375
 3671SOL     OW11911   0.110   0.335   3.473
 3671SOL    HW111912   0.133   0.426   3.507
 3671SOL    HW211913   0.012   0.330   3.453
 3672SOL     OW11914   4.714   1.237   2.773
 3672SOL    HW111915   4.753   1.236   2.681
 3672SOL    HW211916   4.616   1.218   2.769
 3673SOL     OW11917   4.919   6.048   0.525
 3673SOL    HW111918   4.965   6.128   0.565
 3673SOL    HW211919   4.987   5.988   0.484
 3674SOL     OW11920   1.572   5.593   5.377
 3674SOL    HW111921   1.573   5.619   5.280
 3674SOL    HW211922   1.664   5.598   5.414
 3675SOL     OW11923   6.720   2.036   4.411
 3675SOL    HW111924   6.766   2.024   4.499
 3675SOL    HW211925   6.623   2.015   4.422
 3676SOL     OW11926   4.932   2.178   3.222
 3676SOL    HW111927   4.985   2.185   3.137
 3676SOL    HW211928   4.991   2.205   3.298
 3677SOL     OW11929   2.341   0.694   3.782
 3677SOL    HW111930   2.274   0.699   3.708
 3677SOL    HW211931   2.295   0.716   3.869
 3678SOL     OW11932   1.347   0.484   3.724
 3678SOL    HW111933   1.325   0.465   3.819
 3678SOL    HW211934   1.445   0.501   3.715
 3679SOL     OW11935   4.908   0.871   2.591
 3679SOL    HW111936   4.901   0.850   2.494
 3679SOL    HW211937   4.905   0.970   2.605
 3680SOL     OW11938   4.783   1.407   3.515
 3680SOL    HW111939   4.691   1.413   3.555
 3680SOL    HW211940   4.797   1.484   3.453
 3681SOL     OW11941   1.544   0.328   4.918
 3681SOL    HW111942   1.465   0.337   4.858
 3681SOL    HW211943   1.627   0.354   4.869
 3682SOL     OW11944   5.548   1.985   0.833
 3682SOL    HW111945   5.525   2.082   0.833
 3682SOL    HW211946   5.596   1.962   0.749
 3683SOL     OW11947   6.750   0.959   5.283
 3683SOL    HW111948   6.689   1.016   5.229
 3683SOL    HW211949   6.722   0.962   5.379
 3684SOL     OW11950   1.574   0.025   5.562
 3684SOL    HW111951   1.566   6.967   5.621
 3684SOL    HW211952   1.659   0.073   5.584
 3685SOL     OW11953   2.413   6.125   5.791
 3685SOL    HW111954   2.416   6.076   5.704
 3685SOL    HW211955   2.447   6.066   5.864
 3686SOL     OW11956   6.918   3.613   3.239
 3686SOL    HW111957   6.906   3.657   3.150
 3686SOL    HW211958   6.833   3.567   3.265
 3687SOL     OW11959   4.657   6.253   3.341
 3687SOL    HW111960   4.598   6.279   3.265
 3687SOL    HW211961   4.686   6.336   3.390
 3688SOL     OW11962   5.749   2.963   6.993
 3688SOL    HW111963   5.692   3.041   6.969
 3688SOL    HW211964   5.707   2.879   6.960
 3689SOL     OW11965   1.673   0.865   5.329
 3689SOL    HW111966   1.627   0.796   5.273
 3689SOL    HW211967   1.612   0.943   5.342
 3690SOL     OW11968   5.176   4.915   0.952
 3690SOL    HW111969   5.231   4.871   1.023
 3690SOL    HW211970   5.079   4.902   0.972
 3691SOL     OW11971   2.903   1.756   6.903
 3691SOL    HW111972   2.958   1.797   6.977
 3691SOL    HW211973   2.940   1.785   6.815
 3692SOL     OW11974   0.716   3.469   6.162
 3692SOL    HW111975   0.688   3.442   6.254
 3692SOL    HW211976   0.806   3.513   6.166
 3693SOL     OW11977   1.050   1.854   2.851
 3693SOL    HW111978   1.004   1.768   2.831
 3693SOL    HW211979   0.991   1.930   2.824
 3694SOL     OW11980   0.288   0.605   2.370
 3694SOL    HW111981   0.294   0.650   2.459
 3694SOL    HW211982   0.237   0.519   2.380
 3695SOL     OW11983   6.337   2.440   2.930
 3695SOL    HW111984   6.404   2.445   2.855
 3695SOL    HW211985   6.246   2.461   2.895
 3696SOL     OW11986   4.992   0.598   4.980
 3696SOL    HW111987   5.034   0.587   5.070
 3696SOL    HW211988   4.902   0.556   4.980
 3697SOL     OW11989   6.248   6.351   3.636
 3697SOL    HW111990   6.232   6.350   3.735
 3697SOL    HW211991   6.345   6.333   3.619
 3698SOL     OW11992   2.188   0.633   3.065
 3698SOL    HW111993   2.126   0.574   3.013
 3698SOL    HW211994   2.268   0.581   3.095
 3699SOL     OW11995   2.314   2.105   4.271
 3699SOL    HW111996   2.407   2.073   4.249
 3699SOL    HW211997   2.307   2.203   4.252
 3700SOL     OW11998   1.390   5.088   5.038
 3700SOL    HW111999   1.361   5.020   5.105
 3700SOL    HW212000   1.336   5.080   4.955
 3701SOL     OW12001   1.051   6.875   3.210
 3701SOL    HW112002   1.030   6.973   3.212
 3701SOL    HW212003   1.048   6.842   3.116
 3702SOL     OW12004   5.289   4.409   3.562
 3702SOL    HW112005   5.203   4.452   3.534
 3702SOL    HW212006   5.271   4.348   3.640
 3703SOL     OW12007   1.368   1.922   5.743
 3703SOL    HW112008   1.350   1.828   5.714
 3703SOL    HW212009   1.324   1.985   5.678
 3704SOL     OW12010   6.741   2.308   1.184
 3704SOL    HW112011   6.757   2.267   1.094
 3704SOL    HW212012   6.656   2.361   1.182
 3705SOL     OW12013   4.751   4.589   3.679
 3705SOL    HW112014   4.707   4.649   3.745
 3705SOL    HW212015   4.729   4.619   3.586
 3706SOL     OW12016   1.131   3.886   0.358
 3706SOL    HW112017   1.181   3.834   0.428
 3706SOL    HW212018   1.053   3.931   0.401
 3707SOL     OW12019   2.343   4.728   3.745
 3707SOL    HW112020   2.377   4.668   3.672
 3707SOL    HW212021   2.392   4.815   3.742
 3708SOL     OW12022   3.801   6.787   1.109
 3708SOL    HW112023   3.750   6.786   1.022
 3708SOL    HW212024   3.791   6.876   1.152
 3709SOL     OW12025   2.158   0.502   2.657
 3709SOL    HW112026   2.177   0.592   2.619
 3709SOL    HW212027   2.082   0.460   2.608
 3710SOL     OW12028   0.279   5.398   5.690
 3710SOL    HW112029   0.189   5.421   5.654
 3710SOL    HW212030   0.268   5.347   5.776
 3711SOL     OW12031   1.956   6.435   4.478
 3711SOL    HW112032   1.988   6.449   4.384
 3711SOL    HW212033   1.860   6.408   4.477
 3712SOL     OW12034   2.051   5.630   5.154
 3712SOL    HW112035   2.130   5.580   5.120
 3712SOL    HW212036   1.969   5.602   5.104
 3713SOL     OW12037   6.684   6.625   5.420
 3713SOL    HW112038   6.684   6.685   5.500
 3713SOL    HW212039   6.757   6.653   5.357
 3714SOL     OW12040   1.026   4.839   0.250
 3714SOL    HW112041   1.104   4.800   0.201
 3714SOL    HW212042   1.024   4.803   0.343
 3715SOL     OW12043   6.694   5.871   3.191
 3715SOL    HW112044   6.766   5.934   3.223
 3715SOL    HW212045   6.713   5.779   3.226
 3716SOL     OW12046   5.562   5.911   4.010
 3716SOL    HW112047   5.661   5.902   4.010
 3716SOL    HW212048   5.535   5.984   4.073
 3717SOL     OW12049   4.277   1.374   1.433
 3717SOL    HW112050   4.246   1.285   1.400
 3717SOL    HW212051   4.368   1.365   1.472
 3718SOL     OW12052   0.462   6.903   6.422
 3718SOL    HW112053   0.437   6.813   6.387
 3718SOL    HW212054   0.502   6.894   6.513
 3719SOL     OW12055   4.447   3.953   6.596
 3719SOL    HW112056   4.452   3.899   6.512
 3719SOL    HW212057   4.356   3.946   6.636
 3720SOL     OW12058   6.693   2.896   1.533
 3720SOL    HW112059   6.756   2.931   1.464
 3720SOL    HW212060   6.745   2.856   1.608
 3721SOL     OW12061   6.709   4.422   6.686
 3721SOL    HW112062   6.611   4.439   6.696
 3721SOL    HW212063   6.759   4.479   6.750
 3722SOL     OW12064   3.949   0.060   2.656
 3722SOL    HW112065   3.971   0.097   2.746
 3722SOL    HW212066   4.023   0.001   2.625
 3723SOL     OW12067   4.325   5.361   6.694
 3723SOL    HW112068   4.316   5.408   6.606
 3723SOL    HW212069   4.348   5.427   6.765
 3724SOL     OW12070   1.450   4.808   4.580
 3724SOL    HW112071   1.408   4.871   4.514
 3724SOL    HW212072   1.506   4.742   4.532
 3725SOL     OW12073   0.094   6.696   0.035
 3725SOL    HW112074   0.093   6.691   6.958
 3725SOL    HW212075   0.134   6.613   0.073
 3726SOL     OW12076   5.689   3.827   3.747
 3726SOL    HW112077   5.643   3.745   3.781
 3726SOL    HW212078   5.622   3.888   3.704
 3727SOL     OW12079   6.876   3.031   4.220
 3727SOL    HW112080   6.867   2.944   4.171
 3727SOL    HW212081   6.857   3.106   4.156
 3728SOL     OW12082   3.519   3.753   0.078
 3728SOL    HW112083   3.460   3.767   0.158
 3728SOL    HW212084   3.614   3.742   0.109
 3729SOL     OW12085   0.666   0.069   5.198
 3729SOL    HW112086   0.593   0.113   5.250
 3729SOL    HW212087   0.747   0.057   5.256
 3730SOL     OW12088   4.278   6.019   5.890
 3730SOL    HW112089   4.288   6.006   5.791
 3730SOL    HW212090   4.182   6.005   5.915
 3731SOL     OW12091   0.580   2.019   6.306
 3731SOL    HW112092   0.580   1.928   6.348
 3731SOL    HW212093   0.585   2.089   6.379
 3732SOL     OW12094   2.649   1.917   6.933
 3732SOL    HW112095   2.718   1.852   6.901
 3732SOL    HW212096   2.685   1.969   7.011
 3733SOL     OW12097   1.826   2.398   3.513
 3733SOL    HW112098   1.855   2.318   3.565
 3733SOL    HW212099   1.830   2.378   3.415
 3734SOL     OW12100   4.038   0.287   1.659
 3734SOL    HW112101   4.052   0.363   1.722
 3734SOL    HW212102   4.030   0.202   1.711
 3735SOL     OW12103   4.469   6.764   2.326
 3735SOL    HW112104   4.565   6.758   2.351
 3735SOL    HW212105   4.445   6.686   2.268
 3736SOL     OW12106   6.559   1.232   1.641
 3736SOL    HW112107   6.520   1.146   1.672
 3736SOL    HW212108   6.550   1.301   1.713
 3737SOL     OW12109   0.646   2.434   3.424
 3737SOL    HW112110   0.666   2.380   3.505
 3737SOL    HW212111   0.711   2.411   3.351
 3738SOL     OW12112   6.637   6.187   0.350
 3738SOL    HW112113   6.543   6.192   0.318
 3738SOL    HW212114   6.652   6.258   0.419
 3739SOL     OW12115   2.935   4.818   1.277
 3739SOL    HW112116   2.930   4.737   1.335
 3739SOL    HW212117   2.854   4.875   1.291
 3740SOL     OW12118   5.525   5.467   0.113
 3740SOL    HW112119   5.530   5.370   0.088
 3740SOL    HW212120   5.613   5.496   0.151
 3741SOL     OW12121   5.631   2.223   0.581
 3741SOL    HW112122   5.675   2.309   0.552
 3741SOL    HW212123   5.701   2.157   0.607
 3742SOL     OW12124   4.066   5.833   0.160
 3742SOL    HW112125   4.004   5.762   0.124
 3742SOL    HW212126   4.160   5.807   0.141
 3743SOL     OW12127   4.162   3.420   1.287
 3743SOL    HW112128   4.183   3.458   1.377
 3743SOL    HW212129   4.246   3.404   1.236
 3744SOL     OW12130   0.789   6.256   2.060
 3744SOL    HW112131   0.753   6.169   2.025
 3744SOL    HW212132   0.810   6.317   1.984
 3745SOL     OW12133   4.913   3.490   2.327
 3745SOL    HW112134   4.947   3.459   2.238
 3745SOL    HW212135   4.841   3.558   2.313
 3746SOL     OW12136   6.673   0.421   3.580
 3746SOL    HW112137   6.586   0.407   3.531
 3746SOL    HW212138   6.708   0.332   3.610
 3747SOL     OW12139   4.536   6.584   6.260
 3747SOL    HW112140   4.621   6.598   6.310
 3747SOL    HW212141   4.522   6.660   6.196
 3748SOL     OW12142   5.532   1.135   2.846
 3748SOL    HW112143   5.578   1.202   2.788
 3748SOL    HW212144   5.545   1.160   2.942
 3749SOL     OW12145   0.428   5.165   2.547
 3749SOL    HW112146   0.346   5.182   2.492
 3749SOL    HW212147   0.499   5.231   2.523
 3750SOL     OW12148   5.723   4.035   6.988
 3750SOL    HW112149   5.740   4.113   6.928
 3750SOL    HW212150   5.624   4.020   6.995
 3751SOL     OW12151   1.927   3.130   1.179
 3751SOL    HW112152   1.950   3.220   1.140
 3751SOL    HW212153   2.012   3.080   1.199
 3752SOL     OW12154   0.857   0.497   6.718
 3752SOL    HW112155   0.902   0.423   6.668
 3752SOL    HW212156   0.889   0.585   6.683
 3753SOL     OW12157   6.953   6.567   4.403
 3753SOL    HW112158   6.919   6.646   4.351
 3753SOL    HW212159   0.028   6.555   4.383
 3754SOL     OW12160   5.731   6.430   1.115
 3754SOL    HW112161   5.712   6.527   1.101
 3754SOL    HW212162   5.823   6.419   1.154
 3755SOL     OW12163   5.314   4.290   3.840
 3755SOL    HW112164   5.233   4.296   3.898
 3755SOL    HW212165   5.396   4.305   3.895
 3756SOL     OW12166   2.307   2.240   5.983
 3756SOL    HW112167   2.241   2.184   6.033
 3756SOL    HW212168   2.260   2.316   5.939
 3757SOL     OW12169   3.169   5.734   6.045
 3757SOL    HW112170   3.147   5.823   6.005
 3757SOL    HW212171   3.085   5.689   6.076
 3758SOL     OW12172   2.218   1.271   4.470
 3758SOL    HW112173   2.221   1.312   4.379
 3758SOL    HW212174   2.253   1.178   4.466
 3759SOL     OW12175   4.998   4.826   6.061
 3759SOL    HW112176   5.079   4.767   6.062
 3759SOL    HW212177   4.927   4.786   6.119
 3760SOL     OW12178   1.417   2.906   4.449
 3760SOL    HW112179   1.428   2.915   4.548
 3760SOL    HW212180   1.503   2.929   4.404
 3761SOL     OW12181   0.615   6.594   4.780
 3761SOL    HW112182   0.625   6.567   4.876
 3761SOL    HW212183   0.580   6.517   4.727
 3762SOL     OW12184   0.686   4.229   0.142
 3762SOL    HW112185   0.606   4.177   0.113
 3762SOL    HW212186   0.710   4.297   0.073
 3763SOL     OW12187   6.236   3.223   6.215
 3763SOL    HW112188   6.253   3.299   6.152
 3763SOL    HW212189   6.322   3.174   6.231
 3764SOL     OW12190   2.800   0.230   4.114
 3764SOL    HW112191   2.867   0.297   4.146
 3764SOL    HW212192   2.836   0.181   4.035
 3765SOL     OW12193   4.808   0.908   3.650
 3765SOL    HW112194   4.800   0.976   3.578
 3765SOL    HW212195   4.718   0.889   3.688
 3766SOL     OW12196   0.343   1.265   3.953
 3766SOL    HW112197   0.349   1.321   4.036
 3766SOL    HW212198   0.436   1.246   3.919
 3767SOL     OW12199   1.146   5.249   6.587
 3767SOL    HW112200   1.205   5.188   6.535
 3767SOL    HW212201   1.183   5.260   6.680
 3768SOL     OW12202   4.366   6.585   6.618
 3768SOL    HW112203   4.416   6.672   6.621
 3768SOL    HW212204   4.272   6.600   6.648
 3769SOL     OW12205   5.349   6.029   4.955
 3769SOL    HW112206   5.350   6.125   4.925
 3769SOL    HW212207   5.442   6.001   4.980
 3770SOL     OW12208   1.990   1.328   6.171
 3770SOL    HW112209   1.919   1.345   6.104
 3770SOL    HW212210   2.016   1.414   6.215
 3771SOL     OW12211   4.950   2.257   0.306
 3771SOL    HW112212   4.980   2.171   0.347
 3771SOL    HW212213   4.868   2.242   0.251
 3772SOL     OW12214   6.002   0.553   1.497
 3772SOL    HW112215   5.936   0.600   1.439
 3772SOL    HW212216   5.962   0.535   1.587
 3773SOL     OW12217   5.658   3.071   5.453
 3773SOL    HW112218   5.593   3.028   5.516
 3773SOL    HW212219   5.672   3.167   5.479
 3774SOL     OW12220   0.841   0.906   6.954
 3774SOL    HW112221   0.785   0.829   6.987
 3774SOL    HW212222   0.917   0.870   6.901
 3775SOL     OW12223   5.096   3.648   3.561
 3775SOL    HW112224   5.105   3.637   3.661
 3775SOL    HW212225   5.008   3.689   3.540
 3776SOL     OW12226   2.134   2.584   1.512
 3776SOL    HW112227   2.143   2.493   1.552
 3776SOL    HW212228   2.169   2.583   1.418
 3777SOL     OW12229   2.899   5.113   4.778
 3777SOL    HW112230   2.875   5.209   4.764
 3777SOL    HW212231   2.991   5.107   4.816
 3778SOL     OW12232   2.706   5.623   2.154
 3778SOL    HW112233   2.779   5.659   2.096
 3778SOL    HW212234   2.657   5.550   2.107
 3779SOL     OW12235   2.518   4.610   0.008
 3779SOL    HW112236   2.618   4.605   0.005
 3779SOL    HW212237   2.479   4.524   6.996
 3780SOL     OW12238   3.066   5.872   5.484
 3780SOL    HW112239   3.042   5.960   5.525
 3780SOL    HW212240   3.094   5.886   5.390
 3781SOL     OW12241   3.121   6.744   4.256
 3781SOL    HW112242   3.123   6.644   4.258
 3781SOL    HW212243   3.186   6.781   4.323
 3782SOL     OW12244   2.210   1.455   4.233
 3782SOL    HW112245   2.218   1.525   4.304
 3782SOL    HW212246   2.116   1.420   4.232
 3783SOL     OW12247   5.368   6.297   4.842
 3783SOL    HW112248   5.384   6.347   4.756
 3783SOL    HW212249   5.341   6.362   4.913
 3784SOL     OW12250   5.533   0.921   3.303
 3784SOL    HW112251   5.445   0.944   3.345
 3784SOL    HW212252   5.607   0.963   3.356
 3785SOL     OW12253   2.303   2.387   0.870
 3785SOL    HW112254   2.351   2.319   0.926
 3785SOL    HW212255   2.358   2.409   0.789
 3786SOL     OW12256   2.847   4.832   3.481
 3786SOL    HW112257   2.873   4.906   3.419
 3786SOL    HW212258   2.896   4.842   3.567
 3787SOL     OW12259   4.900   1.242   4.476
 3787SOL    HW112260   4.843   1.307   4.426
 3787SOL    HW212261   4.932   1.285   4.561
 3788SOL     OW12262   6.350   3.027   3.232
 3788SOL    HW112263   6.391   2.992   3.148
 3788SOL    HW212264   6.418   3.026   3.306
 3789SOL     OW12265   1.422   4.529   4.041
 3789SOL    HW112266   1.415   4.517   4.140
 3789SOL    HW212267   1.331   4.537   4.001
 3790SOL     OW12268   2.098   3.460   4.547
 3790SOL    HW112269   2.067   3.374   4.586
 3790SOL    HW212270   2.170   3.499   4.605
 3791SOL     OW12271   5.233   6.895   1.745
 3791SOL    HW112272   5.165   6.918   1.816
 3791SOL    HW212273   5.186   6.875   1.659
 3792SOL     OW12274   6.442   6.566   4.994
 3792SOL    HW112275   6.412   6.471   4.994
 3792SOL    HW212276   6.541   6.570   5.011
 3793SOL     OW12277   2.161   1.716   2.237
 3793SOL    HW112278   2.061   1.713   2.236
 3793SOL    HW212279   2.196   1.661   2.313
 3794SOL     OW12280   4.208   6.353   1.763
 3794SOL    HW112281   4.283   6.379   1.702
 3794SOL    HW212282   4.174   6.435   1.810
 3795SOL     OW12283   5.133   0.658   6.901
 3795SOL    HW112284   5.193   0.684   6.977
 3795SOL    HW212285   5.108   0.562   6.909
 3796SOL     OW12286   1.578   2.175   1.815
 3796SOL    HW112287   1.610   2.090   1.774
 3796SOL    HW212288   1.481   2.167   1.837
 3797SOL     OW12289   1.062   5.263   1.999
 3797SOL    HW112290   1.153   5.289   1.965
 3797SOL    HW212291   1.062   5.166   2.023
 3798SOL     OW12292   2.271   4.698   2.873
 3798SOL    HW112293   2.174   4.678   2.861
 3798SOL    HW212294   2.283   4.765   2.947
 3799SOL     OW12295   1.616   1.468   5.263
 3799SOL    HW112296   1.639   1.384   5.214
 3799SOL    HW212297   1.692   1.492   5.325
 3800SOL     OW12298   5.303   2.247   4.872
 3800SOL    HW112299   5.226   2.210   4.820
 3800SOL    HW212300   5.309   2.346   4.857
 3801SOL     OW12301   6.898   6.367   5.801
 3801SOL    HW112302   6.855   6.324   5.721
 3801SOL    HW212303   6.899   6.466   5.789
 3802SOL     OW12304   0.946   1.890   4.761
 3802SOL    HW112305   0.868   1.897   4.822
 3802SOL    HW212306   0.957   1.975   4.710
 3803SOL     OW12307   4.028   0.181   1.418
 3803SOL    HW112308   4.017   0.220   1.510
 3803SOL    HW212309   4.079   0.095   1.425
 3804SOL     OW12310   4.216   2.038   4.508
 3804SOL    HW112311   4.129   2.075   4.540
 3804SOL    HW212312   4.290   2.075   4.564
 3805SOL     OW12313   3.023   4.229   1.703
 3805SOL    HW112314   2.977   4.301   1.755
 3805SOL    HW212315   2.955   4.169   1.662
 3806SOL     OW12316   2.636   2.878   0.531
 3806SOL    HW112317   2.713   2.938   0.507
 3806SOL    HW212318   2.551   2.918   0.497
 3807SOL     OW12319   0.782   6.668   4.193
 3807SOL    HW112320   0.732   6.646   4.109
 3807SOL    HW212321   0.820   6.760   4.186
 3808SOL     OW12322   3.191   0.183   1.924
 3808SOL    HW112323   3.278   0.141   1.951
 3808SOL    HW212324   3.118   0.116   1.934
 3809SOL     OW12325   6.148   1.869   6.953
 3809SOL    HW112326   6.198   1.787   6.980
 3809SOL    HW212327   6.148   1.876   6.853
 3810SOL     OW12328   3.242   3.145   5.353
 3810SOL    HW112329   3.202   3.098   5.274
 3810SOL    HW212330   3.169   3.181   5.411
 3811SOL     OW12331   0.739   4.779   4.479
 3811SOL    HW112332   0.807   4.815   4.544
 3811SOL    HW212333   0.647   4.798   4.513
 3812SOL     OW12334   6.205   1.900   5.691
 3812SOL    HW112335   6.222   1.974   5.626
 3812SOL    HW212336   6.166   1.938   5.775
 3813SOL     OW12337   3.500   5.614   0.449
 3813SOL    HW112338   3.411   5.588   0.411
 3813SOL    HW212339   3.567   5.620   0.375
 3814SOL     OW12340   6.693   6.083   1.873
 3814SOL    HW112341   6.696   6.130   1.961
 3814SOL    HW212342   6.623   6.124   1.816
 3815SOL     OW12343   5.417   1.951   1.308
 3815SOL    HW112344   5.321   1.973   1.290
 3815SOL    HW212345   5.428   1.852   1.315
 3816SOL     OW12346   0.320   6.654   2.025
 3816SOL    HW112347   0.338   6.565   1.983
 3816SOL    HW212348   0.287   6.717   1.955
 3817SOL     OW12349   4.619   2.067   4.220
 3817SOL    HW112350   4.704   2.056   4.271
 3817SOL    HW212351   4.614   2.159   4.181
 3818SOL     OW12352   4.550   5.991   2.422
 3818SOL    HW112353   4.458   6.023   2.401
 3818SOL    HW212354   4.559   5.978   2.521
 3819SOL     OW12355   5.554   5.265   0.846
 3819SOL    HW112356   5.493   5.192   0.813
 3819SOL    HW212357   5.638   5.224   0.883
 3820SOL     OW12358   4.514   5.948   4.229
 3820SOL    HW112359   4.613   5.955   4.228
 3820SOL    HW212360   4.486   5.871   4.286
 3821SOL     OW12361   1.726   3.455   2.213
 3821SOL    HW112362   1.721   3.364   2.172
 3821SOL    HW212363   1.729   3.524   2.141
 3822SOL     OW12364   2.492   5.019   1.670
 3822SOL    HW112365   2.512   4.930   1.712
 3822SOL    HW212366   2.457   5.082   1.739
 3823SOL     OW12367   3.699   2.605   5.865
 3823SOL    HW112368   3.749   2.662   5.799
 3823SOL    HW212369   3.742   2.613   5.955
 3824SOL     OW12370   6.134   1.948   6.163
 3824SOL    HW112371   6.092   2.032   6.197
 3824SOL    HW212372   6.161   1.890   6.239
 3825SOL     OW12373   0.685   6.981   6.292
 3825SOL    HW112374   0.600   6.961   6.340
 3825SOL    HW212375   0.724   0.044   6.327
 3826SOL     OW12376   6.856   3.448   1.108
 3826SOL    HW112377   6.781   3.395   1.069
 3826SOL    HW212378   6.832   3.545   1.110
 3827SOL     OW12379   3.493   3.711   0.534
 3827SOL    HW112380   3.441   3.703   0.619
 3827SOL    HW212381   3.590   3.720   0.556
 3828SOL     OW12382   4.421   2.528   1.702
 3828SOL    HW112383   4.334   2.552   1.659
 3828SOL    HW212384   4.485   2.604   1.694
 3829SOL     OW12385   2.043   5.098   3.732
 3829SOL    HW112386   2.120   5.160   3.743
 3829SOL    HW212387   2.077   5.006   3.713
 3830SOL     OW12388   2.636   0.343   5.326
 3830SOL    HW112389   2.679   0.254   5.339
 3830SOL    HW212390   2.665   0.405   5.399
 3831SOL     OW12391   4.389   1.921   2.391
 3831SOL    HW112392   4.420   2.016   2.384
 3831SOL    HW212393   4.466   1.863   2.418
 3832SOL     OW12394   6.677   0.889   1.604
 3832SOL    HW112395   6.769   0.924   1.586
 3832SOL    HW212396   6.630   0.874   1.517
 3833SOL     OW12397   0.600   4.985   1.020
 3833SOL    HW112398   0.589   5.039   1.103
 3833SOL    HW212399   0.677   4.922   1.031
 3834SOL     OW12400   2.734   1.666   0.575
 3834SOL    HW112401   2.770   1.733   0.640
 3834SOL    HW212402   2.650   1.702   0.534
 3835SOL     OW12403   3.866   5.787   5.932
 3835SOL    HW112404   3.886   5.715   6.000
 3835SOL    HW212405   3.767   5.795   5.920
 3836SOL     OW12406   1.397   4.223   6.126
 3836SOL    HW112407   1.489   4.236   6.161
 3836SOL    HW212408   1.394   4.245   6.028
 3837SOL     OW12409   4.892   3.863   0.078
 3837SOL    HW112410   4.968   3.888   0.139
 3837SOL    HW212411   4.889   3.764   0.068
 3838SOL     OW12412   5.846   2.391   4.199
 3838SOL    HW112413   5.860   2.479   4.245
 3838SOL    HW212414   5.757   2.354   4.225
 3839SOL     OW12415   5.464   6.556   5.388
 3839SOL    HW112416   5.365   6.551   5.373
 3839SOL    HW212417   5.508   6.597   5.308
 3840SOL     OW12418   1.841   0.817   3.914
 3840SOL    HW112419   1.807   0.894   3.861
 3840SOL    HW212420   1.763   0.761   3.945
 3841SOL     OW12421   1.123   4.101   5.074
 3841SOL    HW112422   1.211   4.148   5.075
 3841SOL    HW212423   1.109   4.058   4.985
 3842SOL     OW12424   0.884   5.157   0.201
 3842SOL    HW112425   0.842   5.080   0.247
 3842SOL    HW212426   0.877   5.239   0.258
 3843SOL     OW12427   6.244   2.932   0.352
 3843SOL    HW112428   6.201   2.938   0.441
 3843SOL    HW212429   6.337   2.970   0.357
 3844SOL     OW12430   2.233   4.746   5.814
 3844SOL    HW112431   2.235   4.729   5.716
 3844SOL    HW212432   2.172   4.822   5.834
 3845SOL     OW12433   3.466   3.764   2.944
 3845SOL    HW112434   3.400   3.823   2.991
 3845SOL    HW212435   3.423   3.676   2.923
 3846SOL     OW12436   0.348   4.335   4.248
 3846SOL    HW112437   0.395   4.368   4.166
 3846SOL    HW212438   0.268   4.391   4.266
 3847SOL     OW12439   0.165   0.262   6.301
 3847SOL    HW112440   0.161   0.331   6.372
 3847SOL    HW212441   0.152   0.304   6.211
 3848SOL     OW12442   2.955   4.587   1.449
 3848SOL    HW112443   2.949   4.488   1.433
 3848SOL    HW212444   2.935   4.606   1.545
 3849SOL     OW12445   0.873   1.758   5.630
 3849SOL    HW112446   0.879   1.854   5.605
 3849SOL    HW212447   0.778   1.729   5.631
 3850SOL     OW12448   3.332   3.963   1.838
 3850SOL    HW112449   3.358   3.906   1.760
 3850SOL    HW212450   3.380   4.050   1.835
 3851SOL     OW12451   2.120   3.227   3.270
 3851SOL    HW112452   2.184   3.156   3.301
 3851SOL    HW212453   2.102   3.214   3.173
 3852SOL     OW12454   4.102   0.538   4.565
 3852SOL    HW112455   4.173   0.601   4.535
 3852SOL    HW212456   4.129   0.495   4.651
 3853SOL     OW12457   0.976   3.793   2.506
 3853SOL    HW112458   0.999   3.728   2.578
 3853SOL    HW212459   1.040   3.781   2.430
 3854SOL     OW12460   0.610   3.506   4.493
 3854SOL    HW112461   0.640   3.588   4.446
 3854SOL    HW212462   0.511   3.500   4.491
 3855SOL     OW12463   6.303   3.777   5.396
 3855SOL    HW112464   6.286   3.826   5.310
 3855SOL    HW212465   6.217   3.737   5.429
 3856SOL     OW12466   6.888   6.663   5.748
 3856SOL    HW112467   6.940   6.732   5.696
 3856SOL    HW212468   6.798   6.700   5.770
 3857SOL     OW12469   1.066   6.651   4.890
 3857SOL    HW112470   1.006   6.666   4.968
 3857SOL    HW212471   1.132   6.579   4.912
 3858SOL     OW12472   1.883   6.015   6.554
 3858SOL    HW112473   1.982   6.018   6.536
 3858SOL    HW212474   1.852   6.104   6.587
 3859SOL     OW12475   0.026   3.007   2.693
 3859SOL    HW112476   0.072   3.084   2.738
 3859SOL    HW212477   0.081   2.976   2.615
 3860SOL     OW12478   2.274   6.855   5.610
 3860SOL    HW112479   2.264   6.774   5.667
 3860SOL    HW212480   2.349   6.911   5.643
 3861SOL     OW12481   4.575   4.480   1.312
 3861SOL    HW112482   4.669   4.503   1.287
 3861SOL    HW212483   4.575   4.415   1.388
 3862SOL     OW12484   1.038   5.905   5.465
 3862SOL    HW112485   1.115   5.867   5.517
 3862SOL    HW212486   0.966   5.836   5.458
 3863SOL     OW12487   3.207   4.011   1.521
 3863SOL    HW112488   3.257   4.089   1.484
 3863SOL    HW212489   3.184   4.029   1.617
 3864SOL     OW12490   3.060   2.052   0.415
 3864SOL    HW112491   3.147   2.037   0.461
 3864SOL    HW212492   3.048   2.149   0.395
 3865SOL     OW12493   4.868   0.288   2.598
 3865SOL    HW112494   4.936   0.250   2.661
 3865SOL    HW212495   4.842   0.380   2.628
 3866SOL     OW12496   3.546   6.965   0.188
 3866SOL    HW112497   3.562   6.985   0.092
 3866SOL    HW212498   3.510   6.872   0.198
 3867SOL     OW12499   2.167   3.762   3.380
 3867SOL    HW112500   2.149   3.666   3.401
 3867SOL    HW212501   2.207   3.807   3.460
 3868SOL     OW12502   2.044   6.497   2.984
 3868SOL    HW112503   1.981   6.562   2.942
 3868SOL    HW212504   2.013   6.404   2.964
 3869SOL     OW12505   0.763   3.108   3.303
 3869SOL    HW112506   0.770   3.206   3.285
 3869SOL    HW212507   0.818   3.058   3.237
 3870SOL     OW12508   2.501   5.169   0.642
 3870SOL    HW112509   2.593   5.147   0.609
 3870SOL    HW212510   2.507   5.247   0.704
 3871SOL     OW12511   2.365   0.127   3.432
 3871SOL    HW112512   2.352   0.177   3.518
 3871SOL    HW212513   2.381   0.031   3.451
 3872SOL     OW12514   4.160   3.943   0.638
 3872SOL    HW112515   4.163   4.024   0.580
 3872SOL    HW212516   4.234   3.948   0.706
 3873SOL     OW12517   5.647   4.661   2.166
 3873SOL    HW112518   5.652   4.567   2.132
 3873SOL    HW212519   5.594   4.663   2.251
 3874SOL     OW12520   4.451   0.466   0.043
 3874SOL    HW112521   4.485   0.500   6.978
 3874SOL    HW212522   4.491   0.376   0.062
 3875SOL     OW12523   1.244   5.015   1.206
 3875SOL    HW112524   1.314   5.066   1.257
 3875SOL    HW212525   1.194   5.078   1.147
 3876SOL     OW12526   4.858   3.694   3.839
 3876SOL    HW112527   4.853   3.785   3.799
 3876SOL    HW212528   4.766   3.662   3.863
 3877SOL     OW12529   6.131   1.151   2.432
 3877SOL    HW112530   6.131   1.092   2.351
 3877SOL    HW212531   6.048   1.134   2.485
 3878SOL     OW12532   3.755   6.319   5.940
 3878SOL    HW112533   3.702   6.404   5.936
 3878SOL    HW212534   3.711   6.257   6.005
 3879SOL     OW12535   3.920   5.697   1.879
 3879SOL    HW112536   4.016   5.690   1.907
 3879SOL    HW212537   3.915   5.745   1.791
 3880SOL     OW12538   5.423   3.183   3.298
 3880SOL    HW112539   5.346   3.137   3.253
 3880SOL    HW212540   5.404   3.194   3.395
 3881SOL     OW12541   1.356   3.400   0.902
 3881SOL    HW112542   1.363   3.351   0.815
 3881SOL    HW212543   1.439   3.385   0.955
 3882SOL     OW12544   0.192   0.829   5.855
 3882SOL    HW112545   0.131   0.805   5.931
 3882SOL    HW212546   0.145   0.890   5.792
 3883SOL     OW12547   3.748   0.577   5.617
 3883SOL    HW112548   3.796   0.585   5.530
 3883SOL    HW212549   3.686   0.654   5.628
 3884SOL     OW12550   2.070   5.325   5.942
 3884SOL    HW112551   2.126   5.316   6.024
 3884SOL    HW212552   2.018   5.241   5.928
 3885SOL     OW12553   6.617   1.382   4.708
 3885SOL    HW112554   6.618   1.470   4.660
 3885SOL    HW212555   6.637   1.308   4.643
 3886SOL     OW12556   6.324   6.477   5.578
 3886SOL    HW112557   6.319   6.398   5.640
 3886SOL    HW212558   6.235   6.522   5.575
 3887SOL     OW12559   4.060   2.259   5.609
 3887SOL    HW112560   4.077   2.357   5.611
 3887SOL    HW212561   4.102   2.216   5.689
 3888SOL     OW12562   6.966   2.185   0.737
 3888SOL    HW112563   6.949   2.138   0.651
 3888SOL    HW212564   6.941   2.282   0.728
 3889SOL     OW12565   1.137   6.454   6.199
 3889SOL    HW112566   1.152   6.382   6.131
 3889SOL    HW212567   1.174   6.424   6.287
 3890SOL     OW12568   5.322   4.239   3.339
 3890SOL    HW112569   5.339   4.314   3.404
 3890SOL    HW212570   5.228   4.206   3.350
 3891SOL     OW12571   5.488   4.712   5.201
 3891SOL    HW112572   5.511   4.670   5.288
 3891SOL    HW212573   5.526   4.804   5.197
 3892SOL     OW12574   5.133   6.911   2.788
 3892SOL    HW112575   5.042   6.871   2.799
 3892SOL    HW212576   5.202   6.839   2.786
 3893SOL     OW12577   2.931   5.824   3.931
 3893SOL    HW112578   2.833   5.817   3.950
 3893SOL    HW212579   2.963   5.741   3.887
 3894SOL     OW12580   5.351   3.668   6.687
 3894SOL    HW112581   5.321   3.757   6.722
 3894SOL    HW212582   5.427   3.682   6.623
 3895SOL     OW12583   3.072   2.333   5.623
 3895SOL    HW112584   3.047   2.248   5.576
 3895SOL    HW212585   3.012   2.346   5.702
 3896SOL     OW12586   6.275   2.913   5.699
 3896SOL    HW112587   6.298   2.815   5.697
 3896SOL    HW212588   6.186   2.925   5.743
 3897SOL     OW12589   3.844   6.710   2.092
 3897SOL    HW112590   3.834   6.610   2.095
 3897SOL    HW212591   3.762   6.751   2.052
 3898SOL     OW12592   3.771   4.152   4.908
 3898SOL    HW112593   3.747   4.137   4.812
 3898SOL    HW212594   3.687   4.169   4.961
 3899SOL     OW12595   4.540   1.754   4.957
 3899SOL    HW112596   4.585   1.805   5.030
 3899SOL    HW212597   4.467   1.698   4.995
 3900SOL     OW12598   6.437   2.725   3.674
 3900SOL    HW112599   6.423   2.716   3.772
 3900SOL    HW212600   6.464   2.818   3.651
 3901SOL     OW12601   1.913   6.073   5.340
 3901SOL    HW112602   1.942   6.153   5.288
 3901SOL    HW212603   1.927   5.991   5.285
 3902SOL     OW12604   4.485   4.958   1.566
 3902SOL    HW112605   4.471   4.943   1.468
 3902SOL    HW212606   4.445   4.882   1.617
 3903SOL     OW12607   4.253   2.666   6.397
 3903SOL    HW112608   4.189   2.597   6.431
 3903SOL    HW212609   4.304   2.629   6.319
 3904SOL     OW12610   1.571   6.513   1.171
 3904SOL    HW112611   1.634   6.511   1.093
 3904SOL    HW212612   1.621   6.490   1.254
 3905SOL     OW12613   6.587   0.384   5.180
 3905SOL    HW112614   6.653   0.381   5.104
 3905SOL    HW212615   6.627   0.340   5.260
 3906SOL     OW12616   0.639   5.448   4.110
 3906SOL    HW112617   0.711   5.493   4.162
 3906SOL    HW212618   0.628   5.354   4.143
 3907SOL     OW12619   0.479   1.220   4.626
 3907SOL    HW112620   0.462   1.318   4.614
 3907SOL    HW212621   0.466   1.173   4.538
 3908SOL     OW12622   1.474   0.488   4.468
 3908SOL    HW112623   1.485   0.582   4.500
 3908SOL    HW212624   1.379   0.474   4.439
 3909SOL     OW12625   5.910   2.220   6.550
 3909SOL    HW112626   5.874   2.156   6.617
 3909SOL    HW212627   5.963   2.291   6.596
 3910SOL     OW12628   3.545   2.381   0.523
 3910SOL    HW112629   3.565   2.332   0.439
 3910SOL    HW212630   3.445   2.388   0.535
 3911SOL     OW12631   0.049   1.203   0.994
 3911SOL    HW112632   7.013   1.247   0.926
 3911SOL    HW212633   0.033   1.243   1.084
 3912SOL     OW12634   3.798   1.912   0.526
 3912SOL    HW112635   3.793   1.999   0.574
 3912SOL    HW212636   3.738   1.845   0.571
 3913SOL     OW12637   4.959   5.199   1.316
 3913SOL    HW112638   5.006   5.119   1.352
 3913SOL    HW212639   5.025   5.272   1.297
 3914SOL     OW12640   6.579   1.238   0.476
 3914SOL    HW112641   6.496   1.281   0.511
 3914SOL    HW212642   6.577   1.140   0.497
 3915SOL     OW12643   5.139   5.685   6.609
 3915SOL    HW112644   5.133   5.680   6.709
 3915SOL    HW212645   5.148   5.592   6.572
 3916SOL     OW12646   2.753   1.905   2.714
 3916SOL    HW112647   2.785   1.910   2.619
 3916SOL    HW212648   2.832   1.906   2.775
 3917SOL     OW12649   3.403   4.842   1.253
 3917SOL    HW112650   3.367   4.749   1.249
 3917SOL    HW212651   3.455   4.854   1.337
 3918SOL     OW12652   5.235   0.793   0.649
 3918SOL    HW112653   5.192   0.873   0.607
 3918SOL    HW212654   5.324   0.776   0.605
 3919SOL     OW12655   3.722   0.049   2.475
 3919SOL    HW112656   3.631   0.016   2.499
 3919SOL    HW212657   3.782   0.041   2.554
 3920SOL     OW12658   2.932   1.704   5.707
 3920SOL    HW112659   2.857   1.759   5.743
 3920SOL    HW212660   3.012   1.715   5.766
 3921SOL     OW12661   6.885   2.883   5.943
 3921SOL    HW112662   6.875   2.869   5.845
 3921SOL    HW212663   6.950   2.958   5.960
 3922SOL     OW12664   5.126   4.513   2.871
 3922SOL    HW112665   5.106   4.604   2.835
 3922SOL    HW212666   5.224   4.506   2.891
 3923SOL     OW12667   5.302   0.966   1.374
 3923SOL    HW112668   5.268   0.923   1.458
 3923SOL    HW212669   5.293   0.901   1.298
 3924SOL     OW12670   5.350   5.401   4.115
 3924SOL    HW112671   5.367   5.377   4.211
 3924SOL    HW212672   5.342   5.500   4.107
 3925SOL     OW12673   5.346   3.628   0.782
 3925SOL    HW112674   5.319   3.641   0.877
 3925SOL    HW212675   5.316   3.706   0.728
 3926SOL     OW12676   0.539   6.406   6.382
 3926SOL    HW112677   0.600   6.484   6.370
 3926SOL    HW212678   0.581   6.324   6.342
 3927SOL     OW12679   5.680   2.230   5.762
 3927SOL    HW112680   5.704   2.134   5.778
 3927SOL    HW212681   5.632   2.239   5.675
 3928SOL     OW12682   2.880   5.735   1.958
 3928SOL    HW112683   2.924   5.801   2.018
 3928SOL    HW212684   2.947   5.668   1.927
 3929SOL     OW12685   0.269   2.521   4.948
 3929SOL    HW112686   0.306   2.503   5.040
 3929SOL    HW212687   0.268   2.436   4.895
 3930SOL     OW12688   1.809   4.782   3.808
 3930SOL    HW112689   1.812   4.841   3.889
 3930SOL    HW212690   1.874   4.706   3.820
 3931SOL     OW12691   2.309   2.309   1.722
 3931SOL    HW112692   2.248   2.231   1.734
 3931SOL    HW212693   2.257   2.394   1.733
 3932SOL     OW12694   2.424   4.989   3.744
 3932SOL    HW112695   2.519   5.011   3.721
 3932SOL    HW212696   2.372   5.074   3.755
 3933SOL     OW12697   2.204   5.747   1.543
 3933SOL    HW112698   2.138   5.690   1.494
 3933SOL    HW212699   2.264   5.688   1.597
 3934SOL     OW12700   0.217   1.102   1.652
 3934SOL    HW112701   0.310   1.111   1.618
 3934SOL    HW212702   0.157   1.163   1.599
 3935SOL     OW12703   6.741   3.276   6.296
 3935SOL    HW112704   6.734   3.278   6.395
 3935SOL    HW212705   6.686   3.349   6.256
 3936SOL     OW12706   0.061   5.037   5.678
 3936SOL    HW112707   7.012   5.106   5.670
 3936SOL    HW212708   0.021   4.950   5.707
 3937SOL     OW12709   0.276   6.747   1.748
 3937SOL    HW112710   0.260   6.846   1.748
 3937SOL    HW212711   0.363   6.727   1.703
 3938SOL     OW12712   0.903   3.243   2.525
 3938SOL    HW112713   0.903   3.263   2.427
 3938SOL    HW212714   0.996   3.218   2.554
 3939SOL     OW12715   1.595   0.910   2.501
 3939SOL    HW112716   1.572   0.950   2.412
 3939SOL    HW212717   1.602   0.983   2.569
 3940SOL     OW12718   3.494   5.518   1.184
 3940SOL    HW112719   3.471   5.507   1.280
 3940SOL    HW212720   3.478   5.431   1.136
 3941SOL     OW12721   5.207   6.015   3.452
 3941SOL    HW112722   5.275   5.943   3.462
 3941SOL    HW212723   5.115   5.975   3.451
 3942SOL     OW12724   6.553   5.933   5.780
 3942SOL    HW112725   6.521   5.869   5.710
 3942SOL    HW212726   6.566   6.024   5.739
 3943SOL     OW12727   1.605   2.438   0.316
 3943SOL    HW112728   1.523   2.439   0.258
 3943SOL    HW212729   1.659   2.357   0.296
 3944SOL     OW12730   5.553   2.421   6.968
 3944SOL    HW112731   5.460   2.438   7.000
 3944SOL    HW212732   5.597   2.354   0.005
 3945SOL     OW12733   6.031   0.529   3.432
 3945SOL    HW112734   5.965   0.458   3.456
 3945SOL    HW212735   5.996   0.583   3.355
 3946SOL     OW12736   1.293   3.057   7.019
 3946SOL    HW112737   1.332   3.100   6.938
 3946SOL    HW212738   1.330   3.100   0.079
 3947SOL     OW12739   6.080   4.819   2.248
 3947SOL    HW112740   6.033   4.784   2.167
 3947SOL    HW212741   6.020   4.880   2.299
 3948SOL     OW12742   1.421   2.597   5.956
 3948SOL    HW112743   1.442   2.563   6.048
 3948SOL    HW212744   1.322   2.596   5.942
 3949SOL     OW12745   6.175   6.863   1.599
 3949SOL    HW112746   6.226   6.824   1.676
 3949SOL    HW212747   6.207   6.956   1.581
 3950SOL     OW12748   3.151   4.502   1.668
 3950SOL    HW112749   3.093   4.477   1.746
 3950SOL    HW212750   3.100   4.487   1.583
 3951SOL     OW12751   0.965   2.170   4.646
 3951SOL    HW112752   1.061   2.191   4.663
 3951SOL    HW212753   0.909   2.249   4.673
 3952SOL     OW12754   5.808   3.547   6.721
 3952SOL    HW112755   5.857   3.568   6.806
 3952SOL    HW212756   5.848   3.466   6.679
 3953SOL     OW12757   2.881   4.337   6.239
 3953SOL    HW112758   2.911   4.316   6.146
 3953SOL    HW212759   2.918   4.269   6.302
 3954SOL     OW12760   0.261   3.079   5.270
 3954SOL    HW112761   0.328   3.153   5.281
 3954SOL    HW212762   0.227   3.079   5.176
 3955SOL     OW12763   6.981   3.880   0.224
 3955SOL    HW112764   0.011   3.933   0.291
 3955SOL    HW212765   0.014   3.804   0.191
 3956SOL     OW12766   0.684   2.961   5.724
 3956SOL    HW112767   0.674   2.925   5.817
 3956SOL    HW212768   0.779   2.954   5.695
 3957SOL     OW12769   0.739   1.216   3.254
 3957SOL    HW112770   0.719   1.291   3.191
 3957SOL    HW212771   0.831   1.228   3.291
 3958SOL     OW12772   5.905   6.084   6.466
 3958SOL    HW112773   5.812   6.057   6.492
 3958SOL    HW212774   5.900   6.157   6.397
 3959SOL     OW12775   2.313   4.927   0.852
 3959SOL    HW112776   2.387   4.889   0.908
 3959SOL    HW212777   2.304   5.024   0.871
 3960SOL     OW12778   4.787   3.404   0.588
 3960SOL    HW112779   4.696   3.445   0.575
 3960SOL    HW212780   4.801   3.332   0.520
 3961SOL     OW12781   5.400   0.760   2.389
 3961SOL    HW112782   5.348   0.812   2.456
 3961SOL    HW212783   5.393   0.662   2.409
 3962SOL     OW12784   0.564   6.868   5.466
 3962SOL    HW112785   0.488   6.925   5.437
 3962SOL    HW212786   0.648   6.922   5.466
 3963SOL     OW12787   4.679   5.630   3.021
 3963SOL    HW112788   4.673   5.605   2.925
 3963SOL    HW212789   4.666   5.549   3.078
 3964SOL     OW12790   5.490   6.678   5.634
 3964SOL    HW112791   5.481   6.653   5.538
 3964SOL    HW212792   5.403   6.716   5.666
 3965SOL     OW12793   4.165   3.435   0.498
 3965SOL    HW112794   4.089   3.475   0.550
 3965SOL    HW212795   4.239   3.410   0.560
 3966SOL     OW12796   5.879   4.340   5.152
 3966SOL    HW112797   5.813   4.313   5.222
 3966SOL    HW212798   5.945   4.403   5.191
 3967SOL     OW12799   1.206   5.521   6.723
 3967SOL    HW112800   1.233   5.477   6.638
 3967SOL    HW212801   1.281   5.515   6.789
 3968SOL     OW12802   5.572   0.471   1.518
 3968SOL    HW112803   5.552   0.567   1.538
 3968SOL    HW212804   5.669   0.453   1.534
 3969SOL     OW12805   0.279   5.613   1.822
 3969SOL    HW112806   0.189   5.575   1.845
 3969SOL    HW212807   0.337   5.540   1.785
 3970SOL     OW12808   4.601   4.374   3.766
 3970SOL    HW112809   4.542   4.416   3.835
 3970SOL    HW212810   4.669   4.441   3.736
 3971SOL     OW12811   1.703   5.782   3.804
 3971SOL    HW112812   1.776   5.748   3.863
 3971SOL    HW212813   1.730   5.774   3.708
 3972SOL     OW12814   1.602   0.035   0.406
 3972SOL    HW112815   1.628   0.106   0.472
 3972SOL    HW212816   1.655   0.047   0.322
 3973SOL     OW12817   3.481   3.058   2.982
 3973SOL    HW112818   3.531   3.084   2.899
 3973SOL    HW212819   3.474   3.136   3.044
 3974SOL     OW12820   6.380   1.314   6.590
 3974SOL    HW112821   6.348   1.219   6.590
 3974SOL    HW212822   6.380   1.349   6.684
 3975SOL     OW12823   6.656   0.232   5.694
 3975SOL    HW112824   6.604   0.217   5.609
 3975SOL    HW212825   6.749   0.199   5.681
 3976SOL     OW12826   1.085   3.452   6.631
 3976SOL    HW112827   1.016   3.490   6.692
 3976SOL    HW212828   1.170   3.437   6.681
 3977SOL     OW12829   4.277   6.539   6.335
 3977SOL    HW112830   4.377   6.539   6.336
 3977SOL    HW212831   4.242   6.544   6.429
 3978SOL     OW12832   5.636   3.099   6.483
 3978SOL    HW112833   5.591   3.188   6.490
 3978SOL    HW212834   5.685   3.093   6.396
 3979SOL     OW12835   1.311   6.975   3.062
 3979SOL    HW112836   1.248   6.898   3.056
 3979SOL    HW212837   1.261   0.038   3.047
 3980SOL     OW12838   4.921   3.275   5.023
 3980SOL    HW112839   4.886   3.367   5.003
 3980SOL    HW212840   4.893   3.248   5.115
 3981SOL     OW12841   6.332   1.699   5.586
 3981SOL    HW112842   6.291   1.700   5.495
 3981SOL    HW212843   6.295   1.774   5.641
 3982SOL     OW12844   3.870   1.750   3.885
 3982SOL    HW112845   3.855   1.849   3.889
 3982SOL    HW212846   3.968   1.732   3.885
 3983SOL     OW12847   3.805   6.500   3.703
 3983SOL    HW112848   3.749   6.529   3.782
 3983SOL    HW212849   3.745   6.463   3.632
 3984SOL     OW12850   1.276   6.649   1.559
 3984SOL    HW112851   1.335   6.727   1.581
 3984SOL    HW212852   1.243   6.658   1.465
 3985SOL     OW12853   1.500   3.738   2.018
 3985SOL    HW112854   1.461   3.745   2.110
 3985SOL    HW212855   1.599   3.733   2.024
 3986SOL     OW12856   1.136   3.028   2.248
 3986SOL    HW112857   1.091   2.944   2.279
 3986SOL    HW212858   1.071   3.104   2.252
 3987SOL     OW12859   2.706   4.823   6.836
 3987SOL    HW112860   2.715   4.790   6.742
 3987SOL    HW212861   2.672   4.917   6.836
 3988SOL     OW12862   4.353   2.305   0.058
 3988SOL    HW112863   4.255   2.308   0.039
 3988SOL    HW212864   4.381   2.211   0.074
 3989SOL     OW12865   4.393   0.815   6.464
 3989SOL    HW112866   4.362   0.729   6.424
 3989SOL    HW212867   4.492   0.823   6.453
 3990SOL     OW12868   1.218   2.944   3.572
 3990SOL    HW112869   1.266   2.865   3.532
 3990SOL    HW212870   1.146   2.911   3.633
 3991SOL     OW12871   6.984   1.798   4.377
 3991SOL    HW112872   6.931   1.875   4.413
 3991SOL    HW212873   7.019   1.821   4.287
 3992SOL     OW12874   4.912   3.981   5.997
 3992SOL    HW112875   4.837   4.036   6.035
 3992SOL    HW212876   4.998   4.012   6.037
 3993SOL     OW12877   2.075   1.643   3.332
 3993SOL    HW112878   2.122   1.703   3.396
 3993SOL    HW212879   2.002   1.693   3.286
 3994SOL     OW12880   2.390   2.024   3.958
 3994SOL    HW112881   2.439   2.080   3.891
 3994SOL    HW212882   2.435   2.032   4.047
 3995SOL     OW12883   1.439   3.685   2.277
 3995SOL    HW112884   1.437   3.613   2.347
 3995SOL    HW212885   1.508   3.752   2.301
 3996SOL     OW12886   5.468   0.100   3.149
 3996SOL    HW112887   5.392   0.150   3.191
 3996SOL    HW212888   5.499   0.028   3.211
 3997SOL     OW12889   5.662   3.638   2.605
 3997SOL    HW112890   5.724   3.561   2.592
 3997SOL    HW212891   5.693   3.693   2.683
 3998SOL     OW12892   6.367   2.194   3.526
 3998SOL    HW112893   6.356   2.136   3.445
 3998SOL    HW212894   6.354   2.138   3.609
 3999SOL     OW12895   5.446   2.438   1.400
 3999SOL    HW112896   5.517   2.434   1.330
 3999SOL    HW212897   5.393   2.354   1.399
 4000SOL     OW12898   3.345   5.706   2.281
 4000SOL    HW112899   3.357   5.802   2.304
 4000SOL    HW212900   3.410   5.651   2.334
 4001SOL     OW12901   1.943   4.363   4.649
 4001SOL    HW112902   1.912   4.278   4.692
 4001SOL    HW212903   2.036   4.383   4.678
 4002SOL     OW12904   3.797   3.432   3.813
 4002SOL    HW112905   3.816   3.517   3.765
 4002SOL    HW212906   3.766   3.363   3.748
 4003SOL     OW12907   2.679   0.726   5.156
 4003SOL    HW112908   2.769   0.683   5.163
 4003SOL    HW212909   2.609   0.661   5.184
 4004SOL     OW12910   0.572   3.819   3.397
 4004SOL    HW112911   0.648   3.856   3.449
 4004SOL    HW212912   0.536   3.738   3.443
 4005SOL     OW12913   5.522   3.129   0.911
 4005SOL    HW112914   5.553   3.217   0.873
 4005SOL    HW212915   5.427   3.114   0.884
 4006SOL     OW12916   5.061   4.933   3.745
 4006SOL    HW112917   5.085   4.854   3.802
 4006SOL    HW212918   4.983   4.980   3.786
 4007SOL     OW12919   6.584   1.589   2.986
 4007SOL    HW112920   6.669   1.564   3.032
 4007SOL    HW212921   6.590   1.564   2.889
 4008SOL     OW12922   3.026   0.129   1.289
 4008SOL    HW112923   2.988   0.210   1.244
 4008SOL    HW212924   2.968   0.103   1.366
 4009SOL     OW12925   4.309   2.197   0.690
 4009SOL    HW112926   4.285   2.134   0.764
 4009SOL    HW212927   4.269   2.287   0.709
 4010SOL     OW12928   2.175   5.095   1.709
 4010SOL    HW112929   2.228   5.021   1.750
 4010SOL    HW212930   2.143   5.067   1.618
 4011SOL     OW12931   5.942   6.028   6.755
 4011SOL    HW112932   5.966   6.027   6.658
 4011SOL    HW212933   6.004   5.967   6.805
 4012SOL     OW12934   4.145   7.003   2.264
 4012SOL    HW112935   4.097   6.921   2.296
 4012SOL    HW212936   4.197   0.021   2.339
 4013SOL     OW12937   0.367   1.305   6.527
 4013SOL    HW112938   0.367   1.225   6.467
 4013SOL    HW212939   0.459   1.320   6.562
 4014SOL     OW12940   2.873   4.899   2.523
 4014SOL    HW112941   2.940   4.952   2.472
 4014SOL    HW212942   2.804   4.960   2.562
 4015SOL     OW12943   4.002   5.062   5.845
 4015SOL    HW112944   3.989   4.963   5.855
 4015SOL    HW212945   4.011   5.084   5.748
 4016SOL     OW12946   4.295   5.736   5.965
 4016SOL    HW112947   4.285   5.823   6.015
 4016SOL    HW212948   4.353   5.751   5.885
 4017SOL     OW12949   0.513   4.646   5.977
 4017SOL    HW112950   0.563   4.728   6.003
 4017SOL    HW212951   0.575   4.567   5.978
 4018SOL     OW12952   4.524   6.257   1.768
 4018SOL    HW112953   4.512   6.270   1.670
 4018SOL    HW212954   4.611   6.211   1.786
 4019SOL     OW12955   5.346   3.382   3.106
 4019SOL    HW112956   5.378   3.353   3.016
 4019SOL    HW212957   5.402   3.339   3.177
 4020SOL     OW12958   6.721   4.599   4.189
 4020SOL    HW112959   6.639   4.571   4.140
 4020SOL    HW212960   6.718   4.565   4.283
 4021SOL     OW12961   3.454   3.496   5.579
 4021SOL    HW112962   3.533   3.529   5.527
 4021SOL    HW212963   3.467   3.400   5.603
 4022SOL     OW12964   2.542   0.242   0.707
 4022SOL    HW112965   2.521   0.323   0.653
 4022SOL    HW212966   2.639   0.219   0.697
 4023SOL     OW12967   0.570   2.299   5.497
 4023SOL    HW112968   0.618   2.225   5.450
 4023SOL    HW212969   0.471   2.285   5.490
 4024SOL     OW12970   0.721   4.521   4.356
 4024SOL    HW112971   0.810   4.501   4.314
 4024SOL    HW212972   0.730   4.602   4.414
 4025SOL     OW12973   0.697   6.352   4.104
 4025SOL    HW112974   0.610   6.394   4.078
 4025SOL    HW212975   0.771   6.390   4.049
 4026SOL     OW12976   6.559   6.363   3.612
 4026SOL    HW112977   6.593   6.316   3.531
 4026SOL    HW212978   6.636   6.404   3.662
 4027SOL     OW12979   2.385   3.753   5.586
 4027SOL    HW112980   2.343   3.668   5.616
 4027SOL    HW212981   2.440   3.736   5.504
 4028SOL     OW12982   4.732   1.947   2.402
 4028SOL    HW112983   4.733   2.043   2.430
 4028SOL    HW212984   4.773   1.891   2.474
 4029SOL     OW12985   2.239   5.440   6.386
 4029SOL    HW112986   2.175   5.414   6.459
 4029SOL    HW212987   2.330   5.453   6.425
 4030SOL     OW12988   0.499   0.990   2.914
 4030SOL    HW112989   0.541   0.966   2.826
 4030SOL    HW212990   0.429   1.061   2.900
 4031SOL     OW12991   5.346   6.964   1.260
 4031SOL    HW112992   5.362   6.975   1.358
 4031SOL    HW212993   5.282   6.889   1.245
 4032SOL     OW12994   6.399   0.308   1.560
 4032SOL    HW112995   6.464   0.360   1.504
 4032SOL    HW212996   6.440   0.290   1.650
 4033SOL     OW12997   2.798   2.198   2.956
 4033SOL    HW112998   2.727   2.163   2.895
 4033SOL    HW212999   2.879   2.221   2.902
 4034SOL     OW13000   0.034   3.456   4.960
 4034SOL    HW113001   0.128   3.490   4.946
 4034SOL    HW213002   0.023   3.428   5.055
 4035SOL     OW13003   6.023   1.998   1.315
 4035SOL    HW113004   6.031   2.084   1.366
 4035SOL    HW213005   5.937   1.953   1.340
 4036SOL     OW13006   2.298   5.233   3.798
 4036SOL    HW113007   2.350   5.316   3.777
 4036SOL    HW213008   2.268   5.235   3.893
 4037SOL     OW13009   1.969   0.900   5.859
 4037SOL    HW113010   1.904   0.916   5.785
 4037SOL    HW213011   2.046   0.963   5.849
 4038SOL     OW13012   3.523   4.330   5.988
 4038SOL    HW113013   3.545   4.363   5.896
 4038SOL    HW213014   3.480   4.403   6.040
 4039SOL     OW13015   6.189   4.482   1.711
 4039SOL    HW113016   6.160   4.414   1.643
 4039SOL    HW213017   6.123   4.556   1.714
 4040SOL     OW13018   3.650   5.283   5.308
 4040SOL    HW113019   3.599   5.197   5.306
 4040SOL    HW213020   3.725   5.275   5.374
 4041SOL     OW13021   1.873   6.544   1.285
 4041SOL    HW113022   1.957   6.527   1.235
 4041SOL    HW213023   1.825   6.623   1.245
 4042SOL     OW13024   6.266   0.534   3.918
 4042SOL    HW113025   6.257   0.554   3.820
 4042SOL    HW213026   6.329   0.600   3.959
 4043SOL     OW13027   5.412   3.264   6.545
 4043SOL    HW113028   5.401   3.295   6.639
 4043SOL    HW213029   5.384   3.168   6.538
 4044SOL     OW13030   4.313   4.952   3.358
 4044SOL    HW113031   4.316   4.919   3.453
 4044SOL    HW213032   4.220   4.945   3.323
 4045SOL     OW13033   5.047   0.278   5.815
 4045SOL    HW113034   4.979   0.219   5.860
 4045SOL    HW213035   5.080   0.233   5.733
 4046SOL     OW13036   0.159   1.648   3.163
 4046SOL    HW113037   0.102   1.567   3.150
 4046SOL    HW213038   0.176   1.691   3.075
 4047SOL     OW13039   2.765   3.016   6.614
 4047SOL    HW113040   2.714   3.097   6.643
 4047SOL    HW213041   2.704   2.953   6.567
 4048SOL     OW13042   4.919   1.386   1.972
 4048SOL    HW113043   5.005   1.370   1.923
 4048SOL    HW213044   4.882   1.475   1.945
 4049SOL     OW13045   4.200   5.451   6.395
 4049SOL    HW113046   4.142   5.397   6.334
 4049SOL    HW213047   4.167   5.546   6.396
 4050SOL     OW13048   0.362   5.634   2.488
 4050SOL    HW113049   0.401   5.669   2.573
 4050SOL    HW213050   0.271   5.598   2.505
 4051SOL     OW13051   4.916   1.314   6.472
 4051SOL    HW113052   5.003   1.361   6.458
 4051SOL    HW213053   4.841   1.380   6.465
 4052SOL     OW13054   5.924   1.931   3.617
 4052SOL    HW113055   5.963   2.019   3.593
 4052SOL    HW213056   5.853   1.906   3.551
 4053SOL     OW13057   1.248   5.496   4.736
 4053SOL    HW113058   1.177   5.535   4.676
 4053SOL    HW213059   1.334   5.492   4.686
 4054SOL     OW13060   4.653   4.186   1.139
 4054SOL    HW113061   4.648   4.286   1.137
 4054SOL    HW213062   4.668   4.156   1.233
 4055SOL     OW13063   1.360   3.687   1.786
 4055SOL    HW113064   1.398   3.703   1.877
 4055SOL    HW213065   1.382   3.764   1.726
 4056SOL     OW13066   4.885   3.436   0.841
 4056SOL    HW113067   4.845   3.435   0.749
 4056SOL    HW213068   4.940   3.354   0.854
 4057SOL     OW13069   6.512   3.415   6.203
 4057SOL    HW113070   6.462   3.389   6.120
 4057SOL    HW213071   6.480   3.504   6.235
 4058SOL     OW13072   2.613   5.751   5.194
 4058SOL    HW113073   2.594   5.815   5.269
 4058SOL    HW213074   2.677   5.681   5.225
 4059SOL     OW13075   0.907   2.096   4.332
 4059SOL    HW113076   0.831   2.057   4.385
 4059SOL    HW213077   0.946   2.026   4.273
 4060SOL     OW13078   6.704   5.557   5.269
 4060SOL    HW113079   6.727   5.641   5.319
 4060SOL    HW213080   6.723   5.478   5.328
 4061SOL     OW13081   2.664   5.161   1.989
 4061SOL    HW113082   2.720   5.162   2.072
 4061SOL    HW213083   2.714   5.115   1.916
 4062SOL     OW13084   2.234   1.855   1.796
 4062SOL    HW113085   2.313   1.858   1.735
 4062SOL    HW213086   2.175   1.778   1.771
 4063SOL     OW13087   5.520   0.827   1.196
 4063SOL    HW113088   5.429   0.803   1.163
 4063SOL    HW213089   5.539   0.923   1.177
 4064SOL     OW13090   2.093   1.787   4.539
 4064SOL    HW113091   2.006   1.836   4.531
 4064SOL    HW213092   2.112   1.768   4.635
 4065SOL     OW13093   1.949   6.790   0.261
 4065SOL    HW113094   2.012   6.860   0.227
 4065SOL    HW213095   1.919   6.814   0.353
 4066SOL     OW13096   6.962   4.530   3.201
 4066SOL    HW113097   7.009   4.444   3.219
 4066SOL    HW213098   6.875   4.531   3.250
 4067SOL     OW13099   5.896   4.544   2.430
 4067SOL    HW113100   5.984   4.514   2.392
 4067SOL    HW213101   5.912   4.611   2.502
 4068SOL     OW13102   1.874   2.356   5.048
 4068SOL    HW113103   1.894   2.309   4.962
 4068SOL    HW213104   1.916   2.307   5.124
 4069SOL     OW13105   4.069   6.904   6.769
 4069SOL    HW113106   4.099   6.809   6.759
 4069SOL    HW213107   4.148   6.965   6.757
 4070SOL     OW13108   1.619   3.086   3.430
 4070SOL    HW113109   1.582   3.124   3.514
 4070SOL    HW213110   1.563   3.008   3.400
 4071SOL     OW13111   0.708   0.328   3.843
 4071SOL    HW113112   0.651   0.271   3.902
 4071SOL    HW213113   0.800   0.335   3.882
 4072SOL     OW13114   1.433   5.698   4.249
 4072SOL    HW113115   1.366   5.705   4.323
 4072SOL    HW213116   1.509   5.761   4.267
 4073SOL     OW13117   2.673   5.525   0.603
 4073SOL    HW113118   2.768   5.546   0.582
 4073SOL    HW213119   2.634   5.469   0.530
 4074SOL     OW13120   1.357   5.230   2.274
 4074SOL    HW113121   1.353   5.269   2.182
 4074SOL    HW213122   1.316   5.139   2.274
 4075SOL     OW13123   5.162   0.488   0.476
 4075SOL    HW113124   5.169   0.392   0.503
 4075SOL    HW213125   5.175   0.547   0.556
 4076SOL     OW13126   2.982   3.232   5.429
 4076SOL    HW113127   2.948   3.171   5.500
 4076SOL    HW213128   3.005   3.321   5.469
 4077SOL     OW13129   4.197   2.123   1.589
 4077SOL    HW113130   4.251   2.199   1.552
 4077SOL    HW213131   4.101   2.151   1.598
 4078SOL     OW13132   3.074   4.814   2.718
 4078SOL    HW113133   3.089   4.721   2.684
 4078SOL    HW213134   3.004   4.859   2.662
 4079SOL     OW13135   1.375   2.488   4.276
 4079SOL    HW113136   1.473   2.504   4.289
 4079SOL    HW213137   1.362   2.402   4.228
 4080SOL     OW13138   5.121   1.875   5.019
 4080SOL    HW113139   5.174   1.790   5.025
 4080SOL    HW213140   5.153   1.939   5.088
 4081SOL     OW13141   1.738   3.275   4.150
 4081SOL    HW113142   1.827   3.305   4.114
 4081SOL    HW213143   1.693   3.352   4.196
 4082SOL     OW13144   1.561   2.956   0.719
 4082SOL    HW113145   1.560   2.984   0.815
 4082SOL    HW213146   1.591   2.861   0.713
 4083SOL     OW13147   5.514   2.590   3.832
 4083SOL    HW113148   5.531   2.546   3.921
 4083SOL    HW213149   5.510   2.689   3.845
 4084SOL     OW13150   6.082   2.037   4.285
 4084SOL    HW113151   6.089   2.101   4.208
 4084SOL    HW213152   5.995   2.051   4.332
 4085SOL     OW13153   3.838   6.047   0.691
 4085SOL    HW113154   3.767   6.115   0.672
 4085SOL    HW213155   3.838   5.979   0.618
 4086SOL     OW13156   1.754   5.462   1.603
 4086SOL    HW113157   1.752   5.390   1.672
 4086SOL    HW213158   1.668   5.511   1.604
 4087SOL     OW13159   2.388   1.978   3.391
 4087SOL    HW113160   2.445   1.903   3.357
 4087SOL    HW213161   2.412   2.063   3.343
 4088SOL     OW13162   6.334   2.010   1.738
 4088SOL    HW113163   6.431   1.990   1.731
 4088SOL    HW213164   6.282   1.925   1.744
 4089SOL     OW13165   0.673   0.374   3.106
 4089SOL    HW113166   0.739   0.405   3.174
 4089SOL    HW213167   0.632   0.288   3.136
 4090SOL     OW13168   2.484   4.073   6.699
 4090SOL    HW113169   2.563   4.097   6.756
 4090SOL    HW213170   2.516   4.046   6.608
 4091SOL     OW13171   5.492   6.781   0.348
 4091SOL    HW113172   5.493   6.746   0.254
 4091SOL    HW213173   5.507   6.879   0.348
 4092SOL     OW13174   0.161   3.041   5.013
 4092SOL    HW113175   0.153   2.942   5.026
 4092SOL    HW213176   0.078   3.076   4.971
 4093SOL     OW13177   5.516   0.689   3.504
 4093SOL    HW113178   5.546   0.712   3.596
 4093SOL    HW213179   5.595   0.683   3.443
 4094SOL     OW13180   2.075   4.502   4.982
 4094SOL    HW113181   2.116   4.411   4.971
 4094SOL    HW213182   2.000   4.497   5.048
 4095SOL     OW13183   1.286   3.364   6.008
 4095SOL    HW113184   1.192   3.368   5.975
 4095SOL    HW213185   1.343   3.425   5.954
 4096SOL     OW13186   4.888   5.095   0.616
 4096SOL    HW113187   4.961   5.039   0.577
 4096SOL    HW213188   4.915   5.126   0.708
 4097SOL     OW13189   3.227   4.187   6.232
 4097SOL    HW113190   3.254   4.160   6.140
 4097SOL    HW213191   3.171   4.270   6.228
 4098SOL     OW13192   0.476   2.935   2.578
 4098SOL    HW113193   0.510   2.966   2.489
 4098SOL    HW213194   0.522   2.986   2.650
 4099SOL     OW13195   2.746   5.654   1.500
 4099SOL    HW113196   2.771   5.583   1.565
 4099SOL    HW213197   2.798   5.643   1.415
 4100SOL     OW13198   4.695   5.788   3.853
 4100SOL    HW113199   4.691   5.782   3.754
 4100SOL    HW213200   4.642   5.867   3.883
 4101SOL     OW13201   5.816   1.428   0.338
 4101SOL    HW113202   5.820   1.502   0.405
 4101SOL    HW213203   5.820   1.340   0.386
 4102SOL     OW13204   6.452   0.388   1.172
 4102SOL    HW113205   6.514   0.406   1.095
 4102SOL    HW213206   6.358   0.384   1.139
 4103SOL     OW13207   0.780   0.909   2.003
 4103SOL    HW113208   0.687   0.945   2.001
 4103SOL    HW213209   0.846   0.984   1.996
 4104SOL     OW13210   1.488   4.209   2.286
 4104SOL    HW113211   1.587   4.221   2.296
 4104SOL    HW213212   1.441   4.291   2.317
 4105SOL     OW13213   4.324   5.742   0.503
 4105SOL    HW113214   4.258   5.805   0.462
 4105SOL    HW213215   4.413   5.786   0.510
 4106SOL     OW13216   0.139   3.711   4.517
 4106SOL    HW113217   0.125   3.617   4.548
 4106SOL    HW213218   0.092   3.774   4.579
 4107SOL     OW13219   0.039   5.994   1.034
 4107SOL    HW113220   0.044   6.093   1.017
 4107SOL    HW213221   0.085   5.946   0.960
 4108SOL     OW13222   0.457   4.665   6.502
 4108SOL    HW113223   0.547   4.673   6.460
 4108SOL    HW213224   0.387   4.682   6.432
 4109SOL     OW13225   3.785   6.291   3.923
 4109SOL    HW113226   3.848   6.366   3.945
 4109SOL    HW213227   3.837   6.210   3.898
 4110SOL     OW13228   3.970   3.957   6.117
 4110SOL    HW113229   3.884   3.959   6.167
 4110SOL    HW213230   4.036   3.900   6.166
 4111SOL     OW13231   3.620   3.036   0.047
 4111SOL    HW113232   3.531   3.058   0.007
 4111SOL    HW213233   3.678   2.996   6.998
 4112SOL     OW13234   4.729   1.273   4.880
 4112SOL    HW113235   4.634   1.245   4.865
 4112SOL    HW213236   4.734   1.373   4.888
 4113SOL     OW13237   3.343   5.905   5.609
 4113SOL    HW113238   3.258   5.866   5.574
 4113SOL    HW213239   3.401   5.832   5.644
 4114SOL     OW13240   3.442   1.057   4.161
 4114SOL    HW113241   3.454   0.958   4.152
 4114SOL    HW213242   3.348   1.077   4.187
 4115SOL     OW13243   4.757   6.160   1.894
 4115SOL    HW113244   4.712   6.119   1.974
 4115SOL    HW213245   4.825   6.227   1.925
 4116SOL     OW13246   3.923   2.082   1.564
 4116SOL    HW113247   3.836   2.127   1.587
 4116SOL    HW213248   3.924   1.989   1.601
 4117SOL     OW13249   0.898   5.324   1.041
 4117SOL    HW113250   0.954   5.406   1.039
 4117SOL    HW213251   0.802   5.350   1.052
 4118SOL     OW13252   0.895   6.703   0.908
 4118SOL    HW113253   0.977   6.658   0.873
 4118SOL    HW213254   0.887   6.794   0.867
 4119SOL     OW13255   3.421   1.412   4.260
 4119SOL    HW113256   3.451   1.400   4.165
 4119SOL    HW213257   3.488   1.468   4.309
 4120SOL     OW13258   4.023   6.741   2.292
 4120SOL    HW113259   3.940   6.731   2.237
 4120SOL    HW213260   4.092   6.675   2.262
 4121SOL     OW13261   6.171   2.356   4.523
 4121SOL    HW113262   6.172   2.321   4.429
 4121SOL    HW213263   6.179   2.456   4.521
 4122SOL     OW13264   0.392   6.636   5.079
 4122SOL    HW113265   0.430   6.544   5.089
 4122SOL    HW213266   0.432   6.680   4.999
 4123SOL     OW13267   5.807   4.174   5.997
 4123SOL    HW113268   5.814   4.225   5.911
 4123SOL    HW213269   5.819   4.076   5.979
 4124SOL     OW13270   5.419   6.579   4.109
 4124SOL    HW113271   5.480   6.547   4.182
 4124SOL    HW213272   5.466   6.571   4.021
 4125SOL     OW13273   4.809   0.934   2.086
 4125SOL    HW113274   4.815   0.998   2.009
 4125SOL    HW213275   4.717   0.937   2.125
 4126SOL     OW13276   1.465   4.119   4.446
 4126SOL    HW113277   1.495   4.204   4.402
 4126SOL    HW213278   1.476   4.043   4.382
 4127SOL     OW13279   5.220   3.468   4.726
 4127SOL    HW113280   5.262   3.526   4.795
 4127SOL    HW213281   5.209   3.375   4.762
 4128SOL     OW13282   1.920   3.923   2.245
 4128SOL    HW113283   1.845   3.903   2.308
 4128SOL    HW213284   1.985   3.847   2.245
 4129SOL     OW13285   5.358   2.015   6.321
 4129SOL    HW113286   5.393   2.106   6.299
 4129SOL    HW213287   5.363   2.000   6.419
 4130SOL     OW13288   6.799   3.678   5.870
 4130SOL    HW113289   6.735   3.724   5.932
 4130SOL    HW213290   6.784   3.710   5.777
 4131SOL     OW13291   0.250   5.867   3.901
 4131SOL    HW113292   0.255   5.775   3.941
 4131SOL    HW213293   0.154   5.896   3.898
 4132SOL     OW13294   5.497   3.448   3.418
 4132SOL    HW113295   5.424   3.511   3.393
 4132SOL    HW213296   5.480   3.358   3.376
 4133SOL     OW13297   3.003   0.549   0.593
 4133SOL    HW113298   3.020   0.526   0.497
 4133SOL    HW213299   2.995   0.465   0.646
 4134SOL     OW13300   2.183   2.103   0.794
 4134SOL    HW113301   2.164   2.143   0.704
 4134SOL    HW213302   2.246   2.163   0.843
 4135SOL     OW13303   1.918   0.296   2.285
 4135SOL    HW113304   1.839   0.235   2.276
 4135SOL    HW213305   1.999   0.252   2.247
 4136SOL     OW13306   0.446   2.362   3.738
 4136SOL    HW113307   0.417   2.423   3.811
 4136SOL    HW213308   0.546   2.360   3.735
 4137SOL     OW13309   3.190   4.306   0.141
 4137SOL    HW113310   3.210   4.290   0.044
 4137SOL    HW213311   3.151   4.223   0.181
 4138SOL     OW13312   4.532   4.767   4.596
 4138SOL    HW113313   4.504   4.736   4.505
 4138SOL    HW213314   4.571   4.690   4.646
 4139SOL     OW13315   2.113   2.381   6.297
 4139SOL    HW113316   2.086   2.350   6.389
 4139SOL    HW213317   2.065   2.467   6.276
 4140SOL     OW13318   3.561   1.288   5.215
 4140SOL    HW113319   3.552   1.243   5.304
 4140SOL    HW213320   3.648   1.263   5.173
 4141SOL     OW13321   5.033   5.451   1.454
 4141SOL    HW113322   5.099   5.475   1.526
 4141SOL    HW213323   4.988   5.534   1.421
 4142SOL     OW13324   6.708   5.307   0.911
 4142SOL    HW113325   6.692   5.333   1.007
 4142SOL    HW213326   6.666   5.375   0.851
 4143SOL     OW13327   6.888   2.720   0.325
 4143SOL    HW113328   6.923   2.814   0.322
 4143SOL    HW213329   6.898   2.679   0.234
 4144SOL     OW13330   5.872   1.325   1.494
 4144SOL    HW113331   5.866   1.425   1.496
 4144SOL    HW213332   5.936   1.294   1.563
 4145SOL     OW13333   0.157   6.510   1.797
 4145SOL    HW113334   0.187   6.602   1.774
 4145SOL    HW213335   0.162   6.452   1.716
 4146SOL     OW13336   5.510   0.208   6.215
 4146SOL    HW113337   5.433   0.161   6.173
 4146SOL    HW213338   5.482   0.300   6.244
 4147SOL     OW13339   2.993   1.830   6.287
 4147SOL    HW113340   2.974   1.927   6.273
 4147SOL    HW213341   2.984   1.807   6.384
 4148SOL     OW13342   0.502   0.762   4.023
 4148SOL    HW113343   0.434   0.835   4.023
 4148SOL    HW213344   0.541   0.753   3.931
 4149SOL     OW13345   6.334   2.683   0.254
 4149SOL    HW113346   6.297   2.776   0.255
 4149SOL    HW213347   6.433   2.687   0.258
 4150SOL     OW13348   5.890   0.583   6.146
 4150SOL    HW113349   5.820   0.618   6.083
 4150SOL    HW213350   5.908   0.487   6.125
 4151SOL     OW13351   5.975   6.465   0.148
 4151SOL    HW113352   5.966   6.383   0.091
 4151SOL    HW213353   5.886   6.510   0.156
 4152SOL     OW13354   3.608   4.913   2.173
 4152SOL    HW113355   3.687   4.901   2.234
 4152SOL    HW213356   3.623   4.862   2.088
 4153SOL     OW13357   5.325   5.234   6.497
 4153SOL    HW113358   5.376   5.155   6.528
 4153SOL    HW213359   5.354   5.259   6.405
 4154SOL     OW13360   6.723   3.873   4.878
 4154SOL    HW113361   6.796   3.810   4.848
 4154SOL    HW213362   6.646   3.820   4.913
 4155SOL     OW13363   0.690   3.448   2.643
 4155SOL    HW113364   0.763   3.388   2.611
 4155SOL    HW213365   0.682   3.527   2.582
 4156SOL     OW13366   5.811   6.864   5.181
 4156SOL    HW113367   5.792   6.875   5.279
 4156SOL    HW213368   5.891   6.919   5.157
 4157SOL     OW13369   3.627   0.302   4.289
 4157SOL    HW113370   3.704   0.361   4.312
 4157SOL    HW213371   3.581   0.338   4.208
 4158SOL     OW13372   0.946   5.162   3.389
 4158SOL    HW113373   0.994   5.205   3.466
 4158SOL    HW213374   0.858   5.128   3.421
 4159SOL     OW13375   1.941   2.819   3.544
 4159SOL    HW113376   2.008   2.836   3.617
 4159SOL    HW213377   1.853   2.795   3.585
 4160SOL     OW13378   6.558   0.474   1.399
 4160SOL    HW113379   6.541   0.439   1.307
 4160SOL    HW213380   6.573   0.573   1.396
 4161SOL     OW13381   1.665   0.819   6.600
 4161SOL    HW113382   1.758   0.785   6.613
 4161SOL    HW213383   1.622   0.834   6.689
 4162SOL     OW13384   5.918   0.285   4.918
 4162SOL    HW113385   5.972   0.210   4.958
 4162SOL    HW213386   5.980   0.348   4.871
 4163SOL     OW13387   5.662   1.200   3.368
 4163SOL    HW113388   5.668   1.185   3.467
 4163SOL    HW213389   5.681   1.297   3.348
 4164SOL     OW13390   1.535   0.571   6.590
 4164SOL    HW113391   1.461   0.537   6.648
 4164SOL    HW213392   1.555   0.666   6.615
 4165SOL     OW13393   3.899   6.461   0.866
 4165SOL    HW113394   3.908   6.560   0.865
 4165SOL    HW213395   3.833   6.435   0.937
 4166SOL     OW13396   4.023   2.927   0.581
 4166SOL    HW113397   4.043   2.858   0.512
 4166SOL    HW213398   3.925   2.947   0.582
 4167SOL     OW13399   2.220   2.388   1.245
 4167SOL    HW113400   2.305   2.432   1.217
 4167SOL    HW213401   2.237   2.292   1.267
 4168SOL     OW13402   0.087   5.331   1.732
 4168SOL    HW113403   0.044   5.401   1.789
 4168SOL    HW213404   0.134   5.374   1.655
 4169SOL     OW13405   4.845   3.966   4.261
 4169SOL    HW113406   4.788   3.905   4.315
 4169SOL    HW213407   4.816   3.962   4.165
 4170SOL     OW13408   3.954   2.547   5.596
 4170SOL    HW113409   3.916   2.534   5.505
 4170SOL    HW213410   3.926   2.637   5.631
 4171SOL     OW13411   5.539   3.619   1.392
 4171SOL    HW113412   5.582   3.542   1.346
 4171SOL    HW213413   5.447   3.594   1.420
 4172SOL     OW13414   6.948   2.039   0.520
 4172SOL    HW113415   6.924   2.091   0.438
 4172SOL    HW213416   0.014   1.994   0.506
 4173SOL     OW13417   5.879   2.877   5.376
 4173SOL    HW113418   5.954   2.916   5.428
 4173SOL    HW213419   5.803   2.942   5.372
 4174SOL     OW13420   4.930   0.200   3.771
 4174SOL    HW113421   4.853   0.202   3.835
 4174SOL    HW213422   4.897   0.218   3.679
 4175SOL     OW13423   3.448   0.160   3.801
 4175SOL    HW113424   3.394   0.080   3.828
 4175SOL    HW213425   3.436   0.177   3.703
 4176SOL     OW13426   4.473   0.166   2.308
 4176SOL    HW113427   4.500   0.226   2.232
 4176SOL    HW213428   4.540   0.173   2.381
 4177SOL     OW13429   0.171   5.604   3.946
 4177SOL    HW113430   0.262   5.564   3.946
 4177SOL    HW213431   0.114   5.556   4.013
 4178SOL     OW13432   3.278   1.070   6.070
 4178SOL    HW113433   3.217   1.148   6.069
 4178SOL    HW213434   3.358   1.091   6.126
 4179SOL     OW13435   5.573   3.472   4.934
 4179SOL    HW113436   5.525   3.387   4.914
 4179SOL    HW213437   5.668   3.465   4.902
 4180SOL     OW13438   5.304   4.489   1.863
 4180SOL    HW113439   5.325   4.554   1.936
 4180SOL    HW213440   5.211   4.505   1.830
 4181SOL     OW13441   1.285   1.624   6.348
 4181SOL    HW113442   1.270   1.696   6.280
 4181SOL    HW213443   1.204   1.565   6.351
 4182SOL     OW13444   0.453   0.056   2.559
 4182SOL    HW113445   0.378   0.121   2.545
 4182SOL    HW213446   0.444   0.015   2.650
 4183SOL     OW13447   2.960   1.676   1.927
 4183SOL    HW113448   2.976   1.696   2.023
 4183SOL    HW213449   3.026   1.607   1.896
 4184SOL     OW13450   3.851   5.373   0.880
 4184SOL    HW113451   3.893   5.464   0.876
 4184SOL    HW213452   3.753   5.382   0.898
 4185SOL     OW13453   0.194   6.600   3.152
 4185SOL    HW113454   0.204   6.553   3.240
 4185SOL    HW213455   0.155   6.691   3.167
 4186SOL     OW13456   2.222   3.907   0.083
 4186SOL    HW113457   2.233   3.999   0.044
 4186SOL    HW213458   2.308   3.880   0.128
 4187SOL     OW13459   3.632   3.388   6.476
 4187SOL    HW113460   3.540   3.348   6.471
 4187SOL    HW213461   3.629   3.484   6.449
 4188SOL     OW13462   4.851   0.300   4.611
 4188SOL    HW113463   4.875   0.352   4.693
 4188SOL    HW213464   4.934   0.282   4.558
 4189SOL     OW13465   2.921   1.222   4.036
 4189SOL    HW113466   2.849   1.290   4.047
 4189SOL    HW213467   3.007   1.269   4.015
 4190SOL     OW13468   2.907   0.324   6.612
 4190SOL    HW113469   2.807   0.333   6.620
 4190SOL    HW213470   2.929   0.272   6.530
 4191SOL     OW13471   6.196   2.803   3.264
 4191SOL    HW113472   6.254   2.736   3.218
 4191SOL    HW213473   6.239   2.893   3.260
 4192SOL     OW13474   6.054   1.380   3.008
 4192SOL    HW113475   6.074   1.334   3.094
 4192SOL    HW213476   5.958   1.408   3.007
 4193SOL     OW13477   2.419   6.777   2.333
 4193SOL    HW113478   2.402   6.859   2.388
 4193SOL    HW213479   2.409   6.696   2.390
 4194SOL     OW13480   6.894   2.008   4.640
 4194SOL    HW113481   6.811   2.001   4.695
 4194SOL    HW213482   6.973   1.983   4.695
 4195SOL     OW13483   4.349   0.522   1.230
 4195SOL    HW113484   4.251   0.524   1.213
 4195SOL    HW213485   4.377   0.607   1.275
 4196SOL     OW13486   5.238   2.825   4.265
 4196SOL    HW113487   5.164   2.796   4.326
 4196SOL    HW213488   5.207   2.819   4.170
 4197SOL     OW13489   5.432   4.341   4.623
 4197SOL    HW113490   5.363   4.300   4.564
 4197SOL    HW213491   5.448   4.282   4.703
 4198SOL     OW13492   5.944   3.549   6.971
 4198SOL    HW113493   5.908   3.460   7.001
 4198SOL    HW213494   5.972   3.602   0.029
 4199SOL     OW13495   3.174   3.604   5.151
 4199SOL    HW113496   3.222   3.688   5.127
 4199SOL    HW213497   3.109   3.581   5.078
 4200SOL     OW13498   2.262   6.694   6.037
 4200SOL    HW113499   2.314   6.754   6.098
 4200SOL    HW213500   2.283   6.598   6.059
 4201SOL     OW13501   6.491   6.838   3.311
 4201SOL    HW113502   6.482   6.774   3.235
 4201SOL    HW213503   6.468   6.791   3.396
 4202SOL     OW13504   5.251   4.936   5.857
 4202SOL    HW113505   5.341   4.965   5.824
 4202SOL    HW213506   5.191   4.918   5.779
 4203SOL     OW13507   5.194   5.399   3.419
 4203SOL    HW113508   5.269   5.350   3.462
 4203SOL    HW213509   5.183   5.488   3.462
 4204SOL     OW13510   3.263   3.350   1.343
 4204SOL    HW113511   3.352   3.395   1.350
 4204SOL    HW213512   3.271   3.255   1.373
 4205SOL     OW13513   3.129   5.059   4.916
 4205SOL    HW113514   3.098   4.973   4.956
 4205SOL    HW213515   3.200   5.099   4.975
 4206SOL     OW13516   4.736   0.023   5.071
 4206SOL    HW113517   4.720   7.021   5.167
 4206SOL    HW213518   4.718   6.965   5.014
 4207SOL     OW13519   1.288   1.129   1.795
 4207SOL    HW113520   1.387   1.114   1.796
 4207SOL    HW213521   1.243   1.056   1.744
 4208SOL     OW13522   1.553   2.685   1.049
 4208SOL    HW113523   1.500   2.706   0.967
 4208SOL    HW213524   1.638   2.639   1.023
 4209SOL     OW13525   1.980   0.007   4.538
 4209SOL    HW113526   1.972   0.028   4.440
 4209SOL    HW213527   2.075   0.019   4.567
 4210SOL     OW13528   3.642   3.513   1.141
 4210SOL    HW113529   3.699   3.463   1.206
 4210SOL    HW213530   3.559   3.545   1.186
 4211SOL     OW13531   5.234   4.428   4.898
 4211SOL    HW113532   5.179   4.420   4.981
 4211SOL    HW213533   5.298   4.504   4.909
 4212SOL     OW13534   6.260   0.746   2.591
 4212SOL    HW113535   6.343   0.801   2.583
 4212SOL    HW213536   6.200   0.784   2.661
 4213SOL     OW13537   1.900   0.557   2.129
 4213SOL    HW113538   1.878   0.472   2.177
 4213SOL    HW213539   1.832   0.573   2.057
 4214SOL     OW13540   0.783   3.633   5.299
 4214SOL    HW113541   0.797   3.534   5.295
 4214SOL    HW213542   0.837   3.677   5.227
 4215SOL     OW13543   0.936   5.800   4.788
 4215SOL    HW113544   1.021   5.837   4.826
 4215SOL    HW213545   0.951   5.705   4.760
 4216SOL     OW13546   1.219   2.219   4.703
 4216SOL    HW113547   1.256   2.234   4.795
 4216SOL    HW213548   1.267   2.279   4.638
 4217SOL     OW13549   0.525   0.404   2.576
 4217SOL    HW113550   0.555   0.334   2.641
 4217SOL    HW213551   0.432   0.432   2.599
 4218SOL     OW13552   4.759   0.454   1.944
 4218SOL    HW113553   4.789   0.396   1.869
 4218SOL    HW213554   4.737   0.545   1.909
 4219SOL     OW13555   3.927   4.965   5.034
 4219SOL    HW113556   3.859   4.968   5.107
 4219SOL    HW213557   3.973   5.053   5.029
 4220SOL     OW13558   6.785   3.286   3.562
 4220SOL    HW113559   6.796   3.287   3.661
 4220SOL    HW213560   6.860   3.235   3.520
 4221SOL     OW13561   5.163   5.239   6.804
 4221SOL    HW113562   5.204   5.299   6.873
 4221SOL    HW213563   5.158   5.286   6.716
 4222SOL     OW13564   5.494   2.474   1.691
 4222SOL    HW113565   5.465   2.428   1.775
 4222SOL    HW213566   5.442   2.438   1.614
 4223SOL     OW13567   3.218   4.061   2.631
 4223SOL    HW113568   3.264   4.091   2.547
 4223SOL    HW213569   3.169   3.976   2.613
 4224SOL     OW13570   4.535   2.604   4.756
 4224SOL    HW113571   4.590   2.661   4.817
 4224SOL    HW213572   4.459   2.658   4.719
 4225SOL     OW13573   6.549   0.825   4.541
 4225SOL    HW113574   6.620   0.759   4.516
 4225SOL    HW213575   6.517   0.871   4.458
 4226SOL     OW13576   0.790   1.455   3.697
 4226SOL    HW113577   0.759   1.367   3.660
 4226SOL    HW213578   0.878   1.479   3.656
 4227SOL     OW13579   3.597   4.477   0.163
 4227SOL    HW113580   3.661   4.496   0.088
 4227SOL    HW213581   3.555   4.387   0.148
 4228SOL     OW13582   6.089   5.690   3.290
 4228SOL    HW113583   6.175   5.672   3.338
 4228SOL    HW213584   6.012   5.661   3.348
 4229SOL     OW13585   4.663   4.914   6.297
 4229SOL    HW113586   4.564   4.911   6.282
 4229SOL    HW213587   4.681   4.949   6.389
 4230SOL     OW13588   3.427   0.761   5.112
 4230SOL    HW113589   3.455   0.857   5.106
 4230SOL    HW213590   3.340   0.749   5.065
 4231SOL     OW13591   4.616   6.759   5.186
 4231SOL    HW113592   4.675   6.757   5.106
 4231SOL    HW213593   4.671   6.773   5.269
 4232SOL     OW13594   1.820   5.097   3.145
 4232SOL    HW113595   1.841   5.134   3.235
 4232SOL    HW213596   1.727   5.124   3.119
 4233SOL     OW13597   6.513   0.047   6.272
 4233SOL    HW113598   6.464   0.064   6.358
 4233SOL    HW213599   6.575   0.123   6.254
 4234SOL     OW13600   3.333   5.338   6.391
 4234SOL    HW113601   3.347   5.270   6.319
 4234SOL    HW213602   3.290   5.420   6.351
 4235SOL     OW13603   5.875   4.202   5.559
 4235SOL    HW113604   5.831   4.235   5.643
 4235SOL    HW213605   5.865   4.271   5.487
 4236SOL     OW13606   0.382   2.723   4.153
 4236SOL    HW113607   0.441   2.657   4.200
 4236SOL    HW213608   0.299   2.737   4.208
 4237SOL     OW13609   5.166   3.727   5.311
 4237SOL    HW113610   5.215   3.813   5.296
 4237SOL    HW213611   5.232   3.653   5.325
 4238SOL     OW13612   4.167   5.112   3.939
 4238SOL    HW113613   4.235   5.185   3.948
 4238SOL    HW213614   4.180   5.046   4.014
 4239SOL     OW13615   4.311   6.672   5.825
 4239SOL    HW113616   4.296   6.623   5.739
 4239SOL    HW213617   4.400   6.646   5.863
 4240SOL     OW13618   2.808   4.609   6.987
 4240SOL    HW113619   2.894   4.595   6.938
 4240SOL    HW213620   2.770   4.699   6.962
 4241SOL     OW13621   4.641   0.717   1.029
 4241SOL    HW113622   4.552   0.756   1.006
 4241SOL    HW213623   4.713   0.774   0.988
 4242SOL     OW13624   2.073   6.967   2.572
 4242SOL    HW113625   2.106   6.908   2.645
 4242SOL    HW213626   2.127   0.029   2.570
 4243SOL     OW13627   0.706   3.734   2.493
 4243SOL    HW113628   0.687   3.717   2.397
 4243SOL    HW213629   0.792   3.784   2.502
 4244SOL     OW13630   4.652   6.682   0.770
 4244SOL    HW113631   4.574   6.737   0.799
 4244SOL    HW213632   4.642   6.657   0.674
 4245SOL     OW13633   6.703   2.817   0.786
 4245SOL    HW113634   6.658   2.752   0.847
 4245SOL    HW213635   6.714   2.777   0.695
 4246SOL     OW13636   5.041   2.238   3.506
 4246SOL    HW113637   5.091   2.324   3.493
 4246SOL    HW213638   5.046   2.212   3.603
 4247SOL     OW13639   1.785   5.107   4.995
 4247SOL    HW113640   1.873   5.153   4.991
 4247SOL    HW213641   1.787   5.037   5.067
 4248SOL     OW13642   2.001   0.943   2.696
 4248SOL    HW113643   1.933   0.872   2.677
 4248SOL    HW213644   1.974   0.995   2.777
 4249SOL     OW13645   0.209   0.739   5.172
 4249SOL    HW113646   0.111   0.759   5.163
 4249SOL    HW213647   0.259   0.784   5.098
 4250SOL     OW13648   6.776   6.180   4.121
 4250SOL    HW113649   6.749   6.102   4.065
 4250SOL    HW213650   6.727   6.176   4.208
 4251SOL     OW13651   6.003   2.173   6.256
 4251SOL    HW113652   6.007   2.256   6.201
 4251SOL    HW213653   5.977   2.196   6.350
 4252SOL     OW13654   6.585   6.074   6.257
 4252SOL    HW113655   6.560   6.025   6.340
 4252SOL    HW213656   6.520   6.050   6.184
 4253SOL     OW13657   4.423   5.488   2.432
 4253SOL    HW113658   4.395   5.503   2.526
 4253SOL    HW213659   4.465   5.571   2.395
 4254SOL     OW13660   2.200   3.173   6.713
 4254SOL    HW113661   2.216   3.077   6.687
 4254SOL    HW213662   2.104   3.185   6.736
 4255SOL     OW13663   0.357   3.647   2.669
 4255SOL    HW113664   0.342   3.746   2.662
 4255SOL    HW213665   0.398   3.626   2.758
 4256SOL     OW13666   0.757   5.139   2.272
 4256SOL    HW113667   0.791   5.223   2.229
 4256SOL    HW213668   0.809   5.061   2.237
 4257SOL     OW13669   6.094   0.625   4.968
 4257SOL    HW113670   6.116   0.583   5.056
 4257SOL    HW213671   6.080   0.723   4.980
 4258SOL     OW13672   3.956   6.041   0.284
 4258SOL    HW113673   3.968   5.951   0.242
 4258SOL    HW213674   4.035   6.061   0.343
 4259SOL     OW13675   1.114   6.770   2.074
 4259SOL    HW113676   1.060   6.703   2.023
 4259SOL    HW213677   1.125   6.738   2.169
 4260SOL     OW13678   5.138   6.798   5.001
 4260SOL    HW113679   5.116   6.880   4.949
 4260SOL    HW213680   5.235   6.800   5.028
 4261SOL     OW13681   1.979   6.950   3.468
 4261SOL    HW113682   1.998   7.017   3.539
 4261SOL    HW213683   2.038   6.870   3.481
 4262SOL     OW13684   1.866   4.365   6.732
 4262SOL    HW113685   1.864   4.267   6.713
 4262SOL    HW213686   1.956   4.402   6.710
 4263SOL     OW13687   2.773   1.930   3.832
 4263SOL    HW113688   2.757   1.997   3.905
 4263SOL    HW213689   2.757   1.974   3.743
 4264SOL     OW13690   5.343   1.564   4.123
 4264SOL    HW113691   5.254   1.517   4.127
 4264SOL    HW213692   5.353   1.608   4.034
 4265SOL     OW13693   2.932   0.690   1.193
 4265SOL    HW113694   3.001   0.679   1.122
 4265SOL    HW213695   2.879   0.606   1.201
 4266SOL     OW13696   1.618   6.667   0.598
 4266SOL    HW113697   1.603   6.600   0.526
 4266SOL    HW213698   1.694   6.727   0.572
 4267SOL     OW13699   1.803   4.136   4.759
 4267SOL    HW113700   1.816   4.067   4.831
 4267SOL    HW213701   1.717   4.119   4.712
 4268SOL     OW13702   1.511   4.991   6.221
 4268SOL    HW113703   1.543   5.061   6.156
 4268SOL    HW213704   1.589   4.938   6.253
 4269SOL     OW13705   2.796   2.030   4.402
 4269SOL    HW113706   2.752   2.027   4.491
 4269SOL    HW213707   2.883   2.079   4.410
 4270SOL     OW13708   3.559   2.317   0.823
 4270SOL    HW113709   3.588   2.322   0.919
 4270SOL    HW213710   3.601   2.391   0.772
 4271SOL     OW13711   6.744   0.210   0.898
 4271SOL    HW113712   6.835   0.241   0.869
 4271SOL    HW213713   6.753   0.122   0.945
 4272SOL     OW13714   6.155   2.274   5.923
 4272SOL    HW113715   6.150   2.284   6.022
 4272SOL    HW213716   6.245   2.238   5.898
 4273SOL     OW13717   4.172   5.438   5.219
 4273SOL    HW113718   4.260   5.425   5.172
 4273SOL    HW213719   4.119   5.353   5.215
 4274SOL     OW13720   6.771   0.552   1.673
 4274SOL    HW113721   6.749   0.611   1.596
 4274SOL    HW213722   6.727   0.587   1.756
 4275SOL     OW13723   0.689   2.735   3.371
 4275SOL    HW113724   0.710   2.779   3.283
 4275SOL    HW213725   0.661   2.640   3.355
 4276SOL     OW13726   2.605   5.945   3.709
 4276SOL    HW113727   2.564   6.030   3.743
 4276SOL    HW213728   2.654   5.900   3.783
 4277SOL     OW13729   6.257   5.611   3.724
 4277SOL    HW113730   6.308   5.696   3.713
 4277SOL    HW213731   6.299   5.555   3.794
 4278SOL     OW13732   1.438   6.732   1.967
 4278SOL    HW113733   1.428   6.733   2.066
 4278SOL    HW213734   1.391   6.811   1.927
 4279SOL     OW13735   2.018   2.480   3.225
 4279SOL    HW113736   2.066   2.480   3.312
 4279SOL    HW213737   2.036   2.566   3.177
 4280SOL     OW13738   6.897   0.280   6.102
 4280SOL    HW113739   6.970   0.332   6.058
 4280SOL    HW213740   6.933   0.233   6.183
 4281SOL     OW13741   4.262   5.514   3.717
 4281SOL    HW113742   4.260   5.415   3.702
 4281SOL    HW213743   4.267   5.561   3.629
 4282SOL     OW13744   3.697   4.111   1.048
 4282SOL    HW113745   3.794   4.120   1.025
 4282SOL    HW213746   3.648   4.070   0.971
 4283SOL     OW13747   4.909   1.262   4.074
 4283SOL    HW113748   4.835   1.290   4.012
 4283SOL    HW213749   4.947   1.343   4.119
 4284SOL     OW13750   4.771   6.153   6.759
 4284SOL    HW113751   4.752   6.125   6.853
 4284SOL    HW213752   4.737   6.246   6.744
 4285SOL     OW13753   2.889   0.408   5.928
 4285SOL    HW113754   2.964   0.449   5.876
 4285SOL    HW213755   2.923   0.330   5.980
 4286SOL     OW13756   6.119   0.924   6.367
 4286SOL    HW113757   6.088   0.863   6.440
 4286SOL    HW213758   6.057   0.917   6.290
 4287SOL     OW13759   4.905   0.428   6.785
 4287SOL    HW113760   4.871   0.357   6.723
 4287SOL    HW213761   4.937   0.386   6.870
 4288SOL     OW13762   6.847   6.553   2.036
 4288SOL    HW113763   6.946   6.550   2.050
 4288SOL    HW213764   6.804   6.478   2.087
 4289SOL     OW13765   0.340   3.488   4.468
 4289SOL    HW113766   0.240   3.488   4.475
 4289SOL    HW213767   0.369   3.409   4.415
 4290SOL     OW13768   0.157   1.056   3.312
 4290SOL    HW113769   0.220   1.007   3.251
 4290SOL    HW213770   0.150   1.151   3.282
 4291SOL     OW13771   4.850   2.984   5.881
 4291SOL    HW113772   4.948   2.999   5.890
 4291SOL    HW213773   4.831   2.946   5.790
 4292SOL     OW13774   5.799   1.541   1.332
 4292SOL    HW113775   5.866   1.482   1.288
 4292SOL    HW213776   5.708   1.499   1.324
 4293SOL     OW13777   4.300   3.982   0.119
 4293SOL    HW113778   4.377   3.971   0.182
 4293SOL    HW213779   4.317   3.927   0.037
 4294SOL     OW13780   2.868   1.793   6.580
 4294SOL    HW113781   2.781   1.767   6.540
 4294SOL    HW213782   2.879   1.892   6.577
 4295SOL     OW13783   4.399   6.366   3.300
 4295SOL    HW113784   4.441   6.417   3.225
 4295SOL    HW213785   4.357   6.430   3.365
 4296SOL     OW13786   2.650   6.480   1.460
 4296SOL    HW113787   2.620   6.423   1.383
 4296SOL    HW213788   2.587   6.468   1.536
 4297SOL     OW13789   5.636   4.892   1.009
 4297SOL    HW113790   5.690   4.960   1.058
 4297SOL    HW213791   5.689   4.808   1.000
 4298SOL     OW13792   3.335   6.528   1.063
 4298SOL    HW113793   3.260   6.566   1.117
 4298SOL    HW213794   3.421   6.573   1.088
 4299SOL     OW13795   1.355   2.443   0.208
 4299SOL    HW113796   1.309   2.354   0.207
 4299SOL    HW213797   1.293   2.513   0.244
 4300SOL     OW13798   3.048   0.682   0.889
 4300SOL    HW113799   3.028   0.604   0.830
 4300SOL    HW213800   3.138   0.719   0.865
 4301SOL     OW13801   3.094   6.958   1.886
 4301SOL    HW113802   3.134   6.870   1.913
 4301SOL    HW213803   3.000   6.963   1.919
 4302SOL     OW13804   1.655   5.482   6.167
 4302SOL    HW113805   1.744   5.507   6.130
 4302SOL    HW213806   1.585   5.543   6.131
 4303SOL     OW13807   6.126   4.181   3.842
 4303SOL    HW113808   6.113   4.144   3.935
 4303SOL    HW213809   6.073   4.265   3.831
 4304SOL     OW13810   3.365   3.790   1.420
 4304SOL    HW113811   3.367   3.721   1.493
 4304SOL    HW213812   3.286   3.851   1.434
 4305SOL     OW13813   1.433   0.699   5.288
 4305SOL    HW113814   1.403   0.641   5.364
 4305SOL    HW213815   1.432   0.646   5.203
 4306SOL     OW13816   5.330   3.583   4.960
 4306SOL    HW113817   5.428   3.559   4.962
 4306SOL    HW213818   5.290   3.565   5.049
 4307SOL     OW13819   6.565   1.899   5.243
 4307SOL    HW113820   6.564   1.886   5.144
 4307SOL    HW213821   6.605   1.988   5.266
 4308SOL     OW13822   5.071   4.753   0.698
 4308SOL    HW113823   5.047   4.786   0.789
 4308SOL    HW213824   5.105   4.829   0.643
 4309SOL     OW13825   1.448   3.589   0.518
 4309SOL    HW113826   1.422   3.503   0.562
 4309SOL    HW213827   1.372   3.653   0.521
 4310SOL     OW13828   0.487   1.618   2.375
 4310SOL    HW113829   0.399   1.663   2.363
 4310SOL    HW213830   0.560   1.675   2.336
 4311SOL     OW13831   0.754   6.238   2.332
 4311SOL    HW113832   0.710   6.149   2.342
 4311SOL    HW213833   0.781   6.252   2.237
 4312SOL     OW13834   0.423   4.613   2.349
 4312SOL    HW113835   0.439   4.605   2.251
 4312SOL    HW213836   0.483   4.684   2.387
 4313SOL     OW13837   6.106   1.737   0.257
 4313SOL    HW113838   6.133   1.832   0.241
 4313SOL    HW213839   6.119   1.714   0.353
 4314SOL     OW13840   6.412   2.801   4.935
 4314SOL    HW113841   6.411   2.777   4.837
 4314SOL    HW213842   6.379   2.895   4.947
 4315SOL     OW13843   2.800   1.327   3.647
 4315SOL    HW113844   2.783   1.249   3.707
 4315SOL    HW213845   2.758   1.409   3.687
 4316SOL     OW13846   5.233   6.755   2.033
 4316SOL    HW113847   5.149   6.783   1.988
 4316SOL    HW213848   5.222   6.760   2.132
 4317SOL     OW13849   4.801   0.695   6.159
 4317SOL    HW113850   4.807   0.596   6.176
 4317SOL    HW213851   4.777   0.741   6.245
 4318SOL     OW13852   0.831   1.741   4.222
 4318SOL    HW113853   0.879   1.654   4.235
 4318SOL    HW213854   0.891   1.806   4.177
 4319SOL     OW13855   1.003   4.663   2.090
 4319SOL    HW113856   0.907   4.693   2.090
 4319SOL    HW213857   1.045   4.685   2.002
 4320SOL     OW13858   3.891   5.646   0.071
 4320SOL    HW113859   3.940   5.604   7.017
 4320SOL    HW213860   3.812   5.590   0.094
 4321SOL     OW13861   6.331   6.752   2.640
 4321SOL    HW113862   6.409   6.787   2.588
 4321SOL    HW213863   6.267   6.827   2.660
 4322SOL     OW13864   1.078   3.186   5.233
 4322SOL    HW113865   1.162   3.147   5.269
 4322SOL    HW213866   1.077   3.285   5.250
 4323SOL     OW13867   3.994   5.440   6.644
 4323SOL    HW113868   3.928   5.374   6.607
 4323SOL    HW213869   4.084   5.424   6.603
 4324SOL     OW13870   6.946   3.761   6.140
 4324SOL    HW113871   7.007   3.840   6.141
 4324SOL    HW213872   6.930   3.733   6.045
 4325SOL     OW13873   3.074   0.677   2.566
 4325SOL    HW113874   3.074   0.670   2.665
 4325SOL    HW213875   3.109   0.592   2.526
 4326SOL     OW13876   5.025   2.145   2.799
 4326SOL    HW113877   5.081   2.135   2.882
 4326SOL    HW213878   5.044   2.234   2.758
 4327SOL     OW13879   3.484   5.560   4.051
 4327SOL    HW113880   3.419   5.507   4.105
 4327SOL    HW213881   3.560   5.589   4.109
 4328SOL     OW13882   5.520   5.774   5.145
 4328SOL    HW113883   5.558   5.861   5.112
 4328SOL    HW213884   5.548   5.700   5.083
 4329SOL     OW13885   6.035   2.608   5.840
 4329SOL    HW113886   6.091   2.660   5.775
 4329SOL    HW213887   6.071   2.516   5.849
 4330SOL     OW13888   2.893   4.938   5.193
 4330SOL    HW113889   2.954   4.880   5.138
 4330SOL    HW213890   2.830   4.987   5.132
 4331SOL     OW13891   6.430   0.956   1.724
 4331SOL    HW113892   6.476   0.896   1.659
 4331SOL    HW213893   6.336   0.971   1.694
 4332SOL     OW13894   0.121   4.687   2.455
 4332SOL    HW113895   0.069   4.646   2.381
 4332SOL    HW213896   0.219   4.668   2.442
 4333SOL     OW13897   3.919   2.055   5.511
 4333SOL    HW113898   3.970   1.977   5.546
 4333SOL    HW213899   3.973   2.139   5.522
 4334SOL     OW13900   1.138   2.376   3.765
 4334SOL    HW113901   1.212   2.310   3.782
 4334SOL    HW213902   1.170   2.468   3.788
 4335SOL     OW13903   3.200   3.500   0.817
 4335SOL    HW113904   3.198   3.523   0.914
 4335SOL    HW213905   3.214   3.584   0.764
 4336SOL     OW13906   2.629   5.707   5.868
 4336SOL    HW113907   2.632   5.608   5.860
 4336SOL    HW213908   2.627   5.748   5.777
 4337SOL     OW13909   1.681   5.591   3.353
 4337SOL    HW113910   1.628   5.543   3.423
 4337SOL    HW213911   1.623   5.659   3.308
 4338SOL     OW13912   4.489   0.717   5.830
 4338SOL    HW113913   4.588   0.705   5.835
 4338SOL    HW213914   4.461   0.792   5.890
 4339SOL     OW13915   4.226   3.107   5.821
 4339SOL    HW113916   4.135   3.071   5.801
 4339SOL    HW213917   4.230   3.135   5.917
 4340SOL     OW13918   6.960   3.238   0.717
 4340SOL    HW113919   7.018   3.309   0.755
 4340SOL    HW213920   6.980   3.151   0.763
 4341SOL     OW13921   0.611   5.939   2.508
 4341SOL    HW113922   0.607   5.960   2.410
 4341SOL    HW213923   0.572   6.014   2.560
 4342SOL     OW13924   5.196   3.756   2.701
 4342SOL    HW113925   5.207   3.818   2.778
 4342SOL    HW213926   5.212   3.805   2.615
 4343SOL     OW13927   4.283   0.578   6.242
 4343SOL    HW113928   4.285   0.665   6.192
 4343SOL    HW213929   4.189   0.559   6.271
 4344SOL     OW13930   0.009   2.569   3.688
 4344SOL    HW113931   6.964   2.629   3.731
 4344SOL    HW213932   6.988   2.516   3.615
 4345SOL     OW13933   2.873   3.579   2.150
 4345SOL    HW113934   2.820   3.503   2.188
 4345SOL    HW213935   2.864   3.580   2.051
 4346SOL     OW13936   1.807   3.656   2.050
 4346SOL    HW113937   1.886   3.705   2.087
 4346SOL    HW213938   1.833   3.610   1.965
 4347SOL     OW13939   6.156   4.886   1.610
 4347SOL    HW113940   6.159   4.971   1.558
 4347SOL    HW213941   6.183   4.904   1.705
 4348SOL     OW13942   5.719   6.251   4.255
 4348SOL    HW113943   5.749   6.293   4.170
 4348SOL    HW213944   5.799   6.220   4.307
 4349SOL     OW13945   0.317   3.693   4.116
 4349SOL    HW113946   0.275   3.680   4.026
 4349SOL    HW213947   0.364   3.608   4.143
 4350SOL     OW13948   4.581   0.999   4.931
 4350SOL    HW113949   4.652   0.985   5.001
 4350SOL    HW213950   4.611   0.958   4.845
 4351SOL     OW13951   1.123   6.596   0.805
 4351SOL    HW113952   1.194   6.542   0.850
 4351SOL    HW213953   1.084   6.543   0.730
 4352SOL     OW13954   4.151   3.745   1.256
 4352SOL    HW113955   4.206   3.814   1.208
 4352SOL    HW213956   4.212   3.686   1.310
 4353SOL     OW13957   3.027   2.669   1.066
 4353SOL    HW113958   2.967   2.741   1.030
 4353SOL    HW213959   2.978   2.615   1.134
 4354SOL     OW13960   5.817   6.884   4.265
 4354SOL    HW113961   5.765   6.946   4.207
 4354SOL    HW213962   5.872   6.823   4.207
 4355SOL     OW13963   1.390   6.468   3.313
 4355SOL    HW113964   1.409   6.374   3.341
 4355SOL    HW213965   1.399   6.529   3.391
 4356SOL     OW13966   5.005   2.267   6.806
 4356SOL    HW113967   4.945   2.293   6.882
 4356SOL    HW213968   5.051   2.181   6.828
 4357SOL     OW13969   6.804   0.864   2.142
 4357SOL    HW113970   6.853   0.860   2.055
 4357SOL    HW213971   6.707   0.879   2.126
 4358SOL     OW13972   1.249   0.458   0.228
 4358SOL    HW113973   1.156   0.467   0.193
 4358SOL    HW213974   1.291   0.375   0.191
 4359SOL     OW13975   2.188   1.257   6.888
 4359SOL    HW113976   2.194   1.199   6.969
 4359SOL    HW213977   2.182   1.353   6.916
 4360SOL     OW13978   1.363   2.753   3.441
 4360SOL    HW113979   1.338   2.719   3.350
 4360SOL    HW213980   1.422   2.687   3.487
 4361SOL     OW13981   0.416   1.363   1.130
 4361SOL    HW113982   0.442   1.459   1.119
 4361SOL    HW213983   0.485   1.305   1.088
 4362SOL     OW13984   1.030   5.805   4.043
 4362SOL    HW113985   0.979   5.798   4.129
 4362SOL    HW213986   0.974   5.773   3.967
 4363SOL     OW13987   4.953   0.827   2.324
 4363SOL    HW113988   4.991   0.739   2.353
 4363SOL    HW213989   4.912   0.817   2.233
 4364SOL     OW13990   3.563   4.002   2.830
 4364SOL    HW113991   3.545   3.918   2.883
 4364SOL    HW213992   3.652   4.039   2.858
 4365SOL     OW13993   2.944   2.101   1.951
 4365SOL    HW113994   2.869   2.065   2.007
 4365SOL    HW213995   2.957   2.198   1.970
 4366SOL     OW13996   4.407   6.405   4.647
 4366SOL    HW113997   4.436   6.329   4.588
 4366SOL    HW213998   4.456   6.488   4.621
 4367SOL     OW13999   3.067   5.215   4.294
 4367SOL    HW114000   3.062   5.232   4.195
 4367SOL    HW214001   3.046   5.119   4.312
 4368SOL     OW14002   4.716   4.522   2.510
 4368SOL    HW114003   4.794   4.533   2.571
 4368SOL    HW214004   4.734   4.450   2.444
 4369SOL     OW14005   3.949   5.070   2.974
 4369SOL    HW114006   4.021   5.116   2.923
 4369SOL    HW214007   3.964   4.971   2.973
 4370SOL     OW14008   3.773   4.630   1.389
 4370SOL    HW114009   3.790   4.548   1.444
 4370SOL    HW214010   3.851   4.646   1.329
 4371SOL     OW14011   2.911   0.701   1.615
 4371SOL    HW114012   2.830   0.645   1.627
 4371SOL    HW214013   2.966   0.665   1.540
 4372SOL     OW14014   2.193   3.233   4.908
 4372SOL    HW114015   2.202   3.313   4.968
 4372SOL    HW214016   2.248   3.158   4.945
 4373SOL     OW14017   4.628   1.142   5.842
 4373SOL    HW114018   4.695   1.130   5.769
 4373SOL    HW214019   4.636   1.066   5.907
 4374SOL     OW14020   2.566   1.215   1.095
 4374SOL    HW114021   2.468   1.230   1.083
 4374SOL    HW214022   2.592   1.126   1.057
 4375SOL     OW14023   3.946   0.556   3.185
 4375SOL    HW114024   3.971   0.632   3.245
 4375SOL    HW214025   3.848   0.538   3.193
 4376SOL     OW14026   6.411   6.747   1.451
 4376SOL    HW114027   6.391   6.837   1.413
 4376SOL    HW214028   6.436   6.684   1.377
 4377SOL     OW14029   6.194   6.552   6.573
 4377SOL    HW114030   6.193   6.584   6.478
 4377SOL    HW214031   6.285   6.515   6.594
 4378SOL     OW14032   1.860   5.364   2.420
 4378SOL    HW114033   1.769   5.397   2.393
 4378SOL    HW214034   1.865   5.359   2.520
 4379SOL     OW14035   1.271   1.422   1.714
 4379SOL    HW114036   1.301   1.332   1.745
 4379SOL    HW214037   1.350   1.484   1.714
 4380SOL     OW14038   1.507   6.413   5.218
 4380SOL    HW114039   1.479   6.478   5.147
 4380SOL    HW214040   1.572   6.348   5.179
 4381SOL     OW14041   3.382   6.707   5.077
 4381SOL    HW114042   3.375   6.802   5.108
 4381SOL    HW214043   3.476   6.676   5.086
 4382SOL     OW14044   5.396   3.961   4.564
 4382SOL    HW114045   5.491   3.973   4.532
 4382SOL    HW214046   5.371   3.865   4.558
 4383SOL     OW14047   1.121   2.610   5.901
 4383SOL    HW114048   1.136   2.553   5.820
 4383SOL    HW214049   1.023   2.627   5.912
 4384SOL     OW14050   3.711   6.574   1.301
 4384SOL    HW114051   3.788   6.608   1.248
 4384SOL    HW214052   3.631   6.633   1.287
 4385SOL     OW14053   0.500   2.122   2.398
 4385SOL    HW114054   0.581   2.116   2.339
 4385SOL    HW214055   0.505   2.053   2.470
 4386SOL     OW14056   0.723   3.247   6.607
 4386SOL    HW114057   0.694   3.282   6.697
 4386SOL    HW214058   0.813   3.203   6.616
 4387SOL     OW14059   6.969   3.336   1.573
 4387SOL    HW114060   6.943   3.423   1.532
 4387SOL    HW214061   0.035   3.345   1.618
 4388SOL     OW14062   3.665   0.628   6.205
 4388SOL    HW114063   3.659   0.533   6.233
 4388SOL    HW214064   3.573   0.669   6.207
 4389SOL     OW14065   5.749   2.364   2.502
 4389SOL    HW114066   5.736   2.329   2.410
 4389SOL    HW214067   5.831   2.422   2.504
 4390SOL     OW14068   4.779   2.812   2.100
 4390SOL    HW114069   4.833   2.835   2.182
 4390SOL    HW214070   4.780   2.890   2.037
 4391SOL     OW14071   0.552   5.368   0.226
 4391SOL    HW114072   0.638   5.360   0.174
 4391SOL    HW214073   0.552   5.455   0.276
 4392SOL     OW14074   4.924   3.419   4.486
 4392SOL    HW114075   5.020   3.392   4.476
 4392SOL    HW214076   4.908   3.454   4.578
 4393SOL     OW14077   4.995   6.944   3.269
 4393SOL    HW114078   5.023   6.849   3.284
 4393SOL    HW214079   5.042   6.981   3.188
 4394SOL     OW14080   5.075   0.053   2.342
 4394SOL    HW114081   5.137   0.123   2.307
 4394SOL    HW214082   4.983   0.092   2.353
 4395SOL     OW14083   4.986   1.483   1.649
 4395SOL    HW114084   5.033   1.462   1.735
 4395SOL    HW214085   4.910   1.545   1.666
 4396SOL     OW14086   0.737   1.024   4.500
 4396SOL    HW114087   0.695   1.098   4.447
 4396SOL    HW214088   0.729   1.044   4.597
 4397SOL     OW14089   0.227   0.362   4.634
 4397SOL    HW114090   0.242   0.328   4.541
 4397SOL    HW214091   0.307   0.415   4.663
 4398SOL     OW14092   0.118   4.874   4.276
 4398SOL    HW114093   0.114   4.929   4.359
 4398SOL    HW214094   0.058   4.913   4.206
 4399SOL     OW14095   1.928   1.603   0.765
 4399SOL    HW114096   2.020   1.577   0.792
 4399SOL    HW214097   1.914   1.701   0.782
 4400SOL     OW14098   3.206   6.520   4.458
 4400SOL    HW114099   3.137   6.579   4.498
 4400SOL    HW214100   3.263   6.481   4.531
 4401SOL     OW14101   5.826   5.797   4.283
 4401SOL    HW114102   5.890   5.861   4.325
 4401SOL    HW214103   5.739   5.799   4.333
 4402SOL     OW14104   0.878   5.955   2.781
 4402SOL    HW114105   0.785   5.972   2.813
 4402SOL    HW214106   0.894   6.006   2.697
 4403SOL     OW14107   0.350   0.392   2.966
 4403SOL    HW114108   0.396   0.481   2.964
 4403SOL    HW214109   0.294   0.385   3.048
 4404SOL     OW14110   0.629   3.623   2.968
 4404SOL    HW114111   0.713   3.596   3.016
 4404SOL    HW214112   0.561   3.551   2.976
 4405SOL     OW14113   3.311   4.541   5.668
 4405SOL    HW114114   3.243   4.577   5.732
 4405SOL    HW214115   3.340   4.613   5.606
 4406SOL     OW14116   5.610   3.881   1.374
 4406SOL    HW114117   5.583   3.785   1.381
 4406SOL    HW214118   5.535   3.939   1.407
 4407SOL     OW14119   6.622   0.102   6.789
 4407SOL    HW114120   6.588   0.162   6.862
 4407SOL    HW214121   6.690   0.152   6.735
 4408SOL     OW14122   4.766   0.170   6.914
 4408SOL    HW114123   4.854   0.138   6.879
 4408SOL    HW214124   4.777   0.261   6.953
 4409SOL     OW14125   3.538   0.249   2.209
 4409SOL    HW114126   3.504   0.158   2.232
 4409SOL    HW214127   3.460   0.308   2.187
 4410SOL     OW14128   2.253   5.611   1.154
 4410SOL    HW114129   2.221   5.564   1.236
 4410SOL    HW214130   2.175   5.651   1.105
 4411SOL     OW14131   3.323   3.194   2.659
 4411SOL    HW114132   3.337   3.230   2.566
 4411SOL    HW214133   3.282   3.103   2.653
 4412SOL     OW14134   4.200   1.029   6.477
 4412SOL    HW114135   4.210   1.089   6.398
 4412SOL    HW214136   4.263   0.952   6.469
 4413SOL     OW14137   4.222   5.632   4.381
 4413SOL    HW114138   4.159   5.661   4.308
 4413SOL    HW214139   4.300   5.694   4.384
 4414SOL     OW14140   4.244   4.833   1.860
 4414SOL    HW114141   4.336   4.794   1.853
 4414SOL    HW214142   4.178   4.772   1.816
 4415SOL     OW14143   4.831   3.283   6.473
 4415SOL    HW114144   4.833   3.184   6.460
 4415SOL    HW214145   4.920   3.314   6.505
 4416SOL     OW14146   3.250   0.779   4.710
 4416SOL    HW114147   3.318   0.851   4.694
 4416SOL    HW214148   3.283   0.693   4.673
 4417SOL     OW14149   6.948   5.476   2.131
 4417SOL    HW114150   6.857   5.510   2.156
 4417SOL    HW214151   6.946   5.376   2.129
 4418SOL     OW14152   4.434   6.553   3.859
 4418SOL    HW114153   4.347   6.602   3.868
 4418SOL    HW214154   4.460   6.514   3.947
 4419SOL     OW14155   0.049   4.914   0.281
 4419SOL    HW114156   0.149   4.905   0.284
 4419SOL    HW214157   0.025   5.011   0.283
 4420SOL     OW14158   5.073   1.470   0.154
 4420SOL    HW114159   5.110   1.524   0.078
 4420SOL    HW214160   5.147   1.416   0.195
 4421SOL     OW14161   1.493   1.977   3.060
 4421SOL    HW114162   1.417   1.982   3.125
 4421SOL    HW214163   1.458   1.964   2.968
 4422SOL     OW14164   2.740   3.966   6.276
 4422SOL    HW114165   2.811   4.020   6.320
 4422SOL    HW214166   2.723   4.000   6.184
 4423SOL     OW14167   1.335   2.155   6.597
 4423SOL    HW114168   1.292   2.119   6.514
 4423SOL    HW214169   1.319   2.254   6.602
 4424SOL     OW14170   6.013   6.496   2.947
 4424SOL    HW114171   6.040   6.592   2.940
 4424SOL    HW214172   5.985   6.476   3.041
 4425SOL     OW14173   3.929   4.797   6.385
 4425SOL    HW114174   3.887   4.887   6.373
 4425SOL    HW214175   4.018   4.796   6.340
 4426SOL     OW14176   0.105   0.613   5.613
 4426SOL    HW114177   0.112   0.671   5.693
 4426SOL    HW214178   0.183   0.550   5.610
 4427SOL     OW14179   0.827   0.481   3.283
 4427SOL    HW114180   0.918   0.450   3.311
 4427SOL    HW214181   0.829   0.579   3.265
 4428SOL     OW14182   2.079   5.474   4.247
 4428SOL    HW114183   2.149   5.405   4.268
 4428SOL    HW214184   1.991   5.429   4.231
 4429SOL     OW14185   3.653   6.914   3.569
 4429SOL    HW114186   3.697   6.899   3.658
 4429SOL    HW214187   3.557   6.887   3.574
 4430SOL     OW14188   2.707   1.069   2.369
 4430SOL    HW114189   2.752   0.980   2.373
 4430SOL    HW214190   2.609   1.057   2.354
 4431SOL     OW14191   3.208   1.586   3.725
 4431SOL    HW114192   3.170   1.505   3.682
 4431SOL    HW214193   3.134   1.640   3.765
 4432SOL     OW14194   2.908   3.395   2.768
 4432SOL    HW114195   2.974   3.415   2.696
 4432SOL    HW214196   2.890   3.297   2.770
 4433SOL     OW14197   6.205   6.532   2.573
 4433SOL    HW114198   6.270   6.459   2.554
 4433SOL    HW214199   6.255   6.613   2.604
 4434SOL     OW14200   5.514   1.999   3.893
 4434SOL    HW114201   5.599   2.051   3.900
 4434SOL    HW214202   5.456   2.019   3.972
 4435SOL     OW14203   3.743   2.969   1.824
 4435SOL    HW114204   3.821   3.006   1.874
 4435SOL    HW214205   3.699   2.898   1.880
 4436SOL     OW14206   4.099   1.677   6.883
 4436SOL    HW114207   4.073   1.627   6.801
 4436SOL    HW214208   4.198   1.693   6.883
 4437SOL     OW14209   3.647   0.639   4.452
 4437SOL    HW114210   3.628   0.548   4.489
 4437SOL    HW214211   3.716   0.684   4.510
 4438SOL     OW14212   4.062   2.790   6.673
 4438SOL    HW114213   3.983   2.744   6.633
 4438SOL    HW214214   4.128   2.721   6.705
 4439SOL     OW14215   1.572   5.569   2.593
 4439SOL    HW114216   1.504   5.637   2.566
 4439SOL    HW214217   1.538   5.477   2.570
 4440SOL     OW14218   1.231   6.327   6.446
 4440SOL    HW114219   1.292   6.405   6.453
 4440SOL    HW214220   1.284   6.242   6.443
 4441SOL     OW14221   5.112   2.540   2.410
 4441SOL    HW114222   5.160   2.550   2.323
 4441SOL    HW214223   5.171   2.571   2.485
 4442SOL     OW14224   3.840   5.481   3.984
 4442SOL    HW114225   3.903   5.420   4.032
 4442SOL    HW214226   3.758   5.430   3.957
 4443SOL     OW14227   2.672   2.085   6.087
 4443SOL    HW114228   2.625   2.144   6.022
 4443SOL    HW214229   2.622   1.998   6.095
 4444SOL     OW14230   4.591   6.978   0.682
 4444SOL    HW114231   4.538   6.932   0.754
 4444SOL    HW214232   4.672   7.019   0.723
 4445SOL     OW14233   1.203   0.873   6.161
 4445SOL    HW114234   1.198   0.972   6.150
 4445SOL    HW214235   1.247   0.832   6.082
 4446SOL     OW14236   6.048   0.356   3.158
 4446SOL    HW114237   6.039   0.418   3.236
 4446SOL    HW214238   6.113   0.283   3.181
 4447SOL     OW14239   5.441   1.981   5.913
 4447SOL    HW114240   5.484   1.961   5.824
 4447SOL    HW214241   5.455   2.078   5.934
 4448SOL     OW14242   2.544   3.430   6.410
 4448SOL    HW114243   2.455   3.434   6.365
 4448SOL    HW214244   2.617   3.451   6.345
 4449SOL     OW14245   2.571   0.970   5.064
 4449SOL    HW114246   2.612   0.879   5.071
 4449SOL    HW214247   2.591   1.009   4.974
 4450SOL     OW14248   3.697   2.891   3.067
 4450SOL    HW114249   3.598   2.903   3.056
 4450SOL    HW214250   3.741   2.893   2.977
 4451SOL     OW14251   6.756   4.862   2.249
 4451SOL    HW114252   6.662   4.830   2.238
 4451SOL    HW214253   6.759   4.962   2.246
 4452SOL     OW14254   6.349   6.117   6.142
 4452SOL    HW114255   6.350   6.216   6.155
 4452SOL    HW214256   6.329   6.072   6.229
 4453SOL     OW14257   5.271   2.261   1.329
 4453SOL    HW114258   5.251   2.170   1.292
 4453SOL    HW214259   5.205   2.326   1.293
 4454SOL     OW14260   5.232   2.880   1.272
 4454SOL    HW114261   5.321   2.883   1.227
 4454SOL    HW214262   5.172   2.816   1.223
 4455SOL     OW14263   3.834   0.915   2.649
 4455SOL    HW114264   3.770   0.838   2.641
 4455SOL    HW214265   3.848   0.955   2.559
 4456SOL     OW14266   1.484   5.266   3.312
 4456SOL    HW114267   1.516   5.350   3.354
 4456SOL    HW214268   1.483   5.192   3.380
 4457SOL     OW14269   4.852   1.868   6.843
 4457SOL    HW114270   4.934   1.914   6.877
 4457SOL    HW214271   4.820   1.802   6.911
 4458SOL     OW14272   2.923   2.088   6.260
 4458SOL    HW114273   2.865   2.074   6.179
 4458SOL    HW214274   2.965   2.178   6.255
 4459SOL     OW14275   4.474   6.318   4.898
 4459SOL    HW114276   4.393   6.343   4.950
 4459SOL    HW214277   4.469   6.359   4.806
 4460SOL     OW14278   2.562   2.832   6.550
 4460SOL    HW114279   2.497   2.791   6.614
 4460SOL    HW214280   2.588   2.764   6.481
 4461SOL     OW14281   1.948   6.808   2.373
 4461SOL    HW114282   1.977   6.867   2.448
 4461SOL    HW214283   1.866   6.757   2.401
 4462SOL     OW14284   6.375   5.625   0.547
 4462SOL    HW114285   6.457   5.682   0.561
 4462SOL    HW214286   6.403   5.530   0.536
 4463SOL     OW14287   1.696   3.342   6.170
 4463SOL    HW114288   1.793   3.343   6.192
 4463SOL    HW214289   1.682   3.296   6.083
 4464SOL     OW14290   5.710   3.428   6.133
 4464SOL    HW114291   5.788   3.387   6.181
 4464SOL    HW214292   5.642   3.457   6.200
 4465SOL     OW14293   1.620   6.074   1.997
 4465SOL    HW114294   1.617   6.032   1.907
 4465SOL    HW214295   1.656   6.167   1.989
 4466SOL     OW14296   1.278   1.428   2.653
 4466SOL    HW114297   1.281   1.497   2.725
 4466SOL    HW214298   1.186   1.390   2.647
 4467SOL     OW14299   1.497   6.789   2.963
 4467SOL    HW114300   1.454   6.874   2.994
 4467SOL    HW214301   1.565   6.760   3.031
 4468SOL     OW14302   1.295   2.803   0.475
 4468SOL    HW114303   1.383   2.758   0.488
 4468SOL    HW214304   1.225   2.734   0.457
 4469SOL     OW14305   3.766   0.058   1.125
 4469SOL    HW114306   3.698   0.070   1.197
 4469SOL    HW214307   3.721   0.062   1.036
 4470SOL     OW14308   4.877   3.836   1.742
 4470SOL    HW114309   4.890   3.752   1.794
 4470SOL    HW214310   4.823   3.901   1.795
 4471SOL     OW14311   6.985   2.897   1.460
 4471SOL    HW114312   6.966   2.992   1.436
 4471SOL    HW214313   0.056   2.873   1.434
 4472SOL     OW14314   1.958   3.984   1.961
 4472SOL    HW114315   1.985   3.894   1.925
 4472SOL    HW214316   2.009   4.003   2.044
 4473SOL     OW14317   6.566   6.887   4.287
 4473SOL    HW114318   6.468   6.867   4.287
 4473SOL    HW214319   6.584   6.970   4.340
 4474SOL     OW14320   3.994   0.325   2.766
 4474SOL    HW114321   4.083   0.369   2.784
 4474SOL    HW214322   3.941   0.382   2.703
 4475SOL     OW14323   1.684   4.648   0.689
 4475SOL    HW114324   1.594   4.691   0.685
 4475SOL    HW214325   1.755   4.718   0.679
 4476SOL     OW14326   4.651   6.455   1.937
 4476SOL    HW114327   4.746   6.427   1.928
 4476SOL    HW214328   4.591   6.377   1.920
 4477SOL     OW14329   1.766   1.253   0.132
 4477SOL    HW114330   1.813   1.172   0.169
 4477SOL    HW214331   1.833   1.314   0.090
 4478SOL     OW14332   2.405   6.600   2.532
 4478SOL    HW114333   2.367   6.594   2.624
 4478SOL    HW214334   2.505   6.607   2.538
 4479SOL     OW14335   1.278   0.127   5.707
 4479SOL    HW114336   1.306   0.175   5.624
 4479SOL    HW214337   1.320   0.169   5.787
 4480SOL     OW14338   1.153   5.050   4.800
 4480SOL    HW114339   1.113   5.001   4.877
 4480SOL    HW214340   1.120   5.145   4.800
 4481SOL     OW14341   0.940   6.177   3.847
 4481SOL    HW114342   1.003   6.140   3.915
 4481SOL    HW214343   0.981   6.168   3.756
 4482SOL     OW14344   0.156   4.491   3.560
 4482SOL    HW114345   0.168   4.588   3.582
 4482SOL    HW214346   0.227   4.438   3.605
 4483SOL     OW14347   5.340   3.132   1.624
 4483SOL    HW114348   5.289   3.163   1.705
 4483SOL    HW214349   5.349   3.033   1.626
 4484SOL     OW14350   3.522   2.570   5.504
 4484SOL    HW114351   3.435   2.524   5.521
 4484SOL    HW214352   3.520   2.612   5.413
 4485SOL     OW14353   4.992   1.573   6.791
 4485SOL    HW114354   4.900   1.535   6.779
 4485SOL    HW214355   4.987   1.673   6.786
 4486SOL     OW14356   6.537   3.735   5.015
 4486SOL    HW114357   6.545   3.640   5.045
 4486SOL    HW214358   6.445   3.751   4.979
 4487SOL     OW14359   3.129   3.576   6.094
 4487SOL    HW114360   3.207   3.517   6.114
 4487SOL    HW214361   3.067   3.528   6.032
 4488SOL     OW14362   6.218   1.727   5.307
 4488SOL    HW114363   6.125   1.740   5.273
 4488SOL    HW214364   6.267   1.665   5.246
 4489SOL     OW14365   5.822   5.812   4.600
 4489SOL    HW114366   5.729   5.835   4.571
 4489SOL    HW214367   5.837   5.714   4.588
 4490SOL     OW14368   6.270   1.970   2.709
 4490SOL    HW114369   6.334   1.915   2.762
 4490SOL    HW214370   6.238   1.918   2.630
 4491SOL     OW14371   1.015   3.605   2.723
 4491SOL    HW114372   1.019   3.628   2.820
 4491SOL    HW214373   1.081   3.532   2.703
 4492SOL     OW14374   4.402   2.424   0.475
 4492SOL    HW114375   4.462   2.414   0.395
 4492SOL    HW214376   4.307   2.431   0.445
 4493SOL     OW14377   5.371   5.203   4.927
 4493SOL    HW114378   5.443   5.139   4.900
 4493SOL    HW214379   5.411   5.275   4.983
 4494SOL     OW14380   0.109   4.418   5.144
 4494SOL    HW114381   0.193   4.439   5.094
 4494SOL    HW214382   0.102   4.319   5.158
 4495SOL     OW14383   4.997   6.645   1.761
 4495SOL    HW114384   4.991   6.721   1.826
 4495SOL    HW214385   4.909   6.632   1.717
 4496SOL     OW14386   5.389   3.796   5.586
 4496SOL    HW114387   5.400   3.720   5.649
 4496SOL    HW214388   5.339   3.870   5.631
 4497SOL     OW14389   5.982   5.096   0.108
 4497SOL    HW114390   6.004   5.032   0.034
 4497SOL    HW214391   5.958   5.045   0.190
 4498SOL     OW14392   0.354   3.437   6.778
 4498SOL    HW114393   0.403   3.415   6.694
 4498SOL    HW214394   0.321   3.353   6.821
 4499SOL     OW14395   6.905   3.369   5.549
 4499SOL    HW114396   6.960   3.286   5.538
 4499SOL    HW214397   6.937   3.421   5.628
 4500SOL     OW14398   3.046   3.902   4.606
 4500SOL    HW114399   3.014   3.826   4.550
 4500SOL    HW214400   3.098   3.866   4.684
 4501SOL     OW14401   0.445   4.909   5.241
 4501SOL    HW114402   0.356   4.950   5.224
 4501SOL    HW214403   0.504   4.974   5.289
 4502SOL     OW14404   1.565   2.439   6.962
 4502SOL    HW114405   1.473   2.400   6.965
 4502SOL    HW214406   1.627   2.380   7.014
 4503SOL     OW14407   1.690   1.230   3.967
 4503SOL    HW114408   1.750   1.258   3.893
 4503SOL    HW214409   1.600   1.206   3.930
 4504SOL     OW14410   5.640   2.737   5.375
 4504SOL    HW114411   5.729   2.777   5.352
 4504SOL    HW214412   5.584   2.730   5.293
 4505SOL     OW14413   1.812   6.386   5.167
 4505SOL    HW114414   1.751   6.320   5.121
 4505SOL    HW214415   1.771   6.413   5.254
 4506SOL     OW14416   4.090   1.058   5.162
 4506SOL    HW114417   4.066   1.012   5.248
 4506SOL    HW214418   4.187   1.045   5.144
 4507SOL     OW14419   4.869   4.014   0.977
 4507SOL    HW114420   4.959   4.057   0.987
 4507SOL    HW214421   4.815   4.064   0.910
 4508SOL     OW14422   1.247   3.728   6.988
 4508SOL    HW114423   1.231   3.629   6.986
 4508SOL    HW214424   1.313   3.752   6.917
 4509SOL     OW14425   3.191   1.732   4.556
 4509SOL    HW114426   3.188   1.664   4.483
 4509SOL    HW214427   3.120   1.713   4.623
 4510SOL     OW14428   5.211   6.968   5.255
 4510SOL    HW114429   5.289   6.958   5.194
 4510SOL    HW214430   5.153   0.021   5.222
 4511SOL     OW14431   6.516   2.427   0.500
 4511SOL    HW114432   6.608   2.462   0.513
 4511SOL    HW214433   6.488   2.375   0.581
 4512SOL     OW14434   2.136   6.011   6.514
 4512SOL    HW114435   2.143   6.032   6.416
 4512SOL    HW214436   2.228   6.008   6.554
 4513SOL     OW14437   4.969   6.860   1.949
 4513SOL    HW114438   4.902   6.869   2.023
 4513SOL    HW214439   4.968   6.943   1.893
 4514SOL     OW14440   3.151   1.109   5.017
 4514SOL    HW114441   3.223   1.167   5.056
 4514SOL    HW214442   3.080   1.094   5.086
 4515SOL     OW14443   0.174   4.873   0.527
 4515SOL    HW114444   0.222   4.799   0.575
 4515SOL    HW214445   0.108   4.834   0.463
 4516SOL     OW14446   0.936   1.091   5.067
 4516SOL    HW114447   0.972   1.092   4.974
 4516SOL    HW214448   0.991   1.028   5.123
 4517SOL     OW14449   3.860   6.864   6.373
 4517SOL    HW114450   3.865   6.765   6.358
 4517SOL    HW214451   3.950   6.900   6.396
 4518SOL     OW14452   1.309   1.969   3.914
 4518SOL    HW114453   1.338   1.882   3.874
 4518SOL    HW214454   1.209   1.973   3.916
 4519SOL     OW14455   0.087   2.927   3.895
 4519SOL    HW114456   0.085   3.024   3.871
 4519SOL    HW214457   0.180   2.892   3.880
 4520SOL     OW14458   6.889   4.436   2.927
 4520SOL    HW114459   6.935   4.469   3.010
 4520SOL    HW214460   6.848   4.513   2.878
 4521SOL     OW14461   5.008   2.640   0.013
 4521SOL    HW114462   5.103   2.609   0.009
 4521SOL    HW214463   4.949   2.568   6.998
 4522SOL     OW14464   6.464   6.652   3.523
 4522SOL    HW114465   6.396   6.696   3.582
 4522SOL    HW214466   6.457   6.553   3.533
 4523SOL     OW14467   3.270   4.516   0.332
 4523SOL    HW114468   3.362   4.512   0.370
 4523SOL    HW214469   3.249   4.429   0.286
 4524SOL     OW14470   5.212   0.932   5.219
 4524SOL    HW114471   5.172   0.862   5.160
 4524SOL    HW214472   5.165   0.933   5.307
 4525SOL     OW14473   6.106   1.411   4.543
 4525SOL    HW114474   6.010   1.384   4.532
 4525SOL    HW214475   6.156   1.338   4.589
 4526SOL     OW14476   4.890   6.783   0.423
 4526SOL    HW114477   4.793   6.759   0.415
 4526SOL    HW214478   4.926   6.747   0.509
 4527SOL     OW14479   5.127   1.156   2.943
 4527SOL    HW114480   5.042   1.205   2.964
 4527SOL    HW214481   5.112   1.093   2.867
 4528SOL     OW14482   5.766   0.218   0.449
 4528SOL    HW114483   5.811   0.269   0.376
 4528SOL    HW214484   5.822   0.139   0.474
 4529SOL     OW14485   2.977   0.177   3.257
 4529SOL    HW114486   2.913   0.254   3.259
 4529SOL    HW214487   3.048   0.191   3.326
 4530SOL     OW14488   0.518   3.216   5.333
 4530SOL    HW114489   0.564   3.128   5.345
 4530SOL    HW214490   0.513   3.263   5.421
 4531SOL     OW14491   0.958   3.169   3.635
 4531SOL    HW114492   1.012   3.101   3.685
 4531SOL    HW214493   0.910   3.125   3.559
 4532SOL     OW14494   6.295   1.171   1.028
 4532SOL    HW114495   6.350   1.100   1.071
 4532SOL    HW214496   6.353   1.228   0.970
 4533SOL     OW14497   1.608   6.483   2.743
 4533SOL    HW114498   1.676   6.417   2.775
 4533SOL    HW214499   1.520   6.436   2.730
 4534SOL     OW14500   6.632   4.239   5.102
 4534SOL    HW114501   6.587   4.150   5.118
 4534SOL    HW214502   6.716   4.224   5.050
 4535SOL     OW14503   4.860   3.283   1.811
 4535SOL    HW114504   4.925   3.252   1.880
 4535SOL    HW214505   4.780   3.223   1.811
 4536SOL     OW14506   5.836   1.125   4.830
 4536SOL    HW114507   5.807   1.206   4.882
 4536SOL    HW214508   5.908   1.078   4.879
 4537SOL     OW14509   4.074   3.082   0.089
 4537SOL    HW114510   4.065   3.180   0.069
 4537SOL    HW214511   4.129   3.039   0.018
 4538SOL     OW14512   3.173   1.370   3.247
 4538SOL    HW114513   3.206   1.446   3.302
 4538SOL    HW214514   3.245   1.302   3.236
 4539SOL     OW14515   2.177   1.822   3.502
 4539SOL    HW114516   2.231   1.900   3.470
 4539SOL    HW214517   2.231   1.769   3.567
 4540SOL     OW14518   3.334   2.913   4.519
 4540SOL    HW114519   3.377   2.823   4.511
 4540SOL    HW214520   3.374   2.962   4.597
 4541SOL     OW14521   4.897   1.796   0.588
 4541SOL    HW114522   4.929   1.890   0.575
 4541SOL    HW214523   4.973   1.739   0.620
 4542SOL     OW14524   6.011   6.362   2.079
 4542SOL    HW114525   6.067   6.309   2.015
 4542SOL    HW214526   6.034   6.335   2.173
 4543SOL     OW14527   5.135   1.815   1.044
 4543SOL    HW114528   5.117   1.886   1.113
 4543SOL    HW214529   5.051   1.766   1.024
 4544SOL     OW14530   3.070   5.627   6.826
 4544SOL    HW114531   3.044   5.579   6.742
 4544SOL    HW214532   3.145   5.690   6.806
 4545SOL     OW14533   4.176   2.071   5.251
 4545SOL    HW114534   4.210   2.001   5.314
 4545SOL    HW214535   4.203   2.161   5.284
 4546SOL     OW14536   0.595   6.833   6.687
 4546SOL    HW114537   0.533   6.760   6.657
 4546SOL    HW214538   0.635   6.808   6.775
 4547SOL     OW14539   5.635   2.665   1.386
 4547SOL    HW114540   5.572   2.605   1.436
 4547SOL    HW214541   5.713   2.687   1.444
 4548SOL     OW14542   0.545   4.274   3.490
 4548SOL    HW114543   0.507   4.230   3.408
 4548SOL    HW214544   0.582   4.364   3.465
 4549SOL     OW14545   6.759   3.622   2.892
 4549SOL    HW114546   6.673   3.591   2.852
 4549SOL    HW214547   6.836   3.592   2.835
 4550SOL     OW14548   0.982   6.049   3.163
 4550SOL    HW114549   0.884   6.047   3.143
 4550SOL    HW214550   0.996   6.032   3.261
 4551SOL     OW14551   0.907   2.953   5.282
 4551SOL    HW114552   0.947   3.043   5.267
 4551SOL    HW214553   0.868   2.949   5.374
 4552SOL     OW14554   0.889   3.175   5.047
 4552SOL    HW114555   0.800   3.204   5.081
 4552SOL    HW214556   0.959   3.194   5.116
 4553SOL     OW14557   4.424   5.071   0.474
 4553SOL    HW114558   4.492   5.010   0.515
 4553SOL    HW214559   4.375   5.022   0.401
 4554SOL     OW14560   3.996   6.913   2.956
 4554SOL    HW114561   4.059   6.893   2.881
 4554SOL    HW214562   3.974   6.829   3.005
 4555SOL     OW14563   4.861   2.404   7.010
 4555SOL    HW114564   4.839   2.444   0.077
 4555SOL    HW214565   4.783   2.414   6.948
 4556SOL     OW14566   4.400   0.159   3.694
 4556SOL    HW114567   4.403   0.063   3.667
 4556SOL    HW214568   4.370   0.216   3.617
 4557SOL     OW14569   5.544   6.932   5.807
 4557SOL    HW114570   5.572   6.927   5.903
 4557SOL    HW214571   5.482   6.856   5.786
 4558SOL     OW14572   6.333   3.599   6.377
 4558SOL    HW114573   6.264   3.570   6.311
 4558SOL    HW214574   6.288   3.636   6.458
 4559SOL     OW14575   1.650   6.717   1.476
 4559SOL    HW114576   1.749   6.706   1.472
 4559SOL    HW214577   1.614   6.730   1.384
 4560SOL     OW14578   5.406   3.098   2.646
 4560SOL    HW114579   5.336   3.027   2.641
 4560SOL    HW214580   5.374   3.180   2.599
 4561SOL     OW14581   3.054   0.806   6.732
 4561SOL    HW114582   2.988   0.879   6.750
 4561SOL    HW214583   3.008   0.730   6.687
 4562SOL     OW14584   2.965   5.720   6.561
 4562SOL    HW114585   2.968   5.638   6.504
 4562SOL    HW214586   2.908   5.703   6.641
 4563SOL     OW14587   5.352   1.324   0.526
 4563SOL    HW114588   5.405   1.342   0.609
 4563SOL    HW214589   5.355   1.404   0.466
 4564SOL     OW14590   1.025   5.801   0.387
 4564SOL    HW114591   0.925   5.794   0.391
 4564SOL    HW214592   1.051   5.894   0.359
 4565SOL     OW14593   0.619   0.922   5.284
 4565SOL    HW114594   0.655   0.874   5.204
 4565SOL    HW214595   0.551   0.864   5.330
 4566SOL     OW14596   0.428   0.775   6.563
 4566SOL    HW114597   0.457   0.679   6.573
 4566SOL    HW214598   0.508   0.831   6.542
 4567SOL     OW14599   6.392   1.569   0.777
 4567SOL    HW114600   6.372   1.571   0.875
 4567SOL    HW214601   6.487   1.598   0.762
 4568SOL     OW14602   3.257   4.317   5.458
 4568SOL    HW114603   3.262   4.404   5.507
 4568SOL    HW214604   3.261   4.241   5.524
 4569SOL     OW14605   1.300   1.666   4.377
 4569SOL    HW114606   1.279   1.592   4.313
 4569SOL    HW214607   1.215   1.709   4.408
 4570SOL     OW14608   0.092   5.805   3.313
 4570SOL    HW114609   0.027   5.852   3.253
 4570SOL    HW214610   0.145   5.872   3.364
 4571SOL     OW14611   3.122   3.444   4.377
 4571SOL    HW114612   3.103   3.381   4.302
 4571SOL    HW214613   3.218   3.439   4.402
 4572SOL     OW14614   1.288   6.908   1.213
 4572SOL    HW114615   1.252   6.954   1.295
 4572SOL    HW214616   1.375   6.863   1.236
 4573SOL     OW14617   6.028   5.752   1.262
 4573SOL    HW114618   5.989   5.839   1.292
 4573SOL    HW214619   6.126   5.764   1.245
 4574SOL     OW14620   6.944   4.266   1.611
 4574SOL    HW114621   7.010   4.191   1.618
 4574SOL    HW214622   6.878   4.246   1.538
 4575SOL     OW14623   6.500   1.594   1.299
 4575SOL    HW114624   6.475   1.501   1.327
 4575SOL    HW214625   6.499   1.654   1.379
 4576SOL     OW14626   3.189   5.889   6.502
 4576SOL    HW114627   3.104   5.854   6.539
 4576SOL    HW214628   3.186   5.989   6.499
 4577SOL     OW14629   1.002   3.581   3.332
 4577SOL    HW114630   1.091   3.577   3.287
 4577SOL    HW214631   1.010   3.541   3.424
 4578SOL     OW14632   0.203   3.354   3.513
 4578SOL    HW114633   0.205   3.397   3.422
 4578SOL    HW214634   0.153   3.413   3.576
 4579SOL     OW14635   5.222   1.838   3.303
 4579SOL    HW114636   5.215   1.888   3.389
 4579SOL    HW214637   5.304   1.866   3.254
 4580SOL     OW14638   5.693   5.739   0.666
 4580SOL    HW114639   5.622   5.806   0.645
 4580SOL    HW214640   5.682   5.707   0.760
 4581SOL     OW14641   2.970   5.326   3.454
 4581SOL    HW114642   3.029   5.247   3.464
 4581SOL    HW214643   3.017   5.396   3.400
 4582SOL     OW14644   5.180   6.624   2.990
 4582SOL    HW114645   5.176   6.650   3.086
 4582SOL    HW214646   5.110   6.674   2.939
 4583SOL     OW14647   2.833   2.107   5.407
 4583SOL    HW114648   2.889   2.180   5.367
 4583SOL    HW214649   2.873   2.018   5.383
 4584SOL     OW14650   0.530   5.493   6.187
 4584SOL    HW114651   0.595   5.462   6.118
 4584SOL    HW214652   0.449   5.532   6.143
 4585SOL     OW14653   3.363   5.956   3.263
 4585SOL    HW114654   3.393   5.956   3.358
 4585SOL    HW214655   3.263   5.951   3.259
 4586SOL     OW14656   3.536   5.908   1.813
 4586SOL    HW114657   3.443   5.940   1.795
 4586SOL    HW214658   3.535   5.840   1.887
 4587SOL     OW14659   3.039   3.070   1.175
 4587SOL    HW114660   3.045   3.144   1.243
 4587SOL    HW214661   3.012   2.985   1.221
 4588SOL     OW14662   3.983   3.571   5.138
 4588SOL    HW114663   4.035   3.517   5.072
 4588SOL    HW214664   3.998   3.668   5.121
 4589SOL     OW14665   6.040   2.445   3.275
 4589SOL    HW114666   6.057   2.369   3.211
 4589SOL    HW214667   6.072   2.418   3.366
 4590SOL     OW14668   4.883   5.183   2.371
 4590SOL    HW114669   4.806   5.229   2.416
 4590SOL    HW214670   4.880   5.085   2.393
 4591SOL     OW14671   5.990   5.615   5.825
 4591SOL    HW114672   6.079   5.633   5.782
 4591SOL    HW214673   5.929   5.693   5.807
 4592SOL     OW14674   3.778   2.548   0.282
 4592SOL    HW114675   3.798   2.636   0.324
 4592SOL    HW214676   3.774   2.558   0.182
 4593SOL     OW14677   3.933   6.245   2.739
 4593SOL    HW114678   3.867   6.285   2.675
 4593SOL    HW214679   3.928   6.146   2.733
 4594SOL     OW14680   2.763   1.474   1.828
 4594SOL    HW114681   2.829   1.542   1.856
 4594SOL    HW214682   2.718   1.504   1.743
 4595SOL     OW14683   3.900   3.279   6.499
 4595SOL    HW114684   3.897   3.179   6.506
 4595SOL    HW214685   3.880   3.306   6.405
 4596SOL     OW14686   5.858   6.536   2.447
 4596SOL    HW114687   5.874   6.632   2.469
 4596SOL    HW214688   5.907   6.478   2.512
 4597SOL     OW14689   5.564   4.062   6.103
 4597SOL    HW114690   5.504   4.136   6.075
 4597SOL    HW214691   5.655   4.098   6.125
 4598SOL     OW14692   2.142   5.071   6.577
 4598SOL    HW114693   2.097   5.028   6.655
 4598SOL    HW214694   2.105   5.163   6.563
 4599SOL     OW14695   1.561   4.504   1.174
 4599SOL    HW114696   1.616   4.467   1.249
 4599SOL    HW214697   1.615   4.570   1.122
 4600SOL     OW14698   3.116   5.884   0.569
 4600SOL    HW114699   3.040   5.948   0.582
 4600SOL    HW214700   3.175   5.917   0.496
 4601SOL     OW14701   2.255   0.954   4.983
 4601SOL    HW114702   2.315   0.906   4.919
 4601SOL    HW214703   2.303   0.968   5.070
 4602SOL     OW14704   2.181   0.202   1.748
 4602SOL    HW114705   2.156   0.107   1.765
 4602SOL    HW214706   2.254   0.229   1.811
 4603SOL     OW14707   3.173   6.673   1.896
 4603SOL    HW114708   3.155   6.630   1.985
 4603SOL    HW214709   3.107   6.641   1.829
 4604SOL     OW14710   3.395   0.018   2.313
 4604SOL    HW114711   3.453   7.007   2.388
 4604SOL    HW214712   3.308   6.992   2.315
 4605SOL     OW14713   5.177   0.842   4.736
 4605SOL    HW114714   5.087   0.854   4.695
 4605SOL    HW214715   5.196   0.919   4.797
 4606SOL     OW14716   6.721   6.522   5.035
 4606SOL    HW114717   6.776   6.463   4.976
 4606SOL    HW214718   6.713   6.481   5.126
 4607SOL     OW14719   2.922   1.381   1.481
 4607SOL    HW114720   2.998   1.351   1.423
 4607SOL    HW214721   2.923   1.481   1.489
 4608SOL     OW14722   1.559   5.196   5.233
 4608SOL    HW114723   1.571   5.146   5.147
 4608SOL    HW214724   1.464   5.187   5.263
 4609SOL     OW14725   5.134   6.917   6.789
 4609SOL    HW114726   5.130   6.893   6.692
 4609SOL    HW214727   5.216   6.876   6.830
 4610SOL     OW14728   0.418   2.480   6.673
 4610SOL    HW114729   0.479   2.497   6.751
 4610SOL    HW214730   0.340   2.543   6.678
 4611SOL     OW14731   0.479   3.880   0.116
 4611SOL    HW114732   0.422   3.806   0.151
 4611SOL    HW214733   0.573   3.867   0.149
 4612SOL     OW14734   1.903   6.122   6.185
 4612SOL    HW114735   1.807   6.136   6.207
 4612SOL    HW214736   1.960   6.161   6.257
 4613SOL     OW14737   3.066   5.565   2.715
 4613SOL    HW114738   3.010   5.504   2.771
 4613SOL    HW214739   3.021   5.654   2.707
 4614SOL     OW14740   1.734   5.477   0.078
 4614SOL    HW114741   1.682   5.559   0.103
 4614SOL    HW214742   1.777   5.491   7.011
 4615SOL     OW14743   1.623   1.793   0.167
 4615SOL    HW114744   1.602   1.788   0.264
 4615SOL    HW214745   1.611   1.702   0.126
 4616SOL     OW14746   6.130   0.299   6.647
 4616SOL    HW114747   6.121   0.268   6.553
 4616SOL    HW214748   6.218   0.346   6.658
 4617SOL     OW14749   0.901   2.896   1.927
 4617SOL    HW114750   0.914   2.986   1.967
 4617SOL    HW214751   0.975   2.835   1.955
 4618SOL     OW14752   0.829   2.576   5.947
 4618SOL    HW114753   0.810   2.585   6.045
 4618SOL    HW214754   0.778   2.499   5.910
 4619SOL     OW14755   4.802   0.927   3.945
 4619SOL    HW114756   4.791   0.887   4.036
 4619SOL    HW214757   4.898   0.945   3.927
 4620SOL     OW14758   3.064   4.474   6.929
 4620SOL    HW114759   3.099   4.527   7.007
 4620SOL    HW214760   3.138   4.457   6.864
 4621SOL     OW14761   0.411   0.830   4.995
 4621SOL    HW114762   0.459   0.877   5.069
 4621SOL    HW214763   0.441   0.867   4.907
 4622SOL     OW14764   1.830   3.474   0.206
 4622SOL    HW114765   1.908   3.532   0.227
 4622SOL    HW214766   1.808   3.417   0.286
 4623SOL     OW14767   6.949   4.919   1.185
 4623SOL    HW114768   6.849   4.918   1.189
 4623SOL    HW214769   6.984   4.999   1.234
 4624SOL     OW14770   4.673   0.825   4.266
 4624SOL    HW114771   4.758   0.877   4.270
 4624SOL    HW214772   4.684   0.739   4.316
 4625SOL     OW14773   0.947   4.136   6.899
 4625SOL    HW114774   0.959   4.045   6.939
 4625SOL    HW214775   0.948   4.129   6.799
 4626SOL     OW14776   6.584   4.733   1.904
 4626SOL    HW114777   6.542   4.663   1.846
 4626SOL    HW214778   6.562   4.715   2.000
 4627SOL     OW14779   3.465   6.014   5.360
 4627SOL    HW114780   3.450   5.963   5.445
 4627SOL    HW214781   3.561   6.004   5.333
 4628SOL     OW14782   6.269   4.669   2.015
 4628SOL    HW114783   6.178   4.631   2.027
 4628SOL    HW214784   6.265   4.751   1.959
 4629SOL     OW14785   2.128   5.080   5.554
 4629SOL    HW114786   2.189   5.001   5.564
 4629SOL    HW214787   2.182   5.163   5.540
 4630SOL     OW14788   1.887   5.664   3.177
 4630SOL    HW114789   1.818   5.623   3.237
 4630SOL    HW214790   1.973   5.613   3.184
 4631SOL     OW14791   3.024   6.482   3.126
 4631SOL    HW114792   3.027   6.383   3.120
 4631SOL    HW214793   2.938   6.516   3.088
 4632SOL     OW14794   4.629   5.521   4.411
 4632SOL    HW114795   4.655   5.498   4.317
 4632SOL    HW214796   4.701   5.490   4.474
 4633SOL     OW14797   6.511   1.747   4.991
 4633SOL    HW114798   6.551   1.662   5.026
 4633SOL    HW214799   6.484   1.735   4.895
 4634SOL     OW14800   2.545   4.795   0.963
 4634SOL    HW114801   2.613   4.721   0.960
 4634SOL    HW214802   2.589   4.881   0.987
 4635SOL     OW14803   4.906   2.915   2.329
 4635SOL    HW114804   4.896   2.836   2.390
 4635SOL    HW214805   4.910   2.999   2.384
 4636SOL     OW14806   2.883   5.994   0.654
 4636SOL    HW114807   2.908   6.046   0.735
 4636SOL    HW214808   2.823   5.918   0.680
 4637SOL     OW14809   0.920   0.497   5.857
 4637SOL    HW114810   0.957   0.504   5.950
 4637SOL    HW214811   0.958   0.570   5.801
 4638SOL     OW14812   4.240   3.226   6.098
 4638SOL    HW114813   4.284   3.314   6.115
 4638SOL    HW214814   4.143   3.240   6.078
 4639SOL     OW14815   0.794   4.127   5.920
 4639SOL    HW114816   0.809   4.202   5.856
 4639SOL    HW214817   0.699   4.095   5.912
 4640SOL     OW14818   5.368   4.386   2.925
 4640SOL    HW114819   5.351   4.289   2.946
 4640SOL    HW214820   5.454   4.394   2.874
 4641SOL     OW14821   2.810   4.844   4.475
 4641SOL    HW114822   2.746   4.775   4.441
 4641SOL    HW214823   2.775   4.884   4.560
 4642SOL     OW14824   6.400   5.687   4.531
 4642SOL    HW114825   6.420   5.696   4.433
 4642SOL    HW214826   6.403   5.778   4.573
 4643SOL     OW14827   3.920   2.323   1.722
 4643SOL    HW114828   3.942   2.226   1.724
 4643SOL    HW214829   3.834   2.339   1.770
 4644SOL     OW14830   1.500   6.672   4.575
 4644SOL    HW114831   1.423   6.614   4.547
 4644SOL    HW214832   1.549   6.704   4.494
 4645SOL     OW14833   2.185   6.545   4.358
 4645SOL    HW114834   2.138   6.632   4.372
 4645SOL    HW214835   2.194   6.498   4.446
 4646SOL     OW14836   3.338   0.469   2.140
 4646SOL    HW114837   3.333   0.518   2.227
 4646SOL    HW214838   3.247   0.436   2.114
 4647SOL     OW14839   6.726   0.338   3.969
 4647SOL    HW114840   6.810   0.365   4.015
 4647SOL    HW214841   6.647   0.371   4.022
 4648SOL     OW14842   2.604   5.643   2.427
 4648SOL    HW114843   2.638   5.660   2.335
 4648SOL    HW214844   2.617   5.547   2.451
 4649SOL     OW14845   5.442   1.038   5.821
 4649SOL    HW114846   5.415   1.132   5.800
 4649SOL    HW214847   5.381   1.001   5.891
 4650SOL     OW14848   4.970   5.962   2.682
 4650SOL    HW114849   5.037   5.962   2.609
 4650SOL    HW214850   5.013   5.933   2.767
 4651SOL     OW14851   0.285   2.000   1.714
 4651SOL    HW114852   0.271   2.050   1.800
 4651SOL    HW214853   0.263   2.060   1.637
 4652SOL     OW14854   6.842   0.705   4.684
 4652SOL    HW114855   6.907   0.647   4.734
 4652SOL    HW214856   6.845   0.682   4.586
 4653SOL     OW14857   6.700   6.485   0.061
 4653SOL    HW114858   6.606   6.502   0.091
 4653SOL    HW214859   6.711   6.518   6.990
 4654SOL     OW14860   0.746   0.149   0.664
 4654SOL    HW114861   0.794   0.084   0.605
 4654SOL    HW214862   0.796   0.236   0.665
 4655SOL     OW14863   0.114   4.258   2.851
 4655SOL    HW114864   0.180   4.204   2.905
 4655SOL    HW214865   0.154   4.347   2.830
 4656SOL     OW14866   1.091   0.717   3.243
 4656SOL    HW114867   1.002   0.758   3.260
 4656SOL    HW214868   1.091   0.622   3.276
 4657SOL     OW14869   5.113   6.799   1.509
 4657SOL    HW114870   5.059   6.725   1.469
 4657SOL    HW214871   5.058   6.882   1.512
 4658SOL     OW14872   4.445   0.190   2.710
 4658SOL    HW114873   4.454   0.114   2.774
 4658SOL    HW214874   4.415   0.272   2.759
 4659SOL     OW14875   1.966   2.433   4.771
 4659SOL    HW114876   2.030   2.472   4.705
 4659SOL    HW214877   2.008   2.354   4.815
 4660SOL     OW14878   0.340   1.542   5.884
 4660SOL    HW114879   0.258   1.497   5.920
 4660SOL    HW214880   0.398   1.474   5.839
 4661SOL     OW14881   3.506   4.200   5.010
 4661SOL    HW114882   3.491   4.261   5.087
 4661SOL    HW214883   3.427   4.204   4.948
 4662SOL     OW14884   5.409   0.857   5.584
 4662SOL    HW114885   5.440   0.928   5.648
 4662SOL    HW214886   5.328   0.811   5.622
 4663SOL     OW14887   0.226   2.466   2.276
 4663SOL    HW114888   0.195   2.525   2.351
 4663SOL    HW214889   0.234   2.520   2.192
 4664SOL     OW14890   3.232   2.616   6.847
 4664SOL    HW114891   3.242   2.647   6.753
 4664SOL    HW214892   3.180   2.683   6.900
 4665SOL     OW14893   4.903   0.197   6.586
 4665SOL    HW114894   4.954   0.175   6.668
 4665SOL    HW214895   4.966   0.219   6.512
 4666SOL     OW14896   2.321   1.803   0.160
 4666SOL    HW114897   2.369   1.890   0.171
 4666SOL    HW214898   2.259   1.790   0.237
 4667SOL     OW14899   0.143   5.085   6.983
 4667SOL    HW114900   0.235   5.123   6.982
 4667SOL    HW214901   0.143   4.994   6.941
 4668SOL     OW14902   6.622   1.499   5.062
 4668SOL    HW114903   6.647   1.511   5.158
 4668SOL    HW214904   6.651   1.408   5.031
 4669SOL     OW14905   1.793   6.844   0.508
 4669SOL    HW114906   1.853   6.845   0.588
 4669SOL    HW214907   1.784   6.937   0.472
 4670SOL     OW14908   2.045   1.907   4.961
 4670SOL    HW114909   2.100   1.961   5.025
 4670SOL    HW214910   1.981   1.968   4.914
 4671SOL     OW14911   5.770   3.025   1.516
 4671SOL    HW114912   5.852   3.079   1.498
 4671SOL    HW214913   5.756   3.016   1.614
 4672SOL     OW14914   2.014   4.117   6.419
 4672SOL    HW114915   2.082   4.060   6.465
 4672SOL    HW214916   2.057   4.204   6.391
 4673SOL     OW14917   2.957   0.880   2.419
 4673SOL    HW114918   2.977   0.789   2.455
 4673SOL    HW214919   3.024   0.945   2.454
 4674SOL     OW14920   4.708   5.642   5.101
 4674SOL    HW114921   4.780   5.576   5.082
 4674SOL    HW214922   4.749   5.731   5.121
 4675SOL     OW14923   1.282   4.174   0.225
 4675SOL    HW114924   1.288   4.074   0.218
 4675SOL    HW214925   1.253   4.211   0.137
 4676SOL     OW14926   1.482   5.877   3.600
 4676SOL    HW114927   1.559   5.884   3.664
 4676SOL    HW214928   1.516   5.884   3.507
 4677SOL     OW14929   2.044   2.387   0.410
 4677SOL    HW114930   2.001   2.450   0.475
 4677SOL    HW214931   2.127   2.429   0.373
 4678SOL     OW14932   1.696   4.127   3.096
 4678SOL    HW114933   1.720   4.038   3.058
 4678SOL    HW214934   1.740   4.138   3.185
 4679SOL     OW14935   5.397   6.710   1.479
 4679SOL    HW114936   5.445   6.631   1.441
 4679SOL    HW214937   5.300   6.689   1.490
 4680SOL     OW14938   2.617   1.657   1.397
 4680SOL    HW114939   2.671   1.681   1.477
 4680SOL    HW214940   2.636   1.562   1.371
 4681SOL     OW14941   5.576   3.845   0.856
 4681SOL    HW114942   5.647   3.821   0.922
 4681SOL    HW214943   5.530   3.762   0.824
 4682SOL     OW14944   4.768   3.534   6.154
 4682SOL    HW114945   4.842   3.600   6.170
 4682SOL    HW214946   4.763   3.514   6.056
 4683SOL     OW14947   5.962   4.459   4.081
 4683SOL    HW114948   5.993   4.441   3.987
 4683SOL    HW214949   5.862   4.458   4.084
 4684SOL     OW14950   4.508   6.667   0.228
 4684SOL    HW114951   4.533   6.689   0.134
 4684SOL    HW214952   4.528   6.744   0.288
 4685SOL     OW14953   2.244   3.566   5.716
 4685SOL    HW114954   2.204   3.480   5.750
 4685SOL    HW214955   2.178   3.640   5.728
 4686SOL     OW14956   3.553   5.920   0.874
 4686SOL    HW114957   3.592   5.855   0.809
 4686SOL    HW214958   3.466   5.884   0.909
 4687SOL     OW14959   3.102   1.316   2.532
 4687SOL    HW114960   3.004   1.309   2.514
 4687SOL    HW214961   3.124   1.269   2.618
 4688SOL     OW14962   5.230   2.311   5.833
 4688SOL    HW114963   5.186   2.253   5.902
 4688SOL    HW214964   5.165   2.381   5.802
 4689SOL     OW14965   5.738   0.678   0.675
 4689SOL    HW114966   5.729   0.708   0.770
 4689SOL    HW214967   5.767   0.582   0.672
 4690SOL     OW14968   2.101   1.311   0.881
 4690SOL    HW114969   2.146   1.395   0.850
 4690SOL    HW214970   2.039   1.279   0.809
 4691SOL     OW14971   5.508   4.375   0.637
 4691SOL    HW114972   5.429   4.374   0.699
 4691SOL    HW214973   5.592   4.387   0.691
 4692SOL     OW14974   6.566   4.871   3.127
 4692SOL    HW114975   6.523   4.896   3.214
 4692SOL    HW214976   6.543   4.776   3.105
 4693SOL     OW14977   1.625   0.936   3.318
 4693SOL    HW114978   1.574   0.860   3.358
 4693SOL    HW214979   1.633   0.923   3.220
 4694SOL     OW14980   2.778   0.842   0.426
 4694SOL    HW114981   2.814   0.893   0.348
 4694SOL    HW214982   2.819   0.878   0.510
 4695SOL     OW14983   1.271   5.555   0.692
 4695SOL    HW114984   1.368   5.567   0.667
 4695SOL    HW214985   1.264   5.537   0.790
 4696SOL     OW14986   1.390   5.338   6.015
 4696SOL    HW114987   1.314   5.275   6.028
 4696SOL    HW214988   1.388   5.409   6.086
 4697SOL     OW14989   1.959   4.202   0.837
 4697SOL    HW114990   1.946   4.292   0.796
 4697SOL    HW214991   2.057   4.180   0.839
 4698SOL     OW14992   4.568   0.403   3.343
 4698SOL    HW114993   4.477   0.431   3.312
 4698SOL    HW214994   4.632   0.479   3.332
 4699SOL     OW14995   0.652   0.708   2.354
 4699SOL    HW114996   0.620   0.622   2.395
 4699SOL    HW214997   0.652   0.699   2.254
 4700SOL     OW14998   6.583   2.305   3.322
 4700SOL    HW114999   6.546   2.212   3.330
 4700SOL    HW215000   6.507   2.369   3.308
 4701SOL     OW15001   3.224   2.059   2.003
 4701SOL    HW115002   3.300   2.060   1.938
 4701SOL    HW215003   3.137   2.060   1.954
 4702SOL     OW15004   4.995   5.035   6.815
 4702SOL    HW115005   5.069   5.103   6.814
 4702SOL    HW215006   4.907   5.081   6.809
 4703SOL     OW15007   1.143   4.672   2.529
 4703SOL    HW115008   1.197   4.612   2.588
 4703SOL    HW215009   1.077   4.617   2.478
 4704SOL     OW15010   0.066   5.959   5.761
 4704SOL    HW115011   0.048   5.861   5.770
 4704SOL    HW215012   0.020   6.008   5.835
 4705SOL     OW15013   3.246   2.678   1.420
 4705SOL    HW115014   3.295   2.718   1.498
 4705SOL    HW215015   3.191   2.601   1.452
 4706SOL     OW15016   1.148   0.307   0.871
 4706SOL    HW115017   1.179   0.289   0.778
 4706SOL    HW215018   1.168   0.228   0.929
 4707SOL     OW15019   1.257   6.217   1.074
 4707SOL    HW115020   1.164   6.181   1.085
 4707SOL    HW215021   1.279   6.278   1.150
 4708SOL     OW15022   1.352   2.466   4.554
 4708SOL    HW115023   1.370   2.561   4.581
 4708SOL    HW215024   1.320   2.464   4.459
 4709SOL     OW15025   5.372   4.096   4.978
 4709SOL    HW115026   5.442   4.105   4.907
 4709SOL    HW215027   5.282   4.103   4.936
 4710SOL     OW15028   5.261   6.442   4.419
 4710SOL    HW115029   5.230   6.352   4.390
 4710SOL    HW215030   5.351   6.434   4.463
 4711SOL     OW15031   5.941   3.353   3.270
 4711SOL    HW115032   5.993   3.275   3.305
 4711SOL    HW215033   6.002   3.414   3.220
 4712SOL     OW15034   4.578   4.412   5.489
 4712SOL    HW115035   4.631   4.474   5.547
 4712SOL    HW215036   4.636   4.377   5.416
 4713SOL     OW15037   5.345   4.180   0.845
 4713SOL    HW115038   5.444   4.188   0.858
 4713SOL    HW215039   5.316   4.087   0.868
 4714SOL     OW15040   6.482   1.774   6.433
 4714SOL    HW115041   6.502   1.714   6.510
 4714SOL    HW215042   6.487   1.869   6.463
 4715SOL     OW15043   6.416   1.888   2.334
 4715SOL    HW115044   6.506   1.906   2.296
 4715SOL    HW215045   6.349   1.880   2.261
 4716SOL     OW15046   3.953   5.495   5.657
 4716SOL    HW115047   3.929   5.431   5.731
 4716SOL    HW215048   3.960   5.587   5.694
 4717SOL     OW15049   3.062   5.370   5.453
 4717SOL    HW115050   3.071   5.449   5.393
 4717SOL    HW215051   3.026   5.292   5.400
 4718SOL     OW15052   5.603   3.349   0.767
 4718SOL    HW115053   5.681   3.384   0.818
 4718SOL    HW215054   5.567   3.421   0.707
 4719SOL     OW15055   6.256   3.195   3.475
 4719SOL    HW115056   6.235   3.290   3.497
 4719SOL    HW215057   6.316   3.191   3.395
 4720SOL     OW15058   3.208   5.293   0.035
 4720SOL    HW115059   3.149   5.278   6.978
 4720SOL    HW215060   3.301   5.266   0.013
 4721SOL     OW15061   6.430   3.549   2.176
 4721SOL    HW115062   6.426   3.649   2.175
 4721SOL    HW215063   6.427   3.515   2.082
 4722SOL     OW15064   1.079   4.508   6.270
 4722SOL    HW115065   1.109   4.413   6.282
 4722SOL    HW215066   1.147   4.558   6.217
 4723SOL     OW15067   4.098   4.392   5.821
 4723SOL    HW115068   4.037   4.429   5.751
 4723SOL    HW215069   4.063   4.303   5.851
 4724SOL     OW15070   0.440   6.438   4.020
 4724SOL    HW115071   0.408   6.499   3.948
 4724SOL    HW215072   0.376   6.361   4.029
 4725SOL     OW15073   5.622   4.974   0.693
 4725SOL    HW115074   5.531   5.009   0.713
 4725SOL    HW215075   5.642   4.896   0.753
 4726SOL     OW15076   1.999   3.099   5.905
 4726SOL    HW115077   1.956   3.035   5.841
 4726SOL    HW215078   2.088   3.064   5.933
 4727SOL     OW15079   0.467   5.834   1.213
 4727SOL    HW115080   0.541   5.767   1.227
 4727SOL    HW215081   0.443   5.837   1.116
 4728SOL     OW15082   6.186   1.086   2.978
 4728SOL    HW115083   6.280   1.120   2.977
 4728SOL    HW215084   6.126   1.156   3.016
 4729SOL     OW15085   5.906   0.707   0.301
 4729SOL    HW115086   5.920   0.761   0.217
 4729SOL    HW215087   5.874   0.768   0.374
 4730SOL     OW15088   3.525   6.657   4.737
 4730SOL    HW115089   3.539   6.620   4.829
 4730SOL    HW215090   3.581   6.606   4.672
 4731SOL     OW15091   2.969   0.024   0.764
 4731SOL    HW115092   3.040   0.075   0.813
 4731SOL    HW215093   2.927   6.982   0.827
 4732SOL     OW15094   0.557   4.003   4.312
 4732SOL    HW115095   0.552   4.098   4.344
 4732SOL    HW215096   0.470   3.957   4.331
 4733SOL     OW15097   2.102   3.870   3.043
 4733SOL    HW115098   2.056   3.892   3.129
 4733SOL    HW215099   2.130   3.774   3.044
 4734SOL     OW15100   5.361   3.651   6.081
 4734SOL    HW115101   5.348   3.738   6.033
 4734SOL    HW215102   5.434   3.661   6.148
 4735SOL     OW15103   6.921   6.693   5.278
 4735SOL    HW115104   6.954   6.725   5.367
 4735SOL    HW215105   6.996   6.645   5.231
 4736SOL     OW15106   6.608   1.818   3.472
 4736SOL    HW115107   6.677   1.833   3.401
 4736SOL    HW215108   6.653   1.790   3.556
 4737SOL     OW15109   2.001   5.292   1.138
 4737SOL    HW115110   1.942   5.242   1.201
 4737SOL    HW215111   1.945   5.328   1.063
 4738SOL     OW15112   2.072   0.426   3.984
 4738SOL    HW115113   2.113   0.345   4.026
 4738SOL    HW215114   2.134   0.503   3.993
 4739SOL     OW15115   5.897   3.437   4.858
 4739SOL    HW115116   5.985   3.399   4.886
 4739SOL    HW215117   5.885   3.528   4.900
 4740SOL     OW15118   0.744   1.238   1.897
 4740SOL    HW115119   0.808   1.243   1.974
 4740SOL    HW215120   0.654   1.210   1.931
 4741SOL     OW15121   4.107   4.979   1.293
 4741SOL    HW115122   4.164   5.060   1.302
 4741SOL    HW215123   4.032   4.997   1.230
 4742SOL     OW15124   2.940   5.981   1.291
 4742SOL    HW115125   2.872   5.918   1.329
 4742SOL    HW215126   2.979   6.037   1.364
 4743SOL     OW15127   2.664   1.707   6.401
 4743SOL    HW115128   2.595   1.779   6.415
 4743SOL    HW215129   2.621   1.627   6.360
 4744SOL     OW15130   1.997   3.690   5.676
 4744SOL    HW115131   2.008   3.651   5.584
 4744SOL    HW215132   1.939   3.630   5.731
 4745SOL     OW15133   3.315   5.122   5.324
 4745SOL    HW115134   3.313   5.219   5.300
 4745SOL    HW215135   3.378   5.107   5.400
 4746SOL     OW15136   6.022   6.051   0.351
 4746SOL    HW115137   6.057   6.015   0.437
 4746SOL    HW215138   6.092   6.042   0.280
 4747SOL     OW15139   0.095   2.253   0.087
 4747SOL    HW115140   0.155   2.330   0.106
 4747SOL    HW215141   0.024   2.248   0.157
 4748SOL     OW15142   0.844   0.514   1.490
 4748SOL    HW115143   0.907   0.468   1.552
 4748SOL    HW215144   0.879   0.605   1.468
 4749SOL     OW15145   1.902   6.455   7.009
 4749SOL    HW115146   1.914   6.554   7.020
 4749SOL    HW215147   1.923   6.428   6.915
 4750SOL     OW15148   6.892   1.385   4.335
 4750SOL    HW115149   6.905   1.319   4.261
 4750SOL    HW215150   6.876   1.337   4.421
 4751SOL     OW15151   1.423   4.838   6.584
 4751SOL    HW115152   1.384   4.771   6.522
 4751SOL    HW215153   1.350   4.895   6.622
 4752SOL     OW15154   2.371   6.216   1.423
 4752SOL    HW115155   2.348   6.122   1.398
 4752SOL    HW215156   2.459   6.240   1.381
 4753SOL     OW15157   5.410   6.861   5.063
 4753SOL    HW115158   5.430   6.926   4.989
 4753SOL    HW215159   5.494   6.818   5.094
 4754SOL     OW15160   0.381   0.116   6.318
 4754SOL    HW115161   0.296   0.169   6.320
 4754SOL    HW215162   0.369   0.031   6.370
 4755SOL     OW15163   2.524   1.705   5.874
 4755SOL    HW115164   2.448   1.744   5.821
 4755SOL    HW215165   2.528   1.750   5.963
 4756SOL     OW15166   4.543   2.821   1.477
 4756SOL    HW115167   4.634   2.840   1.439
 4756SOL    HW215168   4.552   2.805   1.576
 4757SOL     OW15169   2.600   2.422   2.051
 4757SOL    HW115170   2.697   2.411   2.070
 4757SOL    HW215171   2.567   2.343   2.000
 4758SOL     OW15172   4.780   5.204   5.669
 4758SOL    HW115173   4.832   5.153   5.738
 4758SOL    HW215174   4.807   5.300   5.671
 4759SOL     OW15175   5.807   5.953   5.874
 4759SOL    HW115176   5.822   5.888   5.800
 4759SOL    HW215177   5.724   6.006   5.857
 4760SOL     OW15178   1.720   1.067   1.503
 4760SOL    HW115179   1.736   1.062   1.404
 4760SOL    HW215180   1.778   0.998   1.549
 4761SOL     OW15181   6.851   0.188   6.653
 4761SOL    HW115182   6.905   0.125   6.597
 4761SOL    HW215183   6.906   0.268   6.676
 4762SOL     OW15184   2.507   4.958   2.446
 4762SOL    HW115185   2.449   5.036   2.420
 4762SOL    HW215186   2.552   4.978   2.533
 4763SOL     OW15187   5.929   6.147   3.329
 4763SOL    HW115188   5.938   6.122   3.425
 4763SOL    HW215189   5.901   6.067   3.276
 4764SOL     OW15190   4.386   3.865   5.371
 4764SOL    HW115191   4.395   3.766   5.384
 4764SOL    HW215192   4.469   3.911   5.402
 4765SOL     OW15193   4.956   5.941   5.462
 4765SOL    HW115194   4.894   6.001   5.411
 4765SOL    HW215195   4.981   5.985   5.549
 4766SOL     OW15196   2.929   0.603   3.078
 4766SOL    HW115197   2.868   0.642   3.147
 4766SOL    HW215198   2.952   0.673   3.011
 4767SOL     OW15199   3.866   6.887   0.479
 4767SOL    HW115200   3.859   6.941   0.395
 4767SOL    HW215201   3.874   6.948   0.558
 4768SOL     OW15202   5.478   0.972   4.710
 4768SOL    HW115203   5.385   0.983   4.675
 4768SOL    HW215204   5.483   1.006   4.804
 4769SOL     OW15205   3.751   5.857   1.635
 4769SOL    HW115206   3.679   5.882   1.701
 4769SOL    HW215207   3.724   5.775   1.585
 4770SOL     OW15208   2.368   0.456   3.148
 4770SOL    HW115209   2.467   0.454   3.133
 4770SOL    HW215210   2.347   0.420   3.239
 4771SOL     OW15211   3.444   4.524   6.139
 4771SOL    HW115212   3.515   4.595   6.137
 4771SOL    HW215213   3.355   4.566   6.125
 4772SOL     OW15214   2.664   0.585   1.645
 4772SOL    HW115215   2.632   0.653   1.711
 4772SOL    HW215216   2.593   0.517   1.629
 4773SOL     OW15217   0.389   6.110   3.956
 4773SOL    HW115218   0.354   6.156   4.037
 4773SOL    HW215219   0.361   6.015   3.956
 4774SOL     OW15220   0.985   3.505   2.230
 4774SOL    HW115221   1.037   3.572   2.283
 4774SOL    HW215222   1.029   3.491   2.142
 4775SOL     OW15223   4.759   0.420   2.824
 4775SOL    HW115224   4.775   0.341   2.882
 4775SOL    HW215225   4.700   0.485   2.872
 4776SOL     OW15226   2.887   6.151   2.395
 4776SOL    HW115227   2.835   6.233   2.421
 4776SOL    HW215228   2.848   6.072   2.442
 4777SOL     OW15229   2.023   4.486   0.956
 4777SOL    HW115230   2.107   4.487   1.011
 4777SOL    HW215231   1.999   4.579   0.929
 4778SOL     OW15232   4.591   3.592   1.568
 4778SOL    HW115233   4.608   3.495   1.554
 4778SOL    HW215234   4.661   3.646   1.521
 4779SOL     OW15235   6.680   0.599   3.058
 4779SOL    HW115236   6.727   0.573   3.143
 4779SOL    HW215237   6.583   0.611   3.076
 4780SOL     OW15238   0.738   6.824   5.799
 4780SOL    HW115239   0.740   6.889   5.723
 4780SOL    HW215240   0.768   6.869   5.883
 4781SOL     OW15241   2.399   5.733   0.971
 4781SOL    HW115242   2.498   5.744   0.983
 4781SOL    HW215243   2.363   5.678   1.045
 4782SOL     OW15244   5.448   0.428   6.374
 4782SOL    HW115245   5.401   0.375   6.446
 4782SOL    HW215246   5.382   0.488   6.329
 4783SOL     OW15247   4.969   3.763   0.886
 4783SOL    HW115248   4.936   3.738   0.795
 4783SOL    HW215249   4.925   3.847   0.916
 4784SOL     OW15250   5.827   5.232   5.333
 4784SOL    HW115251   5.884   5.171   5.278
 4784SOL    HW215252   5.841   5.326   5.304
 4785SOL     OW15253   6.907   6.558   0.826
 4785SOL    HW115254   6.846   6.636   0.813
 4785SOL    HW215255   6.902   6.526   0.920
 4786SOL     OW15256   1.966   3.074   1.985
 4786SOL    HW115257   1.994   2.988   2.029
 4786SOL    HW215258   2.047   3.131   1.970
 4787SOL     OW15259   2.994   2.214   3.873
 4787SOL    HW115260   2.994   2.196   3.775
 4787SOL    HW215261   2.961   2.308   3.889
 4788SOL     OW15262   1.777   5.410   5.524
 4788SOL    HW115263   1.852   5.452   5.575
 4788SOL    HW215264   1.746   5.328   5.572
 4789SOL     OW15265   5.717   0.631   0.063
 4789SOL    HW115266   5.774   0.681   0.128
 4789SOL    HW215267   5.645   0.583   0.112
 4790SOL     OW15268   5.468   2.059   6.617
 4790SOL    HW115269   5.518   2.027   6.697
 4790SOL    HW215270   5.406   1.988   6.586
 4791SOL     OW15271   5.662   6.931   2.241
 4791SOL    HW115272   5.757   6.959   2.232
 4791SOL    HW215273   5.626   6.965   2.329
 4792SOL     OW15274   2.346   2.730   2.827
 4792SOL    HW115275   2.314   2.636   2.818
 4792SOL    HW215276   2.438   2.738   2.789
 4793SOL     OW15277   1.390   7.012   6.056
 4793SOL    HW115278   1.399   6.925   6.104
 4793SOL    HW215279   1.465   0.050   6.082
 4794SOL     OW15280   2.453   6.377   3.028
 4794SOL    HW115281   2.366   6.338   2.999
 4794SOL    HW215282   2.490   6.434   2.955
 4795SOL     OW15283   6.168   3.200   4.637
 4795SOL    HW115284   6.070   3.178   4.646
 4795SOL    HW215285   6.178   3.298   4.619
 4796SOL     OW15286   5.487   3.264   0.181
 4796SOL    HW115287   5.402   3.212   0.175
 4796SOL    HW215288   5.467   3.362   0.190
 4797SOL     OW15289   0.847   4.739   5.711
 4797SOL    HW115290   0.842   4.664   5.777
 4797SOL    HW215291   0.921   4.801   5.737
 4798SOL     OW15292   0.443   4.400   4.007
 4798SOL    HW115293   0.454   4.310   3.966
 4798SOL    HW215294   0.398   4.462   3.941
 4799SOL     OW15295   5.051   1.413   5.356
 4799SOL    HW115296   4.992   1.355   5.412
 4799SOL    HW215297   5.027   1.403   5.260
 4800SOL     OW15298   2.621   2.735   5.702
 4800SOL    HW115299   2.711   2.767   5.730
 4800SOL    HW215300   2.573   2.807   5.652
 4801SOL     OW15301   1.507   1.597   0.502
 4801SOL    HW115302   1.519   1.695   0.491
 4801SOL    HW215303   1.501   1.575   0.599
 4802SOL     OW15304   2.697   6.348   1.850
 4802SOL    HW115305   2.622   6.401   1.890
 4802SOL    HW215306   2.664   6.257   1.826
 4803SOL     OW15307   0.859   6.975   0.859
 4803SOL    HW115308   0.804   0.004   0.794
 4803SOL    HW215309   0.954   7.006   0.853
 4804SOL     OW15310   4.472   5.370   6.336
 4804SOL    HW115311   4.439   5.295   6.279
 4804SOL    HW215312   4.399   5.438   6.345
 4805SOL     OW15313   6.748   0.772   0.375
 4805SOL    HW115314   6.700   0.826   0.444
 4805SOL    HW215315   6.717   0.798   0.284
 4806SOL     OW15316   0.308   4.092   2.991
 4806SOL    HW115317   0.255   4.009   2.970
 4806SOL    HW215318   0.299   4.112   3.089
 4807SOL     OW15319   0.653   5.738   1.784
 4807SOL    HW115320   0.565   5.776   1.810
 4807SOL    HW215321   0.672   5.657   1.839
 4808SOL     OW15322   5.559   3.307   1.569
 4808SOL    HW115323   5.611   3.275   1.490
 4808SOL    HW215324   5.477   3.250   1.580
 4809SOL     OW15325   3.108   4.828   6.897
 4809SOL    HW115326   3.196   4.842   6.851
 4809SOL    HW215327   3.118   4.759   6.969
 4810SOL     OW15328   0.448   5.402   1.749
 4810SOL    HW115329   0.484   5.450   1.668
 4810SOL    HW215330   0.396   5.322   1.720
 4811SOL     OW15331   3.491   5.129   2.002
 4811SOL    HW115332   3.557   5.075   2.053
 4811SOL    HW215333   3.489   5.222   2.039
 4812SOL     OW15334   0.018   5.472   4.129
 4812SOL    HW115335   7.016   5.555   4.180
 4812SOL    HW215336   6.958   5.427   4.096
 4813SOL     OW15337   5.007   1.794   2.244
 4813SOL    HW115338   4.958   1.841   2.171
 4813SOL    HW215339   4.949   1.723   2.284
 4814SOL     OW15340   0.027   3.687   0.957
 4814SOL    HW115341   0.086   3.757   0.999
 4814SOL    HW215342   6.958   3.693   0.996
 4815SOL     OW15343   4.661   5.552   1.370
 4815SOL    HW115344   4.694   5.459   1.383
 4815SOL    HW215345   4.642   5.593   1.459
 4816SOL     OW15346   5.484   5.589   2.431
 4816SOL    HW115347   5.440   5.547   2.511
 4816SOL    HW215348   5.553   5.527   2.395
 4817SOL     OW15349   1.173   2.430   5.697
 4817SOL    HW115350   1.144   2.339   5.729
 4817SOL    HW215351   1.239   2.420   5.622
 4818SOL     OW15352   6.916   0.228   3.671
 4818SOL    HW115353   6.939   0.321   3.644
 4818SOL    HW215354   6.818   0.221   3.688
 4819SOL     OW15355   1.296   3.321   6.781
 4819SOL    HW115356   1.316   3.227   6.754
 4819SOL    HW215357   1.382   3.372   6.786
 4820SOL     OW15358   0.192   3.447   1.621
 4820SOL    HW115359   0.147   3.535   1.637
 4820SOL    HW215360   0.189   3.425   1.524
 4821SOL     OW15361   0.089   6.240   2.130
 4821SOL    HW115362   0.044   6.240   2.040
 4821SOL    HW215363   0.158   6.313   2.132
 4822SOL     OW15364   1.003   3.656   4.409
 4822SOL    HW115365   1.033   3.560   4.402
 4822SOL    HW215366   0.904   3.659   4.416
 4823SOL     OW15367   1.427   2.850   1.952
 4823SOL    HW115368   1.441   2.767   1.898
 4823SOL    HW215369   1.329   2.866   1.963
 4824SOL     OW15370   5.591   0.126   5.134
 4824SOL    HW115371   5.653   0.096   5.207
 4824SOL    HW215372   5.505   0.156   5.174
 4825SOL     OW15373   1.710   0.529   4.714
 4825SOL    HW115374   1.663   0.489   4.636
 4825SOL    HW215375   1.773   0.600   4.682
 4826SOL     OW15376   4.410   0.056   1.520
 4826SOL    HW115377   4.396   0.155   1.512
 4826SOL    HW215378   4.359   0.022   1.600
 4827SOL     OW15379   0.176   2.052   0.850
 4827SOL    HW115380   0.096   2.107   0.825
 4827SOL    HW215381   0.221   2.093   0.929
 4828SOL     OW15382   4.644   0.191   2.521
 4828SOL    HW115383   4.732   0.227   2.553
 4828SOL    HW215384   4.576   0.199   2.595
 4829SOL     OW15385   4.079   0.162   5.602
 4829SOL    HW115386   4.038   0.172   5.693
 4829SOL    HW215387   4.177   0.142   5.612
 4830SOL     OW15388   3.250   5.641   3.556
 4830SOL    HW115389   3.253   5.542   3.543
 4830SOL    HW215390   3.163   5.676   3.520
 4831SOL     OW15391   3.593   5.004   6.158
 4831SOL    HW115392   3.594   4.975   6.062
 4831SOL    HW215393   3.499   5.026   6.185
 4832SOL     OW15394   2.871   3.499   4.547
 4832SOL    HW115395   2.838   3.442   4.472
 4832SOL    HW215396   2.896   3.589   4.511
 4833SOL     OW15397   5.980   2.814   4.709
 4833SOL    HW115398   5.999   2.837   4.804
 4833SOL    HW215399   5.967   2.898   4.657
 4834SOL     OW15400   1.975   5.273   2.071
 4834SOL    HW115401   1.934   5.300   2.159
 4834SOL    HW215402   2.074   5.270   2.080
 4835SOL     OW15403   6.774   3.213   5.370
 4835SOL    HW115404   6.830   3.281   5.417
 4835SOL    HW215405   6.678   3.226   5.394
 4836SOL     OW15406   4.993   0.861   5.023
 4836SOL    HW115407   5.010   0.772   4.982
 4836SOL    HW215408   4.960   0.924   4.953
 4837SOL     OW15409   6.959   3.420   4.270
 4837SOL    HW115410   6.921   3.382   4.354
 4837SOL    HW215411   6.960   3.350   4.199
 4838SOL     OW15412   1.282   4.792   6.232
 4838SOL    HW115413   1.361   4.848   6.209
 4838SOL    HW215414   1.299   4.744   6.318
 4839SOL     OW15415   2.045   2.460   0.890
 4839SOL    HW115416   2.011   2.404   0.966
 4839SOL    HW215417   2.137   2.430   0.865
 4840SOL     OW15418   5.546   3.341   5.309
 4840SOL    HW115419   5.478   3.286   5.259
 4840SOL    HW215420   5.567   3.423   5.256
 4841SOL     OW15421   2.903   5.032   3.301
 4841SOL    HW115422   2.924   5.031   3.203
 4841SOL    HW215423   2.836   5.104   3.319
 4842SOL     OW15424   2.978   5.010   2.981
 4842SOL    HW115425   2.904   5.050   2.927
 4842SOL    HW215426   3.066   5.033   2.941
 4843SOL     OW15427   0.144   2.649   2.473
 4843SOL    HW115428   0.174   2.693   2.557
 4843SOL    HW215429   0.051   2.679   2.450
 4844SOL     OW15430   1.258   5.261   5.247
 4844SOL    HW115431   1.309   5.345   5.230
 4844SOL    HW215432   1.183   5.254   5.181
 4845SOL     OW15433   4.744   4.358   5.270
 4845SOL    HW115434   4.700   4.385   5.184
 4845SOL    HW215435   4.814   4.425   5.295
 4846SOL     OW15436   6.899   3.652   4.852
 4846SOL    HW115437   6.965   3.719   4.816
 4846SOL    HW215438   6.948   3.579   4.898
 4847SOL     OW15439   2.674   6.460   6.185
 4847SOL    HW115440   2.677   6.492   6.090
 4847SOL    HW215441   2.635   6.368   6.187
 4848SOL     OW15442   2.809   0.711   4.059
 4848SOL    HW115443   2.717   0.724   4.021
 4848SOL    HW215444   2.865   0.791   4.040
 4849SOL     OW15445   2.115   6.812   1.268
 4849SOL    HW115446   2.095   6.903   1.302
 4849SOL    HW215447   2.133   6.750   1.345
 4850SOL     OW15448   4.773   0.692   0.614
 4850SOL    HW115449   4.700   0.627   0.591
 4850SOL    HW215450   4.853   0.641   0.645
 4851SOL     OW15451   3.307   5.850   6.847
 4851SOL    HW115452   3.380   5.819   6.907
 4851SOL    HW215453   3.279   5.942   6.874
 4852SOL     OW15454   4.467   5.209   4.972
 4852SOL    HW115455   4.397   5.138   4.961
 4852SOL    HW215456   4.519   5.218   4.886
 4853SOL     OW15457   3.892   0.912   3.113
 4853SOL    HW115458   3.975   0.865   3.082
 4853SOL    HW215459   3.848   0.956   3.035
 4854SOL     OW15460   6.243   6.320   1.476
 4854SOL    HW115461   6.343   6.319   1.487
 4854SOL    HW215462   6.208   6.409   1.506
 4855SOL     OW15463   6.606   4.987   4.488
 4855SOL    HW115464   6.574   5.078   4.515
 4855SOL    HW215465   6.706   4.985   4.492
 4856SOL     OW15466   0.272   3.701   3.062
 4856SOL    HW115467   0.245   3.753   2.981
 4856SOL    HW215468   0.341   3.632   3.037
 4857SOL     OW15469   2.871   2.341   4.151
 4857SOL    HW115470   2.933   2.324   4.228
 4857SOL    HW215471   2.787   2.383   4.185
 4858SOL     OW15472   0.346   6.299   4.447
 4858SOL    HW115473   0.441   6.311   4.473
 4858SOL    HW215474   0.307   6.221   4.496
 4859SOL     OW15475   0.564   5.785   2.080
 4859SOL    HW115476   0.562   5.689   2.052
 4859SOL    HW215477   0.595   5.842   2.003
 4860SOL     OW15478   5.252   5.878   0.704
 4860SOL    HW115479   5.164   5.884   0.751
 4860SOL    HW215480   5.324   5.914   0.763
 4861SOL     OW15481   0.399   4.806   6.710
 4861SOL    HW115482   0.467   4.777   6.778
 4861SOL    HW215483   0.415   4.756   6.625
 4862SOL     OW15484   2.640   4.556   5.252
 4862SOL    HW115485   2.737   4.574   5.237
 4862SOL    HW215486   2.629   4.468   5.297
 4863SOL     OW15487   4.465   2.484   3.338
 4863SOL    HW115488   4.380   2.457   3.293
 4863SOL    HW215489   4.541   2.431   3.299
 4864SOL     OW15490   3.024   1.267   1.700
 4864SOL    HW115491   2.974   1.181   1.692
 4864SOL    HW215492   2.999   1.327   1.624
 4865SOL     OW15493   3.845   5.826   5.115
 4865SOL    HW115494   3.761   5.840   5.064
 4865SOL    HW215495   3.833   5.750   5.180
 4866SOL     OW15496   5.825   4.541   1.495
 4866SOL    HW115497   5.874   4.549   1.582
 4866SOL    HW215498   5.855   4.615   1.434
 4867SOL     OW15499   5.042   5.675   2.519
 4867SOL    HW115500   5.047   5.775   2.529
 4867SOL    HW215501   5.053   5.651   2.423
 4868SOL     OW15502   0.086   5.771   1.236
 4868SOL    HW115503   0.048   5.848   1.183
 4868SOL    HW215504   0.157   5.725   1.182
 4869SOL     OW15505   0.125   1.423   0.162
 4869SOL    HW115506   0.030   1.407   0.138
 4869SOL    HW215507   0.176   1.451   0.080
 4870SOL     OW15508   5.147   6.333   2.055
 4870SOL    HW115509   5.138   6.422   2.098
 4870SOL    HW215510   5.201   6.272   2.114
 4871SOL     OW15511   1.076   2.683   3.825
 4871SOL    HW115512   1.174   2.688   3.846
 4871SOL    HW215513   1.043   2.773   3.797
 4872SOL     OW15514   1.426   6.907   2.427
 4872SOL    HW115515   1.504   6.961   2.458
 4872SOL    HW215516   1.341   6.958   2.444
 4873SOL     OW15517   7.009   5.854   5.136
 4873SOL    HW115518   0.085   5.871   5.150
 4873SOL    HW215519   6.983   5.769   5.181
 4874SOL     OW15520   5.415   3.638   3.054
 4874SOL    HW115521   5.390   3.545   3.078
 4874SOL    HW215522   5.351   3.673   2.986
 4875SOL     OW15523   5.429   1.684   1.275
 4875SOL    HW115524   5.394   1.673   1.181
 4875SOL    HW215525   5.490   1.608   1.296
 4876SOL     OW15526   0.246   1.770   0.338
 4876SOL    HW115527   0.343   1.782   0.357
 4876SOL    HW215528   0.231   1.774   0.239
 4877SOL     OW15529   6.183   0.936   1.604
 4877SOL    HW115530   6.097   0.948   1.553
 4877SOL    HW215531   6.209   0.840   1.602
 4878SOL     OW15532   6.710   1.636   1.715
 4878SOL    HW115533   6.749   1.668   1.629
 4878SOL    HW215534   6.752   1.685   1.791
 4879SOL     OW15535   4.554   5.141   3.374
 4879SOL    HW115536   4.491   5.090   3.314
 4879SOL    HW215537   4.621   5.078   3.413
 4880SOL     OW15538   5.684   1.779   6.544
 4880SOL    HW115539   5.636   1.746   6.463
 4880SOL    HW215540   5.741   1.706   6.582
 4881SOL     OW15541   3.522   6.321   6.328
 4881SOL    HW115542   3.535   6.365   6.417
 4881SOL    HW215543   3.607   6.278   6.298
 4882SOL     OW15544   5.866   0.893   5.365
 4882SOL    HW115545   5.808   0.893   5.447
 4882SOL    HW215546   5.879   0.799   5.334
 4883SOL     OW15547   6.841   4.565   1.920
 4883SOL    HW115548   6.822   4.651   1.873
 4883SOL    HW215549   6.755   4.528   1.957
 4884SOL     OW15550   3.453   6.283   2.013
 4884SOL    HW115551   3.359   6.256   1.994
 4884SOL    HW215552   3.458   6.329   2.102
 4885SOL     OW15553   2.060   0.073   1.316
 4885SOL    HW115554   2.054   0.147   1.383
 4885SOL    HW215555   2.123   0.100   1.243
 4886SOL     OW15556   6.404   0.750   6.930
 4886SOL    HW115557   6.392   0.794   7.019
 4886SOL    HW215558   6.354   0.801   6.861
 4887SOL     OW15559   0.372   2.060   3.750
 4887SOL    HW115560   0.335   2.018   3.668
 4887SOL    HW215561   0.394   2.155   3.733
 4888SOL     OW15562   2.311   5.860   2.732
 4888SOL    HW115563   2.239   5.829   2.669
 4888SOL    HW215564   2.341   5.784   2.789
 4889SOL     OW15565   1.406   1.882   0.330
 4889SOL    HW115566   1.314   1.844   0.340
 4889SOL    HW215567   1.412   1.933   0.244
 4890SOL     OW15568   1.144   0.748   4.512
 4890SOL    HW115569   1.068   0.753   4.577
 4890SOL    HW215570   1.200   0.831   4.521
 4891SOL     OW15571   0.740   4.933   0.275
 4891SOL    HW115572   0.677   4.881   0.332
 4891SOL    HW215573   0.823   4.880   0.260
 4892SOL     OW15574   0.449   5.541   1.489
 4892SOL    HW115575   0.446   5.641   1.484
 4892SOL    HW215576   0.484   5.505   1.403
 4893SOL     OW15577   0.668   3.438   6.433
 4893SOL    HW115578   0.723   3.511   6.474
 4893SOL    HW215579   0.680   3.354   6.486
 4894SOL     OW15580   2.420   1.037   3.526
 4894SOL    HW115581   2.328   1.070   3.548
 4894SOL    HW215582   2.471   1.110   3.481
 4895SOL     OW15583   1.307   2.855   0.203
 4895SOL    HW115584   1.381   2.903   0.250
 4895SOL    HW215585   1.299   2.889   0.110
 4896SOL     OW15586   3.705   5.027   5.208
 4896SOL    HW115587   3.745   5.108   5.164
 4896SOL    HW215588   3.629   4.993   5.152
 4897SOL     OW15589   3.487   5.675   7.003
 4897SOL    HW115590   3.541   5.732   0.042
 4897SOL    HW215591   3.457   5.593   0.029
 4898SOL     OW15592   5.127   1.465   5.690
 4898SOL    HW115593   5.085   1.502   5.773
 4898SOL    HW215594   5.140   1.538   5.623
 4899SOL     OW15595   6.006   4.419   3.806
 4899SOL    HW115596   6.054   4.489   3.753
 4899SOL    HW215597   5.911   4.414   3.777
 4900SOL     OW15598   0.784   0.010   5.478
 4900SOL    HW115599   0.827   6.944   5.493
 4900SOL    HW215600   0.852   0.083   5.490
 4901SOL     OW15601   0.636   6.682   3.946
 4901SOL    HW115602   0.543   6.669   3.980
 4901SOL    HW215603   0.645   6.774   3.909
 4902SOL     OW15604   2.561   4.714   1.580
 4902SOL    HW115605   2.644   4.690   1.631
 4902SOL    HW215606   2.586   4.740   1.486
 4903SOL     OW15607   4.614   0.259   6.607
 4903SOL    HW115608   4.569   0.171   6.593
 4903SOL    HW215609   4.705   0.256   6.565
 4904SOL     OW15610   2.703   6.020   4.375
 4904SOL    HW115611   2.625   5.961   4.398
 4904SOL    HW215612   2.743   6.056   4.459
 4905SOL     OW15613   4.712   3.091   1.631
 4905SOL    HW115614   4.660   3.058   1.710
 4905SOL    HW215615   4.805   3.055   1.636
 4906SOL     OW15616   5.072   0.351   0.250
 4906SOL    HW115617   5.083   0.422   0.320
 4906SOL    HW215618   5.146   0.284   0.258
 4907SOL     OW15619   3.774   0.543   3.703
 4907SOL    HW115620   3.827   0.623   3.671
 4907SOL    HW215621   3.792   0.466   3.642
 4908SOL     OW15622   3.414   6.196   6.611
 4908SOL    HW115623   3.440   6.293   6.604
 4908SOL    HW215624   3.317   6.189   6.631
 4909SOL     OW15625   6.611   6.416   5.268
 4909SOL    HW115626   6.632   6.491   5.331
 4909SOL    HW215627   6.527   6.370   5.297
 4910SOL     OW15628   5.353   0.357   4.943
 4910SOL    HW115629   5.293   0.357   4.863
 4910SOL    HW215630   5.448   0.349   4.913
 4911SOL     OW15631   6.727   2.628   5.915
 4911SOL    HW115632   6.791   2.551   5.916
 4911SOL    HW215633   6.766   2.704   5.966
 4912SOL     OW15634   3.774   1.838   2.336
 4912SOL    HW115635   3.856   1.796   2.376
 4912SOL    HW215636   3.798   1.928   2.298
 4913SOL     OW15637   3.655   3.840   3.408
 4913SOL    HW115638   3.637   3.900   3.331
 4913SOL    HW215639   3.643   3.890   3.494
 4914SOL     OW15640   2.571   6.660   3.483
 4914SOL    HW115641   2.588   6.575   3.532
 4914SOL    HW215642   2.601   6.650   3.388
 4915SOL     OW15643   3.948   6.129   3.769
 4915SOL    HW115644   3.887   6.079   3.709
 4915SOL    HW215645   4.043   6.111   3.744
 4916SOL     OW15646   2.427   1.648   3.256
 4916SOL    HW115647   2.395   1.655   3.162
 4916SOL    HW215648   2.522   1.681   3.261
 4917SOL     OW15649   1.907   4.746   0.885
 4917SOL    HW115650   1.825   4.800   0.865
 4917SOL    HW215651   1.947   4.777   0.971
 4918SOL     OW15652   2.137   0.255   2.140
 4918SOL    HW115653   2.178   0.165   2.155
 4918SOL    HW215654   2.156   0.286   2.047
 4919SOL     OW15655   2.192   2.661   1.977
 4919SOL    HW115656   2.145   2.737   1.931
 4919SOL    HW215657   2.180   2.670   2.076
 4920SOL     OW15658   4.168   0.538   0.524
 4920SOL    HW115659   4.122   0.575   0.443
 4920SOL    HW215660   4.103   0.483   0.576
 4921SOL     OW15661   1.687   4.350   1.679
 4921SOL    HW115662   1.764   4.412   1.661
 4921SOL    HW215663   1.601   4.398   1.661
 4922SOL     OW15664   1.747   3.067   5.230
 4922SOL    HW115665   1.762   2.983   5.283
 4922SOL    HW215666   1.809   3.069   5.151
 4923SOL     OW15667   5.043   0.619   1.335
 4923SOL    HW115668   5.116   0.586   1.395
 4923SOL    HW215669   4.967   0.653   1.390
 4924SOL     OW15670   0.707   4.163   4.910
 4924SOL    HW115671   0.774   4.090   4.894
 4924SOL    HW215672   0.658   4.145   4.996
 4925SOL     OW15673   5.371   6.519   0.178
 4925SOL    HW115674   5.363   6.508   0.078
 4925SOL    HW215675   5.418   6.440   0.217
 4926SOL     OW15676   4.804   2.658   1.714
 4926SOL    HW115677   4.883   2.717   1.696
 4926SOL    HW215678   4.809   2.624   1.808
 4927SOL     OW15679   3.001   3.167   3.038
 4927SOL    HW115680   2.928   3.208   3.092
 4927SOL    HW215681   3.056   3.107   3.097
 4928SOL     OW15682   0.436   6.213   0.032
 4928SOL    HW115683   0.365   6.158   7.008
 4928SOL    HW215684   0.525   6.169   0.018
 4929SOL     OW15685   1.032   5.090   4.219
 4929SOL    HW115686   1.028   5.017   4.287
 4929SOL    HW215687   1.028   5.051   4.127
 4930SOL     OW15688   0.534   1.896   0.751
 4930SOL    HW115689   0.441   1.869   0.724
 4930SOL    HW215690   0.577   1.821   0.801
 4931SOL     OW15691   0.227   1.139   7.014
 4931SOL    HW115692   0.279   1.208   6.965
 4931SOL    HW215693   0.289   1.067   0.024
 4932SOL     OW15694   2.446   2.190   0.986
 4932SOL    HW115695   2.525   2.228   1.035
 4932SOL    HW215696   2.406   2.116   1.040
 4933SOL     OW15697   2.714   1.147   3.859
 4933SOL    HW115698   2.633   1.189   3.898
 4933SOL    HW215699   2.789   1.152   3.925
 4934SOL     OW15700   0.841   6.191   4.485
 4934SOL    HW115701   0.829   6.175   4.387
 4934SOL    HW215702   0.894   6.275   4.499
 4935SOL     OW15703   1.332   1.211   0.056
 4935SOL    HW115704   1.424   1.173   0.062
 4935SOL    HW215705   1.311   1.233   6.983
 4936SOL     OW15706   4.032   5.658   1.158
 4936SOL    HW115707   4.104   5.665   1.227
 4936SOL    HW215708   4.072   5.654   1.067
 4937SOL     OW15709   0.733   2.379   5.730
 4937SOL    HW115710   0.780   2.457   5.690
 4937SOL    HW215711   0.649   2.360   5.679
 4938SOL     OW15712   3.498   4.434   1.670
 4938SOL    HW115713   3.540   4.498   1.733
 4938SOL    HW215714   3.509   4.467   1.576
 4939SOL     OW15715   1.675   2.042   1.446
 4939SOL    HW115716   1.738   2.112   1.414
 4939SOL    HW215717   1.589   2.048   1.396
 4940SOL     OW15718   0.170   3.088   4.156
 4940SOL    HW115719   0.157   3.071   4.253
 4940SOL    HW215720   0.260   3.054   4.128
 4941SOL     OW15721   3.961   2.378   5.297
 4941SOL    HW115722   3.891   2.449   5.313
 4941SOL    HW215723   4.032   2.415   5.237
 4942SOL     OW15724   5.707   2.217   3.437
 4942SOL    HW115725   5.724   2.234   3.534
 4942SOL    HW215726   5.694   2.304   3.390
 4943SOL     OW15727   5.512   2.836   6.481
 4943SOL    HW115728   5.586   2.782   6.520
 4943SOL    HW215729   5.542   2.930   6.466
 4944SOL     OW15730   1.635   5.474   1.343
 4944SOL    HW115731   1.694   5.514   1.273
 4944SOL    HW215732   1.689   5.453   1.424
 4945SOL     OW15733   2.304   1.282   5.288
 4945SOL    HW115734   2.395   1.305   5.256
 4945SOL    HW215735   2.238   1.349   5.254
 4946SOL     OW15736   1.703   5.337   0.350
 4946SOL    HW115737   1.733   5.415   0.295
 4946SOL    HW215738   1.669   5.265   0.290
 4947SOL     OW15739   1.614   0.607   1.563
 4947SOL    HW115740   1.683   0.631   1.495
 4947SOL    HW215741   1.651   0.540   1.627
 4948SOL     OW15742   1.844   2.589   1.914
 4948SOL    HW115743   1.889   2.510   1.954
 4948SOL    HW215744   1.863   2.592   1.815
 4949SOL     OW15745   6.773   3.304   6.599
 4949SOL    HW115746   6.678   3.332   6.609
 4949SOL    HW215747   6.798   3.243   6.674
 4950SOL     OW15748   2.286   4.421   5.437
 4950SOL    HW115749   2.192   4.399   5.462
 4950SOL    HW215750   2.297   4.413   5.338
 4951SOL     OW15751   5.235   5.556   3.860
 4951SOL    HW115752   5.224   5.458   3.846
 4951SOL    HW215753   5.224   5.604   3.773
 4952SOL     OW15754   0.519   6.681   5.674
 4952SOL    HW115755   0.583   6.698   5.750
 4952SOL    HW215756   0.529   6.752   5.605
 4953SOL     OW15757   1.376   2.183   5.084
 4953SOL    HW115758   1.369   2.237   5.000
 4953SOL    HW215759   1.471   2.183   5.116
 4954SOL     OW15760   3.097   4.113   5.093
 4954SOL    HW115761   3.018   4.133   5.036
 4954SOL    HW215762   3.093   4.169   5.176
 4955SOL     OW15763   3.050   6.282   0.198
 4955SOL    HW115764   3.021   6.187   0.192
 4955SOL    HW215765   2.989   6.332   0.259
 4956SOL     OW15766   2.216   0.270   5.034
 4956SOL    HW115767   2.155   0.250   5.110
 4956SOL    HW215768   2.311   0.269   5.066
 4957SOL     OW15769   6.424   4.240   6.632
 4957SOL    HW115770   6.502   4.181   6.651
 4957SOL    HW215771   6.394   4.285   6.717
 4958SOL     OW15772   2.528   6.917   6.977
 4958SOL    HW115773   2.506   6.833   6.928
 4958SOL    HW215774   2.452   6.981   6.971
 4959SOL     OW15775   0.426   3.193   1.830
 4959SOL    HW115776   0.411   3.201   1.928
 4959SOL    HW215777   0.339   3.182   1.783
 4960SOL     OW15778   4.062   5.275   4.567
 4960SOL    HW115779   4.019   5.259   4.656
 4960SOL    HW215780   4.058   5.373   4.547
 4961SOL     OW15781   3.366   0.781   0.444
 4961SOL    HW115782   3.283   0.785   0.389
 4961SOL    HW215783   3.417   0.867   0.433
 4962SOL     OW15784   0.882   4.233   1.368
 4962SOL    HW115785   0.808   4.296   1.391
 4962SOL    HW215786   0.859   4.141   1.400
 4963SOL     OW15787   0.981   4.160   6.634
 4963SOL    HW115788   1.066   4.211   6.627
 4963SOL    HW215789   0.933   4.161   6.546
 4964SOL     OW15790   2.462   6.810   4.689
 4964SOL    HW115791   2.528   6.836   4.618
 4964SOL    HW215792   2.503   6.826   4.779
 4965SOL     OW15793   1.230   6.649   2.614
 4965SOL    HW115794   1.175   6.625   2.694
 4965SOL    HW215795   1.297   6.719   2.638
 4966SOL     OW15796   3.372   6.012   4.070
 4966SOL    HW115797   3.400   6.068   4.148
 4966SOL    HW215798   3.316   5.936   4.103
 4967SOL     OW15799   3.922   4.714   5.667
 4967SOL    HW115800   3.991   4.674   5.607
 4967SOL    HW215801   3.848   4.648   5.681
 4968SOL     OW15802   0.355   1.713   3.791
 4968SOL    HW115803   0.407   1.789   3.828
 4968SOL    HW215804   0.257   1.730   3.804
 4969SOL     OW15805   0.628   6.027   2.865
 4969SOL    HW115806   0.537   6.022   2.826
 4969SOL    HW215807   0.647   6.120   2.895
 4970SOL     OW15808   1.595   1.264   1.652
 4970SOL    HW115809   1.604   1.359   1.680
 4970SOL    HW215810   1.648   1.248   1.569
 4971SOL     OW15811   6.300   6.246   2.799
 4971SOL    HW115812   6.337   6.181   2.733
 4971SOL    HW215813   6.215   6.284   2.764
 4972SOL     OW15814   1.703   4.027   1.214
 4972SOL    HW115815   1.774   4.078   1.165
 4972SOL    HW215816   1.712   4.043   1.312
 4973SOL     OW15817   6.974   0.844   0.866
 4973SOL    HW115818   0.031   0.901   0.887
 4973SOL    HW215819   7.003   0.749   0.857
 4974SOL     OW15820   3.490   4.679   5.877
 4974SOL    HW115821   3.403   4.727   5.884
 4974SOL    HW215822   3.485   4.610   5.805
 4975SOL     OW15823   6.245   3.277   0.322
 4975SOL    HW115824   6.177   3.251   0.391
 4975SOL    HW215825   6.337   3.259   0.357
 4976SOL     OW15826   1.174   6.452   3.853
 4976SOL    HW115827   1.092   6.413   3.897
 4976SOL    HW215828   1.255   6.426   3.906
 4977SOL     OW15829   2.652   5.372   6.670
 4977SOL    HW115830   2.750   5.386   6.674
 4977SOL    HW215831   2.632   5.294   6.610
 4978SOL     OW15832   5.422   4.343   5.157
 4978SOL    HW115833   5.384   4.430   5.125
 4978SOL    HW215834   5.371   4.267   5.114
 4979SOL     OW15835   1.832   6.577   6.399
 4979SOL    HW115836   1.748   6.583   6.345
 4979SOL    HW215837   1.813   6.602   6.494
 4980SOL     OW15838   6.265   4.071   2.600
 4980SOL    HW115839   6.184   4.128   2.587
 4980SOL    HW215840   6.270   4.040   2.695
 4981SOL     OW15841   3.793   4.848   1.779
 4981SOL    HW115842   3.738   4.929   1.758
 4981SOL    HW215843   3.735   4.778   1.822
 4982SOL     OW15844   4.491   1.115   6.567
 4982SOL    HW115845   4.485   1.015   6.565
 4982SOL    HW215846   4.569   1.143   6.623
 4983SOL     OW15847   6.893   5.661   3.071
 4983SOL    HW115848   6.984   5.637   3.039
 4983SOL    HW215849   6.869   5.752   3.038
 4984SOL     OW15850   5.063   4.773   2.769
 4984SOL    HW115851   5.160   4.788   2.784
 4984SOL    HW215852   5.019   4.859   2.744
 4985SOL     OW15853   5.778   5.342   2.974
 4985SOL    HW115854   5.835   5.422   2.989
 4985SOL    HW215855   5.700   5.366   2.917
 4986SOL     OW15856   0.914   4.957   2.165
 4986SOL    HW115857   1.005   4.955   2.123
 4986SOL    HW215858   0.870   4.868   2.153
 4987SOL     OW15859   0.984   0.099   2.353
 4987SOL    HW115860   0.885   0.092   2.362
 4987SOL    HW215861   1.010   0.195   2.341
 4988SOL     OW15862   5.903   6.798   3.199
 4988SOL    HW115863   5.846   6.736   3.253
 4988SOL    HW215864   5.928   6.877   3.254
 4989SOL     OW15865   4.662   1.013   2.432
 4989SOL    HW115866   4.615   1.040   2.347
 4989SOL    HW215867   4.673   0.914   2.433
 4990SOL     OW15868   4.663   1.489   5.732
 4990SOL    HW115869   4.640   1.394   5.711
 4990SOL    HW215870   4.612   1.549   5.669
 4991SOL     OW15871   0.681   5.876   5.131
 4991SOL    HW115872   0.615   5.863   5.206
 4991SOL    HW215873   0.701   5.974   5.122
 4992SOL     OW15874   0.005   1.361   3.539
 4992SOL    HW115875   6.975   1.417   3.475
 4992SOL    HW215876   6.980   1.358   3.627
 4993SOL     OW15877   4.577   6.046   5.002
 4993SOL    HW115878   4.574   6.146   5.006
 4993SOL    HW215879   4.487   6.012   4.974
 4994SOL     OW15880   2.887   5.005   5.624
 4994SOL    HW115881   2.885   4.952   5.539
 4994SOL    HW215882   2.794   5.036   5.646
 4995SOL     OW15883   0.455   0.523   4.619
 4995SOL    HW115884   0.441   0.620   4.597
 4995SOL    HW215885   0.552   0.501   4.611
 4996SOL     OW15886   0.087   1.556   4.316
 4996SOL    HW115887   0.051   1.649   4.319
 4996SOL    HW215888   0.015   1.490   4.339
 4997SOL     OW15889   3.189   2.131   1.286
 4997SOL    HW115890   3.225   2.177   1.204
 4997SOL    HW215891   3.264   2.108   1.347
 4998SOL     OW15892   1.089   3.115   3.888
 4998SOL    HW115893   0.989   3.116   3.888
 4998SOL    HW215894   1.122   3.073   3.972
 4999SOL     OW15895   0.862   3.957   4.813
 4999SOL    HW115896   0.829   3.946   4.719
 4999SOL    HW215897   0.959   3.979   4.813
 5000SOL     OW15898   2.919   5.742   3.543
 5000SOL    HW115899   2.929   5.841   3.557
 5000SOL    HW215900   2.952   5.693   3.624
 5001SOL     OW15901   1.087   5.602   3.021
 5001SOL    HW115902   1.087   5.616   3.120
 5001SOL    HW215903   1.106   5.689   2.976
 5002SOL     OW15904   0.707   3.823   2.755
 5002SOL    HW115905   0.678   3.749   2.815
 5002SOL    HW215906   0.758   3.786   2.678
 5003SOL     OW15907   4.337   6.088   3.385
 5003SOL    HW115908   4.292   6.094   3.474
 5003SOL    HW215909   4.357   6.180   3.351
 5004SOL     OW15910   3.024   5.899   6.235
 5004SOL    HW115911   3.060   5.931   6.148
 5004SOL    HW215912   3.099   5.884   6.299
 5005SOL     OW15913   2.717   3.214   6.068
 5005SOL    HW115914   2.647   3.152   6.103
 5005SOL    HW215915   2.685   3.308   6.077
 5006SOL     OW15916   5.503   1.515   1.848
 5006SOL    HW115917   5.472   1.494   1.755
 5006SOL    HW215918   5.453   1.458   1.913
 5007SOL     OW15919   6.296   0.696   1.528
 5007SOL    HW115920   6.243   0.619   1.562
 5007SOL    HW215921   6.346   0.668   1.446
 5008SOL     OW15922   6.293   0.209   1.845
 5008SOL    HW115923   6.240   0.198   1.761
 5008SOL    HW215924   6.358   0.133   1.854
 5009SOL     OW15925   1.002   2.583   0.701
 5009SOL    HW115926   1.065   2.513   0.736
 5009SOL    HW215927   1.013   2.667   0.753
 5010SOL     OW15928   3.444   2.625   0.341
 5010SOL    HW115929   3.518   2.588   0.398
 5010SOL    HW215930   3.483   2.678   0.266
 5011SOL     OW15931   1.897   3.680   6.885
 5011SOL    HW115932   1.995   3.701   6.893
 5011SOL    HW215933   1.846   3.735   6.950
 5012SOL     OW15934   5.645   1.965   5.470
 5012SOL    HW115935   5.577   1.993   5.402
 5012SOL    HW215936   5.598   1.940   5.555
 5013SOL     OW15937   6.331   6.998   5.148
 5013SOL    HW115938   6.402   7.018   5.081
 5013SOL    HW215939   6.372   6.987   5.238
 5014SOL     OW15940   6.633   3.238   1.028
 5014SOL    HW115941   6.608   3.196   0.941
 5014SOL    HW215942   6.680   3.171   1.086
 5015SOL     OW15943   6.000   0.578   4.523
 5015SOL    HW115944   6.031   0.670   4.548
 5015SOL    HW215945   5.928   0.584   4.454
 5016SOL     OW15946   1.171   3.530   4.664
 5016SOL    HW115947   1.092   3.528   4.602
 5016SOL    HW215948   1.175   3.444   4.715
 5017SOL     OW15949   0.593   2.269   1.114
 5017SOL    HW115950   0.614   2.194   1.051
 5017SOL    HW215951   0.494   2.272   1.129
 5018SOL     OW15952   0.471   5.103   1.916
 5018SOL    HW115953   0.415   5.138   1.840
 5018SOL    HW215954   0.416   5.044   1.974
 5019SOL     OW15955   1.591   5.672   5.108
 5019SOL    HW115956   1.536   5.687   5.026
 5019SOL    HW215957   1.670   5.615   5.086
 5020SOL     OW15958   0.432   6.811   4.793
 5020SOL    HW115959   0.372   6.813   4.714
 5020SOL    HW215960   0.510   6.751   4.774
 5021SOL     OW15961   2.101   0.791   1.086
 5021SOL    HW115962   2.045   0.852   1.030
 5021SOL    HW215963   2.197   0.816   1.077
 5022SOL     OW15964   0.516   2.774   1.341
 5022SOL    HW115965   0.533   2.822   1.427
 5022SOL    HW215966   0.508   2.840   1.267
 5023SOL     OW15967   0.785   4.121   1.936
 5023SOL    HW115968   0.713   4.157   1.877
 5023SOL    HW215969   0.873   4.125   1.888
 5024SOL     OW15970   5.246   3.727   1.019
 5024SOL    HW115971   5.268   3.809   1.071
 5024SOL    HW215972   5.160   3.741   0.970
 5025SOL     OW15973   4.108   2.011   4.062
 5025SOL    HW115974   4.176   2.009   4.135
 5025SOL    HW215975   4.064   2.101   4.060
 5026SOL     OW15976   5.831   5.722   5.003
 5026SOL    HW115977   5.856   5.651   4.937
 5026SOL    HW215978   5.902   5.729   5.073
 5027SOL     OW15979   4.637   0.469   0.500
 5027SOL    HW115980   4.613   0.406   0.426
 5027SOL    HW215981   4.692   0.421   0.568
 5028SOL     OW15982   0.064   2.476   2.866
 5028SOL    HW115983   0.035   2.388   2.904
 5028SOL    HW215984   0.127   2.521   2.929
 5029SOL     OW15985   6.720   2.313   2.024
 5029SOL    HW115986   6.693   2.369   2.102
 5029SOL    HW215987   6.812   2.276   2.040
 5030SOL     OW15988   0.100   5.735   6.195
 5030SOL    HW115989   0.125   5.825   6.230
 5030SOL    HW215990   0.096   5.670   6.270
 5031SOL     OW15991   6.982   1.233   5.165
 5031SOL    HW115992   6.939   1.266   5.249
 5031SOL    HW215993   0.016   1.153   5.185
 5032SOL     OW15994   3.627   2.419   5.686
 5032SOL    HW115995   3.585   2.467   5.609
 5032SOL    HW215996   3.686   2.482   5.737
 5033SOL     OW15997   2.206   1.557   0.810
 5033SOL    HW115998   2.250   1.607   0.884
 5033SOL    HW215999   2.240   1.590   0.722
 5034SOL     OW16000   4.049   6.494   4.049
 5034SOL    HW116001   4.071   6.398   4.067
 5034SOL    HW216002   3.967   6.520   4.099
 5035SOL     OW16003   0.057   4.810   4.834
 5035SOL    HW116004   0.080   4.808   4.931
 5035SOL    HW216005   7.017   4.734   4.813
 5036SOL     OW16006   6.814   3.960   5.408
 5036SOL    HW116007   6.816   3.935   5.312
 5036SOL    HW216008   6.902   4.000   5.435
 5037SOL     OW16009   4.173   4.429   1.354
 5037SOL    HW116010   4.224   4.429   1.268
 5037SOL    HW216011   4.078   4.405   1.337
 5038SOL     OW16012   3.570   3.738   4.157
 5038SOL    HW116013   3.626   3.712   4.236
 5038SOL    HW216014   3.574   3.666   4.088
 5039SOL     OW16015   1.992   3.424   6.176
 5039SOL    HW116016   2.035   3.514   6.173
 5039SOL    HW216017   2.057   3.354   6.146
 5040SOL     OW16018   1.179   5.058   5.423
 5040SOL    HW116019   1.205   5.071   5.519
 5040SOL    HW216020   1.248   5.099   5.364
 5041SOL     OW16021   0.762   3.177   1.664
 5041SOL    HW116022   0.829   3.251   1.664
 5041SOL    HW216023   0.673   3.212   1.637
 5042SOL     OW16024   0.044   4.100   6.347
 5042SOL    HW116025   0.004   4.182   6.388
 5042SOL    HW216026   0.034   4.104   6.248
 5043SOL     OW16027   3.827   0.664   0.620
 5043SOL    HW116028   3.889   0.709   0.555
 5043SOL    HW216029   3.877   0.596   0.672
 5044SOL     OW16030   6.896   6.007   0.729
 5044SOL    HW116031   6.874   5.910   0.743
 5044SOL    HW216032   6.864   6.059   0.808
 5045SOL     OW16033   6.369   4.358   6.181
 5045SOL    HW116034   6.339   4.431   6.120
 5045SOL    HW216035   6.389   4.396   6.271
 5046SOL     OW16036   3.504   3.971   4.051
 5046SOL    HW116037   3.465   4.032   4.120
 5046SOL    HW216038   3.529   3.884   4.094
 5047SOL     OW16039   2.065   3.185   2.983
 5047SOL    HW116040   2.074   3.098   2.933
 5047SOL    HW216041   2.058   3.260   2.918
 5048SOL     OW16042   1.898   1.050   5.194
 5048SOL    HW116043   1.963   0.999   5.139
 5048SOL    HW216044   1.815   0.995   5.208
 5049SOL     OW16045   6.088   0.747   5.961
 5049SOL    HW116046   6.139   0.800   6.029
 5049SOL    HW216047   6.002   0.716   6.001
 5050SOL     OW16048   1.677   1.158   6.745
 5050SOL    HW116049   1.714   1.168   6.652
 5050SOL    HW216050   1.753   1.155   6.810
 5051SOL     OW16051   3.533   4.502   1.409
 5051SOL    HW116052   3.609   4.552   1.366
 5051SOL    HW216053   3.446   4.538   1.374
 5052SOL     OW16054   3.333   2.182   5.691
 5052SOL    HW116055   3.336   2.265   5.747
 5052SOL    HW216056   3.245   2.176   5.644
 5053SOL     OW16057   0.720   4.982   2.854
 5053SOL    HW116058   0.773   4.928   2.919
 5053SOL    HW216059   0.782   5.023   2.787
 5054SOL     OW16060   3.366   4.738   5.440
 5054SOL    HW116061   3.320   4.689   5.366
 5054SOL    HW216062   3.464   4.743   5.420
 5055SOL     OW16063   0.289   3.239   5.937
 5055SOL    HW116064   0.280   3.329   5.981
 5055SOL    HW216065   0.373   3.237   5.883
 5056SOL     OW16066   5.020   4.022   5.078
 5056SOL    HW116067   5.118   4.031   5.060
 5056SOL    HW216068   4.994   3.926   5.074
 5057SOL     OW16069   1.176   6.943   2.463
 5057SOL    HW116070   1.148   6.853   2.429
 5057SOL    HW216071   1.116   7.013   2.425
 5058SOL     OW16072   3.304   4.766   6.697
 5058SOL    HW116073   3.397   4.774   6.662
 5058SOL    HW216074   3.285   4.671   6.721
 5059SOL     OW16075   6.675   6.824   3.079
 5059SOL    HW116076   6.620   6.813   2.997
 5059SOL    HW216077   6.684   6.922   3.100
 5060SOL     OW16078   6.657   2.231   6.005
 5060SOL    HW116079   6.610   2.192   6.084
 5060SOL    HW216080   6.670   2.161   5.935
 5061SOL     OW16081   4.921   2.787   0.237
 5061SOL    HW116082   4.833   2.809   0.194
 5061SOL    HW216083   4.974   2.728   0.177
 5062SOL     OW16084   0.511   0.012   1.958
 5062SOL    HW116085   0.566   6.952   1.964
 5062SOL    HW216086   0.544   0.079   2.024
 5063SOL     OW16087   0.570   6.678   1.750
 5063SOL    HW116088   0.588   6.717   1.840
 5063SOL    HW216089   0.640   6.706   1.685
 5064SOL     OW16090   4.644   3.172   0.419
 5064SOL    HW116091   4.593   3.201   0.500
 5064SOL    HW216092   4.680   3.080   0.433
 5065SOL     OW16093   2.919   0.268   5.595
 5065SOL    HW116094   2.974   0.318   5.662
 5065SOL    HW216095   2.977   0.207   5.541
 5066SOL     OW16096   5.537   4.262   1.896
 5066SOL    HW116097   5.538   4.162   1.898
 5066SOL    HW216098   5.450   4.294   1.859
 5067SOL     OW16099   5.419   1.165   0.001
 5067SOL    HW116100   5.482   1.238   6.999
 5067SOL    HW216101   5.390   1.176   0.096
 5068SOL     OW16102   3.196   4.559   0.872
 5068SOL    HW116103   3.219   4.601   0.959
 5068SOL    HW216104   3.113   4.602   0.836
 5069SOL     OW16105   1.110   4.313   2.775
 5069SOL    HW116106   1.068   4.245   2.714
 5069SOL    HW216107   1.065   4.401   2.762
 5070SOL     OW16108   5.083   3.653   4.008
 5070SOL    HW116109   5.072   3.600   4.092
 5070SOL    HW216110   4.993   3.672   3.969
 5071SOL     OW16111   4.232   2.001   5.002
 5071SOL    HW116112   4.229   1.901   4.993
 5071SOL    HW216113   4.198   2.028   5.091
 5072SOL     OW16114   0.001   4.808   0.932
 5072SOL    HW116115   6.970   4.857   1.002
 5072SOL    HW216116   6.967   4.795   0.850
 5073SOL     OW16117   6.715   0.178   2.217
 5073SOL    HW116118   6.749   0.085   2.228
 5073SOL    HW216119   6.661   0.204   2.296
 5074SOL     OW16120   3.219   4.178   6.922
 5074SOL    HW116121   3.168   4.199   6.839
 5074SOL    HW216122   3.298   4.120   6.900
 5075SOL     OW16123   0.050   0.077   5.400
 5075SOL    HW116124   0.069   0.163   5.353
 5075SOL    HW216125   0.135   0.025   5.409
 5076SOL     OW16126   3.231   0.331   0.683
 5076SOL    HW116127   3.274   0.408   0.732
 5076SOL    HW216128   3.303   0.270   0.649
 5077SOL     OW16129   1.351   2.215   3.817
 5077SOL    HW116130   1.342   2.121   3.851
 5077SOL    HW216131   1.434   2.222   3.760
 5078SOL     OW16132   1.584   2.226   3.655
 5078SOL    HW116133   1.671   2.180   3.675
 5078SOL    HW216134   1.595   2.325   3.671
 5079SOL     OW16135   2.977   5.028   5.874
 5079SOL    HW116136   3.072   5.049   5.853
 5079SOL    HW216137   2.927   5.010   5.789
 5080SOL     OW16138   6.041   6.698   5.393
 5080SOL    HW116139   6.049   6.609   5.439
 5080SOL    HW216140   6.108   6.702   5.318
 5081SOL     OW16141   3.336   3.639   3.333
 5081SOL    HW116142   3.249   3.604   3.366
 5081SOL    HW216143   3.412   3.590   3.377
 5082SOL     OW16144   5.431   6.048   5.655
 5082SOL    HW116145   5.390   5.965   5.693
 5082SOL    HW216146   5.437   6.118   5.726
 5083SOL     OW16147   1.710   6.858   1.893
 5083SOL    HW116148   1.673   6.926   1.830
 5083SOL    HW216149   1.737   6.776   1.841
 5084SOL     OW16150   1.015   5.290   3.617
 5084SOL    HW116151   1.009   5.193   3.638
 5084SOL    HW216152   1.012   5.343   3.702
 5085SOL     OW16153   5.761   1.247   6.578
 5085SOL    HW116154   5.794   1.202   6.661
 5085SOL    HW216155   5.675   1.204   6.549
 5086SOL     OW16156   6.804   4.696   3.439
 5086SOL    HW116157   6.750   4.778   3.422
 5086SOL    HW216158   6.754   4.615   3.406
 5087SOL     OW16159   6.410   5.934   4.617
 5087SOL    HW116160   6.330   5.911   4.673
 5087SOL    HW216161   6.436   6.029   4.633
 5088SOL     OW16162   6.548   0.973   6.044
 5088SOL    HW116163   6.574   0.950   6.138
 5088SOL    HW216164   6.450   0.955   6.031
 5089SOL     OW16165   6.395   2.917   2.277
 5089SOL    HW116166   6.410   2.883   2.370
 5089SOL    HW216167   6.400   3.016   2.276
 5090SOL     OW16168   2.051   4.815   1.124
 5090SOL    HW116169   1.970   4.789   1.176
 5090SOL    HW216170   2.076   4.909   1.147
 5091SOL     OW16171   1.262   6.072   2.766
 5091SOL    HW116172   1.204   6.088   2.686
 5091SOL    HW216173   1.272   6.157   2.818
 5092SOL     OW16174   3.558   1.967   0.870
 5092SOL    HW116175   3.494   2.027   0.822
 5092SOL    HW216176   3.508   1.910   0.935
 5093SOL     OW16177   1.197   2.059   2.184
 5093SOL    HW116178   1.270   2.127   2.184
 5093SOL    HW216179   1.141   2.070   2.267
 5094SOL     OW16180   1.188   6.400   5.636
 5094SOL    HW116181   1.090   6.380   5.637
 5094SOL    HW216182   1.203   6.495   5.664
 5095SOL     OW16183   1.911   0.671   4.597
 5095SOL    HW116184   1.864   0.703   4.515
 5095SOL    HW216185   1.945   0.578   4.581
 5096SOL     OW16186   5.000   3.475   0.424
 5096SOL    HW116187   4.962   3.516   0.341
 5096SOL    HW216188   4.932   3.480   0.497
 5097SOL     OW16189   1.439   0.561   5.538
 5097SOL    HW116190   1.371   0.571   5.611
 5097SOL    HW216191   1.525   0.603   5.567
 5098SOL     OW16192   1.141   1.181   2.377
 5098SOL    HW116193   1.130   1.272   2.336
 5098SOL    HW216194   1.149   1.113   2.304
 5099SOL     OW16195   1.082   0.190   5.139
 5099SOL    HW116196   1.121   0.208   5.230
 5099SOL    HW216197   1.065   0.092   5.129
 5100SOL     OW16198   5.786   6.839   6.551
 5100SOL    HW116199   5.718   6.912   6.539
 5100SOL    HW216200   5.810   6.831   6.648
 5101SOL     OW16201   4.305   6.682   6.986
 5101SOL    HW116202   4.255   6.687   0.050
 5101SOL    HW216203   4.401   6.706   7.001
 5102SOL     OW16204   5.213   0.713   5.691
 5102SOL    HW116205   5.161   0.766   5.758
 5102SOL    HW216206   5.181   0.618   5.692
 5103SOL     OW16207   0.442   0.966   3.786
 5103SOL    HW116208   0.390   1.016   3.716
 5103SOL    HW216209   0.540   0.984   3.773
 5104SOL     OW16210   1.977   1.068   1.801
 5104SOL    HW116211   1.978   1.110   1.710
 5104SOL    HW216212   1.907   1.112   1.857
 5105SOL     OW16213   3.892   4.139   6.408
 5105SOL    HW116214   3.805   4.187   6.423
 5105SOL    HW216215   3.967   4.194   6.444
 5106SOL     OW16216   3.105   7.004   2.664
 5106SOL    HW116217   3.163   6.973   2.739
 5106SOL    HW216218   3.069   0.072   2.686
 5107SOL     OW16219   3.058   7.002   6.685
 5107SOL    HW116220   2.977   0.026   6.649
 5107SOL    HW216221   3.103   6.952   6.612
 5108SOL     OW16222   2.990   3.766   4.044
 5108SOL    HW116223   3.016   3.823   3.966
 5108SOL    HW216224   3.026   3.806   4.128
 5109SOL     OW16225   0.180   0.971   0.948
 5109SOL    HW116226   0.139   1.053   0.988
 5109SOL    HW216227   0.277   0.986   0.932
 5110SOL     OW16228   1.740   6.417   5.455
 5110SOL    HW116229   1.752   6.517   5.457
 5110SOL    HW216230   1.690   6.389   5.537
 5111SOL     OW16231   1.476   1.410   6.541
 5111SOL    HW116232   1.488   1.509   6.549
 5111SOL    HW216233   1.378   1.389   6.537
 5112SOL     OW16234   0.472   6.148   3.715
 5112SOL    HW116235   0.465   6.246   3.692
 5112SOL    HW216236   0.421   6.130   3.799
 5113SOL     OW16237   1.191   0.964   0.023
 5113SOL    HW116238   1.216   1.059   0.043
 5113SOL    HW216239   1.153   0.921   0.105
 5114SOL     OW16240   3.496   4.989   0.145
 5114SOL    HW116241   3.519   4.895   0.169
 5114SOL    HW216242   3.427   5.024   0.208
 5115SOL     OW16243   1.432   3.758   6.196
 5115SOL    HW116244   1.365   3.826   6.225
 5115SOL    HW216245   1.397   3.709   6.115
 5116SOL     OW16246   5.711   4.711   0.252
 5116SOL    HW116247   5.630   4.748   0.298
 5116SOL    HW216248   5.727   4.618   0.284
 5117SOL     OW16249   2.688   4.634   4.349
 5117SOL    HW116250   2.664   4.589   4.435
 5117SOL    HW216251   2.622   4.610   4.278
 5118SOL     OW16252   4.534   5.584   0.367
 5118SOL    HW116253   4.448   5.622   0.402
 5118SOL    HW216254   4.530   5.484   0.370
 5119SOL     OW16255   5.572   1.000   2.453
 5119SOL    HW116256   5.650   0.974   2.395
 5119SOL    HW216257   5.495   0.940   2.433
 5120SOL     OW16258   5.204   1.156   2.608
 5120SOL    HW116259   5.136   1.227   2.625
 5120SOL    HW216260   5.293   1.199   2.593
 5121SOL     OW16261   0.572   3.382   5.579
 5121SOL    HW116262   0.563   3.415   5.673
 5121SOL    HW216263   0.591   3.459   5.519
 5122SOL     OW16264   2.262   0.042   3.082
 5122SOL    HW116265   2.353   0.006   3.104
 5122SOL    HW216266   2.213   0.063   3.166
 5123SOL     OW16267   4.709   4.128   2.692
 5123SOL    HW116268   4.788   4.071   2.715
 5123SOL    HW216269   4.636   4.115   2.759
 5124SOL     OW16270   3.239   6.428   7.002
 5124SOL    HW116271   3.333   6.458   7.015
 5124SOL    HW216272   3.217   6.357   0.046
 5125SOL     OW16273   0.117   3.691   3.898
 5125SOL    HW116274   0.024   3.679   3.931
 5125SOL    HW216275   0.137   3.789   3.889
 5126SOL     OW16276   6.200   4.888   5.899
 5126SOL    HW116277   6.110   4.915   5.863
 5126SOL    HW216278   6.243   4.823   5.836
 5127SOL     OW16279   5.312   3.015   6.542
 5127SOL    HW116280   5.248   3.006   6.618
 5127SOL    HW216281   5.351   2.926   6.520
 5128SOL     OW16282   0.650   1.086   6.827
 5128SOL    HW116283   0.730   1.057   6.881
 5128SOL    HW216284   0.570   1.034   6.856
 5129SOL     OW16285   5.040   1.122   2.175
 5129SOL    HW116286   4.977   1.168   2.112
 5129SOL    HW216287   5.020   1.024   2.176
 5130SOL     OW16288   1.089   4.797   4.339
 5130SOL    HW116289   1.082   4.705   4.378
 5130SOL    HW216290   1.167   4.844   4.380
 5131SOL     OW16291   3.120   4.855   3.249
 5131SOL    HW116292   3.050   4.927   3.248
 5131SOL    HW216293   3.095   4.784   3.183
 5132SOL     OW16294   3.232   1.882   6.852
 5132SOL    HW116295   3.327   1.850   6.845
 5132SOL    HW216296   3.199   1.866   6.945
 5133SOL     OW16297   4.232   5.055   6.331
 5133SOL    HW116298   4.305   5.089   6.271
 5133SOL    HW216299   4.143   5.078   6.290
 5134SOL     OW16300   6.689   6.858   1.450
 5134SOL    HW116301   6.591   6.854   1.472
 5134SOL    HW216302   6.715   6.952   1.430
 5135SOL     OW16303   6.564   2.940   2.012
 5135SOL    HW116304   6.498   2.921   2.084
 5135SOL    HW216305   6.566   2.864   1.947
 5136SOL     OW16306   0.524   0.692   6.103
 5136SOL    HW116307   0.553   0.625   6.035
 5136SOL    HW216308   0.430   0.672   6.132
 5137SOL     OW16309   5.366   1.729   5.266
 5137SOL    HW116310   5.362   1.805   5.331
 5137SOL    HW216311   5.305   1.656   5.296
 5138SOL     OW16312   3.436   3.306   4.158
 5138SOL    HW116313   3.359   3.355   4.117
 5138SOL    HW216314   3.437   3.323   4.257
 5139SOL     OW16315   1.873   0.350   4.964
 5139SOL    HW116316   1.830   0.333   5.052
 5139SOL    HW216317   1.885   0.264   4.915
 5140SOL     OW16318   4.014   2.312   6.012
 5140SOL    HW116319   3.982   2.276   5.925
 5140SOL    HW216320   4.076   2.388   5.996
 5141SOL     OW16321   6.878   3.003   2.051
 5141SOL    HW116322   6.912   2.991   2.144
 5141SOL    HW216323   6.778   2.993   2.050
 5142SOL     OW16324   6.769   0.149   3.056
 5142SOL    HW116325   6.735   0.167   2.963
 5142SOL    HW216326   6.869   0.141   3.053
 5143SOL     OW16327   0.820   4.796   4.213
 5143SOL    HW116328   0.774   4.781   4.300
 5143SOL    HW216329   0.918   4.806   4.230
 5144SOL     OW16330   1.619   3.597   6.283
 5144SOL    HW116331   1.607   3.506   6.245
 5144SOL    HW216332   1.535   3.651   6.269
 5145SOL     OW16333   2.488   6.210   6.718
 5145SOL    HW116334   2.488   6.293   6.664
 5145SOL    HW216335   2.507   6.232   6.814
 5146SOL     OW16336   5.515   5.091   6.104
 5146SOL    HW116337   5.433   5.129   6.146
 5146SOL    HW216338   5.491   5.012   6.048
 5147SOL     OW16339   4.859   3.031   3.132
 5147SOL    HW116340   4.876   2.933   3.142
 5147SOL    HW216341   4.766   3.052   3.163
 5148SOL     OW16342   0.673   0.111   1.613
 5148SOL    HW116343   0.612   0.188   1.627
 5148SOL    HW216344   0.743   0.110   1.684
 5149SOL     OW16345   5.808   4.373   3.361
 5149SOL    HW116346   5.811   4.448   3.294
 5149SOL    HW216347   5.819   4.410   3.453
 5150SOL     OW16348   0.603   5.170   4.118
 5150SOL    HW116349   0.636   5.092   4.065
 5150SOL    HW216350   0.522   5.209   4.075
 5151SOL     OW16351   5.919   4.603   1.742
 5151SOL    HW116352   5.902   4.695   1.776
 5151SOL    HW216353   5.895   4.536   1.813
 5152SOL     OW16354   1.372   0.739   6.328
 5152SOL    HW116355   1.463   0.780   6.334
 5152SOL    HW216356   1.311   0.802   6.281
 5153SOL     OW16357   1.334   1.979   0.825
 5153SOL    HW116358   1.317   1.949   0.731
 5153SOL    HW216359   1.250   1.970   0.879
 5154SOL     OW16360   0.621   2.513   6.853
 5154SOL    HW116361   0.721   2.503   6.847
 5154SOL    HW216362   0.595   2.529   6.948
 5155SOL     OW16363   1.918   1.195   0.704
 5155SOL    HW116364   1.854   1.235   0.769
 5155SOL    HW216365   1.879   1.198   0.612
 5156SOL     OW16366   5.475   5.141   5.586
 5156SOL    HW116367   5.415   5.159   5.508
 5156SOL    HW216368   5.466   5.215   5.652
 5157SOL     OW16369   4.265   0.582   2.066
 5157SOL    HW116370   4.205   0.661   2.063
 5157SOL    HW216371   4.239   0.517   1.994
 5158SOL     OW16372   3.480   1.524   2.439
 5158SOL    HW116373   3.576   1.526   2.411
 5158SOL    HW216374   3.422   1.522   2.357
 5159SOL     OW16375   5.997   3.269   5.636
 5159SOL    HW116376   5.949   3.351   5.665
 5159SOL    HW216377   6.049   3.288   5.552
 5160SOL     OW16378   6.601   6.334   3.329
 5160SOL    HW116379   6.655   6.267   3.379
 5160SOL    HW216380   6.546   6.288   3.260
 5161SOL     OW16381   1.029   3.249   0.362
 5161SOL    HW116382   1.059   3.343   0.343
 5161SOL    HW216383   1.108   3.195   0.392
 5162SOL     OW16384   6.699   6.450   2.738
 5162SOL    HW116385   6.620   6.452   2.799
 5162SOL    HW216386   6.780   6.420   2.788
 5163SOL     OW16387   2.975   6.457   2.409
 5163SOL    HW116388   3.023   6.545   2.414
 5163SOL    HW216389   3.030   6.393   2.355
 5164SOL     OW16390   3.269   3.760   0.722
 5164SOL    HW116391   3.231   3.852   0.706
 5164SOL    HW216392   3.326   3.761   0.803
 5165SOL     OW16393   1.292   4.677   6.963
 5165SOL    HW116394   1.225   4.632   6.904
 5165SOL    HW216395   1.385   4.651   6.935
 5166SOL     OW16396   1.504   5.575   1.596
 5166SOL    HW116397   1.424   5.515   1.597
 5166SOL    HW216398   1.540   5.581   1.503
 5167SOL     OW16399   4.832   2.603   5.065
 5167SOL    HW116400   4.878   2.690   5.053
 5167SOL    HW216401   4.733   2.617   5.065
 5168SOL     OW16402   4.228   2.240   2.269
 5168SOL    HW116403   4.226   2.334   2.235
 5168SOL    HW216404   4.320   2.218   2.302
 5169SOL     OW16405   3.921   6.933   3.406
 5169SOL    HW116406   3.916   6.840   3.368
 5169SOL    HW216407   3.836   6.954   3.454
 5170SOL     OW16408   1.191   3.022   6.329
 5170SOL    HW116409   1.162   3.117   6.313
 5170SOL    HW216410   1.129   2.979   6.395
 5171SOL     OW16411   1.952   5.889   5.156
 5171SOL    HW116412   1.982   5.795   5.166
 5171SOL    HW216413   1.959   5.916   5.060
 5172SOL     OW16414   0.278   5.570   3.271
 5172SOL    HW116415   0.275   5.570   3.371
 5172SOL    HW216416   0.219   5.643   3.236
 5173SOL     OW16417   5.110   4.267   5.855
 5173SOL    HW116418   5.175   4.194   5.836
 5173SOL    HW216419   5.017   4.234   5.838
 5174SOL     OW16420   2.674   6.382   3.199
 5174SOL    HW116421   2.649   6.364   3.294
 5174SOL    HW216422   2.605   6.343   3.138
 5175SOL     OW16423   2.827   4.285   0.009
 5175SOL    HW116424   2.770   4.329   0.079
 5175SOL    HW216425   2.883   4.354   6.986
 5176SOL     OW16426   5.418   5.442   0.494
 5176SOL    HW116427   5.514   5.426   0.475
 5176SOL    HW216428   5.384   5.371   0.556
 5177SOL     OW16429   5.020   0.786   0.373
 5177SOL    HW116430   5.066   0.702   0.346
 5177SOL    HW216431   5.019   0.792   0.473
 5178SOL     OW16432   1.118   3.935   1.848
 5178SOL    HW116433   1.206   3.981   1.841
 5178SOL    HW216434   1.070   3.941   1.761
 5179SOL     OW16435   6.161   4.275   3.039
 5179SOL    HW116436   6.216   4.202   3.080
 5179SOL    HW216437   6.203   4.304   2.953
 5180SOL     OW16438   2.572   6.918   1.740
 5180SOL    HW116439   2.509   6.844   1.715
 5180SOL    HW216440   2.666   6.883   1.741
 5181SOL     OW16441   0.434   0.329   5.925
 5181SOL    HW116442   0.512   0.382   5.892
 5181SOL    HW216443   0.419   0.251   5.865
 5182SOL     OW16444   3.948   5.315   3.066
 5182SOL    HW116445   3.932   5.230   3.015
 5182SOL    HW216446   4.001   5.294   3.148
 5183SOL     OW16447   4.174   1.738   3.637
 5183SOL    HW116448   4.078   1.716   3.622
 5183SOL    HW216449   4.182   1.812   3.703
 5184SOL     OW16450   2.519   0.879   4.202
 5184SOL    HW116451   2.497   0.813   4.274
 5184SOL    HW216452   2.567   0.957   4.242
 5185SOL     OW16453   5.823   1.135   1.724
 5185SOL    HW116454   5.897   1.087   1.769
 5185SOL    HW216455   5.789   1.209   1.784
 5186SOL     OW16456   6.823   3.237   6.005
 5186SOL    HW116457   6.874   3.151   5.998
 5186SOL    HW216458   6.808   3.259   6.101
 5187SOL     OW16459   1.901   4.700   5.382
 5187SOL    HW116460   1.920   4.682   5.478
 5187SOL    HW216461   1.842   4.781   5.375
 5188SOL     OW16462   6.753   6.707   2.253
 5188SOL    HW116463   6.760   6.657   2.167
 5188SOL    HW216464   6.818   6.783   2.254
 5189SOL     OW16465   5.344   0.629   5.933
 5189SOL    HW116466   5.443   0.626   5.945
 5189SOL    HW216467   5.320   0.602   5.840
 5190SOL     OW16468   1.786   3.718   1.541
 5190SOL    HW116469   1.730   3.653   1.490
 5190SOL    HW216470   1.836   3.776   1.477
 5191SOL     OW16471   3.354   5.360   2.612
 5191SOL    HW116472   3.318   5.451   2.590
 5191SOL    HW216473   3.437   5.370   2.667
 5192SOL     OW16474   2.250   5.287   2.035
 5192SOL    HW116475   2.273   5.375   2.076
 5192SOL    HW216476   2.325   5.258   1.975
 5193SOL     OW16477   6.036   0.748   6.557
 5193SOL    HW116478   6.034   0.699   6.470
 5193SOL    HW216479   6.091   0.697   6.623
 5194SOL     OW16480   4.425   2.373   6.806
 5194SOL    HW116481   4.396   2.450   6.749
 5194SOL    HW216482   4.388   2.384   6.898
 5195SOL     OW16483   6.867   0.947   4.478
 5195SOL    HW116484   6.834   0.884   4.547
 5195SOL    HW216485   6.954   0.915   4.442
 5196SOL     OW16486   5.088   6.162   3.086
 5196SOL    HW116487   5.105   6.230   3.014
 5196SOL    HW216488   5.148   6.180   3.164
 5197SOL     OW16489   1.438   4.283   5.838
 5197SOL    HW116490   1.398   4.311   5.751
 5197SOL    HW216491   1.441   4.183   5.843
 5198SOL     OW16492   5.355   5.881   2.838
 5198SOL    HW116493   5.325   5.786   2.844
 5198SOL    HW216494   5.385   5.902   2.745
 5199SOL     OW16495   6.509   5.181   1.261
 5199SOL    HW116496   6.571   5.132   1.323
 5199SOL    HW216497   6.437   5.119   1.231
 5200SOL     OW16498   0.409   3.752   5.547
 5200SOL    HW116499   0.378   3.670   5.499
 5200SOL    HW216500   0.330   3.799   5.589
 5201SOL     OW16501   1.844   5.414   4.000
 5201SOL    HW116502   1.759   5.405   4.053
 5201SOL    HW216503   1.875   5.509   4.003
 5202SOL     OW16504   6.594   3.684   0.448
 5202SOL    HW116505   6.684   3.716   0.420
 5202SOL    HW216506   6.528   3.759   0.440
 5203SOL     OW16507   0.963   2.268   6.863
 5203SOL    HW116508   1.026   2.332   6.818
 5203SOL    HW216509   0.905   2.225   6.795
 5204SOL     OW16510   4.123   5.045   0.097
 5204SOL    HW116511   4.135   5.000   0.009
 5204SOL    HW216512   4.091   5.139   0.083
 5205SOL     OW16513   1.919   0.347   1.366
 5205SOL    HW116514   1.937   0.387   1.277
 5205SOL    HW216515   1.820   0.336   1.379
 5206SOL     OW16516   0.438   4.145   0.110
 5206SOL    HW116517   0.398   4.151   0.019
 5206SOL    HW216518   0.454   4.049   0.133
 5207SOL     OW16519   1.408   4.924   4.340
 5207SOL    HW116520   1.507   4.937   4.335
 5207SOL    HW216521   1.367   4.947   4.251
 5208SOL     OW16522   3.623   0.781   0.280
 5208SOL    HW116523   3.571   0.757   0.198
 5208SOL    HW216524   3.626   0.702   0.342
 5209SOL     OW16525   6.321   5.607   3.425
 5209SOL    HW116526   6.330   5.685   3.488
 5209SOL    HW216527   6.258   5.540   3.464
 5210SOL     OW16528   4.982   4.258   3.798
 5210SOL    HW116529   5.079   4.236   3.806
 5210SOL    HW216530   4.956   4.257   3.701
 5211SOL     OW16531   3.093   3.268   3.483
 5211SOL    HW116532   3.013   3.216   3.511
 5211SOL    HW216533   3.069   3.328   3.406
 5212SOL     OW16534   0.635   2.145   0.847
 5212SOL    HW116535   0.591   2.058   0.823
 5212SOL    HW216536   0.599   2.218   0.788
 5213SOL     OW16537   5.076   2.497   5.681
 5213SOL    HW116538   5.052   2.432   5.609
 5213SOL    HW216539   4.994   2.548   5.709
 5214SOL     OW16540   5.515   1.834   5.669
 5214SOL    HW116541   5.570   1.777   5.729
 5214SOL    HW216542   5.430   1.786   5.645
 5215SOL     OW16543   5.206   4.493   3.172
 5215SOL    HW116544   5.304   4.498   3.189
 5215SOL    HW216545   5.190   4.458   3.080
 5216SOL     OW16546   4.914   4.948   0.976
 5216SOL    HW116547   4.887   4.956   1.072
 5216SOL    HW216548   4.833   4.934   0.919
 5217SOL     OW16549   3.228   5.330   3.863
 5217SOL    HW116550   3.239   5.293   3.955
 5217SOL    HW216551   3.260   5.425   3.861
 5218SOL     OW16552   1.523   6.616   3.532
 5218SOL    HW116553   1.581   6.696   3.517
 5218SOL    HW216554   1.442   6.644   3.584
 5219SOL     OW16555   3.393   6.897   6.811
 5219SOL    HW116556   3.375   6.805   6.847
 5219SOL    HW216557   3.329   6.961   6.854
 5220SOL     OW16558   0.588   6.007   2.249
 5220SOL    HW116559   0.504   6.060   2.243
 5220SOL    HW216560   0.581   5.927   2.189
 5221SOL     OW16561   5.253   1.135   4.657
 5221SOL    HW116562   5.307   1.215   4.684
 5221SOL    HW216563   5.156   1.159   4.657
 5222SOL     OW16564   1.660   0.508   3.458
 5222SOL    HW116565   1.714   0.487   3.377
 5222SOL    HW216566   1.678   0.602   3.486
 5223SOL     OW16567   4.811   0.685   1.622
 5223SOL    HW116568   4.719   0.648   1.608
 5223SOL    HW216569   4.867   0.616   1.670
 5224SOL     OW16570   6.758   2.028   2.541
 5224SOL    HW116571   6.739   1.955   2.607
 5224SOL    HW216572   6.678   2.087   2.533
 5225SOL     OW16573   6.301   6.843   4.341
 5225SOL    HW116574   6.204   6.837   4.362
 5225SOL    HW216575   6.345   6.755   4.357
 5226SOL     OW16576   0.898   6.418   3.955
 5226SOL    HW116577   0.899   6.329   3.909
 5226SOL    HW216578   0.873   6.489   3.890
 5227SOL     OW16579   6.577   5.086   3.644
 5227SOL    HW116580   6.672   5.107   3.670
 5227SOL    HW216581   6.515   5.126   3.711
 5228SOL     OW16582   5.295   1.614   1.043
 5228SOL    HW116583   5.260   1.544   0.980
 5228SOL    HW216584   5.224   1.682   1.060
 5229SOL     OW16585   1.301   3.962   6.280
 5229SOL    HW116586   1.235   3.992   6.211
 5229SOL    HW216587   1.360   4.039   6.305
 5230SOL     OW16588   6.866   0.448   0.595
 5230SOL    HW116589   6.903   0.395   0.672
 5230SOL    HW216590   6.801   0.516   0.630
 5231SOL     OW16591   3.825   2.963   4.073
 5231SOL    HW116592   3.732   2.928   4.062
 5231SOL    HW216593   3.839   3.041   4.011
 5232SOL     OW16594   4.554   2.398   0.248
 5232SOL    HW116595   4.618   2.323   0.231
 5232SOL    HW216596   4.475   2.388   0.188
 5233SOL     OW16597   6.789   5.817   1.799
 5233SOL    HW116598   6.885   5.827   1.771
 5233SOL    HW216599   6.752   5.906   1.826
 5234SOL     OW16600   3.082   6.673   0.571
 5234SOL    HW116601   3.125   6.728   0.643
 5234SOL    HW216602   3.093   6.719   0.483
 5235SOL     OW16603   2.253   3.720   0.685
 5235SOL    HW116604   2.183   3.680   0.745
 5235SOL    HW216605   2.243   3.819   0.683
 5236SOL     OW16606   4.910   3.923   1.276
 5236SOL    HW116607   4.889   3.968   1.190
 5236SOL    HW216608   4.908   3.990   1.351
 5237SOL     OW16609   2.301   1.939   5.299
 5237SOL    HW116610   2.223   1.887   5.335
 5237SOL    HW216611   2.375   1.938   5.366
 5238SOL     OW16612   1.393   5.077   0.331
 5238SOL    HW116613   1.354   5.017   0.400
 5238SOL    HW216614   1.370   5.172   0.353
 5239SOL     OW16615   3.138   3.210   4.215
 5239SOL    HW116616   3.046   3.231   4.180
 5239SOL    HW216617   3.201   3.281   4.187
 5240SOL     OW16618   3.325   2.146   5.280
 5240SOL    HW116619   3.311   2.096   5.195
 5240SOL    HW216620   3.288   2.239   5.270
 5241SOL     OW16621   1.020   6.141   6.424
 5241SOL    HW116622   1.034   6.067   6.358
 5241SOL    HW216623   1.102   6.198   6.427
 5242SOL     OW16624   6.090   1.337   5.981
 5242SOL    HW116625   6.120   1.430   6.006
 5242SOL    HW216626   5.990   1.335   5.979
 5243SOL     OW16627   0.891   5.691   1.088
 5243SOL    HW116628   0.922   5.778   1.050
 5243SOL    HW216629   0.967   5.627   1.093
 5244SOL     OW16630   4.329   3.979   5.930
 5244SOL    HW116631   4.288   3.955   5.842
 5244SOL    HW216632   4.332   3.898   5.989
 5245SOL     OW16633   4.333   4.252   5.881
 5245SOL    HW116634   4.263   4.297   5.826
 5245SOL    HW216635   4.319   4.153   5.880
 5246SOL     OW16636   0.654   3.116   2.451
 5246SOL    HW116637   0.631   3.126   2.354
 5246SOL    HW216638   0.747   3.150   2.466
 5247SOL     OW16639   0.069   5.079   0.699
 5247SOL    HW116640   0.124   5.009   0.653
 5247SOL    HW216641   6.997   5.048   0.704
 5248SOL     OW16642   5.399   0.958   6.312
 5248SOL    HW116643   5.409   1.009   6.397
 5248SOL    HW216644   5.352   1.015   6.244
 5249SOL     OW16645   0.763   5.064   4.860
 5249SOL    HW116646   0.798   5.157   4.867
 5249SOL    HW216647   0.804   5.019   4.781
 5250SOL     OW16648   0.281   1.986   5.976
 5250SOL    HW116649   0.229   2.044   6.039
 5250SOL    HW216650   0.369   1.962   6.018
 5251SOL     OW16651   6.230   3.258   1.253
 5251SOL    HW116652   6.328   3.259   1.277
 5251SOL    HW216653   6.176   3.282   1.334
 5252SOL     OW16654   2.987   6.112   0.886
 5252SOL    HW116655   2.992   6.184   0.816
 5252SOL    HW216656   3.068   6.116   0.944
 5253SOL     OW16657   5.997   3.739   4.570
 5253SOL    HW116658   5.998   3.770   4.665
 5253SOL    HW216659   5.923   3.786   4.521
 5254SOL     OW16660   4.623   1.166   4.311
 5254SOL    HW116661   4.709   1.122   4.286
 5254SOL    HW216662   4.640   1.239   4.376
 5255SOL     OW16663   3.269   7.015   5.103
 5255SOL    HW116664   3.305   0.086   5.101
 5255SOL    HW216665   3.248   6.985   5.010
 5256SOL     OW16666   5.036   0.784   3.719
 5256SOL    HW116667   5.082   0.858   3.767
 5256SOL    HW216668   4.943   0.813   3.695
 5257SOL     OW16669   3.779   6.668   0.624
 5257SOL    HW116670   3.772   6.751   0.569
 5257SOL    HW216671   3.798   6.590   0.565
 5258SOL     OW16672   4.963   4.440   2.642
 5258SOL    HW116673   4.985   4.344   2.624
 5258SOL    HW216674   4.985   4.462   2.737
 5259SOL     OW16675   4.527   6.258   2.722
 5259SOL    HW116676   4.543   6.328   2.792
 5259SOL    HW216677   4.613   6.210   2.704
 5260SOL     OW16678   5.970   3.291   0.886
 5260SOL    HW116679   5.929   3.201   0.868
 5260SOL    HW216680   5.928   3.359   0.825
 5261SOL     OW16681   6.973   2.777   4.822
 5261SOL    HW116682   6.990   2.864   4.776
 5261SOL    HW216683   6.931   2.713   4.758
 5262SOL     OW16684   2.675   6.559   2.302
 5262SOL    HW116685   2.760   6.607   2.325
 5262SOL    HW216686   2.601   6.626   2.291
 5263SOL     OW16687   1.568   0.568   6.166
 5263SOL    HW116688   1.589   0.507   6.243
 5263SOL    HW216689   1.511   0.643   6.198
 5264SOL     OW16690   6.199   1.416   1.518
 5264SOL    HW116691   6.164   1.490   1.460
 5264SOL    HW216692   6.259   1.357   1.464
 5265SOL     OW16693   5.336   4.662   2.101
 5265SOL    HW116694   5.324   4.739   2.038
 5265SOL    HW216695   5.405   4.685   2.170
 5266SOL     OW16696   1.318   6.377   1.629
 5266SOL    HW116697   1.361   6.359   1.717
 5266SOL    HW216698   1.274   6.467   1.631
 5267SOL     OW16699   4.816   5.144   5.396
 5267SOL    HW116700   4.898   5.182   5.354
 5267SOL    HW216701   4.818   5.164   5.494
 5268SOL     OW16702   6.568   5.166   5.137
 5268SOL    HW116703   6.542   5.261   5.120
 5268SOL    HW216704   6.516   5.131   5.215
 5269SOL     OW16705   1.642   5.409   4.176
 5269SOL    HW116706   1.557   5.446   4.139
 5269SOL    HW216707   1.622   5.350   4.254
 5270SOL     OW16708   5.625   2.702   1.789
 5270SOL    HW116709   5.565   2.635   1.745
 5270SOL    HW216710   5.597   2.713   1.885
 5271SOL     OW16711   4.717   4.726   5.384
 5271SOL    HW116712   4.683   4.731   5.478
 5271SOL    HW216713   4.727   4.819   5.348
 5272SOL     OW16714   7.003   6.134   4.906
 5272SOL    HW116715   0.069   6.089   4.891
 5272SOL    HW216716   6.930   6.078   4.867
 5273SOL     OW16717   0.697   2.131   4.058
 5273SOL    HW116718   0.786   2.171   4.039
 5273SOL    HW216719   0.680   2.134   4.157
 5274SOL     OW16720   0.176   4.749   3.674
 5274SOL    HW116721   0.115   4.755   3.596
 5274SOL    HW216722   0.143   4.808   3.748
 5275SOL     OW16723   2.714   6.868   6.435
 5275SOL    HW116724   2.704   6.886   6.533
 5275SOL    HW216725   2.705   6.954   6.385
 5276SOL     OW16726   6.945   6.958   1.809
 5276SOL    HW116727   6.944   0.011   1.743
 5276SOL    HW216728   6.940   6.871   1.760
 5277SOL     OW16729   1.131   1.504   3.963
 5277SOL    HW116730   1.119   1.436   4.036
 5277SOL    HW216731   1.073   1.480   3.886
 5278SOL     OW16732   0.126   6.800   5.772
 5278SOL    HW116733   0.050   6.778   5.833
 5278SOL    HW216734   0.188   6.864   5.817
 5279SOL     OW16735   1.123   5.779   6.491
 5279SOL    HW116736   1.073   5.694   6.510
 5279SOL    HW216737   1.090   5.852   6.551
 5280SOL     OW16738   3.639   6.554   4.535
 5280SOL    HW116739   3.629   6.460   4.565
 5280SOL    HW216740   3.564   6.578   4.474
 5281SOL     OW16741   1.198   0.509   4.380
 5281SOL    HW116742   1.187   0.603   4.411
 5281SOL    HW216743   1.165   0.447   4.452
 5282SOL     OW16744   1.743   0.083   2.846
 5282SOL    HW116745   1.841   0.098   2.860
 5282SOL    HW216746   1.703   0.045   2.930
 5283SOL     OW16747   0.158   0.578   3.610
 5283SOL    HW116748   0.221   0.647   3.646
 5283SOL    HW216749   0.090   0.555   3.680
 5284SOL     OW16750   5.205   2.183   2.174
 5284SOL    HW116751   5.181   2.118   2.246
 5284SOL    HW216752   5.282   2.238   2.204
 5285SOL     OW16753   0.944   2.951   3.139
 5285SOL    HW116754   1.015   2.954   3.210
 5285SOL    HW216755   0.968   3.015   3.066
 5286SOL     OW16756   6.704   3.081   0.533
 5286SOL    HW116757   6.705   2.987   0.498
 5286SOL    HW216758   6.789   3.127   0.506
 5287SOL     OW16759   3.487   5.390   2.128
 5287SOL    HW116760   3.405   5.439   2.098
 5287SOL    HW216761   3.469   5.343   2.214
 5288SOL     OW16762   5.152   0.270   1.738
 5288SOL    HW116763   5.197   0.297   1.824
 5288SOL    HW216764   5.218   0.275   1.663
 5289SOL     OW16765   2.005   5.611   6.485
 5289SOL    HW116766   1.985   5.514   6.496
 5289SOL    HW216767   2.056   5.625   6.400
 5290SOL     OW16768   2.187   4.491   5.933
 5290SOL    HW116769   2.205   4.571   5.876
 5290SOL    HW216770   2.095   4.457   5.914
 5291SOL     OW16771   2.959   4.545   5.465
 5291SOL    HW116772   2.953   4.526   5.367
 5291SOL    HW216773   2.871   4.580   5.498
 5292SOL     OW16774   7.012   4.380   6.626
 5292SOL    HW116775   6.919   4.402   6.655
 5292SOL    HW216776   0.030   4.317   6.692
 5293SOL     OW16777   2.401   5.400   4.578
 5293SOL    HW116778   2.481   5.448   4.542
 5293SOL    HW216779   2.427   5.351   4.662
 5294SOL     OW16780   4.578   0.476   5.251
 5294SOL    HW116781   4.528   0.559   5.227
 5294SOL    HW216782   4.514   0.404   5.278
 5295SOL     OW16783   3.566   1.023   3.397
 5295SOL    HW116784   3.599   0.971   3.318
 5295SOL    HW216785   3.491   0.974   3.440
 5296SOL     OW16786   3.957   4.376   1.012
 5296SOL    HW116787   4.001   4.286   1.013
 5296SOL    HW216788   4.016   4.441   0.964
 5297SOL     OW16789   2.608   3.514   0.036
 5297SOL    HW116790   2.610   3.535   6.961
 5297SOL    HW216791   2.698   3.481   0.065
 5298SOL     OW16792   2.238   6.039   6.835
 5298SOL    HW116793   2.273   6.041   6.741
 5298SOL    HW216794   2.203   6.129   6.860
 5299SOL     OW16795   2.779   2.443   0.808
 5299SOL    HW116796   2.744   2.483   0.724
 5299SOL    HW216797   2.879   2.451   0.809
 5300SOL     OW16798   1.071   4.783   0.515
 5300SOL    HW116799   1.074   4.842   0.595
 5300SOL    HW216800   1.002   4.712   0.529
 5301SOL     OW16801   4.166   0.464   0.110
 5301SOL    HW116802   4.163   0.527   0.187
 5301SOL    HW216803   4.173   0.515   0.024
 5302SOL     OW16804   4.655   5.752   3.530
 5302SOL    HW116805   4.623   5.691   3.458
 5302SOL    HW216806   4.619   5.844   3.515
 5303SOL     OW16807   6.627   4.982   6.254
 5303SOL    HW116808   6.629   5.075   6.289
 5303SOL    HW216809   6.714   4.962   6.208
 5304SOL     OW16810   5.862   1.061   1.046
 5304SOL    HW116811   5.918   1.143   1.056
 5304SOL    HW216812   5.772   1.077   1.087
 5305SOL     OW16813   1.250   5.361   2.892
 5305SOL    HW116814   1.218   5.454   2.876
 5305SOL    HW216815   1.331   5.362   2.950
 5306SOL     OW16816   0.084   4.110   5.797
 5306SOL    HW116817   0.165   4.073   5.842
 5306SOL    HW216818   0.109   4.190   5.742
 5307SOL     OW16819   4.616   2.023   0.487
 5307SOL    HW116820   4.635   2.065   0.575
 5307SOL    HW216821   4.519   2.030   0.466
 5308SOL     OW16822   1.331   4.490   2.631
 5308SOL    HW116823   1.330   4.501   2.730
 5308SOL    HW216824   1.340   4.393   2.608
 5309SOL     OW16825   4.037   5.985   2.696
 5309SOL    HW116826   4.130   6.022   2.698
 5309SOL    HW216827   4.036   5.901   2.642
 5310SOL     OW16828   6.422   3.191   2.333
 5310SOL    HW116829   6.409   3.274   2.387
 5310SOL    HW216830   6.374   3.201   2.245
 5311SOL     OW16831   5.988   0.823   0.072
 5311SOL    HW116832   6.047   0.752   0.033
 5311SOL    HW216833   6.027   0.913   0.053
 5312SOL     OW16834   0.156   5.951   1.567
 5312SOL    HW116835   0.155   6.003   1.653
 5312SOL    HW216836   0.069   5.903   1.556
 5313SOL     OW16837   0.288   4.995   5.510
 5313SOL    HW116838   0.265   5.034   5.599
 5313SOL    HW216839   0.342   5.062   5.458
 5314SOL     OW16840   5.329   6.689   0.555
 5314SOL    HW116841   5.363   6.728   0.469
 5314SOL    HW216842   5.391   6.713   0.629
 5315SOL     OW16843   4.847   2.470   3.510
 5315SOL    HW116844   4.808   2.406   3.444
 5315SOL    HW216845   4.941   2.491   3.484
 5316SOL     OW16846   0.927   3.921   5.457
 5316SOL    HW116847   1.004   3.919   5.393
 5316SOL    HW216848   0.950   3.867   5.538
 5317SOL     OW16849   6.688   1.309   5.422
 5317SOL    HW116850   6.654   1.252   5.348
 5317SOL    HW216851   6.693   1.255   5.506
 5318SOL     OW16852   0.549   3.098   0.890
 5318SOL    HW116853   0.493   3.090   0.808
 5318SOL    HW216854   0.644   3.114   0.864
 5319SOL     OW16855   4.623   6.336   0.771
 5319SOL    HW116856   4.562   6.412   0.750
 5319SOL    HW216857   4.681   6.316   0.692
 5320SOL     OW16858   4.260   5.932   1.268
 5320SOL    HW116859   4.198   5.907   1.343
 5320SOL    HW216860   4.315   5.853   1.243
 5321SOL     OW16861   2.322   4.583   5.028
 5321SOL    HW116862   2.231   4.547   5.007
 5321SOL    HW216863   2.362   4.529   5.102
 5322SOL     OW16864   5.468   0.032   0.665
 5322SOL    HW116865   5.484   7.018   0.573
 5322SOL    HW216866   5.526   0.112   0.679
 5323SOL     OW16867   4.322   1.145   5.816
 5323SOL    HW116868   4.421   1.130   5.812
 5323SOL    HW216869   4.285   1.152   5.724
 5324SOL     OW16870   2.754   2.068   0.115
 5324SOL    HW116871   2.849   2.078   0.086
 5324SOL    HW216872   2.700   2.143   0.077
 5325SOL     OW16873   2.653   1.518   4.599
 5325SOL    HW116874   2.676   1.615   4.595
 5325SOL    HW216875   2.711   1.473   4.666
 5326SOL     OW16876   6.195   5.988   3.407
 5326SOL    HW116877   6.288   5.968   3.375
 5326SOL    HW216878   6.136   6.005   3.328
 5327SOL     OW16879   5.749   2.503   4.766
 5327SOL    HW116880   5.823   2.506   4.833
 5327SOL    HW216881   5.783   2.533   4.677
 5328SOL     OW16882   3.634   3.714   5.848
 5328SOL    HW116883   3.561   3.691   5.785
 5328SOL    HW216884   3.718   3.667   5.820
 5329SOL     OW16885   1.024   5.475   6.494
 5329SOL    HW116886   1.056   5.381   6.492
 5329SOL    HW216887   0.984   5.494   6.584
 5330SOL     OW16888   3.976   4.367   0.102
 5330SOL    HW116889   3.928   4.434   0.046
 5330SOL    HW216890   3.975   4.278   0.056
 5331SOL     OW16891   6.096   1.927   6.684
 5331SOL    HW116892   6.008   1.974   6.680
 5331SOL    HW216893   6.086   1.835   6.647
 5332SOL     OW16894   1.839   4.110   1.489
 5332SOL    HW116895   1.839   4.113   1.589
 5332SOL    HW216896   1.892   4.032   1.458
 5333SOL     OW16897   1.296   0.894   3.298
 5333SOL    HW116898   1.320   0.971   3.238
 5333SOL    HW216899   1.231   0.834   3.251
 5334SOL     OW16900   3.149   0.703   5.442
 5334SOL    HW116901   3.248   0.691   5.441
 5334SOL    HW216902   3.127   0.797   5.469
 5335SOL     OW16903   6.247   6.141   0.868
 5335SOL    HW116904   6.211   6.214   0.926
 5335SOL    HW216905   6.173   6.104   0.811
 5336SOL     OW16906   1.670   3.423   2.480
 5336SOL    HW116907   1.708   3.331   2.471
 5336SOL    HW216908   1.673   3.470   2.392
 5337SOL     OW16909   4.519   3.846   1.315
 5337SOL    HW116910   4.616   3.823   1.326
 5337SOL    HW216911   4.463   3.771   1.349
 5338SOL     OW16912   5.781   1.997   6.678
 5338SOL    HW116913   5.759   1.916   6.624
 5338SOL    HW216914   5.716   2.005   6.754
 5339SOL     OW16915   6.165   1.484   3.701
 5339SOL    HW116916   6.262   1.466   3.692
 5339SOL    HW216917   6.146   1.578   3.672
 5340SOL     OW16918   6.014   2.759   0.300
 5340SOL    HW116919   5.932   2.805   0.336
 5340SOL    HW216920   6.096   2.803   0.337
 5341SOL     OW16921   3.837   2.273   5.782
 5341SOL    HW116922   3.758   2.334   5.779
 5341SOL    HW216923   3.896   2.291   5.704
 5342SOL     OW16924   3.904   0.634   4.861
 5342SOL    HW116925   3.901   0.689   4.778
 5342SOL    HW216926   3.894   0.693   4.941
 5343SOL     OW16927   3.494   3.397   3.354
 5343SOL    HW116928   3.500   3.339   3.273
 5343SOL    HW216929   3.586   3.420   3.385
 5344SOL     OW16930   1.707   2.611   2.715
 5344SOL    HW116931   1.692   2.520   2.754
 5344SOL    HW216932   1.771   2.662   2.772
 5345SOL     OW16933   4.321   5.930   0.779
 5345SOL    HW116934   4.226   5.956   0.795
 5345SOL    HW216935   4.335   5.909   0.683
 5346SOL     OW16936   3.078   6.362   3.530
 5346SOL    HW116937   3.095   6.265   3.551
 5346SOL    HW216938   3.013   6.368   3.454
 5347SOL     OW16939   0.133   2.170   2.441
 5347SOL    HW116940   0.196   2.183   2.364
 5347SOL    HW216941   0.154   2.236   2.513
 5348SOL     OW16942   0.955   1.661   0.457
 5348SOL    HW116943   0.918   1.652   0.550
 5348SOL    HW216944   0.942   1.575   0.408
 5349SOL     OW16945   0.986   2.361   0.354
 5349SOL    HW116946   1.054   2.300   0.312
 5349SOL    HW216947   1.023   2.454   0.358
 5350SOL     OW16948   2.593   0.345   6.271
 5350SOL    HW116949   2.500   0.338   6.235
 5350SOL    HW216950   2.651   0.396   6.207
 5351SOL     OW16951   4.943   5.697   1.364
 5351SOL    HW116952   4.965   5.765   1.295
 5351SOL    HW216953   4.949   5.738   1.455
 5352SOL     OW16954   2.186   6.008   3.716
 5352SOL    HW116955   2.148   6.100   3.715
 5352SOL    HW216956   2.225   5.986   3.627
 5353SOL     OW16957   4.016   5.953   4.472
 5353SOL    HW116958   3.985   6.045   4.498
 5353SOL    HW216959   4.115   5.946   4.484
 5354SOL     OW16960   2.262   4.613   2.495
 5354SOL    HW116961   2.352   4.610   2.453
 5354SOL    HW216962   2.197   4.657   2.433
 5355SOL     OW16963   4.936   2.424   3.759
 5355SOL    HW116964   4.963   2.328   3.770
 5355SOL    HW216965   4.887   2.435   3.672
 5356SOL     OW16966   5.846   4.207   1.885
 5356SOL    HW116967   5.747   4.214   1.885
 5356SOL    HW216968   5.886   4.292   1.849
 5357SOL     OW16969   3.346   0.845   1.333
 5357SOL    HW116970   3.262   0.875   1.378
 5357SOL    HW216971   3.323   0.785   1.256
 5358SOL     OW16972   4.223   2.445   0.761
 5358SOL    HW116973   4.177   2.521   0.807
 5358SOL    HW216974   4.321   2.452   0.776
 5359SOL     OW16975   2.302   1.664   0.590
 5359SOL    HW116976   2.241   1.714   0.530
 5359SOL    HW216977   2.375   1.725   0.623
 5360SOL     OW16978   3.913   6.762   4.821
 5360SOL    HW116979   3.827   6.812   4.810
 5360SOL    HW216980   3.969   6.773   4.739
 5361SOL     OW16981   2.566   0.507   4.896
 5361SOL    HW116982   2.514   0.588   4.869
 5361SOL    HW216983   2.664   0.527   4.893
 5362SOL     OW16984   4.988   4.495   3.497
 5362SOL    HW116985   4.936   4.535   3.573
 5362SOL    HW216986   4.997   4.562   3.424
 5363SOL     OW16987   0.957   6.088   5.909
 5363SOL    HW116988   0.859   6.074   5.891
 5363SOL    HW216989   1.009   6.014   5.866
 5364SOL     OW16990   6.571   5.541   0.836
 5364SOL    HW116991   6.523   5.585   0.911
 5364SOL    HW216992   6.584   5.607   0.761
 5365SOL     OW16993   4.589   2.986   6.498
 5365SOL    HW116994   4.600   3.053   6.425
 5365SOL    HW216995   4.669   2.989   6.558
 5366SOL     OW16996   4.953   4.818   1.247
 5366SOL    HW116997   5.026   4.884   1.266
 5366SOL    HW216998   4.871   4.842   1.299
 5367SOL     OW16999   0.335   5.113   0.500
 5367SOL    HW117000   0.271   5.037   0.509
 5367SOL    HW217001   0.387   5.123   0.586
 5368SOL     OW17002   5.287   1.356   2.842
 5368SOL    HW117003   5.318   1.269   2.881
 5368SOL    HW217004   5.203   1.341   2.789
 5369SOL     OW17005   2.648   5.959   3.410
 5369SOL    HW117006   2.666   5.975   3.507
 5369SOL    HW217007   2.558   5.997   3.386
 5370SOL     OW17008   4.056   3.026   1.710
 5370SOL    HW117009   4.071   3.060   1.803
 5370SOL    HW217010   4.039   3.104   1.649
 5371SOL     OW17011   1.980   4.251   4.206
 5371SOL    HW117012   1.988   4.170   4.148
 5371SOL    HW217013   2.037   4.241   4.287
 5372SOL     OW17014   2.628   5.387   2.454
 5372SOL    HW117015   2.593   5.293   2.461
 5372SOL    HW217016   2.723   5.385   2.424
 5373SOL     OW17017   3.038   4.964   4.339
 5373SOL    HW117018   2.962   4.972   4.275
 5373SOL    HW217019   3.013   4.902   4.414
 5374SOL     OW17020   1.131   3.443   6.969
 5374SOL    HW117021   1.179   3.405   6.890
 5374SOL    HW217022   1.047   3.488   6.938
 5375SOL     OW17023   1.060   4.839   4.971
 5375SOL    HW117024   0.987   4.857   5.037
 5375SOL    HW217025   1.028   4.772   4.904
 5376SOL     OW17026   1.670   3.151   1.254
 5376SOL    HW117027   1.770   3.148   1.247
 5376SOL    HW217028   1.636   3.059   1.275
 5377SOL     OW17029   0.013   0.194   1.948
 5377SOL    HW117030   0.072   0.200   2.029
 5377SOL    HW217031   7.019   0.098   1.925
 5378SOL     OW17032   6.923   0.364   1.277
 5378SOL    HW117033   6.912   0.445   1.219
 5378SOL    HW217034   6.853   0.363   1.348
 5379SOL     OW17035   0.273   5.282   4.388
 5379SOL    HW117036   0.246   5.377   4.404
 5379SOL    HW217037   0.253   5.258   4.293
 5380SOL     OW17038   2.166   0.784   3.622
 5380SOL    HW117039   2.173   0.866   3.679
 5380SOL    HW217040   2.188   0.806   3.528
 5381SOL     OW17041   6.659   3.576   0.681
 5381SOL    HW117042   6.613   3.604   0.596
 5381SOL    HW217043   6.661   3.476   0.686
 5382SOL     OW17044   3.126   0.167   1.579
 5382SOL    HW117045   3.124   0.138   1.675
 5382SOL    HW217046   3.053   0.121   1.528
 5383SOL     OW17047   2.961   2.323   5.303
 5383SOL    HW117048   2.956   2.387   5.380
 5383SOL    HW217049   3.039   2.347   5.245
 5384SOL     OW17050   6.019   0.619   4.043
 5384SOL    HW117051   6.008   0.719   4.047
 5384SOL    HW217052   6.113   0.597   4.017
 5385SOL     OW17053   3.281   4.099   3.151
 5385SOL    HW117054   3.291   4.000   3.149
 5385SOL    HW217055   3.283   4.135   3.058
 5386SOL     OW17056   4.603   6.215   4.147
 5386SOL    HW117057   4.613   6.124   4.186
 5386SOL    HW217058   4.693   6.252   4.125
 5387SOL     OW17059   2.043   5.910   3.138
 5387SOL    HW117060   1.995   5.953   3.061
 5387SOL    HW217061   2.000   5.823   3.159
 5388SOL     OW17062   5.423   6.231   2.817
 5388SOL    HW117063   5.439   6.319   2.862
 5388SOL    HW217064   5.510   6.193   2.785
 5389SOL     OW17065   5.224   0.820   1.596
 5389SOL    HW117066   5.234   0.728   1.559
 5389SOL    HW217067   5.310   0.849   1.638
 5390SOL     OW17068   4.326   5.320   3.932
 5390SOL    HW117069   4.410   5.287   3.976
 5390SOL    HW217070   4.326   5.420   3.932
 5391SOL     OW17071   2.397   2.962   0.442
 5391SOL    HW117072   2.388   2.882   0.383
 5391SOL    HW217073   2.321   2.964   0.507
 5392SOL     OW17074   6.209   3.638   0.933
 5392SOL    HW117075   6.118   3.652   0.971
 5392SOL    HW217076   6.236   3.542   0.946
 5393SOL     OW17077   6.332   0.126   6.815
 5393SOL    HW117078   6.412   0.067   6.822
 5393SOL    HW217079   6.314   0.146   6.718
 5394SOL     OW17080   0.357   3.751   6.334
 5394SOL    HW117081   0.416   3.711   6.404
 5394SOL    HW217082   0.383   3.715   6.244
 5395SOL     OW17083   4.498   0.616   1.595
 5395SOL    HW117084   4.480   0.667   1.511
 5395SOL    HW217085   4.465   0.669   1.673
 5396SOL     OW17086   4.925   3.165   2.438
 5396SOL    HW117087   4.858   3.200   2.372
 5396SOL    HW217088   4.960   3.240   2.494
 5397SOL     OW17089   0.108   2.931   1.945
 5397SOL    HW117090   0.182   2.943   2.012
 5397SOL    HW217091   0.022   2.964   1.984
 5398SOL     OW17092   3.379   2.121   1.469
 5398SOL    HW117093   3.371   2.218   1.494
 5398SOL    HW217094   3.464   2.084   1.507
 5399SOL     OW17095   2.353   6.448   0.901
 5399SOL    HW117096   2.346   6.405   0.991
 5399SOL    HW217097   2.420   6.399   0.845
 5400SOL     OW17098   3.170   4.299   0.947
 5400SOL    HW117099   3.246   4.238   0.928
 5400SOL    HW217100   3.185   4.387   0.901
 5401SOL     OW17101   5.738   3.345   1.764
 5401SOL    HW117102   5.741   3.277   1.837
 5401SOL    HW217103   5.662   3.325   1.703
 5402SOL     OW17104   2.492   5.806   2.030
 5402SOL    HW117105   2.429   5.749   2.082
 5402SOL    HW217106   2.572   5.828   2.087
 5403SOL     OW17107   6.636   3.012   6.349
 5403SOL    HW117108   6.638   2.940   6.279
 5403SOL    HW217109   6.683   3.093   6.315
 5404SOL     OW17110   1.055   1.978   3.819
 5404SOL    HW117111   0.970   2.006   3.774
 5404SOL    HW217112   1.124   1.957   3.750
 5405SOL     OW17113   6.590   5.678   0.206
 5405SOL    HW117114   6.676   5.677   0.256
 5405SOL    HW217115   6.542   5.591   0.221
 5406SOL     OW17116   2.496   1.515   6.285
 5406SOL    HW117117   2.519   1.458   6.364
 5406SOL    HW217118   2.429   1.467   6.228
 5407SOL     OW17119   4.341   3.454   0.291
 5407SOL    HW117120   4.279   3.445   0.369
 5407SOL    HW217121   4.396   3.371   0.282
 5408SOL     OW17122   2.582   1.144   5.427
 5408SOL    HW117123   2.524   1.086   5.484
 5408SOL    HW217124   2.603   1.097   5.342
 5409SOL     OW17125   5.188   0.022   3.034
 5409SOL    HW117126   5.255   0.095   3.032
 5409SOL    HW217127   5.182   7.001   2.944
 5410SOL     OW17128   2.575   2.420   1.631
 5410SOL    HW117129   2.499   2.464   1.680
 5410SOL    HW217130   2.633   2.372   1.696
 5411SOL     OW17131   6.399   4.844   6.083
 5411SOL    HW117132   6.397   4.866   6.180
 5411SOL    HW217133   6.317   4.880   6.038
 5412SOL     OW17134   4.572   2.166   0.704
 5412SOL    HW117135   4.613   2.254   0.728
 5412SOL    HW217136   4.473   2.173   0.709
 5413SOL     OW17137   2.842   1.048   1.149
 5413SOL    HW117138   2.910   1.030   1.220
 5413SOL    HW217139   2.766   1.100   1.188
 5414SOL     OW17140   5.316   1.870   4.719
 5414SOL    HW117141   5.248   1.942   4.729
 5414SOL    HW217142   5.408   1.909   4.726
 5415SOL     OW17143   0.421   5.820   1.486
 5415SOL    HW117144   0.331   5.857   1.511
 5415SOL    HW217145   0.446   5.852   1.395
 5416SOL     OW17146   4.354   5.291   5.422
 5416SOL    HW117147   4.376   5.357   5.350
 5416SOL    HW217148   4.297   5.335   5.491
 5417SOL     OW17149   3.580   6.587   5.994
 5417SOL    HW117150   3.481   6.583   5.981
 5417SOL    HW217151   3.624   6.614   5.908
 5418SOL     OW17152   3.452   0.403   3.378
 5418SOL    HW117153   3.495   0.329   3.430
 5418SOL    HW217154   3.375   0.368   3.326
 5419SOL     OW17155   3.736   5.143   0.129
 5419SOL    HW117156   3.779   5.087   0.200
 5419SOL    HW217157   3.638   5.123   0.126
 5420SOL     OW17158   2.091   3.582   3.043
 5420SOL    HW117159   2.070   3.530   2.961
 5420SOL    HW217160   2.089   3.522   3.123
 5421SOL     OW17161   1.501   3.451   1.698
 5421SOL    HW117162   1.501   3.455   1.599
 5421SOL    HW217163   1.477   3.540   1.736
 5422SOL     OW17164   0.422   4.882   0.763
 5422SOL    HW117165   0.364   4.914   0.838
 5422SOL    HW217166   0.371   4.818   0.706
 5423SOL     OW17167   6.869   2.817   6.897
 5423SOL    HW117168   6.771   2.794   6.893
 5423SOL    HW217169   6.904   2.825   6.804
 5424SOL     OW17170   5.235   3.046   3.887
 5424SOL    HW117171   5.138   3.025   3.898
 5424SOL    HW217172   5.250   3.143   3.903
 5425SOL     OW17173   4.192   0.914   4.785
 5425SOL    HW117174   4.112   0.892   4.840
 5425SOL    HW217175   4.166   0.975   4.711
 5426SOL     OW17176   5.970   6.026   4.652
 5426SOL    HW117177   5.922   6.113   4.641
 5426SOL    HW217178   5.912   5.951   4.620
 5427SOL     OW17179   5.222   5.703   6.333
 5427SOL    HW117180   5.313   5.742   6.319
 5427SOL    HW217181   5.196   5.713   6.429
 5428SOL     OW17182   6.835   0.070   1.436
 5428SOL    HW117183   6.817   0.168   1.437
 5428SOL    HW217184   6.934   0.054   1.438
 5429SOL     OW17185   2.165   1.908   6.420
 5429SOL    HW117186   2.155   1.822   6.369
 5429SOL    HW217187   2.154   1.891   6.518
 5430SOL     OW17188   0.096   2.723   5.564
 5430SOL    HW117189   0.172   2.667   5.595
 5430SOL    HW217190   0.081   2.707   5.466
 5431SOL     OW17191   3.430   6.115   0.571
 5431SOL    HW117192   3.406   6.026   0.531
 5431SOL    HW217193   3.526   6.136   0.549
 5432SOL     OW17194   5.438   0.554   6.807
 5432SOL    HW117195   5.417   0.650   6.825
 5432SOL    HW217196   5.536   0.545   6.787
 5433SOL     OW17197   0.481   1.822   4.587
 5433SOL    HW117198   0.390   1.785   4.570
 5433SOL    HW217199   0.523   1.773   4.664
 5434SOL     OW17200   3.390   0.685   5.824
 5434SOL    HW117201   3.450   0.713   5.749
 5434SOL    HW217202   3.321   0.756   5.840
 5435SOL     OW17203   5.947   0.060   1.992
 5435SOL    HW117204   5.992   7.005   2.037
 5435SOL    HW217205   5.896   0.027   1.913
 5436SOL     OW17206   5.110   3.958   4.108
 5436SOL    HW117207   5.026   3.982   4.157
 5436SOL    HW217208   5.104   3.863   4.077
 5437SOL     OW17209   2.900   3.737   6.963
 5437SOL    HW117210   2.806   3.770   6.963
 5437SOL    HW217211   2.950   3.776   0.018
 5438SOL     OW17212   6.940   2.242   1.583
 5438SOL    HW117213   6.889   2.212   1.502
 5438SOL    HW217214   6.917   2.338   1.602
 5439SOL     OW17215   1.536   1.753   1.253
 5439SOL    HW117216   1.531   1.834   1.194
 5439SOL    HW217217   1.556   1.673   1.197
 5440SOL     OW17218   0.883   1.249   0.868
 5440SOL    HW117219   0.835   1.162   0.865
 5440SOL    HW217220   0.970   1.241   0.819
 5441SOL     OW17221   4.025   2.176   3.392
 5441SOL    HW117222   4.000   2.272   3.382
 5441SOL    HW217223   4.050   2.138   3.303
 5442SOL     OW17224   4.255   6.745   2.964
 5442SOL    HW117225   4.318   6.766   3.039
 5442SOL    HW217226   4.165   6.723   3.002
 5443SOL     OW17227   3.672   6.871   4.672
 5443SOL    HW117228   3.673   6.901   4.576
 5443SOL    HW217229   3.614   6.790   4.680
 5444SOL     OW17230   1.035   0.750   3.913
 5444SOL    HW117231   1.097   0.810   3.965
 5444SOL    HW217232   0.968   0.710   3.975
 5445SOL     OW17233   6.331   4.108   3.254
 5445SOL    HW117234   6.385   4.064   3.181
 5445SOL    HW217235   6.369   4.084   3.343
 5446SOL     OW17236   6.319   5.467   4.718
 5446SOL    HW117237   6.389   5.524   4.675
 5446SOL    HW217238   6.312   5.380   4.669
 5447SOL     OW17239   2.773   2.294   6.834
 5447SOL    HW117240   2.871   2.315   6.834
 5447SOL    HW217241   2.721   2.379   6.846
 5448SOL     OW17242   4.148   2.935   5.496
 5448SOL    HW117243   4.107   2.888   5.418
 5448SOL    HW217244   4.232   2.887   5.523
 5449SOL     OW17245   1.656   2.916   6.220
 5449SOL    HW117246   1.623   2.853   6.290
 5449SOL    HW217247   1.601   3.000   6.223
 5450SOL     OW17248   2.221   0.724   1.592
 5450SOL    HW117249   2.301   0.690   1.543
 5450SOL    HW217250   2.236   0.820   1.618
 5451SOL     OW17251   1.863   6.307   3.544
 5451SOL    HW117252   1.889   6.315   3.448
 5451SOL    HW217253   1.945   6.291   3.599
 5452SOL     OW17254   2.320   4.747   6.888
 5452SOL    HW117255   2.242   4.700   6.929
 5452SOL    HW217256   2.405   4.704   6.920
 5453SOL     OW17257   6.059   4.099   0.659
 5453SOL    HW117258   6.079   4.192   0.690
 5453SOL    HW217259   6.126   4.035   0.697
 5454SOL     OW17260   6.780   3.958   0.052
 5454SOL    HW117261   6.797   3.900   6.995
 5454SOL    HW217262   6.847   3.937   0.124
 5455SOL     OW17263   6.619   3.095   6.861
 5455SOL    HW117264   6.598   3.062   6.769
 5455SOL    HW217265   6.711   3.133   6.863
 5456SOL     OW17266   3.609   6.705   6.764
 5456SOL    HW117267   3.547   6.782   6.753
 5456SOL    HW217268   3.704   6.735   6.750
 5457SOL     OW17269   5.255   1.928   0.826
 5457SOL    HW117270   5.354   1.917   0.817
 5457SOL    HW217271   5.226   1.897   0.917
 5458SOL     OW17272   0.890   4.630   0.038
 5458SOL    HW117273   0.864   4.725   0.023
 5458SOL    HW217274   0.981   4.626   0.081
 5459SOL     OW17275   1.777   5.339   0.632
 5459SOL    HW117276   1.731   5.351   0.543
 5459SOL    HW217277   1.872   5.368   0.625
 5460SOL     OW17278   3.097   0.214   2.316
 5460SOL    HW117279   3.073   0.261   2.231
 5460SOL    HW217280   3.087   0.116   2.304
 5461SOL     OW17281   6.005   6.200   5.024
 5461SOL    HW117282   5.968   6.110   5.003
 5461SOL    HW217283   5.950   6.271   4.980
 5462SOL     OW17284   1.639   0.796   0.623
 5462SOL    HW117285   1.721   0.775   0.570
 5462SOL    HW217286   1.606   0.713   0.668
 5463SOL     OW17287   6.053   2.011   0.222
 5463SOL    HW117288   6.127   2.055   0.171
 5463SOL    HW217289   5.981   1.985   0.159
 5464SOL     OW17290   1.532   0.388   4.219
 5464SOL    HW117291   1.504   0.416   4.311
 5464SOL    HW217292   1.604   0.449   4.186
 5465SOL     OW17293   3.446   6.638   3.452
 5465SOL    HW117294   3.360   6.612   3.408
 5465SOL    HW217295   3.501   6.694   3.390
 5466SOL     OW17296   5.954   4.336   4.801
 5466SOL    HW117297   5.958   4.311   4.704
 5466SOL    HW217298   5.954   4.435   4.809
 5467SOL     OW17299   5.127   2.047   3.046
 5467SOL    HW117300   5.212   2.069   3.094
 5467SOL    HW217301   5.130   1.953   3.012
 5468SOL     OW17302   5.031   1.363   4.694
 5468SOL    HW117303   5.119   1.390   4.654
 5468SOL    HW217304   5.045   1.328   4.786
 5469SOL     OW17305   3.825   4.986   6.601
 5469SOL    HW117306   3.862   5.060   6.658
 5469SOL    HW217307   3.803   5.021   6.511
 5470SOL     OW17308   2.035   5.367   3.000
 5470SOL    HW117309   2.081   5.451   3.030
 5470SOL    HW217310   2.052   5.294   3.066
 5471SOL     OW17311   5.863   6.834   1.188
 5471SOL    HW117312   5.918   6.774   1.129
 5471SOL    HW217313   5.908   6.843   1.277
 5472SOL     OW17314   4.315   4.307   6.163
 5472SOL    HW117315   4.249   4.377   6.190
 5472SOL    HW217316   4.314   4.297   6.064
 5473SOL     OW17317   0.774   3.404   3.345
 5473SOL    HW117318   0.759   3.384   3.442
 5473SOL    HW217319   0.871   3.423   3.330
 5474SOL     OW17320   1.513   4.463   4.676
 5474SOL    HW117321   1.507   4.390   4.744
 5474SOL    HW217322   1.526   4.550   4.722
 5475SOL     OW17323   3.614   2.687   1.192
 5475SOL    HW117324   3.540   2.736   1.237
 5475SOL    HW217325   3.667   2.750   1.135
 5476SOL     OW17326   2.282   3.523   6.285
 5476SOL    HW117327   2.222   3.508   6.364
 5476SOL    HW217328   2.233   3.572   6.214
 5477SOL     OW17329   2.197   3.941   3.618
 5477SOL    HW117330   2.226   3.997   3.540
 5477SOL    HW217331   2.231   3.980   3.702
 5478SOL     OW17332   5.552   5.661   5.518
 5478SOL    HW117333   5.593   5.710   5.440
 5478SOL    HW217334   5.462   5.700   5.537
 5479SOL     OW17335   4.657   0.819   5.369
 5479SOL    HW117336   4.740   0.794   5.420
 5479SOL    HW217337   4.578   0.775   5.412
 5480SOL     OW17338   0.723   3.528   3.870
 5480SOL    HW117339   0.633   3.565   3.891
 5480SOL    HW217340   0.760   3.480   3.950
 5481SOL     OW17341   3.359   0.283   4.558
 5481SOL    HW117342   3.271   0.298   4.515
 5481SOL    HW217343   3.412   0.218   4.503
 5482SOL     OW17344   3.909   4.308   1.700
 5482SOL    HW117345   3.882   4.392   1.653
 5482SOL    HW217346   4.008   4.296   1.691
 5483SOL     OW17347   0.766   3.336   5.292
 5483SOL    HW117348   0.820   3.320   5.375
 5483SOL    HW217349   0.670   3.311   5.309
 5484SOL     OW17350   4.704   0.233   4.880
 5484SOL    HW117351   4.721   0.154   4.939
 5484SOL    HW217352   4.609   0.231   4.850
 5485SOL     OW17353   2.870   6.944   5.564
 5485SOL    HW117354   2.900   6.948   5.659
 5485SOL    HW217355   2.806   6.867   5.553
 5486SOL     OW17356   2.428   5.843   4.994
 5486SOL    HW117357   2.463   5.814   4.905
 5486SOL    HW217358   2.476   5.793   5.067
 5487SOL     OW17359   3.067   4.480   5.830
 5487SOL    HW117360   3.043   4.406   5.767
 5487SOL    HW217361   2.984   4.527   5.860
 5488SOL     OW17362   6.685   0.982   0.553
 5488SOL    HW117363   6.775   0.993   0.595
 5488SOL    HW217364   6.614   0.999   0.621
 5489SOL     OW17365   6.736   3.015   2.322
 5489SOL    HW117366   6.711   3.074   2.246
 5489SOL    HW217367   6.769   3.070   2.398
 5490SOL     OW17368   1.671   6.674   2.402
 5490SOL    HW117369   1.589   6.666   2.345
 5490SOL    HW217370   1.648   6.721   2.487
 5491SOL     OW17371   6.942   3.002   0.277
 5491SOL    HW117372   6.934   3.090   0.323
 5491SOL    HW217373   6.862   2.988   0.218
 5492SOL     OW17374   0.879   3.219   5.552
 5492SOL    HW117375   0.956   3.171   5.594
 5492SOL    HW217376   0.812   3.244   5.622
 5493SOL     OW17377   4.127   3.703   2.170
 5493SOL    HW117378   4.086   3.726   2.258
 5493SOL    HW217379   4.226   3.719   2.174
 5494SOL     OW17380   5.746   4.443   5.415
 5494SOL    HW117381   5.762   4.446   5.514
 5494SOL    HW217382   5.720   4.534   5.383
 5495SOL     OW17383   6.124   0.590   0.400
 5495SOL    HW117384   6.101   0.508   0.452
 5495SOL    HW217385   6.040   0.636   0.371
 5496SOL     OW17386   4.399   0.762   4.241
 5496SOL    HW117387   4.409   0.667   4.212
 5496SOL    HW217388   4.490   0.800   4.259
 5497SOL     OW17389   0.330   0.969   6.068
 5497SOL    HW117390   0.400   0.912   6.110
 5497SOL    HW217391   0.282   0.917   5.997
 5498SOL     OW17392   0.196   4.992   1.483
 5498SOL    HW117393   0.192   4.926   1.408
 5498SOL    HW217394   0.117   4.978   1.544
 5499SOL     OW17395   0.086   0.835   3.955
 5499SOL    HW117396   0.107   0.888   3.872
 5499SOL    HW217397   0.141   0.870   4.031
 5500SOL     OW17398   1.754   0.849   0.177
 5500SOL    HW117399   1.681   0.817   0.116
 5500SOL    HW217400   1.787   0.773   0.232
 5501SOL     OW17401   3.900   2.047   0.292
 5501SOL    HW117402   3.845   2.128   0.273
 5501SOL    HW217403   3.855   1.991   0.362
 5502SOL     OW17404   4.989   3.721   6.149
 5502SOL    HW117405   4.981   3.799   6.087
 5502SOL    HW217406   5.036   3.646   6.102
 5503SOL     OW17407   0.411   3.640   0.228
 5503SOL    HW117408   0.457   3.556   0.201
 5503SOL    HW217409   0.461   3.684   0.302
 5504SOL     OW17410   3.872   1.031   6.627
 5504SOL    HW117411   3.899   1.059   6.719
 5504SOL    HW217412   3.953   1.018   6.571
 5505SOL     OW17413   2.182   3.787   4.012
 5505SOL    HW117414   2.128   3.719   3.963
 5505SOL    HW217415   2.160   3.783   4.109
 5506SOL     OW17416   0.479   3.628   6.118
 5506SOL    HW117417   0.504   3.688   6.042
 5506SOL    HW217418   0.559   3.576   6.147
 5507SOL     OW17419   3.256   0.604   6.481
 5507SOL    HW117420   3.218   0.531   6.538
 5507SOL    HW217421   3.189   0.677   6.471
 5508SOL     OW17422   1.116   1.078   6.504
 5508SOL    HW117423   1.126   0.984   6.537
 5508SOL    HW217424   1.052   1.080   6.427
 5509SOL     OW17425   0.080   5.205   1.111
 5509SOL    HW117426   0.013   5.206   1.186
 5509SOL    HW217427   0.031   5.215   1.024
 5510SOL     OW17428   4.720   5.639   6.860
 5510SOL    HW117429   4.743   5.543   6.846
 5510SOL    HW217430   4.797   5.685   6.905
 5511SOL     OW17431   0.360   1.719   5.030
 5511SOL    HW117432   0.303   1.775   4.970
 5511SOL    HW217433   0.347   1.622   5.008
 5512SOL     OW17434   3.612   1.157   2.077
 5512SOL    HW117435   3.557   1.156   2.160
 5512SOL    HW217436   3.684   1.087   2.084
 5513SOL     OW17437   4.453   4.805   6.605
 5513SOL    HW117438   4.400   4.889   6.611
 5513SOL    HW217439   4.537   4.814   6.659
 5514SOL     OW17440   2.786   6.500   5.388
 5514SOL    HW117441   2.700   6.451   5.373
 5514SOL    HW217442   2.860   6.452   5.341
 5515SOL     OW17443   1.882   5.658   1.826
 5515SOL    HW117444   1.964   5.605   1.806
 5515SOL    HW217445   1.851   5.704   1.743
 5516SOL     OW17446   2.472   2.831   5.291
 5516SOL    HW117447   2.429   2.758   5.238
 5516SOL    HW217448   2.451   2.919   5.250
 5517SOL     OW17449   1.827   3.634   2.743
 5517SOL    HW117450   1.808   3.540   2.717
 5517SOL    HW217451   1.925   3.652   2.733
 5518SOL     OW17452   5.039   4.556   5.579
 5518SOL    HW117453   5.008   4.597   5.665
 5518SOL    HW217454   5.124   4.506   5.596
 5519SOL     OW17455   4.534   2.559   3.742
 5519SOL    HW117456   4.574   2.621   3.674
 5519SOL    HW217457   4.467   2.499   3.698
 5520SOL     OW17458   5.560   6.703   2.197
 5520SOL    HW117459   5.515   6.668   2.279
 5520SOL    HW217460   5.606   6.789   2.218
 5521SOL     OW17461   5.735   5.187   2.034
 5521SOL    HW117462   5.815   5.129   2.015
 5521SOL    HW217463   5.766   5.276   2.066
 5522SOL     OW17464   5.517   5.117   1.439
 5522SOL    HW117465   5.596   5.133   1.380
 5522SOL    HW217466   5.478   5.027   1.419
 5523SOL     OW17467   5.875   1.090   2.544
 5523SOL    HW117468   5.871   1.034   2.627
 5523SOL    HW217469   5.808   1.057   2.478
 5524SOL     OW17470   3.275   0.448   4.891
 5524SOL    HW117471   3.176   0.445   4.873
 5524SOL    HW217472   3.321   0.496   4.817
 5525SOL     OW17473   6.781   2.755   1.214
 5525SOL    HW117474   6.855   2.823   1.210
 5525SOL    HW217475   6.787   2.703   1.299
 5526SOL     OW17476   4.971   4.341   3.277
 5526SOL    HW117477   5.049   4.392   3.241
 5526SOL    HW217478   4.923   4.397   3.345
 5527SOL     OW17479   4.923   2.781   4.292
 5527SOL    HW117480   4.968   2.802   4.379
 5527SOL    HW217481   4.926   2.861   4.232
 5528SOL     OW17482   1.282   1.683   1.328
 5528SOL    HW117483   1.262   1.781   1.329
 5528SOL    HW217484   1.379   1.668   1.314
 5529SOL     OW17485   3.082   0.541   2.823
 5529SOL    HW117486   2.986   0.557   2.799
 5529SOL    HW217487   3.087   0.472   2.895
 5530SOL     OW17488   6.750   2.142   1.402
 5530SOL    HW117489   6.816   2.067   1.394
 5530SOL    HW217490   6.746   2.192   1.316
 5531SOL     OW17491   3.987   3.827   1.483
 5531SOL    HW117492   4.041   3.788   1.408
 5531SOL    HW217493   3.964   3.755   1.548
 5532SOL     OW17494   1.878   2.589   1.651
 5532SOL    HW117495   1.974   2.591   1.623
 5532SOL    HW217496   1.825   2.649   1.591
 5533SOL     OW17497   4.234   1.686   4.326
 5533SOL    HW117498   4.176   1.763   4.299
 5533SOL    HW217499   4.229   1.614   4.257
 5534SOL     OW17500   0.758   1.448   5.431
 5534SOL    HW117501   0.679   1.431   5.373
 5534SOL    HW217502   0.808   1.528   5.397
 5535SOL     OW17503   0.998   1.511   3.134
 5535SOL    HW117504   0.964   1.440   3.073
 5535SOL    HW217505   1.098   1.506   3.139
 5536SOL     OW17506   2.971   1.097   5.206
 5536SOL    HW117507   2.954   1.115   5.303
 5536SOL    HW217508   2.884   1.101   5.156
 5537SOL     OW17509   3.151   1.187   2.775
 5537SOL    HW117510   3.073   1.181   2.838
 5537SOL    HW217511   3.235   1.200   2.828
 5538SOL     OW17512   4.562   5.539   4.689
 5538SOL    HW117513   4.661   5.533   4.672
 5538SOL    HW217514   4.515   5.554   4.602
 5539SOL     OW17515   2.344   2.658   0.908
 5539SOL    HW117516   2.444   2.662   0.910
 5539SOL    HW217517   2.315   2.585   0.846
 5540SOL     OW17518   5.087   5.405   2.919
 5540SOL    HW117519   5.095   5.355   3.005
 5540SOL    HW217520   5.052   5.497   2.937
 5541SOL     OW17521   5.005   1.226   5.899
 5541SOL    HW117522   5.080   1.187   5.845
 5541SOL    HW217523   5.004   1.326   5.888
 5542SOL     OW17524   4.148   4.784   6.203
 5542SOL    HW117525   4.242   4.813   6.216
 5542SOL    HW217526   4.125   4.788   6.106
 5543SOL     OW17527   6.225   2.910   6.352
 5543SOL    HW117528   6.224   2.981   6.282
 5543SOL    HW217529   6.134   2.899   6.391
 5544SOL     OW17530   5.747   0.926   5.643
 5544SOL    HW117531   5.771   0.985   5.720
 5544SOL    HW217532   5.734   0.832   5.675
 5545SOL     OW17533   3.806   2.090   2.222
 5545SOL    HW117534   3.755   2.132   2.147
 5545SOL    HW217535   3.904   2.102   2.205
 5546SOL     OW17536   2.020   4.958   5.770
 5546SOL    HW117537   2.037   5.003   5.682
 5546SOL    HW217538   1.955   5.012   5.823
 5547SOL     OW17539   3.009   5.140   5.308
 5547SOL    HW117540   2.966   5.052   5.287
 5547SOL    HW217541   3.102   5.141   5.271
 5548SOL     OW17542   6.732   3.653   5.268
 5548SOL    HW117543   6.792   3.620   5.341
 5548SOL    HW217544   6.781   3.719   5.211
 5549SOL     OW17545   2.805   5.030   0.218
 5549SOL    HW117546   2.721   5.084   0.221
 5549SOL    HW217547   2.838   5.025   0.124
 5550SOL     OW17548   3.986   6.293   1.438
 5550SOL    HW117549   4.076   6.316   1.400
 5550SOL    HW217550   3.933   6.377   1.454
 5551SOL     OW17551   1.011   1.238   3.350
 5551SOL    HW117552   1.089   1.276   3.300
 5551SOL    HW217553   1.015   1.138   3.348
 5552SOL     OW17554   0.190   2.507   1.362
 5552SOL    HW117555   0.114   2.500   1.298
 5552SOL    HW217556   0.155   2.526   1.454
 5553SOL     OW17557   5.353   6.214   0.673
 5553SOL    HW117558   5.353   6.138   0.738
 5553SOL    HW217559   5.363   6.300   0.723
 5554SOL     OW17560   2.868   2.230   4.960
 5554SOL    HW117561   2.961   2.259   4.979
 5554SOL    HW217562   2.834   2.174   5.036
 5555SOL     OW17563   0.312   5.114   3.721
 5555SOL    HW117564   0.390   5.056   3.694
 5555SOL    HW217565   0.310   5.196   3.663
 5556SOL     OW17566   0.572   2.211   5.101
 5556SOL    HW117567   0.633   2.223   5.023
 5556SOL    HW217568   0.534   2.119   5.099
 5557SOL     OW17569   1.773   0.066   3.849
 5557SOL    HW117570   1.822   0.152   3.838
 5557SOL    HW217571   1.832   7.012   3.820
 5558SOL     OW17572   5.038   3.022   5.307
 5558SOL    HW117573   5.024   2.952   5.377
 5558SOL    HW217574   5.018   3.112   5.346
 5559SOL     OW17575   2.060   0.463   0.892
 5559SOL    HW117576   2.148   0.494   0.928
 5559SOL    HW217577   1.998   0.540   0.884
 5560SOL     OW17578   6.976   0.996   3.738
 5560SOL    HW117579   6.986   0.974   3.642
 5560SOL    HW217580   6.925   1.082   3.747
 5561SOL     OW17581   1.649   2.604   3.455
 5561SOL    HW117582   1.619   2.583   3.362
 5561SOL    HW217583   1.726   2.544   3.479
 5562SOL     OW17584   2.525   3.063   6.179
 5562SOL    HW117585   2.505   3.044   6.275
 5562SOL    HW217586   2.441   3.063   6.126
 5563SOL     OW17587   4.493   5.895   1.609
 5563SOL    HW117588   4.514   5.946   1.527
 5563SOL    HW217589   4.399   5.914   1.637
 5564SOL     OW17590   5.336   4.156   1.696
 5564SOL    HW117591   5.272   4.178   1.769
 5564SOL    HW217592   5.408   4.096   1.731
 5565SOL     OW17593   3.519   3.106   5.420
 5565SOL    HW117594   3.578   3.135   5.345
 5565SOL    HW217595   3.423   3.117   5.394
 5566SOL     OW17596   1.845   5.053   1.237
 5566SOL    HW117597   1.818   5.093   1.325
 5566SOL    HW217598   1.831   4.954   1.240
 5567SOL     OW17599   1.397   5.305   1.932
 5567SOL    HW117600   1.423   5.370   1.860
 5567SOL    HW217601   1.479   5.261   1.968
 5568SOL     OW17602   3.238   1.846   1.455
 5568SOL    HW117603   3.289   1.920   1.412
 5568SOL    HW217604   3.251   1.762   1.403
 5569SOL     OW17605   4.821   1.442   7.011
 5569SOL    HW117606   4.743   1.413   0.043
 5569SOL    HW217607   4.906   1.423   0.039
 5570SOL     OW17608   6.990   4.055   6.057
 5570SOL    HW117609   6.894   4.026   6.056
 5570SOL    HW217610   0.006   4.049   5.965
 5571SOL     OW17611   6.910   4.960   6.628
 5571SOL    HW117612   6.845   4.893   6.664
 5571SOL    HW217613   6.916   5.038   6.690
 5572SOL     OW17614   5.012   2.499   6.606
 5572SOL    HW117615   4.918   2.523   6.582
 5572SOL    HW217616   5.012   2.422   6.669
 5573SOL     OW17617   1.283   3.794   0.609
 5573SOL    HW117618   1.260   3.882   0.651
 5573SOL    HW217619   1.314   3.731   0.680
 5574SOL     OW17620   0.689   6.125   4.967
 5574SOL    HW117621   0.590   6.124   4.952
 5574SOL    HW217622   0.709   6.161   5.058
 5575SOL     OW17623   1.548   1.227   0.994
 5575SOL    HW117624   1.605   1.208   0.915
 5575SOL    HW217625   1.549   1.148   1.055
 5576SOL     OW17626   6.048   6.212   7.019
 5576SOL    HW117627   5.976   6.170   6.963
 5576SOL    HW217628   6.089   6.143   0.055
 5577SOL     OW17629   2.329   4.133   5.613
 5577SOL    HW117630   2.237   4.168   5.632
 5577SOL    HW217631   2.358   4.073   5.687
 5578SOL     OW17632   4.215   2.991   6.883
 5578SOL    HW117633   4.159   3.003   6.801
 5578SOL    HW217634   4.285   2.922   6.865
 5579SOL     OW17635   4.938   4.183   6.595
 5579SOL    HW117636   4.842   4.188   6.565
 5579SOL    HW217637   4.943   4.127   6.678
 5580SOL     OW17638   6.023   1.315   0.778
 5580SOL    HW117639   6.049   1.219   0.782
 5580SOL    HW217640   6.072   1.366   0.849
 5581SOL     OW17641   2.484   1.928   6.407
 5581SOL    HW117642   2.389   1.958   6.416
 5581SOL    HW217643   2.545   2.006   6.421
 5582SOL     OW17644   4.012   3.375   3.611
 5582SOL    HW117645   3.943   3.399   3.680
 5582SOL    HW217646   4.018   3.275   3.603
 5583SOL     OW17647   4.121   6.804   1.461
 5583SOL    HW117648   4.036   6.850   1.438
 5583SOL    HW217649   4.161   6.845   1.543
 5584SOL     OW17650   6.670   2.990   3.250
 5584SOL    HW117651   6.636   2.898   3.269
 5584SOL    HW217652   6.761   2.984   3.210
 5585SOL     OW17653   6.144   0.357   4.424
 5585SOL    HW117654   6.091   0.429   4.469
 5585SOL    HW217655   6.226   0.397   4.384
 5586SOL     OW17656   2.014   0.898   6.144
 5586SOL    HW117657   1.974   0.824   6.198
 5586SOL    HW217658   1.970   0.903   6.055
 5587SOL     OW17659   3.505   0.296   4.023
 5587SOL    HW117660   3.498   0.226   3.952
 5587SOL    HW217661   3.549   0.377   3.985
 5588SOL     OW17662   3.869   0.116   6.224
 5588SOL    HW117663   3.837   0.042   6.284
 5588SOL    HW217664   3.814   0.116   6.140
 5589SOL     OW17665   4.665   2.834   0.117
 5589SOL    HW117666   4.610   2.916   0.135
 5589SOL    HW217667   4.606   2.763   0.077
 5590SOL     OW17668   6.879   6.070   3.679
 5590SOL    HW117669   6.905   5.987   3.630
 5590SOL    HW217670   6.915   6.066   3.772
 5591SOL     OW17671   4.772   1.193   0.306
 5591SOL    HW117672   4.750   1.176   0.402
 5591SOL    HW217673   4.749   1.111   0.252
 5592SOL     OW17674   1.917   2.725   2.832
 5592SOL    HW117675   1.975   2.806   2.844
 5592SOL    HW217676   1.935   2.660   2.905
 5593SOL     OW17677   1.763   3.225   5.933
 5593SOL    HW117678   1.704   3.158   5.888
 5593SOL    HW217679   1.856   3.189   5.938
 5594SOL     OW17680   1.964   0.834   6.984
 5594SOL    HW117681   1.908   0.894   0.018
 5594SOL    HW217682   1.906   0.778   6.925
 5595SOL     OW17683   6.507   2.405   5.836
 5595SOL    HW117684   6.469   2.467   5.904
 5595SOL    HW217685   6.582   2.353   5.876
 5596SOL     OW17686   4.768   1.110   3.458
 5596SOL    HW117687   4.698   1.107   3.388
 5596SOL    HW217688   4.791   1.206   3.479
 5597SOL     OW17689   6.999   1.153   6.233
 5597SOL    HW117690   7.021   1.081   6.167
 5597SOL    HW217691   6.925   1.122   6.293
 5598SOL     OW17692   6.602   2.379   4.329
 5598SOL    HW117693   6.683   2.342   4.283
 5598SOL    HW217694   6.535   2.408   4.261
 5599SOL     OW17695   5.148   2.965   3.319
 5599SOL    HW117696   5.182   3.018   3.396
 5599SOL    HW217697   5.096   3.024   3.258
 5600SOL     OW17698   2.754   1.496   2.385
 5600SOL    HW117699   2.777   1.581   2.338
 5600SOL    HW217700   2.662   1.466   2.357
 5601SOL     OW17701   5.600   2.531   5.562
 5601SOL    HW117702   5.578   2.448   5.509
 5601SOL    HW217703   5.612   2.608   5.499
 5602SOL     OW17704   6.878   2.260   2.715
 5602SOL    HW117705   6.956   2.286   2.658
 5602SOL    HW217706   6.842   2.171   2.684
 5603SOL     OW17707   4.165   1.732   5.028
 5603SOL    HW117708   4.236   1.666   5.055
 5603SOL    HW217709   4.075   1.689   5.037
 5604SOL     OW17710   1.102   0.335   4.550
 5604SOL    HW117711   1.003   0.321   4.551
 5604SOL    HW217712   1.147   0.258   4.596
 5605SOL     OW17713   3.182   6.201   4.296
 5605SOL    HW117714   3.159   6.298   4.292
 5605SOL    HW217715   3.115   6.149   4.243
 5606SOL     OW17716   4.551   2.445   0.723
 5606SOL    HW117717   4.612   2.524   0.725
 5606SOL    HW217718   4.506   2.440   0.634
 5607SOL     OW17719   6.517   2.383   2.648
 5607SOL    HW117720   6.480   2.319   2.581
 5607SOL    HW217721   6.517   2.475   2.608
 5608SOL     OW17722   5.171   0.519   3.695
 5608SOL    HW117723   5.148   0.480   3.605
 5608SOL    HW217724   5.148   0.616   3.695
 5609SOL     OW17725   6.656   0.258   0.627
 5609SOL    HW117726   6.712   0.334   0.593
 5609SOL    HW217727   6.671   0.247   0.725
 5610SOL     OW17728   5.359   4.532   0.458
 5610SOL    HW117729   5.362   4.473   0.538
 5610SOL    HW217730   5.436   4.595   0.459
 5611SOL     OW17731   6.601   4.578   1.313
 5611SOL    HW117732   6.611   4.491   1.264
 5611SOL    HW217733   6.642   4.570   1.404
 5612SOL     OW17734   3.035   1.424   0.505
 5612SOL    HW117735   3.070   1.351   0.447
 5612SOL    HW217736   3.003   1.500   0.448
 5613SOL     OW17737   6.478   5.018   5.728
 5613SOL    HW117738   6.497   5.034   5.824
 5613SOL    HW217739   6.564   5.007   5.678
 5614SOL     OW17740   5.545   2.501   4.094
 5614SOL    HW117741   5.455   2.517   4.136
 5614SOL    HW217742   5.594   2.588   4.086
 5615SOL     OW17743   0.306   3.069   2.960
 5615SOL    HW117744   0.280   2.973   2.952
 5615SOL    HW217745   0.251   3.124   2.897
 5616SOL     OW17746   1.206   3.208   2.506
 5616SOL    HW117747   1.246   3.182   2.419
 5616SOL    HW217748   1.164   3.128   2.549
 5617SOL     OW17749   2.228   5.288   6.161
 5617SOL    HW117750   2.225   5.336   6.249
 5617SOL    HW217751   2.244   5.191   6.177
 5618SOL     OW17752   6.439   5.945   3.284
 5618SOL    HW117753   6.457   6.038   3.253
 5618SOL    HW217754   6.516   5.886   3.260
 5619SOL     OW17755   3.526   2.918   3.799
 5619SOL    HW117756   3.430   2.945   3.787
 5619SOL    HW217757   3.545   2.906   3.897
 5620SOL     OW17758   5.099   4.414   5.124
 5620SOL    HW117759   5.072   4.330   5.171
 5620SOL    HW217760   5.073   4.493   5.180
 5621SOL     OW17761   1.353   2.387   5.441
 5621SOL    HW117762   1.297   2.359   5.363
 5621SOL    HW217763   1.415   2.461   5.414
 5622SOL     OW17764   4.464   6.250   4.412
 5622SOL    HW117765   4.551   6.294   4.429
 5622SOL    HW217766   4.468   6.201   4.325
 5623SOL     OW17767   4.907   5.626   3.595
 5623SOL    HW117768   4.993   5.677   3.603
 5623SOL    HW217769   4.831   5.690   3.582
 5624SOL     OW17770   6.398   5.403   4.122
 5624SOL    HW117771   6.436   5.429   4.033
 5624SOL    HW217772   6.408   5.304   4.135
 5625SOL     OW17773   0.760   6.198   5.208
 5625SOL    HW117774   0.854   6.232   5.215
 5625SOL    HW217775   0.722   6.186   5.300
 5626SOL     OW17776   1.028   4.529   5.902
 5626SOL    HW117777   1.025   4.449   5.842
 5626SOL    HW217778   1.110   4.526   5.958
 5627SOL     OW17779   0.761   5.843   0.060
 5627SOL    HW117780   0.836   5.832   7.017
 5627SOL    HW217781   0.797   5.838   0.153
 5628SOL     OW17782   2.462   2.609   1.908
 5628SOL    HW117783   2.514   2.541   1.960
 5628SOL    HW217784   2.396   2.654   1.968
 5629SOL     OW17785   5.289   3.613   1.925
 5629SOL    HW117786   5.264   3.598   2.020
 5629SOL    HW217787   5.384   3.583   1.911
 5630SOL     OW17788   1.458   4.335   6.891
 5630SOL    HW117789   1.418   4.417   6.851
 5630SOL    HW217790   1.392   4.293   6.953
 5631SOL     OW17791   4.158   1.484   1.672
 5631SOL    HW117792   4.167   1.443   1.581
 5631SOL    HW217793   4.065   1.471   1.706
 5632SOL     OW17794   5.233   6.786   5.641
 5632SOL    HW117795   5.252   6.869   5.589
 5632SOL    HW217796   5.178   6.810   5.722
 5633SOL     OW17797   0.659   4.923   6.010
 5633SOL    HW117798   0.710   4.993   6.060
 5633SOL    HW217799   0.617   4.965   5.929
 5634SOL     OW17800   2.496   0.027   1.179
 5634SOL    HW117801   2.453   0.043   1.090
 5634SOL    HW217802   2.538   0.112   1.211
 5635SOL     OW17803   2.179   0.870   6.471
 5635SOL    HW117804   2.264   0.886   6.520
 5635SOL    HW217805   2.154   0.952   6.419
 5636SOL     OW17806   6.007   1.783   5.541
 5636SOL    HW117807   6.081   1.801   5.606
 5636SOL    HW217808   6.036   1.809   5.449
 5637SOL     OW17809   4.567   6.612   4.552
 5637SOL    HW117810   4.608   6.703   4.547
 5637SOL    HW217811   4.511   6.597   4.470
 5638SOL     OW17812   6.234   5.568   1.179
 5638SOL    HW117813   6.210   5.562   1.082
 5638SOL    HW217814   6.332   5.582   1.188
 5639SOL     OW17815   1.386   0.479   0.922
 5639SOL    HW117816   1.391   0.548   0.995
 5639SOL    HW217817   1.319   0.408   0.948
 5640SOL     OW17818   2.805   5.724   2.875
 5640SOL    HW117819   2.880   5.763   2.823
 5640SOL    HW217820   2.732   5.697   2.813
 5641SOL     OW17821   0.994   4.189   4.247
 5641SOL    HW117822   0.928   4.168   4.175
 5641SOL    HW217823   0.960   4.156   4.334
 5642SOL     OW17824   1.658   4.885   6.980
 5642SOL    HW117825   1.686   4.793   7.008
 5642SOL    HW217826   1.638   4.940   0.039
 5643SOL     OW17827   4.406   2.214   4.987
 5643SOL    HW117828   4.354   2.297   5.003
 5643SOL    HW217829   4.347   2.134   5.002
 5644SOL     OW17830   4.365   0.671   4.856
 5644SOL    HW117831   4.322   0.761   4.860
 5644SOL    HW217832   4.294   0.600   4.858
 5645SOL     OW17833   5.328   5.348   4.417
 5645SOL    HW117834   5.314   5.250   4.431
 5645SOL    HW217835   5.241   5.396   4.431
 5646SOL     OW17836   0.314   6.060   4.564
 5646SOL    HW117837   0.286   6.057   4.660
 5646SOL    HW217838   0.410   6.089   4.558
 5647SOL     OW17839   5.695   5.309   5.989
 5647SOL    HW117840   5.705   5.294   5.891
 5647SOL    HW217841   5.608   5.270   6.019
 5648SOL     OW17842   1.718   1.761   4.515
 5648SOL    HW117843   1.779   1.683   4.501
 5648SOL    HW217844   1.642   1.755   4.450
 5649SOL     OW17845   0.308   0.935   5.452
 5649SOL    HW117846   0.367   0.880   5.393
 5649SOL    HW217847   0.352   0.944   5.542
 5650SOL     OW17848   6.120   4.848   6.661
 5650SOL    HW117849   6.065   4.909   6.604
 5650SOL    HW217850   6.182   4.795   6.603
 5651SOL     OW17851   6.811   0.484   2.864
 5651SOL    HW117852   6.773   0.517   2.778
 5651SOL    HW217853   6.766   0.530   2.941
 5652SOL     OW17854   4.638   4.997   0.862
 5652SOL    HW117855   4.646   5.095   0.882
 5652SOL    HW217856   4.586   4.952   0.934
 5653SOL     OW17857   1.099   6.013   6.203
 5653SOL    HW117858   1.174   6.069   6.168
 5653SOL    HW217859   1.128   5.918   6.208
 5654SOL     OW17860   6.677   6.277   5.637
 5654SOL    HW117861   6.707   6.372   5.633
 5654SOL    HW217862   6.729   6.222   5.570
 5655SOL     OW17863   6.637   3.296   4.058
 5655SOL    HW117864   6.607   3.377   4.008
 5655SOL    HW217865   6.734   3.279   4.040
 5656SOL     OW17866   3.498   4.429   0.462
 5656SOL    HW117867   3.460   4.403   0.552
 5656SOL    HW217868   3.587   4.472   0.474
 5657SOL     OW17869   3.871   0.268   2.013
 5657SOL    HW117870   3.898   0.358   2.046
 5657SOL    HW217871   3.804   0.278   1.939
 5658SOL     OW17872   4.083   6.637   5.958
 5658SOL    HW117873   4.063   6.731   5.985
 5658SOL    HW217874   4.156   6.637   5.890
 5659SOL     OW17875   3.018   3.829   2.811
 5659SOL    HW117876   2.971   3.838   2.723
 5659SOL    HW217877   3.034   3.920   2.849
 5660SOL     OW17878   5.861   6.805   6.878
 5660SOL    HW117879   5.870   6.887   6.935
 5660SOL    HW217880   5.819   6.732   6.932
 5661SOL     OW17881   6.010   5.602   4.248
 5661SOL    HW117882   6.079   5.589   4.319
 5661SOL    HW217883   5.954   5.682   4.271
 5662SOL     OW17884   2.264   4.870   4.177
 5662SOL    HW117885   2.227   4.803   4.113
 5662SOL    HW217886   2.358   4.892   4.150
 5663SOL     OW17887   1.380   4.477   0.465
 5663SOL    HW117888   1.406   4.383   0.444
 5663SOL    HW217889   1.389   4.493   0.563
 5664SOL     OW17890   0.342   4.381   2.477
 5664SOL    HW117891   0.414   4.314   2.457
 5664SOL    HW217892   0.361   4.466   2.427
 5665SOL     OW17893   2.491   3.088   5.808
 5665SOL    HW117894   2.471   3.027   5.885
 5665SOL    HW217895   2.581   3.065   5.770
 5666SOL     OW17896   5.661   4.125   1.029
 5666SOL    HW117897   5.567   4.101   1.053
 5666SOL    HW217898   5.723   4.087   1.097
 5667SOL     OW17899   0.047   4.783   3.444
 5667SOL    HW117900   0.087   4.770   3.353
 5667SOL    HW217901   6.975   4.751   3.444
 5668SOL     OW17902   5.718   2.022   6.272
 5668SOL    HW117903   5.662   2.089   6.319
 5668SOL    HW217904   5.813   2.052   6.270
 5669SOL     OW17905   0.282   4.672   6.287
 5669SOL    HW117906   0.300   4.590   6.231
 5669SOL    HW217907   0.183   4.686   6.295
 5670SOL     OW17908   0.448   3.903   3.707
 5670SOL    HW117909   0.501   3.979   3.669
 5670SOL    HW217910   0.470   3.819   3.658
 5671SOL     OW17911   1.399   0.818   5.968
 5671SOL    HW117912   1.420   0.889   5.901
 5671SOL    HW217913   1.475   0.753   5.972
 5672SOL     OW17914   4.749   4.879   5.787
 5672SOL    HW117915   4.729   4.831   5.873
 5672SOL    HW217916   4.837   4.925   5.795
 5673SOL     OW17917   0.525   0.429   2.305
 5673SOL    HW117918   0.527   0.393   2.398
 5673SOL    HW217919   0.436   0.410   2.264
 5674SOL     OW17920   6.752   3.306   1.769
 5674SOL    HW117921   6.817   3.281   1.697
 5674SOL    HW217922   6.672   3.247   1.765
 5675SOL     OW17923   4.545   2.316   5.289
 5675SOL    HW117924   4.446   2.313   5.282
 5675SOL    HW217925   4.585   2.287   5.202
 5676SOL     OW17926   2.326   0.296   1.943
 5676SOL    HW117927   2.390   0.219   1.942
 5676SOL    HW217928   2.369   0.375   1.986
 5677SOL     OW17929   6.271   0.818   3.399
 5677SOL    HW117930   6.353   0.784   3.352
 5677SOL    HW217931   6.204   0.848   3.331
 5678SOL     OW17932   2.792   6.540   3.000
 5678SOL    HW117933   2.738   6.473   3.050
 5678SOL    HW217934   2.799   6.512   2.904
 5679SOL     OW17935   2.111   6.736   5.084
 5679SOL    HW117936   2.123   6.826   5.043
 5679SOL    HW217937   2.023   6.697   5.055
 5680SOL     OW17938   1.774   5.772   6.494
 5680SOL    HW117939   1.780   5.861   6.540
 5680SOL    HW217940   1.864   5.728   6.495
 5681SOL     OW17941   1.372   3.047   6.741
 5681SOL    HW117942   1.352   2.959   6.783
 5681SOL    HW217943   1.437   3.035   6.666
 5682SOL     OW17944   1.375   3.582   5.245
 5682SOL    HW117945   1.449   3.577   5.178
 5682SOL    HW217946   1.347   3.678   5.256
 5683SOL     OW17947   3.210   2.634   5.662
 5683SOL    HW117948   3.287   2.619   5.724
 5683SOL    HW217949   3.223   2.579   5.579
 5684SOL     OW17950   3.420   4.024   3.713
 5684SOL    HW117951   3.374   3.961   3.651
 5684SOL    HW217952   3.357   4.052   3.786
 5685SOL     OW17953   6.859   5.141   1.799
 5685SOL    HW117954   6.771   5.184   1.817
 5685SOL    HW217955   6.929   5.182   1.857
 5686SOL     OW17956   3.476   0.217   0.568
 5686SOL    HW117957   3.492   0.121   0.591
 5686SOL    HW217958   3.484   0.229   0.469
 5687SOL     OW17959   5.037   4.898   5.319
 5687SOL    HW117960   5.051   4.933   5.226
 5687SOL    HW217961   4.940   4.875   5.331
 5688SOL     OW17962   5.559   1.817   1.725
 5688SOL    HW117963   5.488   1.750   1.702
 5688SOL    HW217964   5.551   1.896   1.665
 5689SOL     OW17965   3.757   2.166   0.631
 5689SOL    HW117966   3.820   2.226   0.679
 5689SOL    HW217967   3.676   2.219   0.603
 5690SOL     OW17968   5.024   6.327   0.958
 5690SOL    HW117969   5.081   6.367   0.886
 5690SOL    HW217970   5.075   6.324   1.044
 5691SOL     OW17971   1.989   0.369   1.858
 5691SOL    HW117972   2.025   0.463   1.859
 5691SOL    HW217973   2.055   0.309   1.814
 5692SOL     OW17974   6.602   2.707   6.870
 5692SOL    HW117975   6.518   2.756   6.893
 5692SOL    HW217976   6.613   2.704   6.771
 5693SOL     OW17977   4.893   2.431   2.797
 5693SOL    HW117978   4.992   2.443   2.786
 5693SOL    HW217979   4.846   2.511   2.761
 5694SOL     OW17980   0.275   1.444   3.614
 5694SOL    HW117981   0.189   1.423   3.568
 5694SOL    HW217982   0.261   1.516   3.682
 5695SOL     OW17983   1.844   3.383   3.411
 5695SOL    HW117984   1.817   3.410   3.503
 5695SOL    HW217985   1.939   3.409   3.395
 5696SOL     OW17986   3.027   0.427   4.821
 5696SOL    HW117987   3.051   0.432   4.724
 5696SOL    HW217988   2.970   0.506   4.846
 5697SOL     OW17989   6.419   2.409   0.249
 5697SOL    HW117990   6.447   2.385   0.342
 5697SOL    HW217991   6.370   2.497   0.251
 5698SOL     OW17992   1.093   3.552   1.779
 5698SOL    HW117993   1.161   3.625   1.773
 5698SOL    HW217994   1.080   3.526   1.874
 5699SOL     OW17995   5.618   0.568   5.033
 5699SOL    HW117996   5.692   0.630   5.006
 5699SOL    HW217997   5.636   0.477   4.996
 5700SOL     OW17998   1.637   6.059   4.433
 5700SOL    HW117999   1.550   6.103   4.413
 5700SOL    HW218000   1.631   6.012   4.522
 5701SOL     OW18001   6.176   5.309   1.698
 5701SOL    HW118002   6.076   5.305   1.701
 5701SOL    HW218003   6.211   5.237   1.638
 5702SOL     OW18004   2.572   0.543   6.474
 5702SOL    HW118005   2.580   0.504   6.382
 5702SOL    HW218006   2.600   0.475   6.542
 5703SOL     OW18007   4.312   4.954   0.250
 5703SOL    HW118008   4.379   4.939   0.177
 5703SOL    HW218009   4.225   4.982   0.210
 5704SOL     OW18010   4.605   5.319   3.752
 5704SOL    HW118011   4.572   5.233   3.790
 5704SOL    HW218012   4.627   5.382   3.826
 5705SOL     OW18013   5.987   0.335   1.338
 5705SOL    HW118014   6.016   0.414   1.392
 5705SOL    HW218015   5.906   0.294   1.379
 5706SOL     OW18016   1.021   1.310   6.802
 5706SOL    HW118017   1.092   1.273   6.742
 5706SOL    HW218018   0.994   1.240   6.868
 5707SOL     OW18019   2.290   1.638   6.609
 5707SOL    HW118020   2.308   1.694   6.528
 5707SOL    HW218021   2.247   1.695   6.679
 5708SOL     OW18022   4.863   6.951   2.517
 5708SOL    HW118023   4.956   6.978   2.491
 5708SOL    HW218024   4.830   7.013   2.589
 5709SOL     OW18025   0.380   6.998   2.808
 5709SOL    HW118026   0.379   6.921   2.873
 5709SOL    HW218027   0.288   0.011   2.797
 5710SOL     OW18028   3.244   3.159   6.003
 5710SOL    HW118029   3.165   3.206   5.963
 5710SOL    HW218030   3.270   3.205   6.089
 5711SOL     OW18031   4.415   1.027   4.087
 5711SOL    HW118032   4.378   1.104   4.139
 5711SOL    HW218033   4.499   0.995   4.130
 5712SOL     OW18034   0.140   6.325   6.245
 5712SOL    HW118035   0.058   6.307   6.192
 5712SOL    HW218036   0.213   6.357   6.185
 5713SOL     OW18037   6.845   2.817   2.656
 5713SOL    HW118038   6.916   2.887   2.672
 5713SOL    HW218039   6.805   2.790   2.744
 5714SOL     OW18040   1.294   1.090   5.800
 5714SOL    HW118041   1.202   1.050   5.804
 5714SOL    HW218042   1.294   1.168   5.737
 5715SOL     OW18043   1.716   6.367   2.514
 5715SOL    HW118044   1.629   6.323   2.539
 5715SOL    HW218045   1.702   6.466   2.509
 5716SOL     OW18046   1.783   3.652   6.063
 5716SOL    HW118047   1.713   3.639   6.133
 5716SOL    HW218048   1.867   3.606   6.091
 5717SOL     OW18049   1.051   4.219   0.398
 5717SOL    HW118050   1.135   4.215   0.345
 5717SOL    HW218051   1.072   4.242   0.493
 5718SOL     OW18052   2.961   4.797   6.653
 5718SOL    HW118053   2.990   4.855   6.730
 5718SOL    HW218054   2.902   4.850   6.592
 5719SOL     OW18055   3.217   0.608   6.983
 5719SOL    HW118056   3.226   0.690   6.927
 5719SOL    HW218057   3.135   0.614   0.017
 5720SOL     OW18058   1.805   5.350   5.263
 5720SOL    HW118059   1.789   5.374   5.359
 5720SOL    HW218060   1.728   5.297   5.229
 5721SOL     OW18061   0.736   3.671   1.587
 5721SOL    HW118062   0.835   3.687   1.591
 5721SOL    HW218063   0.699   3.669   1.680
 5722SOL     OW18064   5.331   6.948   4.613
 5722SOL    HW118065   5.272   6.872   4.586
 5722SOL    HW218066   5.374   6.987   4.531
 5723SOL     OW18067   3.652   5.600   0.223
 5723SOL    HW118068   3.564   5.558   0.201
 5723SOL    HW218069   3.719   5.529   0.245
 5724SOL     OW18070   5.398   1.829   6.122
 5724SOL    HW118071   5.388   1.913   6.176
 5724SOL    HW218072   5.423   1.853   6.028
 5725SOL     OW18073   5.746   4.936   5.131
 5725SOL    HW118074   5.807   4.870   5.174
 5725SOL    HW218075   5.749   4.925   5.032
 5726SOL     OW18076   5.853   3.683   6.021
 5726SOL    HW118077   5.931   3.622   6.037
 5726SOL    HW218078   5.793   3.683   6.101
 5727SOL     OW18079   5.698   1.937   3.437
 5727SOL    HW118080   5.702   2.037   3.435
 5727SOL    HW218081   5.608   1.908   3.472
 5728SOL     OW18082   6.059   0.451   4.772
 5728SOL    HW118083   6.073   0.533   4.827
 5728SOL    HW218084   6.051   0.476   4.676
 5729SOL     OW18085   0.272   1.914   6.405
 5729SOL    HW118086   0.212   1.865   6.468
 5729SOL    HW218087   0.221   1.936   6.322
 5730SOL     OW18088   4.016   4.768   5.925
 5730SOL    HW118089   3.999   4.763   5.826
 5730SOL    HW218090   3.958   4.702   5.972
 5731SOL     OW18091   3.014   0.918   4.059
 5731SOL    HW118092   3.070   0.884   3.983
 5731SOL    HW218093   3.024   1.017   4.066
 5732SOL     OW18094   6.094   5.236   5.176
 5732SOL    HW118095   6.096   5.144   5.215
 5732SOL    HW218096   6.139   5.300   5.238
 5733SOL     OW18097   3.510   1.004   0.156
 5733SOL    HW118098   3.536   0.914   0.191
 5733SOL    HW218099   3.568   1.028   0.078
 5734SOL     OW18100   1.447   6.240   5.873
 5734SOL    HW118101   1.378   6.231   5.802
 5734SOL    HW218102   1.535   6.263   5.832
 5735SOL     OW18103   4.167   0.516   2.346
 5735SOL    HW118104   4.157   0.417   2.358
 5735SOL    HW218105   4.260   0.537   2.317
 5736SOL     OW18106   4.566   3.974   6.849
 5736SOL    HW118107   4.522   3.920   6.921
 5736SOL    HW218108   4.509   3.970   6.766
 5737SOL     OW18109   4.752   5.557   1.106
 5737SOL    HW118110   4.723   5.539   1.199
 5737SOL    HW218111   4.697   5.503   1.042
 5738SOL     OW18112   3.386   1.141   6.637
 5738SOL    HW118113   3.473   1.095   6.620
 5738SOL    HW218114   3.401   1.219   6.698
 5739SOL     OW18115   3.032   0.602   5.707
 5739SOL    HW118116   3.078   0.520   5.740
 5739SOL    HW218117   3.076   0.635   5.624
 5740SOL     OW18118   5.343   3.733   1.683
 5740SOL    HW118119   5.260   3.751   1.630
 5740SOL    HW218120   5.318   3.686   1.769
 5741SOL     OW18121   0.726   3.718   4.364
 5741SOL    HW118122   0.732   3.783   4.440
 5741SOL    HW218123   0.720   3.768   4.278
 5742SOL     OW18124   4.071   0.406   3.382
 5742SOL    HW118125   4.032   0.430   3.293
 5742SOL    HW218126   4.133   0.479   3.412
 5743SOL     OW18127   3.288   3.936   5.368
 5743SOL    HW118128   3.375   3.985   5.365
 5743SOL    HW218129   3.273   3.889   5.282
 5744SOL     OW18130   5.749   6.197   3.006
 5744SOL    HW118131   5.755   6.112   3.059
 5744SOL    HW218132   5.813   6.264   3.044
 5745SOL     OW18133   2.375   2.602   3.593
 5745SOL    HW118134   2.346   2.610   3.688
 5745SOL    HW218135   2.298   2.574   3.536
 5746SOL     OW18136   4.153   0.224   3.583
 5746SOL    HW118137   4.109   0.232   3.672
 5746SOL    HW218138   4.123   0.299   3.524
 5747SOL     OW18139   0.921   5.787   1.779
 5747SOL    HW118140   0.822   5.778   1.792
 5747SOL    HW218141   0.956   5.705   1.735
 5748SOL     OW18142   0.404   6.173   0.839
 5748SOL    HW118143   0.346   6.252   0.862
 5748SOL    HW218144   0.372   6.132   0.754
 5749SOL     OW18145   1.662   6.633   4.865
 5749SOL    HW118146   1.596   6.572   4.908
 5749SOL    HW218147   1.638   6.646   4.769
 5750SOL     OW18148   0.089   4.414   4.245
 5750SOL    HW118149   0.017   4.346   4.232
 5750SOL    HW218150   0.106   4.461   4.158
 5751SOL     OW18151   2.097   3.690   4.271
 5751SOL    HW118152   2.095   3.590   4.269
 5751SOL    HW218153   2.068   3.722   4.361
 5752SOL     OW18154   5.273   0.119   1.067
 5752SOL    HW118155   5.173   0.124   1.059
 5752SOL    HW218156   5.297   0.065   1.147
 5753SOL     OW18157   3.317   4.069   4.845
 5753SOL    HW118158   3.250   4.103   4.911
 5753SOL    HW218159   3.292   3.976   4.818
 5754SOL     OW18160   0.759   6.204   1.687
 5754SOL    HW118161   0.765   6.149   1.603
 5754SOL    HW218162   0.819   6.165   1.757
 5755SOL     OW18163   2.361   2.119   7.003
 5755SOL    HW118164   2.369   2.080   6.911
 5755SOL    HW218165   2.280   2.178   7.007
 5756SOL     OW18166   5.769   6.020   1.666
 5756SOL    HW118167   5.711   5.947   1.701
 5756SOL    HW218168   5.724   6.109   1.682
 5757SOL     OW18169   6.924   6.984   3.549
 5757SOL    HW118170   6.941   0.050   3.593
 5757SOL    HW218171   6.827   6.974   3.529
 5758SOL     OW18172   1.099   6.766   3.464
 5758SOL    HW118173   1.082   6.673   3.432
 5758SOL    HW218174   1.111   6.826   3.385
 5759SOL     OW18175   3.886   6.431   1.776
 5759SOL    HW118176   3.982   6.450   1.799
 5759SOL    HW218177   3.874   6.439   1.677
 5760SOL     OW18178   7.007   3.313   1.952
 5760SOL    HW118179   6.954   3.228   1.948
 5760SOL    HW218180   6.951   3.385   1.993
 5761SOL     OW18181   5.121   5.487   4.662
 5761SOL    HW118182   5.147   5.526   4.750
 5761SOL    HW218183   5.139   5.389   4.662
 5762SOL     OW18184   5.138   4.145   0.077
 5762SOL    HW118185   5.042   4.174   0.066
 5762SOL    HW218186   5.196   4.198   0.015
 5763SOL     OW18187   5.621   0.286   0.768
 5763SOL    HW118188   5.699   0.237   0.806
 5763SOL    HW218189   5.648   0.379   0.744
 5764SOL     OW18190   4.259   5.258   3.086
 5764SOL    HW118191   4.286   5.314   3.008
 5764SOL    HW218192   4.340   5.232   3.138
 5765SOL     OW18193   6.381   4.701   1.154
 5765SOL    HW118194   6.409   4.730   1.063
 5765SOL    HW218195   6.462   4.685   1.210
 5766SOL     OW18196   0.840   1.694   4.609
 5766SOL    HW118197   0.796   1.750   4.539
 5766SOL    HW218198   0.891   1.752   4.673
 5767SOL     OW18199   2.188   0.124   1.037
 5767SOL    HW118200   2.130   0.199   1.005
 5767SOL    HW218201   2.266   0.114   0.976
 5768SOL     OW18202   6.752   6.427   3.974
 5768SOL    HW118203   6.787   6.413   3.881
 5768SOL    HW218204   6.771   6.346   4.029
 5769SOL     OW18205   1.328   5.167   6.396
 5769SOL    HW118206   1.373   5.118   6.322
 5769SOL    HW218207   1.365   5.259   6.403
 5770SOL     OW18208   0.801   5.695   1.517
 5770SOL    HW118209   0.777   5.717   1.612
 5770SOL    HW218210   0.861   5.766   1.480
 5771SOL     OW18211   1.985   5.192   4.146
 5771SOL    HW118212   1.922   5.260   4.109
 5771SOL    HW218213   1.954   5.163   4.236
 5772SOL     OW18214   4.785   6.938   2.138
 5772SOL    HW118215   4.689   6.958   2.115
 5772SOL    HW218216   4.788   6.859   2.200
 5773SOL     OW18217   4.737   2.235   2.042
 5773SOL    HW118218   4.696   2.144   2.039
 5773SOL    HW218219   4.697   2.292   1.970
 5774SOL     OW18220   0.738   6.583   3.231
 5774SOL    HW118221   0.704   6.580   3.325
 5774SOL    HW218222   0.825   6.535   3.226
 5775SOL     OW18223   0.565   5.409   2.447
 5775SOL    HW118224   0.521   5.401   2.358
 5775SOL    HW218225   0.559   5.504   2.480
 5776SOL     OW18226   1.995   0.130   2.892
 5776SOL    HW118227   2.011   0.060   2.962
 5776SOL    HW218228   2.081   0.178   2.872
 5777SOL     OW18229   1.101   0.170   3.249
 5777SOL    HW118230   1.170   0.238   3.275
 5777SOL    HW218231   1.064   0.127   3.331
 5778SOL     OW18232   1.193   1.333   6.557
 5778SOL    HW118233   1.155   1.393   6.486
 5778SOL    HW218234   1.179   1.238   6.531
 5779SOL     OW18235   4.681   2.480   6.835
 5779SOL    HW118236   4.607   2.413   6.837
 5779SOL    HW218237   4.683   2.524   6.745
 5780SOL     OW18238   5.382   4.820   4.357
 5780SOL    HW118239   5.410   4.728   4.327
 5780SOL    HW218240   5.424   4.888   4.298
 5781SOL     OW18241   0.276   4.267   4.907
 5781SOL    HW118242   0.321   4.350   4.941
 5781SOL    HW218243   0.339   4.217   4.847
 5782SOL     OW18244   0.939   1.381   0.443
 5782SOL    HW118245   0.971   1.349   0.531
 5782SOL    HW218246   0.839   1.383   0.442
 5783SOL     OW18247   1.840   1.491   1.856
 5783SOL    HW118248   1.848   1.502   1.955
 5783SOL    HW218249   1.747   1.513   1.828
 5784SOL     OW18250   0.200   6.471   0.115
 5784SOL    HW118251   0.125   6.411   0.087
 5784SOL    HW218252   0.220   6.457   0.212
 5785SOL     OW18253   2.582   1.546   0.948
 5785SOL    HW118254   2.589   1.646   0.947
 5785SOL    HW218255   2.639   1.509   0.874
 5786SOL     OW18256   6.858   3.716   0.415
 5786SOL    HW118257   6.916   3.717   0.496
 5786SOL    HW218258   6.885   3.791   0.354
 5787SOL     OW18259   2.473   2.030   5.697
 5787SOL    HW118260   2.402   2.101   5.690
 5787SOL    HW218261   2.545   2.062   5.759
 5788SOL     OW18262   2.339   0.884   3.045
 5788SOL    HW118263   2.289   0.813   2.996
 5788SOL    HW218264   2.403   0.841   3.108
 5789SOL     OW18265   3.807   5.492   6.398
 5789SOL    HW118266   3.709   5.510   6.396
 5789SOL    HW218267   3.857   5.578   6.403
 5790SOL     OW18268   0.383   3.214   4.358
 5790SOL    HW118269   0.450   3.214   4.432
 5790SOL    HW218270   0.319   3.138   4.369
 5791SOL     OW18271   2.941   0.193   2.711
 5791SOL    HW118272   2.868   0.124   2.715
 5791SOL    HW218273   2.949   0.239   2.799
 5792SOL     OW18274   0.076   2.022   3.125
 5792SOL    HW118275   0.009   2.089   3.094
 5792SOL    HW218276   0.122   1.982   3.045
 5793SOL     OW18277   6.694   1.360   3.970
 5793SOL    HW118278   6.595   1.355   3.964
 5793SOL    HW218279   6.719   1.418   4.048
 5794SOL     OW18280   3.521   3.129   0.466
 5794SOL    HW118281   3.599   3.098   0.520
 5794SOL    HW218282   3.480   3.210   0.510
 5795SOL     OW18283   5.669   4.990   5.463
 5795SOL    HW118284   5.700   5.071   5.413
 5795SOL    HW218285   5.583   5.010   5.511
 5796SOL     OW18286   3.112   1.243   0.328
 5796SOL    HW118287   3.157   1.161   0.364
 5796SOL    HW218288   3.023   1.217   0.290
 5797SOL     OW18289   3.705   2.100   4.626
 5797SOL    HW118290   3.644   2.094   4.548
 5797SOL    HW218291   3.655   2.136   4.705
 5798SOL     OW18292   0.356   4.721   4.923
 5798SOL    HW118293   0.444   4.768   4.914
 5798SOL    HW218294   0.347   4.654   4.849
 5799SOL     OW18295   5.541   0.286   3.454
 5799SOL    HW118296   5.455   0.239   3.435
 5799SOL    HW218297   5.551   0.363   3.392
 5800SOL     OW18298   5.546   4.622   1.449
 5800SOL    HW118299   5.488   4.622   1.530
 5800SOL    HW218300   5.640   4.600   1.475
 5801SOL     OW18301   0.778   2.011   3.763
 5801SOL    HW118302   0.757   1.921   3.726
 5801SOL    HW218303   0.734   2.022   3.852
 5802SOL     OW18304   0.351   4.228   6.321
 5802SOL    HW118305   0.287   4.277   6.379
 5802SOL    HW218306   0.407   4.293   6.271
 5803SOL     OW18307   1.591   4.887   1.447
 5803SOL    HW118308   1.503   4.882   1.399
 5803SOL    HW218309   1.580   4.854   1.541
 5804SOL     OW18310   6.494   4.083   4.244
 5804SOL    HW118311   6.454   4.150   4.307
 5804SOL    HW218312   6.487   3.992   4.284
 5805SOL     OW18313   4.199   4.443   6.503
 5805SOL    HW118314   4.161   4.467   6.414
 5805SOL    HW218315   4.203   4.525   6.561
 5806SOL     OW18316   1.253   6.817   0.688
 5806SOL    HW118317   1.194   6.796   0.610
 5806SOL    HW218318   1.222   6.767   0.768
 5807SOL     OW18319   1.539   3.804   1.254
 5807SOL    HW118320   1.586   3.724   1.218
 5807SOL    HW218321   1.590   3.887   1.229
 5808SOL     OW18322   5.598   4.190   2.852
 5808SOL    HW118323   5.572   4.196   2.948
 5808SOL    HW218324   5.548   4.116   2.808
 5809SOL     OW18325   6.870   3.360   4.535
 5809SOL    HW118326   6.852   3.263   4.550
 5809SOL    HW218327   6.792   3.414   4.566
 5810SOL     OW18328   2.914   1.045   4.301
 5810SOL    HW118329   2.880   0.951   4.300
 5810SOL    HW218330   3.002   1.048   4.254
 5811SOL     OW18331   3.049   0.320   5.151
 5811SOL    HW118332   3.118   0.384   5.184
 5811SOL    HW218333   3.083   0.273   5.070
 5812SOL     OW18334   4.978   6.762   4.100
 5812SOL    HW118335   4.991   6.817   4.017
 5812SOL    HW218336   5.048   6.691   4.104
 5813SOL     OW18337   1.216   1.384   6.031
 5813SOL    HW118338   1.207   1.368   5.932
 5813SOL    HW218339   1.129   1.419   6.067
 5814SOL     OW18340   6.554   3.943   0.444
 5814SOL    HW118341   6.643   3.981   0.417
 5814SOL    HW218342   6.537   3.963   0.540
 5815SOL     OW18343   4.589   2.345   3.041
 5815SOL    HW118344   4.523   2.419   3.028
 5815SOL    HW218345   4.541   2.258   3.052
 5816SOL     OW18346   5.546   0.042   0.353
 5816SOL    HW118347   5.603   0.119   0.381
 5816SOL    HW218348   5.540   0.039   0.253
 5817SOL     OW18349   6.028   3.025   5.773
 5817SOL    HW118350   6.010   3.105   5.715
 5817SOL    HW218351   5.948   3.007   5.831
 5818SOL     OW18352   6.192   6.093   5.192
 5818SOL    HW118353   6.112   6.135   5.149
 5818SOL    HW218354   6.217   6.010   5.143
 5819SOL     OW18355   4.345   0.273   0.854
 5819SOL    HW118356   4.405   0.333   0.801
 5819SOL    HW218357   4.270   0.327   0.893
 5820SOL     OW18358   5.094   0.076   3.465
 5820SOL    HW118359   5.012   0.128   3.491
 5820SOL    HW218360   5.066   7.019   3.410
 5821SOL     OW18361   2.379   0.516   2.068
 5821SOL    HW118362   2.418   0.574   2.140
 5821SOL    HW218363   2.302   0.563   2.026
 5822SOL     OW18364   0.959   2.635   1.556
 5822SOL    HW118365   0.948   2.659   1.459
 5822SOL    HW218366   0.893   2.687   1.611
 5823SOL     OW18367   1.052   0.530   5.129
 5823SOL    HW118368   0.966   0.480   5.142
 5823SOL    HW218369   1.096   0.543   5.218
 5824SOL     OW18370   6.451   6.456   2.886
 5824SOL    HW118371   6.401   6.392   2.827
 5824SOL    HW218372   6.391   6.531   2.913
 5825SOL     OW18373   2.503   1.822   6.127
 5825SOL    HW118374   2.427   1.866   6.175
 5825SOL    HW218375   2.521   1.733   6.169
 5826SOL     OW18376   6.562   6.019   5.436
 5826SOL    HW118377   6.521   6.090   5.493
 5826SOL    HW218378   6.515   6.016   5.348
 5827SOL     OW18379   1.015   5.365   5.149
 5827SOL    HW118380   0.969   5.453   5.167
 5827SOL    HW218381   1.013   5.309   5.232
 5828SOL     OW18382   0.744   3.479   1.827
 5828SOL    HW118383   0.800   3.480   1.744
 5828SOL    HW218384   0.647   3.486   1.802
 5829SOL     OW18385   2.830   1.211   2.153
 5829SOL    HW118386   2.785   1.150   2.218
 5829SOL    HW218387   2.760   1.265   2.105
 5830SOL     OW18388   4.022   0.782   6.132
 5830SOL    HW118389   4.096   0.844   6.106
 5830SOL    HW218390   3.954   0.779   6.059
 5831SOL     OW18391   6.070   6.538   3.506
 5831SOL    HW118392   6.142   6.474   3.534
 5831SOL    HW218393   5.985   6.515   3.553
 5832SOL     OW18394   4.458   3.854   5.701
 5832SOL    HW118395   4.536   3.870   5.641
 5832SOL    HW218396   4.401   3.936   5.704
 5833SOL     OW18397   3.310   3.785   4.148
 5833SOL    HW118398   3.403   3.749   4.139
 5833SOL    HW218399   3.245   3.709   4.150
 5834SOL     OW18400   6.079   1.424   0.549
 5834SOL    HW118401   6.037   1.344   0.592
 5834SOL    HW218402   6.069   1.503   0.610
 5835SOL     OW18403   5.345   2.428   3.687
 5835SOL    HW118404   5.263   2.479   3.711
 5835SOL    HW218405   5.426   2.475   3.723
 5836SOL     OW18406   2.987   5.768   3.095
 5836SOL    HW118407   2.910   5.783   3.033
 5836SOL    HW218408   3.070   5.805   3.055
 5837SOL     OW18409   4.441   4.446   0.225
 5837SOL    HW118410   4.473   4.464   0.132
 5837SOL    HW218411   4.351   4.404   0.222
 5838SOL     OW18412   1.851   1.699   6.029
 5838SOL    HW118413   1.761   1.674   6.064
 5838SOL    HW218414   1.867   1.652   5.942
 5839SOL     OW18415   0.025   2.925   2.260
 5839SOL    HW118416   0.106   2.950   2.207
 5839SOL    HW218417   0.031   2.966   2.351
 5840SOL     OW18418   1.284   5.810   0.004
 5840SOL    HW118419   1.335   5.884   0.047
 5840SOL    HW218420   1.244   5.751   0.074
 5841SOL     OW18421   6.094   3.258   2.500
 5841SOL    HW118422   6.122   3.327   2.433
 5841SOL    HW218423   6.033   3.192   2.456
 5842SOL     OW18424   3.890   3.305   0.743
 5842SOL    HW118425   3.854   3.304   0.837
 5842SOL    HW218426   3.869   3.393   0.700
 5843SOL     OW18427   2.045   3.698   2.411
 5843SOL    HW118428   2.026   3.615   2.462
 5843SOL    HW218429   2.099   3.676   2.330
 5844SOL     OW18430   0.309   6.298   6.488
 5844SOL    HW118431   0.268   6.302   6.396
 5844SOL    HW218432   0.401   6.336   6.485
 5845SOL     OW18433   0.673   1.846   3.358
 5845SOL    HW118434   0.606   1.805   3.420
 5845SOL    HW218435   0.729   1.773   3.318
 5846SOL     OW18436   6.737   3.083   5.074
 5846SOL    HW118437   6.727   2.984   5.085
 5846SOL    HW218438   6.735   3.126   5.165
 5847SOL     OW18439   2.281   2.404   2.415
 5847SOL    HW118440   2.187   2.399   2.381
 5847SOL    HW218441   2.299   2.325   2.474
 5848SOL     OW18442   2.089   4.959   3.330
 5848SOL    HW118443   2.060   4.880   3.276
 5848SOL    HW218444   2.062   4.945   3.426
 5849SOL     OW18445   1.164   0.293   5.388
 5849SOL    HW118446   1.256   0.287   5.425
 5849SOL    HW218447   1.132   0.388   5.391
 5850SOL     OW18448   1.183   3.468   2.047
 5850SOL    HW118449   1.255   3.532   2.073
 5850SOL    HW218450   1.222   3.393   1.995
 5851SOL     OW18451   6.043   3.655   2.575
 5851SOL    HW118452   5.964   3.698   2.530
 5851SOL    HW218453   6.126   3.701   2.546
 5852SOL     OW18454   4.091   6.185   2.977
 5852SOL    HW118455   4.182   6.163   2.942
 5852SOL    HW218456   4.029   6.202   2.900
 5853SOL     OW18457   2.754   5.602   6.072
 5853SOL    HW118458   2.776   5.668   6.145
 5853SOL    HW218459   2.727   5.651   5.990
 5854SOL     OW18460   6.623   3.182   5.765
 5854SOL    HW118461   6.637   3.280   5.746
 5854SOL    HW218462   6.693   3.150   5.828
 5855SOL     OW18463   1.262   1.022   4.554
 5855SOL    HW118464   1.176   1.075   4.553
 5855SOL    HW218465   1.287   1.002   4.649
 5856SOL     OW18466   2.115   5.606   3.517
 5856SOL    HW118467   2.093   5.510   3.503
 5856SOL    HW218468   2.118   5.626   3.616
 5857SOL     OW18469   6.232   3.070   5.196
 5857SOL    HW118470   6.176   3.072   5.279
 5857SOL    HW218471   6.298   2.995   5.202
 5858SOL     OW18472   2.983   1.719   2.196
 5858SOL    HW118473   2.982   1.620   2.186
 5858SOL    HW218474   2.904   1.748   2.250
 5859SOL     OW18475   6.045   6.556   0.498
 5859SOL    HW118476   6.105   6.514   0.430
 5859SOL    HW218477   6.056   6.508   0.585
 5860SOL     OW18478   1.863   4.552   1.660
 5860SOL    HW118479   1.869   4.606   1.744
 5860SOL    HW218480   1.929   4.586   1.594
 5861SOL     OW18481   5.418   1.719   3.914
 5861SOL    HW118482   5.381   1.695   3.824
 5861SOL    HW218483   5.481   1.795   3.905
 5862SOL     OW18484   3.780   5.257   3.333
 5862SOL    HW118485   3.773   5.167   3.289
 5862SOL    HW218486   3.875   5.274   3.358
 5863SOL     OW18487   2.525   0.779   6.231
 5863SOL    HW118488   2.549   0.832   6.312
 5863SOL    HW218489   2.591   0.797   6.158
 5864SOL     OW18490   4.385   4.105   1.619
 5864SOL    HW118491   4.359   4.008   1.618
 5864SOL    HW218492   4.426   4.127   1.708
 5865SOL     OW18493   5.311   0.641   3.967
 5865SOL    HW118494   5.257   0.724   3.978
 5865SOL    HW218495   5.256   0.571   3.922
 5866SOL     OW18496   4.364   6.211   6.275
 5866SOL    HW118497   4.438   6.220   6.341
 5866SOL    HW218498   4.293   6.279   6.295
 5867SOL     OW18499   0.440   2.659   0.880
 5867SOL    HW118500   0.401   2.744   0.844
 5867SOL    HW218501   0.417   2.650   0.977
 5868SOL     OW18502   0.254   0.468   5.112
 5868SOL    HW118503   0.221   0.559   5.137
 5868SOL    HW218504   0.314   0.476   5.032
 5869SOL     OW18505   2.087   4.680   4.061
 5869SOL    HW118506   2.068   4.666   3.964
 5869SOL    HW218507   2.001   4.672   4.113
 5870SOL     OW18508   4.973   4.843   4.911
 5870SOL    HW118509   4.909   4.768   4.928
 5870SOL    HW218510   5.051   4.809   4.859
 5871SOL     OW18511   3.780   3.783   0.120
 5871SOL    HW118512   3.857   3.792   0.057
 5871SOL    HW218513   3.788   3.851   0.192
 5872SOL     OW18514   4.249   5.779   6.854
 5872SOL    HW118515   4.335   5.756   6.901
 5872SOL    HW218516   4.270   5.823   6.767
 5873SOL     OW18517   2.122   3.114   0.428
 5873SOL    HW118518   2.136   3.088   0.523
 5873SOL    HW218519   2.033   3.080   0.396
 5874SOL     OW18520   2.791   3.132   1.414
 5874SOL    HW118521   2.782   3.225   1.378
 5874SOL    HW218522   2.742   3.068   1.355
 5875SOL     OW18523   3.529   1.689   0.123
 5875SOL    HW118524   3.551   1.784   0.102
 5875SOL    HW218525   3.467   1.652   0.053
 5876SOL     OW18526   3.407   3.258   6.396
 5876SOL    HW118527   3.355   3.267   6.480
 5876SOL    HW218528   3.381   3.173   6.349
 5877SOL     OW18529   6.436   7.013   1.463
 5877SOL    HW118530   6.368   7.014   1.390
 5877SOL    HW218531   6.446   0.083   1.501
 5878SOL     OW18532   4.838   5.856   2.268
 5878SOL    HW118533   4.827   5.837   2.366
 5878SOL    HW218534   4.751   5.841   2.222
 5879SOL     OW18535   3.483   3.020   5.881
 5879SOL    HW118536   3.421   3.067   5.944
 5879SOL    HW218537   3.459   2.923   5.878
 5880SOL     OW18538   4.946   3.295   5.713
 5880SOL    HW118539   4.968   3.385   5.750
 5880SOL    HW218540   4.848   3.279   5.719
 5881SOL     OW18541   0.881   6.138   2.581
 5881SOL    HW118542   0.964   6.179   2.542
 5881SOL    HW218543   0.803   6.159   2.522
 5882SOL     OW18544   1.260   6.132   5.708
 5882SOL    HW118545   1.229   6.219   5.669
 5882SOL    HW218546   1.319   6.085   5.643
 5883SOL     OW18547   0.388   3.683   0.869
 5883SOL    HW118548   0.341   3.665   0.783
 5883SOL    HW218549   0.457   3.613   0.886
 5884SOL     OW18550   6.185   1.194   3.825
 5884SOL    HW118551   6.269   1.159   3.866
 5884SOL    HW218552   6.145   1.263   3.885
 5885SOL     OW18553   0.297   5.232   0.263
 5885SOL    HW118554   0.311   5.185   0.350
 5885SOL    HW218555   0.381   5.280   0.237
 5886SOL     OW18556   1.314   3.165   3.268
 5886SOL    HW118557   1.269   3.223   3.200
 5886SOL    HW218558   1.390   3.116   3.225
 5887SOL     OW18559   2.391   1.848   1.585
 5887SOL    HW118560   2.317   1.863   1.520
 5887SOL    HW218561   2.472   1.900   1.557
 5888SOL     OW18562   2.521   0.128   1.591
 5888SOL    HW118563   2.450   0.099   1.527
 5888SOL    HW218564   2.548   0.050   1.648
 5889SOL     OW18565   0.235   1.291   1.316
 5889SOL    HW118566   0.286   1.281   1.231
 5889SOL    HW218567   0.249   1.382   1.354
 5890SOL     OW18568   2.448   6.120   2.350
 5890SOL    HW118569   2.463   6.022   2.367
 5890SOL    HW218570   2.353   6.143   2.369
 5891SOL     OW18571   2.985   3.302   0.830
 5891SOL    HW118572   3.037   3.222   0.860
 5891SOL    HW218573   3.048   3.379   0.819
 5892SOL     OW18574   0.358   3.952   0.532
 5892SOL    HW118575   0.343   4.021   0.461
 5892SOL    HW218576   0.421   3.882   0.498
 5893SOL     OW18577   1.040   5.701   2.224
 5893SOL    HW118578   1.125   5.679   2.272
 5893SOL    HW218579   0.970   5.635   2.251
 5894SOL     OW18580   0.840   5.714   5.463
 5894SOL    HW118581   0.794   5.763   5.389
 5894SOL    HW218582   0.826   5.616   5.452
 5895SOL     OW18583   5.973   3.131   5.124
 5895SOL    HW118584   6.050   3.079   5.160
 5895SOL    HW218585   6.006   3.196   5.055
 5896SOL     OW18586   5.793   1.658   1.751
 5896SOL    HW118587   5.858   1.688   1.681
 5896SOL    HW218588   5.702   1.692   1.729
 5897SOL     OW18589   4.323   1.652   1.805
 5897SOL    HW118590   4.263   1.588   1.757
 5897SOL    HW218591   4.326   1.738   1.753
 5898SOL     OW18592   1.679   1.316   5.806
 5898SOL    HW118593   1.742   1.266   5.747
 5898SOL    HW218594   1.614   1.367   5.749
 5899SOL     OW18595   6.840   5.491   6.378
 5899SOL    HW118596   6.898   5.539   6.443
 5899SOL    HW218597   6.747   5.484   6.415
 5900SOL     OW18598   7.019   5.944   3.078
 5900SOL    HW118599   7.002   5.971   2.983
 5900SOL    HW218600   0.095   5.952   3.097
 5901SOL     OW18601   1.746   0.009   6.388
 5901SOL    HW118602   1.798   6.994   6.311
 5901SOL    HW218603   1.693   6.958   6.431
 5902SOL     OW18604   5.998   4.089   4.572
 5902SOL    HW118605   6.009   4.185   4.546
 5902SOL    HW218606   6.086   4.043   4.567
 5903SOL     OW18607   5.931   2.694   6.365
 5903SOL    HW118608   5.993   2.698   6.443
 5903SOL    HW218609   5.878   2.610   6.369
 5904SOL     OW18610   2.031   4.977   2.902
 5904SOL    HW118611   2.030   5.071   2.936
 5904SOL    HW218612   2.000   4.914   2.974
 5905SOL     OW18613   5.752   1.031   4.190
 5905SOL    HW118614   5.779   1.122   4.158
 5905SOL    HW218615   5.653   1.019   4.180
 5906SOL     OW18616   5.395   1.563   5.647
 5906SOL    HW118617   5.456   1.548   5.569
 5906SOL    HW218618   5.447   1.560   5.732
 5907SOL     OW18619   1.355   1.317   6.819
 5907SOL    HW118620   1.313   1.408   6.822
 5907SOL    HW218621   1.423   1.314   6.745
 5908SOL     OW18622   4.458   3.687   6.439
 5908SOL    HW118623   4.446   3.699   6.340
 5908SOL    HW218624   4.542   3.635   6.455
 5909SOL     OW18625   6.930   4.744   5.256
 5909SOL    HW118626   6.977   4.685   5.322
 5909SOL    HW218627   6.905   4.691   5.175
 5910SOL     OW18628   2.220   4.006   1.399
 5910SOL    HW118629   2.202   4.032   1.494
 5910SOL    HW218630   2.240   4.088   1.346
 5911SOL     OW18631   6.210   5.042   6.368
 5911SOL    HW118632   6.118   5.026   6.406
 5911SOL    HW218633   6.278   5.034   6.441
 5912SOL     OW18634   6.239   3.473   6.956
 5912SOL    HW118635   6.144   3.455   6.933
 5912SOL    HW218636   6.298   3.410   6.904
 5913SOL     OW18637   2.347   2.367   5.644
 5913SOL    HW118638   2.280   2.302   5.681
 5913SOL    HW218639   2.325   2.386   5.548
 5914SOL     OW18640   2.570   5.747   0.415
 5914SOL    HW118641   2.533   5.705   0.497
 5914SOL    HW218642   2.580   5.845   0.429
 5915SOL     OW18643   4.896   2.819   2.830
 5915SOL    HW118644   4.869   2.798   2.924
 5915SOL    HW218645   4.909   2.918   2.821
 5916SOL     OW18646   3.933   6.933   5.513
 5916SOL    HW118647   3.845   6.963   5.551
 5916SOL    HW218648   4.004   6.999   5.538
 5917SOL     OW18649   3.636   3.287   3.094
 5917SOL    HW118650   3.694   3.292   3.176
 5917SOL    HW218651   3.648   3.370   3.040
 5918SOL     OW18652   1.507   3.472   4.204
 5918SOL    HW118653   1.587   3.531   4.215
 5918SOL    HW218654   1.469   3.450   4.294
 5919SOL     OW18655   2.683   2.604   0.559
 5919SOL    HW118656   2.666   2.703   0.557
 5919SOL    HW218657   2.752   2.581   0.491
 5920SOL     OW18658   3.804   0.332   6.756
 5920SOL    HW118659   3.715   0.288   6.770
 5920SOL    HW218660   3.872   0.263   6.735
 5921SOL     OW18661   3.621   5.248   5.674
 5921SOL    HW118662   3.636   5.156   5.638
 5921SOL    HW218663   3.695   5.273   5.736
 5922SOL     OW18664   6.634   4.883   2.883
 5922SOL    HW118665   6.596   4.884   2.975
 5922SOL    HW218666   6.712   4.944   2.878
 5923SOL     OW18667   6.408   0.395   3.486
 5923SOL    HW118668   6.325   0.363   3.532
 5923SOL    HW218669   6.393   0.398   3.388
 5924SOL     OW18670   5.138   2.082   4.687
 5924SOL    HW118671   5.173   2.125   4.604
 5924SOL    HW218672   5.067   2.015   4.661
 5925SOL     OW18673   5.607   5.800   1.693
 5925SOL    HW118674   5.654   5.732   1.750
 5925SOL    HW218675   5.595   5.764   1.601
 5926SOL     OW18676   3.680   5.139   1.803
 5926SOL    HW118677   3.599   5.081   1.804
 5926SOL    HW218678   3.688   5.186   1.892
 5927SOL     OW18679   2.802   5.381   1.574
 5927SOL    HW118680   2.856   5.355   1.494
 5927SOL    HW218681   2.791   5.301   1.633
 5928SOL     OW18682   1.563   0.253   2.492
 5928SOL    HW118683   1.566   0.348   2.461
 5928SOL    HW218684   1.591   0.192   2.417
 5929SOL     OW18685   0.887   6.608   5.695
 5929SOL    HW118686   0.813   6.659   5.738
 5929SOL    HW218687   0.961   6.594   5.762
 5930SOL     OW18688   6.255   1.223   4.675
 5930SOL    HW118689   6.288   1.258   4.763
 5930SOL    HW218690   6.198   1.142   4.690
 5931SOL     OW18691   5.876   5.558   1.561
 5931SOL    HW118692   5.886   5.553   1.661
 5931SOL    HW218693   5.780   5.576   1.538
 5932SOL     OW18694   2.057   6.654   1.074
 5932SOL    HW118695   2.081   6.706   1.156
 5932SOL    HW218696   2.117   6.680   0.998
 5933SOL     OW18697   0.097   4.234   2.450
 5933SOL    HW118698   0.182   4.285   2.434
 5933SOL    HW218699   0.117   4.136   2.454
 5934SOL     OW18700   3.806   3.622   2.716
 5934SOL    HW118701   3.805   3.703   2.656
 5934SOL    HW218702   3.899   3.585   2.721
 5935SOL     OW18703   3.727   3.904   5.135
 5935SOL    HW118704   3.824   3.882   5.136
 5935SOL    HW218705   3.701   3.951   5.219
 5936SOL     OW18706   4.943   4.643   0.072
 5936SOL    HW118707   5.019   4.596   0.027
 5936SOL    HW218708   4.932   4.734   0.033
 5937SOL     OW18709   1.167   3.837   0.948
 5937SOL    HW118710   1.221   3.910   0.907
 5937SOL    HW218711   1.071   3.848   0.921
 5938SOL     OW18712   2.116   4.434   2.962
 5938SOL    HW118713   2.123   4.334   2.962
 5938SOL    HW218714   2.090   4.465   2.870
 5939SOL     OW18715   3.356   0.884   3.073
 5939SOL    HW118716   3.326   0.812   3.011
 5939SOL    HW218717   3.453   0.870   3.096
 5940SOL     OW18718   3.417   6.686   2.886
 5940SOL    HW118719   3.517   6.680   2.888
 5940SOL    HW218720   3.380   6.648   2.971
 5941SOL     OW18721   6.268   5.004   2.160
 5941SOL    HW118722   6.241   5.074   2.226
 5941SOL    HW218723   6.198   4.932   2.156
 5942SOL     OW18724   3.739   3.444   5.963
 5942SOL    HW118725   3.775   3.487   5.880
 5942SOL    HW218726   3.649   3.405   5.944
 5943SOL     OW18727   2.005   5.834   0.266
 5943SOL    HW118728   2.105   5.834   0.263
 5943SOL    HW218729   1.971   5.740   0.272
 5944SOL     OW18730   4.864   1.598   2.315
 5944SOL    HW118731   4.880   1.622   2.410
 5944SOL    HW218732   4.786   1.535   2.309
 5945SOL     OW18733   6.487   5.103   5.404
 5945SOL    HW118734   6.533   5.052   5.477
 5945SOL    HW218735   6.448   5.187   5.441
 5946SOL     OW18736   4.209   3.722   6.016
 5946SOL    HW118737   4.195   3.694   6.111
 5946SOL    HW218738   4.124   3.713   5.965
 5947SOL     OW18739   4.268   3.368   1.822
 5947SOL    HW118740   4.316   3.297   1.770
 5947SOL    HW218741   4.176   3.335   1.845
 5948SOL     OW18742   3.521   4.888   2.984
 5948SOL    HW118743   3.493   4.793   2.971
 5948SOL    HW218744   3.461   4.931   3.051
 5949SOL     OW18745   4.197   4.911   0.984
 5949SOL    HW118746   4.189   4.907   1.083
 5949SOL    HW218747   4.130   4.976   0.948
 5950SOL     OW18748   5.854   2.125   4.400
 5950SOL    HW118749   5.857   2.078   4.488
 5950SOL    HW218750   5.816   2.217   4.413
 5951SOL     OW18751   1.867   6.454   4.163
 5951SOL    HW118752   1.830   6.397   4.089
 5951SOL    HW218753   1.928   6.523   4.124
 5952SOL     OW18754   6.408   6.088   3.626
 5952SOL    HW118755   6.405   6.127   3.718
 5952SOL    HW218756   6.321   6.107   3.579
 5953SOL     OW18757   6.654   3.434   5.720
 5953SOL    HW118758   6.668   3.515   5.776
 5953SOL    HW218759   6.716   3.436   5.641
 5954SOL     OW18760   6.806   4.545   6.404
 5954SOL    HW118761   6.737   4.598   6.353
 5954SOL    HW218762   6.771   4.523   6.495
 5955SOL     OW18763   5.123   5.318   1.867
 5955SOL    HW118764   5.183   5.390   1.832
 5955SOL    HW218765   5.167   5.272   1.943
 5956SOL     OW18766   4.093   2.493   6.802
 5956SOL    HW118767   4.162   2.439   6.753
 5956SOL    HW218768   4.076   2.452   6.891
 5957SOL     OW18769   5.480   6.479   5.819
 5957SOL    HW118770   5.478   6.518   5.727
 5957SOL    HW218771   5.469   6.551   5.886
 5958SOL     OW18772   6.845   6.402   1.498
 5958SOL    HW118773   6.824   6.413   1.595
 5958SOL    HW218774   6.909   6.473   1.469
 5959SOL     OW18775   2.772   1.869   5.854
 5959SOL    HW118776   2.689   1.860   5.798
 5959SOL    HW218777   2.773   1.958   5.898
 5960SOL     OW18778   2.872   0.195   3.655
 5960SOL    HW118779   2.798   0.257   3.628
 5960SOL    HW218780   2.958   0.226   3.615
 5961SOL     OW18781   3.660   0.571   5.133
 5961SOL    HW118782   3.561   0.565   5.119
 5961SOL    HW218783   3.704   0.497   5.082
 5962SOL     OW18784   5.071   5.951   2.192
 5962SOL    HW118785   5.082   5.932   2.094
 5962SOL    HW218786   4.983   5.916   2.223
 5963SOL     OW18787   4.104   3.288   2.832
 5963SOL    HW118788   4.049   3.260   2.911
 5963SOL    HW218789   4.051   3.275   2.749
 5964SOL     OW18790   0.341   5.242   6.694
 5964SOL    HW118791   0.393   5.288   6.766
 5964SOL    HW218792   0.265   5.299   6.665
 5965SOL     OW18793   1.626   2.196   6.510
 5965SOL    HW118794   1.596   2.270   6.570
 5965SOL    HW218795   1.725   2.186   6.517
 5966SOL     OW18796   3.149   6.029   4.838
 5966SOL    HW118797   3.210   6.102   4.868
 5966SOL    HW218798   3.128   6.041   4.741
 5967SOL     OW18799   4.616   6.819   2.783
 5967SOL    HW118800   4.684   6.773   2.840
 5967SOL    HW218801   4.557   6.875   2.841
 5968SOL     OW18802   6.530   2.041   3.323
 5968SOL    HW118803   6.562   1.978   3.394
 5968SOL    HW218804   6.553   2.005   3.233
 5969SOL     OW18805   5.812   3.211   4.070
 5969SOL    HW118806   5.869   3.280   4.025
 5969SOL    HW218807   5.834   3.207   4.167
 5970SOL     OW18808   1.238   3.329   3.070
 5970SOL    HW118809   1.210   3.421   3.099
 5970SOL    HW218810   1.302   3.337   2.993
 5971SOL     OW18811   1.919   6.813   2.744
 5971SOL    HW118812   1.871   6.896   2.716
 5971SOL    HW218813   1.871   6.772   2.822
 5972SOL     OW18814   5.343   0.235   6.968
 5972SOL    HW118815   5.407   0.186   0.005
 5972SOL    HW218816   5.385   0.248   6.878
 5973SOL     OW18817   1.629   4.093   2.716
 5973SOL    HW118818   1.715   4.133   2.747
 5973SOL    HW218819   1.612   4.008   2.765
 5974SOL     OW18820   6.884   3.541   6.541
 5974SOL    HW118821   6.850   3.542   6.447
 5974SOL    HW218822   6.857   3.456   6.585
 5975SOL     OW18823   3.909   2.452   1.277
 5975SOL    HW118824   3.886   2.496   1.364
 5975SOL    HW218825   3.899   2.353   1.287
 5976SOL     OW18826   3.003   3.260   4.676
 5976SOL    HW118827   3.049   3.204   4.608
 5976SOL    HW218828   2.980   3.349   4.636
 5977SOL     OW18829   2.186   4.756   2.143
 5977SOL    HW118830   2.256   4.690   2.116
 5977SOL    HW218831   2.140   4.724   2.225
 5978SOL     OW18832   5.304   4.732   2.512
 5978SOL    HW118833   5.222   4.674   2.506
 5978SOL    HW218834   5.316   4.763   2.606
 5979SOL     OW18835   6.206   0.848   3.748
 5979SOL    HW118836   6.202   0.799   3.661
 5979SOL    HW218837   6.188   0.945   3.732
 5980SOL     OW18838   4.730   4.464   0.578
 5980SOL    HW118839   4.819   4.463   0.624
 5980SOL    HW218840   4.720   4.381   0.523
 5981SOL     OW18841   6.296   1.599   2.444
 5981SOL    HW118842   6.339   1.681   2.405
 5981SOL    HW218843   6.323   1.519   2.390
 5982SOL     OW18844   7.009   1.992   6.761
 5982SOL    HW118845   6.931   2.049   6.734
 5982SOL    HW218846   0.041   1.971   6.680
 5983SOL     OW18847   1.888   2.395   4.112
 5983SOL    HW118848   1.857   2.489   4.096
 5983SOL    HW218849   1.822   2.332   4.070
 5984SOL     OW18850   6.712   6.388   4.472
 5984SOL    HW118851   6.677   6.445   4.547
 5984SOL    HW218852   6.797   6.427   4.438
 5985SOL     OW18853   5.257   2.003   3.508
 5985SOL    HW118854   5.304   2.051   3.582
 5985SOL    HW218855   5.188   2.064   3.469
 5986SOL     OW18856   3.236   2.949   2.967
 5986SOL    HW118857   3.243   2.893   3.050
 5986SOL    HW218858   3.310   3.016   2.965
 5987SOL     OW18859   4.422   0.079   4.813
 5987SOL    HW118860   4.462   0.170   4.822
 5987SOL    HW218861   4.370   0.074   4.727
 5988SOL     OW18862   4.668   0.104   4.349
 5988SOL    HW118863   4.598   0.052   4.300
 5988SOL    HW218864   4.747   0.118   4.288
 5989SOL     OW18865   2.672   0.082   6.305
 5989SOL    HW118866   2.619   0.043   6.230
 5989SOL    HW218867   2.668   0.182   6.300
 5990SOL     OW18868   3.755   4.472   0.565
 5990SOL    HW118869   3.772   4.402   0.635
 5990SOL    HW218870   3.811   4.451   0.484
 5991SOL     OW18871   3.599   5.324   4.753
 5991SOL    HW118872   3.499   5.322   4.749
 5991SOL    HW218873   3.635   5.232   4.738
 5992SOL     OW18874   3.638   0.525   3.934
 5992SOL    HW118875   3.689   0.528   3.848
 5992SOL    HW218876   3.687   0.577   4.004
 5993SOL     OW18877   2.617   6.529   5.906
 5993SOL    HW118878   2.612   6.453   5.841
 5993SOL    HW218879   2.652   6.610   5.859
 5994SOL     OW18880   6.600   2.466   2.237
 5994SOL    HW118881   6.575   2.528   2.311
 5994SOL    HW218882   6.527   2.400   2.222
 5995SOL     OW18883   6.648   5.416   1.148
 5995SOL    HW118884   6.603   5.344   1.200
 5995SOL    HW218885   6.726   5.451   1.199
 5996SOL     OW18886   0.458   6.041   6.444
 5996SOL    HW118887   0.392   6.114   6.464
 5996SOL    HW218888   0.471   5.984   6.525
 5997SOL     OW18889   0.252   0.019   1.849
 5997SOL    HW118890   0.350   0.015   1.870
 5997SOL    HW218891   0.232   0.100   1.795
 5998SOL     OW18892   5.432   1.983   2.487
 5998SOL    HW118893   5.382   2.070   2.489
 5998SOL    HW218894   5.530   2.001   2.490
 5999SOL     OW18895   1.540   1.455   3.659
 5999SOL    HW118896   1.473   1.437   3.731
 5999SOL    HW218897   1.544   1.553   3.641
 6000SOL     OW18898   4.138   4.916   2.541
 6000SOL    HW118899   4.079   4.986   2.502
 6000SOL    HW218900   4.143   4.838   2.478
 6001SOL     OW18901   0.070   2.982   6.931
 6001SOL    HW118902   0.126   2.942   6.859
 6001SOL    HW218903   6.998   2.949   6.921
 6002SOL     OW18904   1.685   0.296   1.514
 6002SOL    HW118905   1.739   0.339   1.586
 6002SOL    HW218906   1.590   0.288   1.545
 6003SOL     OW18907   5.749   4.047   4.679
 6003SOL    HW118908   5.843   4.055   4.645
 6003SOL    HW218909   5.734   3.956   4.717
 6004SOL     OW18910   0.798   3.259   2.869
 6004SOL    HW118911   0.721   3.240   2.930
 6004SOL    HW218912   0.786   3.349   2.828
 6005SOL     OW18913   3.725   5.594   4.205
 6005SOL    HW118914   3.777   5.571   4.122
 6005SOL    HW218915   3.730   5.517   4.269
 6006SOL     OW18916   2.727   6.570   6.731
 6006SOL    HW118917   2.782   6.499   6.774
 6006SOL    HW218918   2.778   6.611   6.655
 6007SOL     OW18919   5.363   2.133   3.727
 6007SOL    HW118920   5.428   2.081   3.783
 6007SOL    HW218921   5.384   2.230   3.732
 6008SOL     OW18922   3.284   5.108   5.956
 6008SOL    HW118923   3.323   5.157   5.878
 6008SOL    HW218924   3.323   5.016   5.960
 6009SOL     OW18925   2.483   1.830   4.401
 6009SOL    HW118926   2.527   1.863   4.318
 6009SOL    HW218927   2.521   1.879   4.480
 6010SOL     OW18928   1.774   4.208   2.242
 6010SOL    HW118929   1.820   4.280   2.190
 6010SOL    HW218930   1.832   4.126   2.242
 6011SOL     OW18931   5.224   2.644   2.149
 6011SOL    HW118932   5.195   2.740   2.154
 6011SOL    HW218933   5.165   2.595   2.084
 6012SOL     OW18934   6.979   2.494   6.735
 6012SOL    HW118935   6.949   2.427   6.803
 6012SOL    HW218936   6.943   2.468   6.645
 6013SOL     OW18937   6.180   0.816   2.077
 6013SOL    HW118938   6.257   0.809   2.141
 6013SOL    HW218939   6.165   0.728   2.033
 6014SOL     OW18940   5.855   0.887   0.491
 6014SOL    HW118941   5.808   0.823   0.552
 6014SOL    HW218942   5.943   0.912   0.530
 6015SOL     OW18943   5.903   2.188   4.820
 6015SOL    HW118944   5.814   2.216   4.856
 6015SOL    HW218945   5.890   2.135   4.736
 6016SOL     OW18946   0.832   0.366   5.166
 6016SOL    HW118947   0.909   0.304   5.180
 6016SOL    HW218948   0.782   0.339   5.083
 6017SOL     OW18949   6.150   5.368   3.160
 6017SOL    HW118950   6.110   5.422   3.085
 6017SOL    HW218951   6.085   5.363   3.235
 6018SOL     OW18952   2.804   3.456   0.403
 6018SOL    HW118953   2.740   3.391   0.362
 6018SOL    HW218954   2.754   3.517   0.465
 6019SOL     OW18955   4.388   1.253   3.865
 6019SOL    HW118956   4.435   1.330   3.910
 6019SOL    HW218957   4.411   1.168   3.913
 6020SOL     OW18958   3.724   0.663   2.686
 6020SOL    HW118959   3.760   0.647   2.778
 6020SOL    HW218960   3.772   0.603   2.621
 6021SOL     OW18961   4.497   1.096   2.624
 6021SOL    HW118962   4.552   1.089   2.541
 6021SOL    HW218963   4.499   1.009   2.673
 6022SOL     OW18964   4.906   1.281   2.986
 6022SOL    HW118965   4.823   1.257   2.935
 6022SOL    HW218966   4.890   1.365   3.038
 6023SOL     OW18967   0.164   1.300   3.206
 6023SOL    HW118968   0.098   1.375   3.205
 6023SOL    HW218969   0.250   1.332   3.248
 6024SOL     OW18970   0.669   4.605   1.927
 6024SOL    HW118971   0.611   4.632   1.851
 6024SOL    HW218972   0.728   4.529   1.899
 6025SOL     OW18973   4.730   1.240   2.134
 6025SOL    HW118974   4.654   1.212   2.075
 6025SOL    HW218975   4.812   1.253   2.079
 6026SOL     OW18976   6.825   5.214   5.020
 6026SOL    HW118977   6.890   5.275   5.066
 6026SOL    HW218978   6.762   5.176   5.088
 6027SOL     OW18979   2.915   3.285   6.516
 6027SOL    HW118980   2.906   3.304   6.614
 6027SOL    HW218981   2.826   3.295   6.472
 6028SOL     OW18982   1.553   4.529   0.256
 6028SOL    HW118983   1.611   4.452   0.229
 6028SOL    HW218984   1.476   4.496   0.311
 6029SOL     OW18985   1.660   5.897   0.500
 6029SOL    HW118986   1.747   5.947   0.500
 6029SOL    HW218987   1.673   5.807   0.459
 6030SOL     OW18988   2.200   0.700   1.928
 6030SOL    HW118989   2.127   0.666   1.869
 6030SOL    HW218990   2.239   0.783   1.888
 6031SOL     OW18991   4.718   6.902   5.741
 6031SOL    HW118992   4.620   6.889   5.750
 6031SOL    HW218993   4.764   6.813   5.739
 6032SOL     OW18994   1.620   3.934   2.262
 6032SOL    HW118995   1.663   3.930   2.172
 6032SOL    HW218996   1.550   4.007   2.261
 6033SOL     OW18997   1.990   1.970   2.880
 6033SOL    HW118998   1.943   2.013   2.957
 6033SOL    HW218999   1.932   1.897   2.843
 6034SOL     OW19000   2.538   4.541   4.569
 6034SOL    HW119001   2.519   4.533   4.666
 6034SOL    HW219002   2.457   4.573   4.521
 6035SOL     OW19003   5.049   0.617   4.485
 6035SOL    HW119004   5.135   0.667   4.492
 6035SOL    HW219005   5.063   0.535   4.430
 6036SOL     OW19006   0.251   0.195   5.012
 6036SOL    HW119007   0.269   0.293   5.015
 6036SOL    HW219008   0.188   0.175   4.936
 6037SOL     OW19009   4.545   4.825   5.604
 6037SOL    HW119010   4.614   4.864   5.665
 6037SOL    HW219011   4.471   4.892   5.590
 6038SOL     OW19012   6.808   3.581   6.277
 6038SOL    HW119013   6.863   3.650   6.230
 6038SOL    HW219014   6.716   3.580   6.237
 6039SOL     OW19015   3.318   3.316   2.388
 6039SOL    HW119016   3.329   3.412   2.364
 6039SOL    HW219017   3.221   3.293   2.390
 6040SOL     OW19018   0.503   1.770   6.380
 6040SOL    HW119019   0.484   1.679   6.417
 6040SOL    HW219020   0.421   1.826   6.385
 6041SOL     OW19021   1.144   1.573   0.075
 6041SOL    HW119022   1.112   1.499   0.134
 6041SOL    HW219023   1.067   1.629   0.046
 6042SOL     OW19024   5.148   5.139   2.395
 6042SOL    HW119025   5.052   5.166   2.391
 6042SOL    HW219026   5.156   5.040   2.383
 6043SOL     OW19027   1.183   4.867   4.619
 6043SOL    HW119028   1.192   4.949   4.676
 6043SOL    HW219029   1.265   4.811   4.629
 6044SOL     OW19030   0.479   0.810   1.291
 6044SOL    HW119031   0.519   0.752   1.362
 6044SOL    HW219032   0.445   0.895   1.333
 6045SOL     OW19033   5.807   5.180   0.890
 6045SOL    HW119034   5.873   5.117   0.848
 6045SOL    HW219035   5.824   5.273   0.856
 6046SOL     OW19036   2.582   2.279   0.042
 6046SOL    HW119037   2.594   2.353   6.999
 6046SOL    HW219038   2.501   2.225   0.018
 6047SOL     OW19039   6.069   0.279   3.932
 6047SOL    HW119040   5.984   0.262   3.982
 6047SOL    HW219041   6.096   0.374   3.945
 6048SOL     OW19042   4.192   0.319   3.858
 6048SOL    HW119043   4.276   0.300   3.808
 6048SOL    HW219044   4.202   0.403   3.911
 6049SOL     OW19045   4.826   3.830   6.395
 6049SOL    HW119046   4.775   3.744   6.387
 6049SOL    HW219047   4.889   3.838   6.318
 6050SOL     OW19048   3.952   4.850   5.415
 6050SOL    HW119049   3.917   4.811   5.500
 6050SOL    HW219050   4.004   4.781   5.365
 6051SOL     OW19051   2.441   2.574   2.219
 6051SOL    HW119052   2.374   2.510   2.256
 6051SOL    HW219053   2.515   2.523   2.176
 6052SOL     OW19054   6.836   1.299   0.389
 6052SOL    HW119055   6.748   1.258   0.415
 6052SOL    HW219056   6.869   1.356   0.464
 6053SOL     OW19057   2.921   6.817   6.842
 6053SOL    HW119058   2.948   6.721   6.834
 6053SOL    HW219059   2.977   6.872   6.780
 6054SOL     OW19060   1.495   5.236   0.954
 6054SOL    HW119061   1.396   5.233   0.957
 6054SOL    HW219062   1.525   5.250   0.859
 6055SOL     OW19063   4.748   0.939   5.146
 6055SOL    HW119064   4.704   0.906   5.230
 6055SOL    HW219065   4.836   0.893   5.134
 6056SOL     OW19066   3.840   1.232   6.143
 6056SOL    HW119067   3.767   1.280   6.192
 6056SOL    HW219068   3.807   1.203   6.054
 6057SOL     OW19069   4.052   1.541   5.393
 6057SOL    HW119070   4.125   1.479   5.365
 6057SOL    HW219071   3.988   1.552   5.317
 6058SOL     OW19072   5.298   3.078   4.284
 6058SOL    HW119073   5.299   2.982   4.311
 6058SOL    HW219074   5.386   3.103   4.245
 6059SOL     OW19075   5.014   4.623   6.453
 6059SOL    HW119076   4.932   4.587   6.408
 6059SOL    HW219077   5.003   4.721   6.469
 6060SOL     OW19078   4.512   5.072   5.750
 6060SOL    HW119079   4.608   5.069   5.721
 6060SOL    HW219080   4.505   5.043   5.845
 6061SOL     OW19081   3.435   1.979   6.545
 6061SOL    HW119082   3.433   1.913   6.619
 6061SOL    HW219083   3.364   1.956   6.478
 6062SOL     OW19084   1.897   1.142   4.616
 6062SOL    HW119085   1.957   1.065   4.638
 6062SOL    HW219086   1.938   1.227   4.648
 6063SOL     OW19087   4.103   0.846   6.713
 6063SOL    HW119088   4.191   0.822   6.672
 6063SOL    HW219089   4.035   0.778   6.685
 6064SOL     OW19090   1.211   5.892   3.204
 6064SOL    HW119091   1.138   5.935   3.151
 6064SOL    HW219092   1.186   5.891   3.301
 6065SOL     OW19093   5.974   6.623   1.048
 6065SOL    HW119094   6.054   6.613   1.108
 6065SOL    HW219095   6.004   6.621   0.953
 6066SOL     OW19096   4.358   2.171   1.249
 6066SOL    HW119097   4.318   2.081   1.264
 6066SOL    HW219098   4.291   2.231   1.205
 6067SOL     OW19099   6.413   1.306   5.903
 6067SOL    HW119100   6.372   1.397   5.901
 6067SOL    HW219101   6.503   1.308   5.859
 6068SOL     OW19102   4.745   3.042   5.164
 6068SOL    HW119103   4.661   2.987   5.158
 6068SOL    HW219104   4.720   3.138   5.173
 6069SOL     OW19105   0.023   4.061   5.514
 6069SOL    HW119106   0.017   4.157   5.541
 6069SOL    HW219107   0.102   4.018   5.559
 6070SOL     OW19108   4.073   2.450   6.475
 6070SOL    HW119109   3.984   2.413   6.449
 6070SOL    HW219110   4.118   2.387   6.539
 6071SOL     OW19111   4.227   6.187   5.195
 6071SOL    HW119112   4.302   6.245   5.163
 6071SOL    HW219113   4.141   6.219   5.155
 6072SOL     OW19114   1.319   2.103   1.862
 6072SOL    HW119115   1.241   2.159   1.891
 6072SOL    HW219116   1.307   2.010   1.897
 6073SOL     OW19117   6.506   2.789   0.524
 6073SOL    HW119118   6.470   2.852   0.594
 6073SOL    HW219119   6.431   2.732   0.490
 6074SOL     OW19120   0.989   6.665   4.622
 6074SOL    HW119121   1.010   6.650   4.719
 6074SOL    HW219122   0.910   6.726   4.614
 6075SOL     OW19123   6.232   3.529   0.229
 6075SOL    HW119124   6.237   3.516   0.130
 6075SOL    HW219125   6.234   3.440   0.274
 6076SOL     OW19126   2.312   0.064   3.992
 6076SOL    HW119127   2.304   0.093   3.896
 6076SOL    HW219128   2.405   0.079   4.024
 6077SOL     OW19129   5.908   5.978   2.107
 6077SOL    HW119130   5.826   6.003   2.158
 6077SOL    HW219131   5.981   5.953   2.170
 6078SOL     OW19132   3.021   5.141   3.776
 6078SOL    HW119133   3.092   5.187   3.829
 6078SOL    HW219134   2.942   5.202   3.765
 6079SOL     OW19135   2.632   2.805   0.203
 6079SOL    HW119136   2.667   2.818   0.111
 6079SOL    HW219137   2.657   2.883   0.260
 6080SOL     OW19138   6.080   2.239   1.446
 6080SOL    HW119139   6.161   2.183   1.467
 6080SOL    HW219140   6.107   2.321   1.396
 6081SOL     OW19141   6.499   3.488   3.930
 6081SOL    HW119142   6.516   3.586   3.922
 6081SOL    HW219143   6.403   3.472   3.951
 6082SOL     OW19144   4.266   0.414   2.803
 6082SOL    HW119145   4.332   0.477   2.762
 6082SOL    HW219146   4.248   0.441   2.897
 6083SOL     OW19147   1.011   5.878   6.933
 6083SOL    HW119148   1.103   5.841   6.945
 6083SOL    HW219149   1.017   5.977   6.918
 6084SOL     OW19150   6.280   5.098   5.008
 6084SOL    HW119151   6.379   5.110   5.022
 6084SOL    HW219152   6.230   5.163   5.065
 6085SOL     OW19153   6.747   3.062   0.097
 6085SOL    HW119154   6.757   3.073   7.021
 6085SOL    HW219155   6.681   3.129   0.132
 6086SOL     OW19156   4.303   1.099   4.570
 6086SOL    HW119157   4.329   1.188   4.608
 6086SOL    HW219158   4.242   1.112   4.492
 6087SOL     OW19159   5.436   6.807   6.795
 6087SOL    HW119160   5.451   6.877   6.725
 6087SOL    HW219161   5.464   6.718   6.760
 6088SOL     OW19162   0.719   6.914   4.820
 6088SOL    HW119163   0.681   6.882   4.907
 6088SOL    HW219164   0.736   6.836   4.760
 6089SOL     OW19165   0.959   3.555   0.927
 6089SOL    HW119166   0.869   3.573   0.967
 6089SOL    HW219167   1.025   3.540   1.001
 6090SOL     OW19168   0.652   5.909   5.628
 6090SOL    HW119169   0.706   5.872   5.552
 6090SOL    HW219170   0.673   5.858   5.712
 6091SOL     OW19171   6.564   1.652   2.072
 6091SOL    HW119172   6.480   1.635   2.021
 6091SOL    HW219173   6.562   1.746   2.107
 6092SOL     OW19174   2.298   1.025   2.115
 6092SOL    HW119175   2.268   0.973   2.035
 6092SOL    HW219176   2.259   1.117   2.111
 6093SOL     OW19177   1.552   2.883   1.264
 6093SOL    HW119178   1.489   2.806   1.253
 6093SOL    HW219179   1.638   2.863   1.215
 6094SOL     OW19180   1.615   1.488   1.429
 6094SOL    HW119181   1.624   1.582   1.395
 6094SOL    HW219182   1.586   1.428   1.354
 6095SOL     OW19183   5.622   3.135   6.817
 6095SOL    HW119184   5.634   3.234   6.820
 6095SOL    HW219185   5.652   3.100   6.728
 6096SOL     OW19186   4.476   1.344   4.136
 6096SOL    HW119187   4.540   1.279   4.177
 6096SOL    HW219188   4.517   1.436   4.138
 6097SOL     OW19189   2.288   0.709   2.384
 6097SOL    HW119190   2.288   0.766   2.466
 6097SOL    HW219191   2.210   0.735   2.326
 6098SOL     OW19192   2.584   2.518   6.070
 6098SOL    HW119193   2.517   2.475   6.131
 6098SOL    HW219194   2.555   2.507   5.975
 6099SOL     OW19195   6.152   5.651   4.820
 6099SOL    HW119196   6.055   5.626   4.828
 6099SOL    HW219197   6.200   5.582   4.767
 6100SOL     OW19198   6.404   2.939   6.982
 6100SOL    HW119199   6.328   2.966   0.019
 6100SOL    HW219200   6.459   3.019   6.959
 6101SOL     OW19201   6.942   2.024   5.456
 6101SOL    HW119202   6.845   2.008   5.477
 6101SOL    HW219203   6.996   2.014   5.540
 6102SOL     OW19204   3.183   0.730   4.988
 6102SOL    HW119205   3.090   0.766   4.992
 6102SOL    HW219206   3.206   0.708   4.893
 6103SOL     OW19207   7.022   0.702   4.408
 6103SOL    HW119208   0.053   0.689   4.324
 6103SOL    HW219209   0.060   0.731   4.482
 6104SOL     OW19210   5.762   1.628   6.891
 6104SOL    HW119211   5.826   1.565   6.934
 6104SOL    HW219212   5.722   1.687   6.960
 6105SOL     OW19213   3.630   5.669   6.102
 6105SOL    HW119214   3.580   5.753   6.084
 6105SOL    HW219215   3.678   5.676   6.189
 6106SOL     OW19216   2.947   5.095   6.623
 6106SOL    HW119217   2.896   5.120   6.541
 6106SOL    HW219218   3.042   5.075   6.599
 6107SOL     OW19219   2.207   4.987   4.880
 6107SOL    HW119220   2.299   4.949   4.889
 6107SOL    HW219221   2.143   4.913   4.859
 6108SOL     OW19222   0.832   2.700   4.325
 6108SOL    HW119223   0.899   2.659   4.263
 6108SOL    HW219224   0.863   2.792   4.351
 6109SOL     OW19225   5.650   3.094   0.325
 6109SOL    HW119226   5.606   3.158   0.262
 6109SOL    HW219227   5.647   3.131   0.418
 6110SOL     OW19228   3.153   2.078   5.475
 6110SOL    HW119229   3.103   1.996   5.445
 6110SOL    HW219230   3.222   2.101   5.407
 6111SOL     OW19231   1.049   4.755   2.834
 6111SOL    HW119232   1.016   4.668   2.798
 6111SOL    HW219233   1.065   4.747   2.933
 6112SOL     OW19234   1.547   1.480   3.113
 6112SOL    HW119235   1.612   1.520   3.048
 6112SOL    HW219236   1.587   1.480   3.204
 6113SOL     OW19237   1.542   0.963   5.750
 6113SOL    HW119238   1.467   1.008   5.800
 6113SOL    HW219239   1.506   0.918   5.669
 6114SOL     OW19240   4.694   6.010   0.314
 6114SOL    HW119241   4.730   5.976   0.227
 6114SOL    HW219242   4.732   6.101   0.332
 6115SOL     OW19243   4.861   5.250   2.872
 6115SOL    HW119244   4.941   5.309   2.867
 6115SOL    HW219245   4.783   5.297   2.831
 6116SOL     OW19246   3.115   1.436   1.883
 6116SOL    HW119247   3.170   1.507   1.838
 6116SOL    HW219248   3.091   1.366   1.816
 6117SOL     OW19249   6.000   6.905   4.455
 6117SOL    HW119250   6.058   6.986   4.453
 6117SOL    HW219251   5.931   6.912   4.383
 6118SOL     OW19252   6.391   1.151   3.224
 6118SOL    HW119253   6.420   1.103   3.141
 6118SOL    HW219254   6.445   1.119   3.302
 6119SOL     OW19255   0.689   5.610   4.943
 6119SOL    HW119256   0.738   5.626   4.857
 6119SOL    HW219257   0.633   5.690   4.965
 6120SOL     OW19258   3.171   7.004   3.164
 6120SOL    HW119259   3.136   7.006   3.257
 6120SOL    HW219260   3.112   0.035   3.104
 6121SOL     OW19261   0.370   2.474   3.434
 6121SOL    HW119262   0.329   2.509   3.518
 6121SOL    HW219263   0.468   2.490   3.435
 6122SOL     OW19264   3.985   6.094   3.425
 6122SOL    HW119265   4.054   6.081   3.497
 6122SOL    HW219266   4.015   6.166   3.363
 6123SOL     OW19267   6.668   0.977   1.875
 6123SOL    HW119268   6.601   0.914   1.914
 6123SOL    HW219269   6.666   0.970   1.775
 6124SOL     OW19270   3.434   0.435   5.925
 6124SOL    HW119271   3.417   0.533   5.915
 6124SOL    HW219272   3.528   0.421   5.957
 6125SOL     OW19273   1.597   5.998   1.727
 6125SOL    HW119274   1.519   5.994   1.664
 6125SOL    HW219275   1.651   6.080   1.707
 6126SOL     OW19276   4.991   4.663   3.272
 6126SOL    HW119277   5.073   4.622   3.230
 6126SOL    HW219278   4.968   4.748   3.224
 6127SOL     OW19279   2.064   6.158   1.224
 6127SOL    HW119280   2.131   6.085   1.236
 6127SOL    HW219281   2.109   6.241   1.190
 6128SOL     OW19282   0.116   2.648   0.409
 6128SOL    HW119283   0.147   2.634   0.315
 6128SOL    HW219284   0.022   2.680   0.409
 6129SOL     OW19285   6.226   3.808   2.458
 6129SOL    HW119286   6.206   3.896   2.500
 6129SOL    HW219287   6.318   3.810   2.418
 6130SOL     OW19288   5.132   2.616   3.756
 6130SOL    HW119289   5.146   2.667   3.672
 6130SOL    HW219290   5.044   2.569   3.752
 6131SOL     OW19291   6.693   1.421   5.976
 6131SOL    HW119292   6.630   1.498   5.993
 6131SOL    HW219293   6.769   1.426   6.040
 6132SOL     OW19294   3.763   2.803   0.657
 6132SOL    HW119295   3.747   2.772   0.563
 6132SOL    HW219296   3.718   2.891   0.672
 6133SOL     OW19297   0.831   3.764   1.296
 6133SOL    HW119298   0.908   3.713   1.334
 6133SOL    HW219299   0.783   3.706   1.229
 6134SOL     OW19300   3.755   3.885   6.634
 6134SOL    HW119301   3.712   3.975   6.644
 6134SOL    HW219302   3.694   3.815   6.671
 6135SOL     OW19303   6.587   6.863   1.040
 6135SOL    HW119304   6.628   6.812   0.965
 6135SOL    HW219305   6.656   6.922   1.082
 6136SOL     OW19306   1.109   1.779   2.195
 6136SOL    HW119307   1.044   1.750   2.125
 6136SOL    HW219308   1.107   1.879   2.202
 6137SOL     OW19309   3.082   6.792   6.178
 6137SOL    HW119310   3.033   6.706   6.197
 6137SOL    HW219311   3.175   6.771   6.150
 6138SOL     OW19312   4.181   6.467   2.329
 6138SOL    HW119313   4.254   6.450   2.394
 6138SOL    HW219314   4.203   6.422   2.242
 6139SOL     OW19315   1.705   4.292   5.039
 6139SOL    HW119316   1.712   4.248   5.128
 6139SOL    HW219317   1.789   4.277   4.988
 6140SOL     OW19318   1.332   7.003   1.665
 6140SOL    HW119319   1.421   6.962   1.646
 6140SOL    HW219320   1.299   6.970   1.753
 6141SOL     OW19321   6.453   5.221   5.949
 6141SOL    HW119322   6.438   5.318   5.931
 6141SOL    HW219323   6.384   5.188   6.013
 6142SOL     OW19324   6.590   3.510   0.969
 6142SOL    HW119325   6.550   3.419   0.980
 6142SOL    HW219326   6.622   3.521   0.875
 6143SOL     OW19327   5.973   5.043   6.506
 6143SOL    HW119328   5.878   5.011   6.504
 6143SOL    HW219329   5.976   5.136   6.542
 6144SOL     OW19330   6.958   4.089   3.249
 6144SOL    HW119331   6.976   3.994   3.273
 6144SOL    HW219332   0.002   4.148   3.295
 6145SOL     OW19333   4.974   5.641   3.007
 6145SOL    HW119334   4.874   5.645   3.013
 6145SOL    HW219335   5.011   5.734   3.014
 6146SOL     OW19336   5.208   1.292   3.186
 6146SOL    HW119337   5.153   1.233   3.244
 6146SOL    HW219338   5.188   1.272   3.090
 6147SOL     OW19339   2.144   3.942   2.772
 6147SOL    HW119340   2.120   3.912   2.864
 6147SOL    HW219341   2.062   3.949   2.716
 6148SOL     OW19342   5.548   6.579   4.354
 6148SOL    HW119343   5.480   6.647   4.382
 6148SOL    HW219344   5.559   6.511   4.427
 6149SOL     OW19345   3.219   5.262   2.998
 6149SOL    HW119346   3.223   5.181   2.939
 6149SOL    HW219347   3.224   5.234   3.094
 6150SOL     OW19348   4.846   6.131   6.406
 6150SOL    HW119349   4.747   6.140   6.417
 6150SOL    HW219350   4.869   6.036   6.384
 6151SOL     OW19351   5.011   2.540   5.254
 6151SOL    HW119352   4.960   2.488   5.322
 6151SOL    HW219353   4.950   2.603   5.207
 6152SOL     OW19354   5.648   4.409   6.446
 6152SOL    HW119355   5.679   4.411   6.351
 6152SOL    HW219356   5.610   4.319   6.467
 6153SOL     OW19357   4.626   4.104   1.426
 6153SOL    HW119358   4.569   4.038   1.378
 6153SOL    HW219359   4.693   4.057   1.482
 6154SOL     OW19360   6.161   2.315   2.360
 6154SOL    HW119361   6.174   2.278   2.452
 6154SOL    HW219362   6.076   2.367   2.356
 6155SOL     OW19363   0.370   3.604   4.750
 6155SOL    HW119364   0.390   3.699   4.727
 6155SOL    HW219365   0.325   3.560   4.672
 6156SOL     OW19366   5.647   6.744   2.994
 6156SOL    HW119367   5.677   6.668   2.937
 6156SOL    HW219368   5.726   6.782   3.042
 6157SOL     OW19369   1.667   1.805   4.135
 6157SOL    HW119370   1.604   1.795   4.212
 6157SOL    HW219371   1.742   1.865   4.161
 6158SOL     OW19372   4.548   0.751   6.967
 6158SOL    HW119373   4.590   0.825   6.914
 6158SOL    HW219374   4.549   0.667   6.913
 6159SOL     OW19375   5.385   2.312   0.462
 6159SOL    HW119376   5.462   2.263   0.504
 6159SOL    HW219377   5.414   2.349   0.374
 6160SOL     OW19378   5.793   5.985   0.907
 6160SOL    HW119379   5.813   6.040   0.988
 6160SOL    HW219380   5.841   6.023   0.828
 6161SOL     OW19381   5.625   0.347   5.974
 6161SOL    HW119382   5.620   0.292   6.058
 6161SOL    HW219383   5.706   0.406   5.977
 6162SOL     OW19384   0.929   5.544   4.732
 6162SOL    HW119385   0.972   5.463   4.771
 6162SOL    HW219386   0.846   5.518   4.683
 6163SOL     OW19387   5.986   3.867   0.514
 6163SOL    HW119388   5.975   3.873   0.415
 6163SOL    HW219389   6.018   3.954   0.550
 6164SOL     OW19390   3.108   1.116   0.773
 6164SOL    HW119391   3.175   1.058   0.820
 6164SOL    HW219392   3.081   1.191   0.833
 6165SOL     OW19393   4.131   6.217   0.454
 6165SOL    HW119394   4.199   6.283   0.425
 6165SOL    HW219395   4.088   6.248   0.539
 6166SOL     OW19396   2.585   1.178   5.920
 6166SOL    HW119397   2.522   1.249   5.889
 6166SOL    HW219398   2.534   1.093   5.938
 6167SOL     OW19399   0.490   4.254   2.861
 6167SOL    HW119400   0.422   4.317   2.824
 6167SOL    HW219401   0.446   4.186   2.918
 6168SOL     OW19402   0.257   4.033   1.966
 6168SOL    HW119403   0.211   4.025   2.055
 6168SOL    HW219404   0.356   4.034   1.981
 6169SOL     OW19405   2.132   4.201   2.181
 6169SOL    HW119406   2.206   4.248   2.230
 6169SOL    HW219407   2.062   4.267   2.154
 6170SOL     OW19408   0.132   3.373   5.363
 6170SOL    HW119409   0.147   3.284   5.405
 6170SOL    HW219410   0.053   3.368   5.301
 6171SOL     OW19411   0.364   0.646   0.231
 6171SOL    HW119412   0.360   0.695   0.318
 6171SOL    HW219413   0.446   0.589   0.229
 6172SOL     OW19414   0.378   2.761   2.916
 6172SOL    HW119415   0.328   2.729   2.996
 6172SOL    HW219416   0.472   2.785   2.942
 6173SOL     OW19417   6.535   6.814   2.841
 6173SOL    HW119418   6.588   6.839   2.759
 6173SOL    HW219419   6.455   6.759   2.813
 6174SOL     OW19420   5.454   3.966   2.780
 6174SOL    HW119421   5.424   3.993   2.688
 6174SOL    HW219422   5.525   3.896   2.772
 6175SOL     OW19423   2.355   1.021   5.234
 6175SOL    HW119424   2.446   1.010   5.194
 6175SOL    HW219425   2.341   1.116   5.261
 6176SOL     OW19426   4.381   4.301   5.315
 6176SOL    HW119427   4.341   4.367   5.252
 6176SOL    HW219428   4.466   4.338   5.353
 6177SOL     OW19429   6.059   1.481   1.812
 6177SOL    HW119430   6.078   1.554   1.746
 6177SOL    HW219431   6.134   1.416   1.812
 6178SOL     OW19432   5.332   4.307   2.260
 6178SOL    HW119433   5.268   4.380   2.236
 6178SOL    HW219434   5.346   4.304   2.359
 6179SOL     OW19435   6.212   5.186   2.359
 6179SOL    HW119436   6.141   5.244   2.400
 6179SOL    HW219437   6.287   5.244   2.326
 6180SOL     OW19438   2.652   4.824   0.345
 6180SOL    HW119439   2.652   4.820   0.445
 6180SOL    HW219440   2.710   4.900   0.314
 6181SOL     OW19441   4.917   5.176   6.472
 6181SOL    HW119442   4.854   5.230   6.416
 6181SOL    HW219443   4.969   5.114   6.413
 6182SOL     OW19444   3.077   3.265   0.171
 6182SOL    HW119445   3.012   3.252   0.096
 6182SOL    HW219446   3.134   3.183   0.180
 6183SOL     OW19447   0.939   2.252   0.938
 6183SOL    HW119448   0.935   2.319   1.012
 6183SOL    HW219449   0.847   2.221   0.916
 6184SOL     OW19450   2.975   0.827   5.865
 6184SOL    HW119451   3.011   0.905   5.813
 6184SOL    HW219452   3.002   0.742   5.820
 6185SOL     OW19453   3.545   2.738   5.291
 6185SOL    HW119454   3.632   2.759   5.247
 6185SOL    HW219455   3.470   2.758   5.227
 6186SOL     OW19456   6.189   2.175   1.935
 6186SOL    HW119457   6.133   2.104   1.977
 6186SOL    HW219458   6.243   2.135   1.861
 6187SOL     OW19459   5.223   2.380   5.368
 6187SOL    HW119460   5.268   2.375   5.279
 6187SOL    HW219461   5.174   2.466   5.375
 6188SOL     OW19462   1.663   2.095   4.877
 6188SOL    HW119463   1.618   2.015   4.837
 6188SOL    HW219464   1.665   2.086   4.976
 6189SOL     OW19465   5.380   6.386   2.265
 6189SOL    HW119466   5.346   6.293   2.264
 6189SOL    HW219467   5.377   6.424   2.172
 6190SOL     OW19468   6.673   2.144   5.279
 6190SOL    HW119469   6.772   2.154   5.285
 6190SOL    HW219470   6.636   2.209   5.213
 6191SOL     OW19471   3.568   3.668   6.590
 6191SOL    HW119472   3.594   3.633   6.680
 6191SOL    HW219473   3.470   3.686   6.588
 6192SOL     OW19474   2.566   1.852   0.410
 6192SOL    HW119475   2.645   1.909   0.388
 6192SOL    HW219476   2.482   1.898   0.381
 6193SOL     OW19477   5.121   5.341   0.457
 6193SOL    HW119478   5.110   5.438   0.439
 6193SOL    HW219479   5.033   5.295   0.449
 6194SOL     OW19480   6.614   0.553   6.136
 6194SOL    HW119481   6.684   0.592   6.076
 6194SOL    HW219482   6.528   0.545   6.086
 6195SOL     OW19483   6.238   6.719   5.194
 6195SOL    HW119484   6.310   6.687   5.256
 6195SOL    HW219485   6.279   6.755   5.111
 6196SOL     OW19486   5.090   3.548   3.164
 6196SOL    HW119487   5.123   3.454   3.159
 6196SOL    HW219488   5.152   3.602   3.222
 6197SOL     OW19489   3.053   5.367   2.177
 6197SOL    HW119490   3.130   5.333   2.230
 6197SOL    HW219491   2.969   5.358   2.231
 6198SOL     OW19492   6.467   6.461   6.421
 6198SOL    HW119493   6.412   6.450   6.338
 6198SOL    HW219494   6.425   6.410   6.496
 6199SOL     OW19495   1.125   0.000   0.832
 6199SOL    HW119496   1.131   0.020   0.734
 6199SOL    HW219497   1.213   6.987   0.864
 6200SOL     OW19498   2.172   2.249   2.787
 6200SOL    HW119499   2.154   2.153   2.809
 6200SOL    HW219500   2.087   2.293   2.759
 6201SOL     OW19501   6.779   3.445   3.779
 6201SOL    HW119502   6.686   3.455   3.744
 6201SOL    HW219503   6.790   3.501   3.861
 6202SOL     OW19504   6.224   1.356   2.579
 6202SOL    HW119505   6.227   1.437   2.521
 6202SOL    HW219506   6.204   1.275   2.523
 6203SOL     OW19507   6.354   5.617   1.939
 6203SOL    HW119508   6.336   5.568   1.853
 6203SOL    HW219509   6.347   5.715   1.923
 6204SOL     OW19510   1.723   0.109   5.299
 6204SOL    HW119511   1.696   0.204   5.316
 6204SOL    HW219512   1.735   0.095   5.201
 6205SOL     OW19513   5.041   4.179   2.608
 6205SOL    HW119514   5.044   4.116   2.685
 6205SOL    HW219515   5.005   4.132   2.527
 6206SOL     OW19516   5.197   2.039   4.079
 6206SOL    HW119517   5.245   2.104   4.138
 6206SOL    HW219518   5.099   2.058   4.082
 6207SOL     OW19519   2.030   5.994   4.375
 6207SOL    HW119520   1.997   5.902   4.354
 6207SOL    HW219521   1.986   6.028   4.459
 6208SOL     OW19522   3.792   2.804   5.669
 6208SOL    HW119523   3.866   2.870   5.665
 6208SOL    HW219524   3.717   2.833   5.609
 6209SOL     OW19525   3.953   3.897   1.128
 6209SOL    HW119526   3.857   3.871   1.138
 6209SOL    HW219527   4.012   3.821   1.156
 6210SOL     OW19528   4.634   2.650   3.487
 6210SOL    HW119529   4.562   2.614   3.428
 6210SOL    HW219530   4.709   2.585   3.492
 6211SOL     OW19531   4.679   5.245   4.736
 6211SOL    HW119532   4.720   5.175   4.679
 6211SOL    HW219533   4.618   5.302   4.681
 6212SOL     OW19534   4.292   4.569   5.931
 6212SOL    HW119535   4.245   4.493   5.889
 6212SOL    HW219536   4.231   4.648   5.936
 6213SOL     OW19537   4.557   5.870   0.517
 6213SOL    HW119538   4.570   5.932   0.594
 6213SOL    HW219539   4.593   5.912   0.434
 6214SOL     OW19540   6.243   5.831   5.416
 6214SOL    HW119541   6.336   5.809   5.447
 6214SOL    HW219542   6.223   5.780   5.332
 6215SOL     OW19543   5.092   2.392   6.112
 6215SOL    HW119544   5.130   2.392   6.204
 6215SOL    HW219545   5.023   2.464   6.103
 6216SOL     OW19546   4.905   2.750   3.110
 6216SOL    HW119547   4.831   2.685   3.124
 6216SOL    HW219548   4.993   2.704   3.123
 6217SOL     OW19549   0.939   4.531   2.347
 6217SOL    HW119550   0.937   4.431   2.344
 6217SOL    HW219551   0.937   4.567   2.254
 6218SOL     OW19552   4.624   6.874   0.387
 6218SOL    HW119553   4.632   6.933   0.468
 6218SOL    HW219554   4.674   6.915   0.311
 6219SOL     OW19555   1.079   1.042   5.483
 6219SOL    HW119556   1.143   1.086   5.420
 6219SOL    HW219557   0.994   1.020   5.434
 6220SOL     OW19558   3.921   0.603   1.013
 6220SOL    HW119559   3.874   0.689   0.997
 6220SOL    HW219560   3.942   0.594   1.110
 6221SOL     OW19561   6.103   5.900   6.531
 6221SOL    HW119562   6.140   5.834   6.465
 6221SOL    HW219563   6.035   5.957   6.486
 6222SOL     OW19564   6.541   1.575   2.687
 6222SOL    HW119565   6.501   1.484   2.681
 6222SOL    HW219566   6.509   1.631   2.610
 6223SOL     OW19567   0.328   5.241   3.936
 6223SOL    HW119568   0.318   5.178   3.858
 6223SOL    HW219569   0.256   5.221   4.003
 6224SOL     OW19570   4.227   1.891   6.382
 6224SOL    HW119571   4.246   1.904   6.284
 6224SOL    HW219572   4.147   1.946   6.407
 6225SOL     OW19573   4.110   6.919   6.431
 6225SOL    HW119574   4.178   6.963   6.490
 6225SOL    HW219575   4.157   6.878   6.352
 6226SOL     OW19576   0.915   1.475   4.201
 6226SOL    HW119577   0.965   1.388   4.206
 6226SOL    HW219578   0.885   1.491   4.107
 6227SOL     OW19579   3.252   3.848   5.113
 6227SOL    HW119580   3.327   3.850   5.048
 6227SOL    HW219581   3.191   3.926   5.096
 6228SOL     OW19582   2.011   2.814   3.846
 6228SOL    HW119583   1.936   2.877   3.865
 6228SOL    HW219584   1.984   2.752   3.772
 6229SOL     OW19585   0.533   3.723   3.921
 6229SOL    HW119586   0.462   3.732   3.990
 6229SOL    HW219587   0.511   3.780   3.842
 6230SOL     OW19588   0.918   0.770   1.758
 6230SOL    HW119589   0.946   0.813   1.672
 6230SOL    HW219590   0.993   0.779   1.825
 6231SOL     OW19591   6.877   4.683   0.296
 6231SOL    HW119592   6.926   4.612   0.244
 6231SOL    HW219593   6.931   4.767   0.297
 6232SOL     OW19594   4.636   1.379   0.172
 6232SOL    HW119595   4.551   1.334   0.144
 6232SOL    HW219596   4.692   1.314   0.223
 6233SOL     OW19597   0.222   3.682   1.393
 6233SOL    HW119598   0.249   3.741   1.470
 6233SOL    HW219599   0.298   3.621   1.370
 6234SOL     OW19600   5.891   0.205   4.561
 6234SOL    HW119601   5.906   0.133   4.629
 6234SOL    HW219602   5.909   0.294   4.602
 6235SOL     OW19603   6.773   1.106   2.302
 6235SOL    HW119604   6.709   1.144   2.235
 6235SOL    HW219605   6.803   1.016   2.272
 6236SOL     OW19606   0.531   4.656   1.006
 6236SOL    HW119607   0.588   4.604   1.070
 6236SOL    HW219608   0.541   4.754   1.023
 6237SOL     OW19609   3.607   0.873   1.183
 6237SOL    HW119610   3.531   0.913   1.234
 6237SOL    HW219611   3.633   0.786   1.224
 6238SOL     OW19612   2.388   6.554   4.694
 6238SOL    HW119613   2.291   6.569   4.679
 6238SOL    HW219614   2.437   6.640   4.684
 6239SOL     OW19615   4.764   0.871   3.168
 6239SOL    HW119616   4.824   0.836   3.240
 6239SOL    HW219617   4.813   0.872   3.081
 6240SOL     OW19618   3.973   3.185   4.211
 6240SOL    HW119619   3.960   3.197   4.113
 6240SOL    HW219620   3.968   3.088   4.233
 6241SOL     OW19621   2.973   6.653   3.907
 6241SOL    HW119622   3.021   6.571   3.876
 6241SOL    HW219623   2.885   6.659   3.861
 6242SOL     OW19624   3.089   1.867   3.625
 6242SOL    HW119625   3.051   1.795   3.683
 6242SOL    HW219626   3.181   1.841   3.596
 6243SOL     OW19627   5.608   1.494   6.306
 6243SOL    HW119628   5.691   1.438   6.301
 6243SOL    HW219629   5.620   1.577   6.251
 6244SOL     OW19630   4.584   4.704   2.869
 6244SOL    HW119631   4.631   4.679   2.954
 6244SOL    HW219632   4.564   4.621   2.817
 6245SOL     OW19633   0.685   4.392   2.623
 6245SOL    HW119634   0.648   4.350   2.540
 6245SOL    HW219635   0.610   4.416   2.685
 6246SOL     OW19636   7.003   6.864   4.427
 6246SOL    HW119637   6.970   6.941   4.482
 6246SOL    HW219638   0.067   6.831   4.466
 6247SOL     OW19639   6.152   6.062   3.108
 6247SOL    HW119640   6.090   6.118   3.163
 6247SOL    HW219641   6.244   6.103   3.110
 6248SOL     OW19642   3.649   3.064   6.634
 6248SOL    HW119643   3.736   3.023   6.659
 6248SOL    HW219644   3.628   3.045   6.538
 6249SOL     OW19645   6.159   2.747   0.975
 6249SOL    HW119646   6.180   2.831   0.926
 6249SOL    HW219647   6.067   2.754   1.015
 6250SOL     OW19648   0.111   0.530   0.510
 6250SOL    HW119649   0.148   0.473   0.437
 6250SOL    HW219650   0.027   0.489   0.546
 6251SOL     OW19651   2.834   6.438   4.455
 6251SOL    HW119652   2.753   6.406   4.503
 6251SOL    HW219653   2.915   6.394   4.494
 6252SOL     OW19654   2.630   5.663   0.161
 6252SOL    HW119655   2.614   5.565   0.147
 6252SOL    HW219656   2.592   5.691   0.249
 6253SOL     OW19657   3.386   4.902   4.774
 6253SOL    HW119658   3.334   4.986   4.787
 6253SOL    HW219659   3.338   4.843   4.709
 6254SOL     OW19660   0.042   6.032   0.517
 6254SOL    HW119661   6.994   5.978   0.470
 6254SOL    HW219662   0.013   6.049   0.612
 6255SOL     OW19663   0.236   1.678   1.421
 6255SOL    HW119664   0.284   1.601   1.462
 6255SOL    HW219665   0.172   1.717   1.487
 6256SOL     OW19666   4.762   5.835   2.550
 6256SOL    HW119667   4.813   5.765   2.600
 6256SOL    HW219668   4.783   5.925   2.588
 6257SOL     OW19669   4.295   4.151   1.330
 6257SOL    HW119670   4.339   4.124   1.416
 6257SOL    HW219671   4.199   4.124   1.333
 6258SOL     OW19672   4.400   6.168   5.509
 6258SOL    HW119673   4.346   6.088   5.481
 6258SOL    HW219674   4.349   6.218   5.579
 6259SOL     OW19675   2.443   0.565   5.191
 6259SOL    HW119676   2.444   0.503   5.270
 6259SOL    HW219677   2.401   0.518   5.113
 6260SOL     OW19678   2.188   1.294   0.306
 6260SOL    HW119679   2.155   1.269   0.397
 6260SOL    HW219680   2.125   1.360   0.265
 6261SOL     OW19681   3.753   6.151   1.597
 6261SOL    HW119682   3.848   6.177   1.578
 6261SOL    HW219683   3.745   6.052   1.595
 6262SOL     OW19684   6.931   6.917   2.240
 6262SOL    HW119685   6.976   6.941   2.326
 6262SOL    HW219686   6.999   6.911   2.167
 6263SOL     OW19687   6.392   6.274   5.332
 6263SOL    HW119688   6.364   6.301   5.424
 6263SOL    HW219689   6.313   6.236   5.283
 6264SOL     OW19690   1.537   6.776   1.206
 6264SOL    HW119691   1.633   6.786   1.183
 6264SOL    HW219692   1.510   6.680   1.195
 6265SOL     OW19693   4.833   1.719   0.033
 6265SOL    HW119694   4.825   1.620   0.020
 6265SOL    HW219695   4.757   1.751   0.089
 6266SOL     OW19696   2.437   5.454   3.718
 6266SOL    HW119697   2.428   5.553   3.704
 6266SOL    HW219698   2.447   5.408   3.630
 6267SOL     OW19699   1.385   6.797   5.149
 6267SOL    HW119700   1.331   6.804   5.233
 6267SOL    HW219701   1.402   6.888   5.112
 6268SOL     OW19702   3.388   0.369   1.815
 6268SOL    HW119703   3.396   0.415   1.904
 6268SOL    HW219704   3.324   0.292   1.823
 6269SOL     OW19705   5.924   5.543   1.073
 6269SOL    HW119706   5.902   5.463   1.129
 6269SOL    HW219707   5.950   5.619   1.133
 6270SOL     OW19708   1.592   6.464   0.403
 6270SOL    HW119709   1.659   6.410   0.455
 6270SOL    HW219710   1.640   6.515   0.331
 6271SOL     OW19711   6.042   3.311   6.678
 6271SOL    HW119712   6.047   3.283   6.582
 6271SOL    HW219713   6.074   3.237   6.736
 6272SOL     OW19714   6.658   7.017   0.327
 6272SOL    HW119715   6.740   0.052   0.328
 6272SOL    HW219716   6.579   0.048   0.356
 6273SOL     OW19717   0.003   0.430   1.730
 6273SOL    HW119718   6.948   0.492   1.718
 6273SOL    HW219719   7.008   0.370   1.808
 6274SOL     OW19720   3.501   5.746   5.155
 6274SOL    HW119721   3.524   5.693   5.236
 6274SOL    HW219722   3.426   5.701   5.106
 6275SOL     OW19723   1.926   5.284   6.701
 6275SOL    HW119724   1.990   5.284   6.777
 6275SOL    HW219725   1.847   5.226   6.723
 6276SOL     OW19726   1.595   6.078   2.802
 6276SOL    HW119727   1.622   6.167   2.838
 6276SOL    HW219728   1.496   6.076   2.787
 6277SOL     OW19729   5.531   3.054   1.398
 6277SOL    HW119730   5.471   3.072   1.476
 6277SOL    HW219731   5.623   3.034   1.431
 6278SOL     OW19732   3.018   0.133   6.407
 6278SOL    HW119733   3.001   0.143   6.309
 6278SOL    HW219734   3.065   0.047   6.424
 6279SOL     OW19735   2.844   6.845   1.742
 6279SOL    HW119736   2.938   6.874   1.724
 6279SOL    HW219737   2.839   6.745   1.741
 6280SOL     OW19738   6.805   1.828   6.937
 6280SOL    HW119739   6.861   1.819   7.019
 6280SOL    HW219740   6.858   1.874   6.865
 6281SOL     OW19741   6.160   4.153   5.481
 6281SOL    HW119742   6.090   4.182   5.546
 6281SOL    HW219743   6.246   4.201   5.500
 6282SOL     OW19744   0.519   3.444   5.830
 6282SOL    HW119745   0.611   3.419   5.858
 6282SOL    HW219746   0.497   3.536   5.863
 6283SOL     OW19747   1.019   6.152   5.386
 6283SOL    HW119748   1.034   6.056   5.409
 6283SOL    HW219749   0.957   6.193   5.453
 6284SOL     OW19750   2.382   4.708   6.613
 6284SOL    HW119751   2.477   4.736   6.600
 6284SOL    HW219752   2.362   4.703   6.711
 6285SOL     OW19753   1.112   3.421   3.571
 6285SOL    HW119754   1.207   3.399   3.548
 6285SOL    HW219755   1.061   3.336   3.585
 6286SOL     OW19756   1.067   2.974   4.918
 6286SOL    HW119757   0.995   3.031   4.958
 6286SOL    HW219758   1.039   2.878   4.922
 6287SOL     OW19759   4.480   4.904   5.017
 6287SOL    HW119760   4.442   4.963   4.945
 6287SOL    HW219761   4.579   4.896   5.005
 6288SOL     OW19762   3.888   3.230   6.865
 6288SOL    HW119763   3.955   3.285   6.915
 6288SOL    HW219764   3.884   3.138   6.906
 6289SOL     OW19765   2.823   4.616   5.845
 6289SOL    HW119766   2.798   4.704   5.886
 6289SOL    HW219767   2.797   4.616   5.749
 6290SOL     OW19768   5.053   5.419   5.097
 6290SOL    HW119769   4.969   5.435   5.046
 6290SOL    HW219770   5.131   5.453   5.044
 6291SOL     OW19771   3.017   3.130   2.782
 6291SOL    HW119772   3.041   3.035   2.760
 6291SOL    HW219773   3.021   3.143   2.881
 6292SOL     OW19774   2.010   3.247   4.682
 6292SOL    HW119775   2.080   3.251   4.753
 6292SOL    HW219776   1.923   3.280   4.718
 6293SOL     OW19777   4.423   1.251   6.339
 6293SOL    HW119778   4.327   1.235   6.318
 6293SOL    HW219779   4.448   1.202   6.423
 6294SOL     OW19780   2.274   1.408   3.249
 6294SOL    HW119781   2.300   1.504   3.260
 6294SOL    HW219782   2.197   1.401   3.185
 6295SOL     OW19783   5.610   3.936   5.675
 6295SOL    HW119784   5.569   4.026   5.691
 6295SOL    HW219785   5.565   3.892   5.598
 6296SOL     OW19786   0.499   2.474   6.425
 6296SOL    HW119787   0.434   2.451   6.352
 6296SOL    HW219788   0.456   2.458   6.514
 6297SOL     OW19789   5.825   0.678   4.288
 6297SOL    HW119790   5.845   0.684   4.190
 6297SOL    HW219791   5.851   0.764   4.332
 6298SOL     OW19792   5.985   5.005   0.788
 6298SOL    HW119793   5.985   4.907   0.766
 6298SOL    HW219794   6.022   5.056   0.711
 6299SOL     OW19795   4.969   1.975   2.577
 6299SOL    HW119796   4.965   2.048   2.645
 6299SOL    HW219797   5.027   2.003   2.500
 6300SOL     OW19798   3.255   0.170   6.175
 6300SOL    HW119799   3.275   0.203   6.268
 6300SOL    HW219800   3.303   0.084   6.159
 6301SOL     OW19801   3.325   6.500   0.574
 6301SOL    HW119802   3.259   6.566   0.538
 6301SOL    HW219803   3.278   6.415   0.599
 6302SOL     OW19804   2.822   1.087   5.710
 6302SOL    HW119805   2.740   1.106   5.765
 6302SOL    HW219806   2.874   1.172   5.696
 6303SOL     OW19807   1.233   5.724   5.579
 6303SOL    HW119808   1.215   5.634   5.540
 6303SOL    HW219809   1.328   5.751   5.560
 6304SOL     OW19810   4.006   1.037   3.331
 6304SOL    HW119811   3.946   1.109   3.367
 6304SOL    HW219812   3.962   0.994   3.253
 6305SOL     OW19813   0.607   6.379   6.026
 6305SOL    HW119814   0.618   6.308   6.096
 6305SOL    HW219815   0.659   6.460   6.051
 6306SOL     OW19816   0.121   4.504   3.992
 6306SOL    HW119817   0.058   4.446   3.940
 6306SOL    HW219818   0.208   4.512   3.943
 6307SOL     OW19819   4.121   3.550   3.231
 6307SOL    HW119820   4.133   3.579   3.326
 6307SOL    HW219821   4.034   3.502   3.222
 6308SOL     OW19822   0.414   2.763   0.022
 6308SOL    HW119823   0.437   2.830   0.092
 6308SOL    HW219824   0.431   2.671   0.057
 6309SOL     OW19825   2.022   6.088   3.954
 6309SOL    HW119826   2.061   6.009   3.909
 6309SOL    HW219827   2.006   6.067   4.051
 6310SOL     OW19828   1.679   6.473   3.127
 6310SOL    HW119829   1.752   6.482   3.195
 6310SOL    HW219830   1.590   6.477   3.173
 6311SOL     OW19831   5.042   0.910   6.482
 6311SOL    HW119832   5.015   0.834   6.542
 6311SOL    HW219833   4.965   0.974   6.473
 6312SOL     OW19834   3.431   6.507   6.662
 6312SOL    HW119835   3.345   6.554   6.683
 6312SOL    HW219836   3.508   6.561   6.694
 6313SOL     OW19837   5.432   6.213   3.568
 6313SOL    HW119838   5.335   6.212   3.542
 6313SOL    HW219839   5.487   6.178   3.492
 6314SOL     OW19840   2.178   6.721   1.950
 6314SOL    HW119841   2.128   6.635   1.937
 6314SOL    HW219842   2.158   6.784   1.875
 6315SOL     OW19843   2.292   2.663   3.872
 6315SOL    HW119844   2.278   2.758   3.844
 6315SOL    HW219845   2.331   2.660   3.964
 6316SOL     OW19846   5.728   1.371   4.992
 6316SOL    HW119847   5.760   1.371   5.087
 6316SOL    HW219848   5.643   1.424   4.986
 6317SOL     OW19849   4.880   5.028   1.967
 6317SOL    HW119850   4.902   4.974   1.886
 6317SOL    HW219851   4.874   5.125   1.943
 6318SOL     OW19852   6.417   0.060   5.737
 6318SOL    HW119853   6.402   0.124   5.812
 6318SOL    HW219854   6.466   0.106   5.663
 6319SOL     OW19855   5.679   1.859   4.568
 6319SOL    HW119856   5.647   1.846   4.662
 6319SOL    HW219857   5.602   1.884   4.509
 6320SOL     OW19858   6.596   0.883   4.797
 6320SOL    HW119859   6.666   0.811   4.792
 6320SOL    HW219860   6.559   0.900   4.706
 6321SOL     OW19861   5.604   2.020   0.265
 6321SOL    HW119862   5.552   2.097   0.229
 6321SOL    HW219863   5.544   1.962   0.320
 6322SOL     OW19864   1.554   0.893   1.689
 6322SOL    HW119865   1.572   0.808   1.640
 6322SOL    HW219866   1.591   0.970   1.636
 6323SOL     OW19867   2.983   3.211   1.608
 6323SOL    HW119868   2.904   3.199   1.548
 6323SOL    HW219869   3.014   3.306   1.603
 6324SOL     OW19870   4.319   1.655   0.991
 6324SOL    HW119871   4.227   1.681   0.962
 6324SOL    HW219872   4.316   1.564   1.033
 6325SOL     OW19873   1.779   2.337   3.223
 6325SOL    HW119874   1.721   2.418   3.214
 6325SOL    HW219875   1.870   2.358   3.189
 6326SOL     OW19876   5.346   4.731   5.988
 6326SOL    HW119877   5.287   4.691   6.058
 6326SOL    HW219878   5.299   4.808   5.946
 6327SOL     OW19879   0.228   0.271   3.210
 6327SOL    HW119880   0.281   0.187   3.199
 6327SOL    HW219881   0.188   0.274   3.301
 6328SOL     OW19882   4.591   3.853   5.972
 6328SOL    HW119883   4.683   3.883   5.947
 6328SOL    HW219884   4.530   3.860   5.893
 6329SOL     OW19885   1.561   2.868   5.448
 6329SOL    HW119886   1.550   2.787   5.505
 6329SOL    HW219887   1.656   2.898   5.451
 6330SOL     OW19888   5.368   1.107   3.569
 6330SOL    HW119889   5.284   1.156   3.594
 6330SOL    HW219890   5.446   1.156   3.606
 6331SOL     OW19891   0.146   3.219   2.802
 6331SOL    HW119892   0.095   3.242   2.884
 6331SOL    HW219893   0.181   3.303   2.760
 6332SOL     OW19894   2.670   1.280   0.403
 6332SOL    HW119895   2.703   1.226   0.481
 6332SOL    HW219896   2.571   1.286   0.406
 6333SOL     OW19897   4.478   1.302   0.757
 6333SOL    HW119898   4.413   1.265   0.691
 6333SOL    HW219899   4.473   1.402   0.758
 6334SOL     OW19900   1.733   1.169   1.865
 6334SOL    HW119901   1.683   1.184   1.780
 6334SOL    HW219902   1.695   1.228   1.937
 6335SOL     OW19903   6.162   1.411   1.012
 6335SOL    HW119904   6.220   1.486   1.043
 6335SOL    HW219905   6.202   1.324   1.040
 6336SOL     OW19906   0.915   3.010   5.999
 6336SOL    HW119907   0.834   2.963   5.962
 6336SOL    HW219908   0.997   2.958   5.974
 6337SOL     OW19909   4.302   5.693   4.964
 6337SOL    HW119910   4.299   5.708   5.062
 6337SOL    HW219911   4.388   5.731   4.927
 6338SOL     OW19912   2.861   1.756   4.103
 6338SOL    HW119913   2.792   1.818   4.066
 6338SOL    HW219914   2.816   1.677   4.144
 6339SOL     OW19915   1.096   4.464   3.262
 6339SOL    HW119916   1.122   4.414   3.179
 6339SOL    HW219917   1.013   4.424   3.300
 6340SOL     OW19918   2.100   4.297   1.640
 6340SOL    HW119919   2.154   4.381   1.636
 6340SOL    HW219920   2.006   4.320   1.665
 6341SOL     OW19921   0.926   4.505   3.757
 6341SOL    HW119922   0.920   4.513   3.658
 6341SOL    HW219923   0.880   4.583   3.800
 6342SOL     OW19924   2.010   2.019   2.027
 6342SOL    HW119925   1.947   2.096   2.019
 6342SOL    HW219926   1.987   1.949   1.959
 6343SOL     OW19927   2.487   5.878   1.222
 6343SOL    HW119928   2.463   5.947   1.153
 6343SOL    HW219929   2.550   5.811   1.181
 6344SOL     OW19930   6.519   1.420   3.737
 6344SOL    HW119931   6.540   1.326   3.710
 6344SOL    HW219932   6.560   1.483   3.671
 6345SOL     OW19933   5.884   3.733   1.871
 6345SOL    HW119934   5.955   3.803   1.880
 6345SOL    HW219935   5.812   3.768   1.811
 6346SOL     OW19936   0.044   4.340   5.607
 6346SOL    HW119937   0.062   4.405   5.534
 6346SOL    HW219938   6.968   4.331   5.620
 6347SOL     OW19939   2.329   1.647   2.972
 6347SOL    HW119940   2.303   1.741   2.950
 6347SOL    HW219941   2.419   1.627   2.932
 6348SOL     OW19942   6.762   2.468   5.654
 6348SOL    HW119943   6.812   2.432   5.575
 6348SOL    HW219944   6.797   2.425   5.738
 6349SOL     OW19945   6.811   1.179   0.009
 6349SOL    HW119946   6.798   1.106   0.076
 6349SOL    HW219947   6.892   1.159   6.976
 6350SOL     OW19948   1.875   4.928   1.959
 6350SOL    HW119949   1.911   5.017   1.932
 6350SOL    HW219950   1.809   4.940   2.033
 6351SOL     OW19951   5.672   3.254   2.441
 6351SOL    HW119952   5.684   3.309   2.359
 6351SOL    HW219953   5.622   3.170   2.418
 6352SOL     OW19954   2.487   0.310   5.078
 6352SOL    HW119955   2.552   0.321   5.154
 6352SOL    HW219956   2.509   0.375   5.006
 6353SOL     OW19957   3.386   5.773   6.318
 6353SOL    HW119958   3.324   5.790   6.394
 6353SOL    HW219959   3.457   5.709   6.346
 6354SOL     OW19960   4.561   4.998   2.302
 6354SOL    HW119961   4.609   4.911   2.315
 6354SOL    HW219962   4.473   4.981   2.258
 6355SOL     OW19963   2.700   5.019   1.003
 6355SOL    HW119964   2.691   5.081   1.082
 6355SOL    HW219965   2.796   5.012   0.977
 6356SOL     OW19966   6.021   3.888   6.354
 6356SOL    HW119967   6.117   3.886   6.379
 6356SOL    HW219968   6.001   3.973   6.304
 6357SOL     OW19969   5.392   1.281   1.096
 6357SOL    HW119970   5.343   1.221   1.160
 6357SOL    HW219971   5.327   1.346   1.056
 6358SOL     OW19972   1.286   2.060   6.921
 6358SOL    HW119973   1.200   2.010   6.933
 6358SOL    HW219974   1.337   2.020   6.845
 6359SOL     OW19975   5.738   6.152   0.485
 6359SOL    HW119976   5.712   6.249   0.489
 6359SOL    HW219977   5.787   6.134   0.400
 6360SOL     OW19978   1.070   2.696   1.981
 6360SOL    HW119979   1.013   2.619   2.009
 6360SOL    HW219980   1.105   2.681   1.889
 6361SOL     OW19981   0.771   0.626   7.003
 6361SOL    HW119982   0.704   0.572   0.032
 6361SOL    HW219983   0.818   0.566   6.937
 6362SOL     OW19984   1.132   5.407   0.174
 6362SOL    HW119985   1.059   5.383   0.238
 6362SOL    HW219986   1.135   5.507   0.162
 6363SOL     OW19987   2.669   5.051   3.646
 6363SOL    HW119988   2.733   5.127   3.661
 6363SOL    HW219989   2.668   5.026   3.550
 6364SOL     OW19990   2.412   2.658   4.681
 6364SOL    HW119991   2.356   2.736   4.710
 6364SOL    HW219992   2.352   2.580   4.664
 6365SOL     OW19993   5.980   5.369   3.413
 6365SOL    HW119994   5.942   5.455   3.448
 6365SOL    HW219995   5.907   5.308   3.385
 6366SOL     OW19996   5.766   6.805   4.612
 6366SOL    HW119997   5.754   6.886   4.669
 6366SOL    HW219998   5.820   6.829   4.531
 6367SOL     OW19999   2.395   2.157   3.046
 6367SOL    HW120000   2.300   2.185   3.059
 6367SOL    HW220001   2.443   2.161   3.133
 6368SOL     OW20002   4.860   3.186   4.744
 6368SOL    HW120003   4.910   3.157   4.825
 6368SOL    HW220004   4.852   3.286   4.743
 6369SOL     OW20005   3.006   5.483   6.425
 6369SOL    HW120006   3.070   5.508   6.353
 6369SOL    HW220007   2.917   5.463   6.385
 6370SOL     OW20008   5.602   3.383   4.298
 6370SOL    HW120009   5.514   3.399   4.342
 6370SOL    HW220010   5.593   3.308   4.233
 6371SOL     OW20011   5.546   3.720   2.041
 6371SOL    HW120012   5.641   3.741   2.064
 6371SOL    HW220013   5.541   3.629   2.000
 6372SOL     OW20014   6.780   1.357   2.932
 6372SOL    HW120015   6.859   1.364   2.871
 6372SOL    HW220016   6.786   1.273   2.985
 6373SOL     OW20017   4.944   4.224   1.711
 6373SOL    HW120018   5.008   4.193   1.640
 6373SOL    HW220019   4.981   4.303   1.758
 6374SOL     OW20020   4.730   2.897   0.485
 6374SOL    HW120021   4.755   2.836   0.410
 6374SOL    HW220022   4.644   2.866   0.526
 6375SOL     OW20023   6.554   2.716   1.878
 6375SOL    HW120024   6.467   2.668   1.871
 6375SOL    HW220025   6.607   2.680   1.955
 6376SOL     OW20026   3.349   0.882   6.931
 6376SOL    HW120027   3.433   0.829   6.931
 6376SOL    HW220028   3.318   0.896   0.002
 6377SOL     OW20029   6.810   0.459   0.307
 6377SOL    HW120030   6.809   0.446   0.406
 6377SOL    HW220031   6.747   0.534   0.283
 6378SOL     OW20032   5.371   5.720   3.383
 6378SOL    HW120033   5.429   5.785   3.334
 6378SOL    HW220034   5.291   5.699   3.327
 6379SOL     OW20035   2.907   5.999   0.159
 6379SOL    HW120036   2.892   5.904   0.131
 6379SOL    HW220037   2.863   6.015   0.247
 6380SOL     OW20038   1.552   3.601   5.014
 6380SOL    HW120039   1.587   3.507   5.019
 6380SOL    HW220040   1.492   3.609   4.934
 6381SOL     OW20041   4.248   2.673   0.151
 6381SOL    HW120042   4.219   2.673   0.056
 6381SOL    HW220043   4.343   2.642   0.157
 6382SOL     OW20044   2.071   1.669   1.467
 6382SOL    HW120045   2.049   1.767   1.470
 6382SOL    HW220046   2.138   1.652   1.395
 6383SOL     OW20047   2.013   2.433   2.652
 6383SOL    HW120048   2.076   2.491   2.600
 6383SOL    HW220049   1.955   2.382   2.588
 6384SOL     OW20050   6.329   2.538   2.266
 6384SOL    HW120051   6.279   2.465   2.312
 6384SOL    HW220052   6.322   2.527   2.167
 6385SOL     OW20053   6.961   2.944   1.093
 6385SOL    HW120054   6.947   2.977   1.000
 6385SOL    HW220055   0.027   2.899   1.100
 6386SOL     OW20056   2.326   3.469   6.942
 6386SOL    HW120057   2.311   3.381   6.896
 6386SOL    HW220058   2.369   3.452   0.009
 6387SOL     OW20059   6.812   0.506   6.621
 6387SOL    HW120060   6.894   0.460   6.654
 6387SOL    HW220061   6.752   0.440   6.576
 6388SOL     OW20062   6.433   5.335   2.278
 6388SOL    HW120063   6.441   5.426   2.236
 6388SOL    HW220064   6.481   5.335   2.365
 6389SOL     OW20065   1.267   0.822   6.593
 6389SOL    HW120066   1.329   0.900   6.591
 6389SOL    HW220067   1.278   0.769   6.509
 6390SOL     OW20068   6.623   1.527   6.309
 6390SOL    HW120069   6.607   1.444   6.362
 6390SOL    HW220070   6.590   1.606   6.361
 6391SOL     OW20071   0.570   1.558   5.218
 6391SOL    HW120072   0.552   1.560   5.316
 6391SOL    HW220073   0.526   1.637   5.175
 6392SOL     OW20074   4.307   6.467   3.540
 6392SOL    HW120075   4.225   6.456   3.597
 6392SOL    HW220076   4.379   6.406   3.573
 6393SOL     OW20077   6.856   5.744   0.772
 6393SOL    HW120078   6.922   5.683   0.816
 6393SOL    HW220079   6.813   5.697   0.696
 6394SOL     OW20080   1.203   5.493   1.296
 6394SOL    HW120081   1.224   5.568   1.358
 6394SOL    HW220082   1.288   5.450   1.265
 6395SOL     OW20083   2.125   4.599   3.395
 6395SOL    HW120084   2.191   4.597   3.320
 6395SOL    HW220085   2.044   4.546   3.370
 6396SOL     OW20086   0.772   3.678   0.649
 6396SOL    HW120087   0.843   3.611   0.625
 6396SOL    HW220088   0.716   3.642   0.723
 6397SOL     OW20089   5.876   2.796   3.525
 6397SOL    HW120090   5.804   2.753   3.580
 6397SOL    HW220091   5.965   2.764   3.556
 6398SOL     OW20092   1.415   0.133   0.962
 6398SOL    HW120093   1.502   0.133   0.914
 6398SOL    HW220094   1.381   0.040   0.971
 6399SOL     OW20095   2.730   0.816   6.045
 6399SOL    HW120096   2.744   0.905   6.090
 6399SOL    HW220097   2.798   0.805   5.972
 6400SOL     OW20098   1.094   5.865   2.901
 6400SOL    HW120099   1.152   5.946   2.897
 6400SOL    HW220100   1.001   5.890   2.874
 6401SOL     OW20101   3.671   6.048   3.599
 6401SOL    HW120102   3.609   6.080   3.670
 6401SOL    HW220103   3.712   6.127   3.552
 6402SOL     OW20104   2.002   5.452   4.863
 6402SOL    HW120105   2.042   5.376   4.915
 6402SOL    HW220106   1.975   5.420   4.772
 6403SOL     OW20107   4.568   5.931   4.645
 6403SOL    HW120108   4.491   5.988   4.674
 6403SOL    HW220109   4.604   5.881   4.723
 6404SOL     OW20110   4.263   0.143   2.085
 6404SOL    HW120111   4.206   0.094   2.151
 6404SOL    HW220112   4.291   0.081   2.012
 6405SOL     OW20113   5.407   1.793   2.199
 6405SOL    HW120114   5.311   1.813   2.179
 6405SOL    HW220115   5.460   1.795   2.114
 6406SOL     OW20116   1.286   1.994   2.783
 6406SOL    HW120117   1.209   1.980   2.845
 6406SOL    HW220118   1.269   1.943   2.698
 6407SOL     OW20119   1.860   5.984   2.935
 6407SOL    HW120120   1.895   5.932   2.857
 6407SOL    HW220121   1.760   5.984   2.933
 6408SOL     OW20122   6.647   0.561   0.696
 6408SOL    HW120123   6.569   0.543   0.637
 6408SOL    HW220124   6.628   0.641   0.754
 6409SOL     OW20125   6.106   4.850   3.593
 6409SOL    HW120126   6.165   4.847   3.513
 6409SOL    HW220127   6.111   4.941   3.635
 6410SOL     OW20128   2.584   1.696   5.466
 6410SOL    HW120129   2.571   1.794   5.453
 6410SOL    HW220130   2.496   1.649   5.462
 6411SOL     OW20131   0.644   2.188   2.184
 6411SOL    HW120132   0.586   2.249   2.130
 6411SOL    HW220133   0.690   2.124   2.123
 6412SOL     OW20134   2.953   0.051   0.186
 6412SOL    HW120135   2.963   6.975   0.172
 6412SOL    HW220136   2.877   0.085   0.130
 6413SOL     OW20137   4.906   5.476   3.831
 6413SOL    HW120138   4.923   5.518   3.920
 6413SOL    HW220139   4.901   5.546   3.761
 6414SOL     OW20140   1.240   0.001   0.199
 6414SOL    HW120141   1.265   0.018   0.294
 6414SOL    HW220142   1.140   0.003   0.190
 6415SOL     OW20143   0.762   2.349   3.180
 6415SOL    HW120144   0.801   2.361   3.089
 6415SOL    HW220145   0.663   2.350   3.175
 6416SOL     OW20146   2.415   0.250   0.106
 6416SOL    HW120147   2.373   0.293   0.027
 6416SOL    HW220148   2.441   0.320   0.173
 6417SOL     OW20149   3.744   1.628   0.268
 6417SOL    HW120150   3.667   1.665   0.216
 6417SOL    HW220151   3.828   1.676   0.242
 6418SOL     OW20152   4.584   5.282   0.964
 6418SOL    HW120153   4.639   5.340   0.905
 6418SOL    HW220154   4.637   5.258   1.046
 6419SOL     OW20155   0.717   0.239   0.086
 6419SOL    HW120156   0.726   0.144   0.115
 6419SOL    HW220157   0.694   0.242   7.011
 6420SOL     OW20158   1.777   3.837   3.977
 6420SOL    HW120159   1.796   3.768   4.047
 6420SOL    HW220160   1.732   3.793   3.899
 6421SOL     OW20161   4.883   0.379   1.668
 6421SOL    HW120162   4.977   0.350   1.686
 6421SOL    HW220163   4.833   0.304   1.624
 6422SOL     OW20164   6.160   2.338   4.798
 6422SOL    HW120165   6.175   2.322   4.701
 6422SOL    HW220166   6.068   2.309   4.823
 6423SOL     OW20167   2.276   4.406   4.258
 6423SOL    HW120168   2.242   4.437   4.169
 6423SOL    HW220169   2.277   4.483   4.321
 6424SOL     OW20170   6.875   4.655   4.649
 6424SOL    HW120171   6.953   4.599   4.621
 6424SOL    HW220172   6.824   4.608   4.722
 6425SOL     OW20173   6.863   6.007   3.346
 6425SOL    HW120174   6.829   5.968   3.431
 6425SOL    HW220175   6.945   6.061   3.364
 6426SOL     OW20176   4.533   4.520   4.749
 6426SOL    HW120177   4.468   4.535   4.824
 6426SOL    HW220178   4.593   4.443   4.773
 6427SOL     OW20179   3.159   3.061   3.270
 6427SOL    HW120180   3.198   2.990   3.329
 6427SOL    HW220181   3.178   3.151   3.309
 6428SOL     OW20182   4.973   2.522   0.294
 6428SOL    HW120183   4.976   2.422   0.295
 6428SOL    HW220184   5.051   2.557   0.242
 6429SOL     OW20185   2.192   0.897   5.520
 6429SOL    HW120186   2.222   0.841   5.443
 6429SOL    HW220187   2.111   0.948   5.494
 6430SOL     OW20188   6.278   0.279   5.128
 6430SOL    HW120189   6.267   0.183   5.153
 6430SOL    HW220190   6.358   0.317   5.175
 6431SOL     OW20191   4.135   4.629   1.656
 6431SOL    HW120192   4.196   4.549   1.663
 6431SOL    HW220193   4.040   4.598   1.660
 6432SOL     OW20194   4.833   4.475   6.278
 6432SOL    HW120195   4.752   4.430   6.316
 6432SOL    HW220196   4.911   4.414   6.286
 6433SOL     OW20197   2.428   5.967   6.604
 6433SOL    HW120198   2.453   5.936   6.512
 6433SOL    HW220199   2.467   6.058   6.620
 6434SOL     OW20200   3.386   5.304   5.783
 6434SOL    HW120201   3.383   5.401   5.806
 6434SOL    HW220202   3.469   5.286   5.730
 6435SOL     OW20203   5.096   1.174   0.994
 6435SOL    HW120204   5.018   1.207   0.941
 6435SOL    HW220205   5.110   1.233   1.074
 6436SOL     OW20206   0.131   4.067   4.227
 6436SOL    HW120207   0.193   4.021   4.163
 6436SOL    HW220208   0.182   4.094   4.308
 6437SOL     OW20209   0.317   1.789   5.553
 6437SOL    HW120210   0.268   1.812   5.637
 6437SOL    HW220211   0.317   1.689   5.540
 6438SOL     OW20212   0.402   5.806   0.331
 6438SOL    HW120213   0.366   5.776   0.419
 6438SOL    HW220214   0.401   5.729   0.267
 6439SOL     OW20215   5.941   0.231   2.669
 6439SOL    HW120216   6.018   0.287   2.639
 6439SOL    HW220217   5.901   0.271   2.752
 6440SOL     OW20218   2.316   1.413   6.106
 6440SOL    HW120219   2.384   1.401   6.034
 6440SOL    HW220220   2.287   1.323   6.140
 6441SOL     OW20221   0.662   0.969   2.691
 6441SOL    HW120222   0.619   0.983   2.602
 6441SOL    HW220223   0.712   0.883   2.690
 6442SOL     OW20224   2.886   3.052   5.248
 6442SOL    HW120225   2.826   2.983   5.289
 6442SOL    HW220226   2.913   3.118   5.317
 6443SOL     OW20227   4.953   2.413   1.009
 6443SOL    HW120228   5.006   2.398   0.926
 6443SOL    HW220229   4.855   2.406   0.988
 6444SOL     OW20230   6.736   3.446   4.988
 6444SOL    HW120231   6.638   3.431   4.993
 6444SOL    HW220232   6.755   3.518   4.922
 6445SOL     OW20233   2.945   3.849   3.286
 6445SOL    HW120234   3.020   3.910   3.262
 6445SOL    HW220235   2.920   3.794   3.206
 6446SOL     OW20236   2.611   0.911   6.456
 6446SOL    HW120237   2.641   1.001   6.426
 6446SOL    HW220238   2.652   0.890   6.545
 6447SOL     OW20239   6.421   3.638   1.155
 6447SOL    HW120240   6.487   3.603   1.088
 6447SOL    HW220241   6.336   3.587   1.147
 6448SOL     OW20242   4.137   5.236   1.502
 6448SOL    HW120243   4.102   5.196   1.586
 6448SOL    HW220244   4.148   5.335   1.514
 6449SOL     OW20245   2.861   6.260   1.220
 6449SOL    HW120246   2.815   6.282   1.134
 6449SOL    HW220247   2.911   6.174   1.209
 6450SOL     OW20248   0.077   3.973   1.089
 6450SOL    HW120249   0.148   3.904   1.101
 6450SOL    HW220250   0.118   4.064   1.093
 6451SOL     OW20251   3.574   2.414   1.361
 6451SOL    HW120252   3.655   2.454   1.403
 6451SOL    HW220253   3.591   2.394   1.265
 6452SOL     OW20254   5.144   2.485   3.446
 6452SOL    HW120255   5.161   2.431   3.364
 6452SOL    HW220256   5.116   2.577   3.420
 6453SOL     OW20257   3.269   0.063   0.931
 6453SOL    HW120258   3.282   0.153   0.973
 6453SOL    HW220259   3.218   0.004   0.994
 6454SOL     OW20260   5.636   2.565   2.914
 6454SOL    HW120261   5.546   2.527   2.933
 6454SOL    HW220262   5.675   2.602   2.999
 6455SOL     OW20263   6.326   3.639   3.413
 6455SOL    HW120264   6.265   3.698   3.360
 6455SOL    HW220265   6.421   3.656   3.386
 6456SOL     OW20266   6.143   1.276   3.228
 6456SOL    HW120267   6.122   1.360   3.278
 6456SOL    HW220268   6.223   1.232   3.269
 6457SOL     OW20269   4.538   0.376   2.121
 6457SOL    HW120270   4.574   0.394   2.030
 6457SOL    HW220271   4.455   0.431   2.135
 6458SOL     OW20272   0.815   4.752   3.772
 6458SOL    HW120273   0.770   4.734   3.685
 6458SOL    HW220274   0.756   4.809   3.829
 6459SOL     OW20275   6.740   2.762   2.410
 6459SOL    HW120276   6.739   2.849   2.361
 6459SOL    HW220277   6.797   2.771   2.492
 6460SOL     OW20278   0.572   5.707   6.714
 6460SOL    HW120279   0.629   5.786   6.735
 6460SOL    HW220280   0.628   5.634   6.675
 6461SOL     OW20281   3.040   5.074   1.236
 6461SOL    HW120282   3.123   5.086   1.181
 6461SOL    HW220283   3.014   4.977   1.236
 6462SOL     OW20284   1.863   3.801   5.317
 6462SOL    HW120285   1.776   3.757   5.340
 6462SOL    HW220286   1.918   3.739   5.261
 6463SOL     OW20287   4.612   1.834   1.542
 6463SOL    HW120288   4.514   1.831   1.565
 6463SOL    HW220289   4.653   1.914   1.586
 6464SOL     OW20290   0.605   6.073   4.603
 6464SOL    HW120291   0.623   5.987   4.652
 6464SOL    HW220292   0.682   6.092   4.541
 6465SOL     OW20293   4.169   1.534   3.041
 6465SOL    HW120294   4.184   1.471   3.117
 6465SOL    HW220295   4.211   1.622   3.062
 6466SOL     OW20296   0.663   2.899   6.864
 6466SOL    HW120297   0.704   2.903   6.955
 6466SOL    HW220298   0.576   2.848   6.869
 6467SOL     OW20299   3.147   1.401   0.759
 6467SOL    HW120300   3.121   1.438   0.848
 6467SOL    HW220301   3.098   1.450   0.687
 6468SOL     OW20302   2.822   0.446   0.795
 6468SOL    HW120303   2.802   0.410   0.705
 6468SOL    HW220304   2.785   0.539   0.803
 6469SOL     OW20305   3.496   1.820   3.116
 6469SOL    HW120306   3.549   1.746   3.157
 6469SOL    HW220307   3.443   1.867   3.187
 6470SOL     OW20308   6.351   1.643   6.936
 6470SOL    HW120309   6.354   1.653   0.013
 6470SOL    HW220310   6.439   1.671   6.897
 6471SOL     OW20311   6.968   5.887   5.492
 6471SOL    HW120312   6.921   5.973   5.473
 6471SOL    HW220313   0.001   5.898   5.575
 6472SOL     OW20314   6.682   5.950   2.918
 6472SOL    HW120315   6.773   5.986   2.899
 6472SOL    HW220316   6.677   5.922   3.014
 6473SOL     OW20317   2.430   1.010   3.965
 6473SOL    HW120318   2.442   0.971   4.057
 6473SOL    HW220319   2.500   0.973   3.904
 6474SOL     OW20320   3.923   5.594   5.322
 6474SOL    HW120321   3.897   5.498   5.333
 6474SOL    HW220322   4.023   5.601   5.320
 6475SOL     OW20323   5.651   4.541   2.828
 6475SOL    HW120324   5.613   4.571   2.916
 6475SOL    HW220325   5.705   4.615   2.788
 6476SOL     OW20326   3.567   1.480   6.123
 6476SOL    HW120327   3.514   1.442   6.047
 6476SOL    HW220328   3.504   1.505   6.197
 6477SOL     OW20329   6.545   6.349   1.487
 6477SOL    HW120330   6.508   6.354   1.394
 6477SOL    HW220331   6.644   6.339   1.483
 6478SOL     OW20332   3.355   5.423   1.737
 6478SOL    HW120333   3.375   5.326   1.722
 6478SOL    HW220334   3.441   5.474   1.743
 6479SOL     OW20335   3.317   6.309   3.874
 6479SOL    HW120336   3.352   6.273   3.960
 6479SOL    HW220337   3.391   6.314   3.807
 6480SOL     OW20338   3.470   1.563   6.898
 6480SOL    HW120339   3.541   1.494   6.912
 6480SOL    HW220340   3.396   1.523   6.844
 6481SOL     OW20341   3.410   2.746   1.638
 6481SOL    HW120342   3.389   2.818   1.704
 6481SOL    HW220343   3.476   2.683   1.679
 6482SOL     OW20344   6.532   3.999   5.166
 6482SOL    HW120345   6.478   3.977   5.085
 6482SOL    HW220346   6.602   3.929   5.179
 6483SOL     OW20347   0.836   5.558   5.159
 6483SOL    HW120348   0.762   5.587   5.098
 6483SOL    HW220349   0.898   5.634   5.174
 6484SOL     OW20350   2.776   0.799   4.359
 6484SOL    HW120351   2.716   0.793   4.439
 6484SOL    HW220352   2.725   0.773   4.277
 6485SOL     OW20353   2.471   0.111   4.398
 6485SOL    HW120354   2.477   0.188   4.335
 6485SOL    HW220355   2.442   0.144   4.488
 6486SOL     OW20356   1.861   5.350   3.342
 6486SOL    HW120357   1.800   5.429   3.345
 6486SOL    HW220358   1.820   5.274   3.391
 6487SOL     OW20359   6.427   4.807   3.637
 6487SOL    HW120360   6.457   4.765   3.551
 6487SOL    HW220361   6.454   4.904   3.638
 6488SOL     OW20362   4.325   5.282   4.626
 6488SOL    HW120363   4.325   5.321   4.719
 6488SOL    HW220364   4.231   5.267   4.596
 6489SOL     OW20365   4.024   3.622   5.546
 6489SOL    HW120366   3.968   3.654   5.470
 6489SOL    HW220367   4.082   3.546   5.516
 6490SOL     OW20368   1.930   1.742   6.818
 6490SOL    HW120369   1.934   1.769   6.914
 6490SOL    HW220370   1.869   1.663   6.808
 6491SOL     OW20371   2.216   0.456   0.336
 6491SOL    HW120372   2.170   0.530   0.385
 6491SOL    HW220373   2.254   0.491   0.250
 6492SOL     OW20374   3.572   3.770   4.712
 6492SOL    HW120375   3.660   3.757   4.665
 6492SOL    HW220376   3.587   3.824   4.795
 6493SOL     OW20377   1.427   4.016   5.877
 6493SOL    HW120378   1.498   3.982   5.938
 6493SOL    HW220379   1.344   3.961   5.888
 6494SOL     OW20380   6.200   6.946   2.267
 6494SOL    HW120381   6.272   6.992   2.215
 6494SOL    HW220382   6.240   6.871   2.321
 6495SOL     OW20383   6.651   0.184   3.758
 6495SOL    HW120384   6.711   0.204   3.836
 6495SOL    HW220385   6.559   0.166   3.790
 6496SOL     OW20386   4.382   0.777   1.768
 6496SOL    HW120387   4.388   0.759   1.866
 6496SOL    HW220388   4.291   0.813   1.747
 6497SOL     OW20389   0.018   1.821   1.030
 6497SOL    HW120390   0.063   1.887   0.970
 6497SOL    HW220391   6.952   1.859   1.059
 6498SOL     OW20392   1.235   4.500   4.487
 6498SOL    HW120393   1.303   4.483   4.415
 6498SOL    HW220394   1.282   4.505   4.576
 6499SOL     OW20395   5.660   3.492   3.647
 6499SOL    HW120396   5.591   3.507   3.576
 6499SOL    HW220397   5.745   3.459   3.606
 6500SOL     OW20398   1.651   3.867   3.141
 6500SOL    HW120399   1.720   3.882   3.211
 6500SOL    HW220400   1.561   3.891   3.177
 6501SOL     OW20401   6.256   1.844   1.175
 6501SOL    HW120402   6.220   1.927   1.132
 6501SOL    HW220403   6.221   1.836   1.268
 6502SOL     OW20404   6.606   3.691   1.370
 6502SOL    HW120405   6.558   3.649   1.293
 6502SOL    HW220406   6.552   3.768   1.405
 6503SOL     OW20407   6.592   2.950   5.341
 6503SOL    HW120408   6.545   2.983   5.423
 6503SOL    HW220409   6.524   2.919   5.274
 6504SOL     OW20410   4.305   5.884   6.595
 6504SOL    HW120411   4.397   5.860   6.562
 6504SOL    HW220412   4.297   5.983   6.600
 6505SOL     OW20413   6.180   5.628   0.293
 6505SOL    HW120414   6.098   5.572   0.307
 6505SOL    HW220415   6.233   5.631   0.378
 6506SOL     OW20416   0.166   3.088   2.434
 6506SOL    HW120417   0.251   3.115   2.480
 6506SOL    HW220418   0.157   3.137   2.348
 6507SOL     OW20419   4.197   4.658   6.677
 6507SOL    HW120420   4.222   4.633   6.770
 6507SOL    HW220421   4.230   4.750   6.658
 6508SOL     OW20422   1.315   6.123   2.238
 6508SOL    HW120423   1.310   6.031   2.200
 6508SOL    HW220424   1.257   6.185   2.185
 6509SOL     OW20425   3.158   1.369   5.848
 6509SOL    HW120426   3.143   1.465   5.872
 6509SOL    HW220427   3.069   1.324   5.837
 6510SOL     OW20428   4.602   5.952   5.583
 6510SOL    HW120429   4.671   6.022   5.597
 6510SOL    HW220430   4.513   5.995   5.568
 6511SOL     OW20431   2.951   0.635   0.062
 6511SOL    HW120432   2.948   0.565   7.013
 6511SOL    HW220433   2.865   0.635   0.113
 6512SOL     OW20434   3.782   0.876   0.956
 6512SOL    HW120435   3.712   0.869   1.028
 6512SOL    HW220436   3.737   0.882   0.867
 6513SOL     OW20437   2.259   5.805   4.021
 6513SOL    HW120438   2.358   5.812   4.009
 6513SOL    HW220439   2.239   5.737   4.092
 6514SOL     OW20440   5.810   0.173   5.807
 6514SOL    HW120441   5.717   0.136   5.817
 6514SOL    HW220442   5.805   0.268   5.777
 6515SOL     OW20443   2.216   4.910   2.492
 6515SOL    HW120444   2.249   4.837   2.552
 6515SOL    HW220445   2.235   4.886   2.397
 6516SOL     OW20446   0.129   3.462   0.767
 6516SOL    HW120447   0.188   3.507   0.700
 6516SOL    HW220448   0.100   3.530   0.835
 6517SOL     OW20449   0.178   2.612   0.139
 6517SOL    HW120450   0.225   2.685   0.089
 6517SOL    HW220451   0.090   2.594   0.095
 6518SOL     OW20452   1.268   1.284   3.253
 6518SOL    HW120453   1.316   1.297   3.340
 6518SOL    HW220454   1.310   1.209   3.203
 6519SOL     OW20455   0.860   1.369   2.936
 6519SOL    HW120456   0.770   1.411   2.947
 6519SOL    HW220457   0.851   1.270   2.943
 6520SOL     OW20458   0.310   5.731   0.068
 6520SOL    HW120459   0.276   5.814   0.024
 6520SOL    HW220460   0.233   5.669   0.086
 6521SOL     OW20461   1.318   3.326   4.397
 6521SOL    HW120462   1.397   3.370   4.439
 6521SOL    HW220463   1.328   3.227   4.402
 6522SOL     OW20464   2.536   3.742   5.339
 6522SOL    HW120465   2.525   3.823   5.281
 6522SOL    HW220466   2.634   3.725   5.353
 6523SOL     OW20467   5.975   0.369   6.860
 6523SOL    HW120468   5.888   0.416   6.844
 6523SOL    HW220469   6.008   0.329   6.774
 6524SOL     OW20470   2.106   2.457   1.803
 6524SOL    HW120471   2.077   2.399   1.880
 6524SOL    HW220472   2.150   2.539   1.839
 6525SOL     OW20473   1.024   4.678   3.092
 6525SOL    HW120474   1.024   4.601   3.156
 6525SOL    HW220475   1.090   4.747   3.122
 6526SOL     OW20476   0.203   6.875   0.664
 6526SOL    HW120477   0.257   6.799   0.629
 6526SOL    HW220478   0.177   6.935   0.588
 6527SOL     OW20479   0.592   2.233   0.352
 6527SOL    HW120480   0.506   2.211   0.398
 6527SOL    HW220481   0.588   2.201   0.257
 6528SOL     OW20482   5.622   0.907   5.973
 6528SOL    HW120483   5.579   0.948   5.892
 6528SOL    HW220484   5.641   0.978   6.040
 6529SOL     OW20485   6.944   1.497   2.016
 6529SOL    HW120486   6.897   1.512   2.103
 6529SOL    HW220487   6.897   1.425   1.965
 6530SOL     OW20488   0.900   2.418   2.628
 6530SOL    HW120489   0.846   2.392   2.548
 6530SOL    HW220490   0.971   2.349   2.643
 6531SOL     OW20491   4.153   3.441   5.321
 6531SOL    HW120492   4.083   3.508   5.298
 6531SOL    HW220493   4.244   3.479   5.302
 6532SOL     OW20494   1.173   0.648   0.588
 6532SOL    HW120495   1.155   0.651   0.686
 6532SOL    HW220496   1.090   0.671   0.538
 6533SOL     OW20497   4.823   3.632   0.280
 6533SOL    HW120498   4.740   3.687   0.264
 6533SOL    HW220499   4.819   3.550   0.222
 6534SOL     OW20500   6.594   4.274   2.722
 6534SOL    HW120501   6.690   4.260   2.701
 6534SOL    HW220502   6.576   4.246   2.817
 6535SOL     OW20503   6.479   3.581   5.342
 6535SOL    HW120504   6.424   3.662   5.361
 6535SOL    HW220505   6.571   3.610   5.316
 6536SOL     OW20506   1.141   3.993   4.798
 6536SOL    HW120507   1.177   4.086   4.800
 6536SOL    HW220508   1.176   3.946   4.717
 6537SOL     OW20509   6.081   5.370   4.143
 6537SOL    HW120510   6.048   5.456   4.180
 6537SOL    HW220511   6.120   5.385   4.052
 6538SOL     OW20512   2.310   3.568   5.266
 6538SOL    HW120513   2.375   3.632   5.308
 6538SOL    HW220514   2.247   3.534   5.335
 6539SOL     OW20515   6.376   0.501   6.038
 6539SOL    HW120516   6.296   0.561   6.040
 6539SOL    HW220517   6.359   0.421   6.095
 6540SOL     OW20518   4.998   2.665   5.993
 6540SOL    HW120519   4.942   2.711   6.061
 6540SOL    HW220520   5.091   2.654   6.028
 6541SOL     OW20521   5.849   0.883   4.656
 6541SOL    HW120522   5.787   0.805   4.659
 6541SOL    HW220523   5.836   0.939   4.738
 6542SOL     OW20524   1.539   3.926   4.281
 6542SOL    HW120525   1.627   3.896   4.318
 6542SOL    HW220526   1.547   3.941   4.183
 6543SOL     OW20527   3.946   2.198   5.041
 6543SOL    HW120528   4.000   2.252   4.976
 6543SOL    HW220529   3.864   2.164   4.995
 6544SOL     OW20530   1.018   6.542   1.956
 6544SOL    HW120531   0.930   6.496   1.946
 6544SOL    HW220532   1.066   6.541   1.868
 6545SOL     OW20533   4.088   0.036   1.186
 6545SOL    HW120534   3.994   0.012   1.212
 6545SOL    HW220535   4.116   0.118   1.236
 6546SOL     OW20536   5.136   3.517   5.997
 6546SOL    HW120537   5.115   3.423   6.024
 6546SOL    HW220538   5.231   3.538   6.019
 6547SOL     OW20539   5.672   5.615   6.857
 6547SOL    HW120540   5.651   5.701   6.812
 6547SOL    HW220541   5.614   5.604   6.938
 6548SOL     OW20542   0.696   2.104   5.343
 6548SOL    HW120543   0.646   2.138   5.263
 6548SOL    HW220544   0.688   2.004   5.348
 6549SOL     OW20545   4.981   0.069   1.769
 6549SOL    HW120546   4.940   0.047   1.681
 6549SOL    HW220547   5.035   0.153   1.761
 6550SOL     OW20548   6.154   0.042   3.391
 6550SOL    HW120549   6.235   0.032   3.332
 6550SOL    HW220550   6.143   6.981   3.445
 6551SOL     OW20551   3.145   3.483   1.547
 6551SOL    HW120552   3.170   3.425   1.469
 6551SOL    HW220553   3.110   3.571   1.512
 6552SOL     OW20554   2.208   6.668   0.279
 6552SOL    HW120555   2.275   6.682   0.352
 6552SOL    HW220556   2.120   6.709   0.305
 6553SOL     OW20557   0.075   0.818   2.888
 6553SOL    HW120558   0.120   0.901   2.853
 6553SOL    HW220559   0.032   0.839   2.976
 6554SOL     OW20560   3.073   1.791   4.810
 6554SOL    HW120561   3.054   1.888   4.827
 6554SOL    HW220562   3.121   1.753   4.889
 6555SOL     OW20563   6.844   2.780   4.047
 6555SOL    HW120564   6.868   2.808   3.954
 6555SOL    HW220565   6.905   2.708   4.076
 6556SOL     OW20566   4.830   2.888   3.579
 6556SOL    HW120567   4.759   2.832   3.536
 6556SOL    HW220568   4.834   2.867   3.676
 6557SOL     OW20569   1.985   7.016   2.134
 6557SOL    HW120570   1.964   6.927   2.175
 6557SOL    HW220571   2.078   0.020   2.159
 6558SOL     OW20572   5.343   4.992   0.484
 6558SOL    HW120573   5.370   4.978   0.580
 6558SOL    HW220574   5.367   5.085   0.456
 6559SOL     OW20575   6.640   2.868   6.105
 6559SOL    HW120576   6.557   2.922   6.098
 6559SOL    HW220577   6.716   2.919   6.065
 6560SOL     OW20578   5.459   4.797   0.343
 6560SOL    HW120579   5.396   4.734   0.297
 6560SOL    HW220580   5.408   4.878   0.373
 6561SOL     OW20581   3.827   4.730   0.476
 6561SOL    HW120582   3.795   4.646   0.518
 6561SOL    HW220583   3.926   4.738   0.488
 6562SOL     OW20584   5.840   2.942   1.260
 6562SOL    HW120585   5.796   3.001   1.192
 6562SOL    HW220586   5.790   2.948   1.346
 6563SOL     OW20587   5.189   5.832   5.029
 6563SOL    HW120588   5.109   5.852   4.973
 6563SOL    HW220589   5.262   5.897   5.007
 6564SOL     OW20590   0.136   3.887   2.879
 6564SOL    HW120591   0.058   3.948   2.897
 6564SOL    HW220592   0.142   3.869   2.781
 6565SOL     OW20593   5.738   0.291   3.136
 6565SOL    HW120594   5.835   0.287   3.159
 6565SOL    HW220595   5.696   0.201   3.153
 6566SOL     OW20596   4.247   5.885   2.385
 6566SOL    HW120597   4.327   5.853   2.334
 6566SOL    HW220598   4.249   5.985   2.390
 6567SOL     OW20599   4.143   0.425   0.971
 6567SOL    HW120600   4.117   0.367   1.048
 6567SOL    HW220601   4.074   0.497   0.959
 6568SOL     OW20602   3.515   1.420   1.699
 6568SOL    HW120603   3.513   1.478   1.781
 6568SOL    HW220604   3.582   1.457   1.634
 6569SOL     OW20605   0.267   3.971   5.915
 6569SOL    HW120606   0.269   4.005   6.009
 6569SOL    HW220607   0.220   3.883   5.912
 6570SOL     OW20608   3.894   6.158   2.079
 6570SOL    HW120609   3.846   6.245   2.067
 6570SOL    HW220610   3.828   6.083   2.083
 6571SOL     OW20611   2.498   5.211   3.020
 6571SOL    HW120612   2.428   5.267   2.975
 6571SOL    HW220613   2.514   5.129   2.966
 6572SOL     OW20614   0.623   5.802   3.973
 6572SOL    HW120615   0.689   5.735   3.939
 6572SOL    HW220616   0.630   5.886   3.919
 6573SOL     OW20617   1.218   1.156   2.871
 6573SOL    HW120618   1.144   1.180   2.808
 6573SOL    HW220619   1.291   1.224   2.865
 6574SOL     OW20620   1.758   5.770   2.258
 6574SOL    HW120621   1.747   5.860   2.301
 6574SOL    HW220622   1.693   5.760   2.184
 6575SOL     OW20623   6.617   0.190   2.799
 6575SOL    HW120624   6.613   0.284   2.767
 6575SOL    HW220625   6.596   0.127   2.724
 6576SOL     OW20626   3.825   5.834   0.457
 6576SOL    HW120627   3.886   5.896   0.407
 6576SOL    HW220628   3.862   5.741   0.453
 6577SOL     OW20629   1.866   2.166   3.673
 6577SOL    HW120630   1.895   2.085   3.622
 6577SOL    HW220631   1.889   2.155   3.769
 6578SOL     OW20632   1.610   4.882   2.050
 6578SOL    HW120633   1.571   4.790   2.039
 6578SOL    HW220634   1.662   4.886   2.135
 6579SOL     OW20635   6.763   1.550   4.178
 6579SOL    HW120636   6.825   1.492   4.231
 6579SOL    HW220637   6.679   1.565   4.231
 6580SOL     OW20638   0.972   0.041   0.239
 6580SOL    HW120639   0.961   0.140   0.226
 6580SOL    HW220640   0.918   7.015   0.171
 6581SOL     OW20641   1.479   1.693   6.827
 6581SOL    HW120642   1.428   1.649   6.901
 6581SOL    HW220643   1.431   1.776   6.799
 6582SOL     OW20644   6.526   0.845   2.690
 6582SOL    HW120645   6.491   0.938   2.683
 6582SOL    HW220646   6.620   0.847   2.724
 6583SOL     OW20647   4.281   6.459   0.147
 6583SOL    HW120648   4.340   6.505   0.214
 6583SOL    HW220649   4.317   6.474   0.055
 6584SOL     OW20650   2.951   2.085   1.004
 6584SOL    HW120651   2.909   2.034   1.079
 6584SOL    HW220652   2.929   2.182   1.013
 6585SOL     OW20653   5.573   0.224   1.217
 6585SOL    HW120654   5.631   0.161   1.165
 6585SOL    HW220655   5.484   0.182   1.234
 6586SOL     OW20656   6.302   2.276   6.249
 6586SOL    HW120657   6.245   2.352   6.217
 6586SOL    HW220658   6.246   2.213   6.304
 6587SOL     OW20659   1.578   4.177   5.506
 6587SOL    HW120660   1.583   4.083   5.539
 6587SOL    HW220661   1.670   4.216   5.503
 6588SOL     OW20662   0.825   3.174   0.559
 6588SOL    HW120663   0.893   3.239   0.524
 6588SOL    HW220664   0.854   3.081   0.537
 6589SOL     OW20665   0.039   1.159   1.898
 6589SOL    HW120666   0.054   1.124   1.805
 6589SOL    HW220667   6.974   1.206   1.903
 6590SOL     OW20668   1.140   0.176   4.278
 6590SOL    HW120669   1.141   0.186   4.378
 6590SOL    HW220670   1.212   0.113   4.250
 6591SOL     OW20671   5.668   4.461   4.103
 6591SOL    HW120672   5.617   4.414   4.031
 6591SOL    HW220673   5.646   4.559   4.102
 6592SOL     OW20674   5.097   6.386   2.931
 6592SOL    HW120675   5.117   6.474   2.974
 6592SOL    HW220676   5.099   6.397   2.831
 6593SOL     OW20677   2.659   1.836   2.967
 6593SOL    HW120678   2.649   1.880   2.877
 6593SOL    HW220679   2.702   1.747   2.956
 6594SOL     OW20680   3.999   1.600   6.335
 6594SOL    HW120681   3.967   1.604   6.240
 6594SOL    HW220682   4.098   1.585   6.336
 6595SOL     OW20683   1.706   2.325   4.778
 6595SOL    HW120684   1.689   2.238   4.823
 6595SOL    HW220685   1.804   2.348   4.784
 6596SOL     OW20686   5.682   6.152   2.759
 6596SOL    HW120687   5.696   6.163   2.857
 6596SOL    HW220688   5.757   6.195   2.709
 6597SOL     OW20689   1.548   4.933   2.501
 6597SOL    HW120690   1.604   4.994   2.558
 6597SOL    HW220691   1.591   4.844   2.495
 6598SOL     OW20692   1.848   4.718   4.201
 6598SOL    HW120693   1.803   4.770   4.274
 6598SOL    HW220694   1.784   4.651   4.163
 6599SOL     OW20695   5.770   5.732   6.435
 6599SOL    HW120696   5.708   5.655   6.418
 6599SOL    HW220697   5.844   5.702   6.495
 6600SOL     OW20698   4.420   6.964   5.414
 6600SOL    HW120699   4.411   0.005   5.338
 6600SOL    HW220700   4.380   6.876   5.388
 6601SOL     OW20701   1.568   2.561   1.994
 6601SOL    HW120702   1.510   2.557   1.913
 6601SOL    HW220703   1.653   2.609   1.971
 6602SOL     OW20704   2.176   6.291   1.683
 6602SOL    HW120705   2.200   6.202   1.721
 6602SOL    HW220706   2.103   6.281   1.615
 6603SOL     OW20707   0.474   3.032   3.337
 6603SOL    HW120708   0.570   3.046   3.310
 6603SOL    HW220709   0.468   3.034   3.437
 6604SOL     OW20710   1.715   6.548   2.134
 6604SOL    HW120711   1.668   6.625   2.093
 6604SOL    HW220712   1.649   6.490   2.183
 6605SOL     OW20713   6.414   5.427   1.425
 6605SOL    HW120714   6.496   5.377   1.398
 6605SOL    HW220715   6.333   5.377   1.396
 6606SOL     OW20716   1.882   3.553   3.680
 6606SOL    HW120717   1.877   3.635   3.623
 6606SOL    HW220718   1.831   3.568   3.765
 6607SOL     OW20719   5.866   3.942   3.550
 6607SOL    HW120720   5.893   3.849   3.525
 6607SOL    HW220721   5.834   3.943   3.645
 6608SOL     OW20722   0.499   6.946   6.066
 6608SOL    HW120723   0.476   0.009   6.112
 6608SOL    HW220724   0.571   6.899   6.117
 6609SOL     OW20725   4.406   2.261   5.868
 6609SOL    HW120726   4.473   2.214   5.810
 6609SOL    HW220727   4.319   2.210   5.867
 6610SOL     OW20728   3.281   5.064   1.122
 6610SOL    HW120729   3.341   5.139   1.094
 6610SOL    HW220730   3.335   4.992   1.164
 6611SOL     OW20731   4.501   1.743   4.266
 6611SOL    HW120732   4.507   1.808   4.191
 6611SOL    HW220733   4.404   1.726   4.286
 6612SOL     OW20734   5.823   1.847   6.090
 6612SOL    HW120735   5.802   1.852   5.993
 6612SOL    HW220736   5.787   1.928   6.136
 6613SOL     OW20737   5.133   0.420   6.634
 6613SOL    HW120738   5.071   0.435   6.712
 6613SOL    HW220739   5.104   0.477   6.557
 6614SOL     OW20740   4.248   5.894   1.751
 6614SOL    HW120741   4.232   5.942   1.837
 6614SOL    HW220742   4.206   5.946   1.676
 6615SOL     OW20743   2.950   5.653   0.570
 6615SOL    HW120744   3.009   5.733   0.579
 6615SOL    HW220745   3.002   5.571   0.596
 6616SOL     OW20746   4.771   1.099   5.623
 6616SOL    HW120747   4.798   1.003   5.622
 6616SOL    HW220748   4.853   1.156   5.615
 6617SOL     OW20749   4.443   0.643   3.668
 6617SOL    HW120750   4.424   0.667   3.763
 6617SOL    HW220751   4.471   0.724   3.618
 6618SOL     OW20752   0.227   2.336   2.657
 6618SOL    HW120753   0.180   2.416   2.694
 6618SOL    HW220754   0.285   2.296   2.727
 6619SOL     OW20755   4.913   6.366   4.089
 6619SOL    HW120756   4.931   6.437   4.158
 6619SOL    HW220757   4.880   6.408   4.005
 6620SOL     OW20758   0.779   3.413   3.627
 6620SOL    HW120759   0.765   3.479   3.701
 6620SOL    HW220760   0.856   3.353   3.650
 6621SOL     OW20761   3.928   3.291   4.701
 6621SOL    HW120762   3.907   3.194   4.714
 6621SOL    HW220763   3.920   3.314   4.604
 6622SOL     OW20764   0.321   6.059   0.602
 6622SOL    HW120765   0.229   6.086   0.575
 6622SOL    HW220766   0.386   6.080   0.529
 6623SOL     OW20767   3.575   4.140   5.558
 6623SOL    HW120768   3.488   4.132   5.606
 6623SOL    HW220769   3.644   4.083   5.604
 6624SOL     OW20770   0.843   2.533   4.541
 6624SOL    HW120771   0.830   2.583   4.455
 6624SOL    HW220772   0.883   2.594   4.609
 6625SOL     OW20773   5.884   2.486   5.564
 6625SOL    HW120774   5.908   2.418   5.634
 6625SOL    HW220775   5.786   2.501   5.565
 6626SOL     OW20776   2.854   6.266   5.001
 6626SOL    HW120777   2.789   6.339   4.979
 6626SOL    HW220778   2.826   6.181   4.956
 6627SOL     OW20779   1.166   6.105   4.600
 6627SOL    HW120780   1.075   6.072   4.574
 6627SOL    HW220781   1.160   6.156   4.685
 6628SOL     OW20782   4.728   5.394   4.168
 6628SOL    HW120783   4.689   5.441   4.090
 6628SOL    HW220784   4.812   5.440   4.197
 6629SOL     OW20785   5.528   6.061   0.137
 6629SOL    HW120786   5.604   6.036   0.197
 6629SOL    HW220787   5.563   6.110   0.057
 6630SOL     OW20788   2.362   1.611   1.294
 6630SOL    HW120789   2.448   1.628   1.342
 6630SOL    HW220790   2.378   1.555   1.213
 6631SOL     OW20791   1.991   4.752   6.053
 6631SOL    HW120792   1.972   4.851   6.057
 6631SOL    HW220793   1.905   4.702   6.043
 6632SOL     OW20794   1.351   0.501   0.470
 6632SOL    HW120795   1.320   0.505   0.375
 6632SOL    HW220796   1.288   0.554   0.528
 6633SOL     OW20797   3.209   5.550   6.275
 6633SOL    HW120798   3.250   5.491   6.205
 6633SOL    HW220799   3.246   5.642   6.266
 6634SOL     OW20800   4.997   1.554   4.969
 6634SOL    HW120801   4.992   1.599   5.059
 6634SOL    HW220802   4.912   1.505   4.952
 6635SOL     OW20803   5.543   4.941   2.419
 6635SOL    HW120804   5.481   4.864   2.419
 6635SOL    HW220805   5.533   4.993   2.504
 6636SOL     OW20806   3.390   6.975   1.642
 6636SOL    HW120807   3.312   0.009   1.671
 6636SOL    HW220808   3.417   6.915   1.718
 6637SOL     OW20809   1.285   0.999   0.692
 6637SOL    HW120810   1.274   0.947   0.607
 6637SOL    HW220811   1.372   1.048   0.690
 6638SOL     OW20812   3.168   3.697   3.711
 6638SOL    HW120813   3.256   3.723   3.671
 6638SOL    HW220814   3.129   3.776   3.759
 6639SOL     OW20815   5.207   3.118   1.381
 6639SOL    HW120816   5.204   3.030   1.334
 6639SOL    HW220817   5.295   3.163   1.364
 6640SOL     OW20818   1.130   2.802   5.311
 6640SOL    HW120819   1.033   2.815   5.291
 6640SOL    HW220820   1.179   2.889   5.296
 6641SOL     OW20821   4.080   2.164   1.052
 6641SOL    HW120822   4.105   2.261   1.050
 6641SOL    HW220823   4.002   2.150   1.113
 6642SOL     OW20824   1.415   5.548   0.359
 6642SOL    HW120825   1.497   5.554   0.417
 6642SOL    HW220826   1.359   5.471   0.388
 6643SOL     OW20827   4.753   6.956   0.141
 6643SOL    HW120828   4.825   6.954   0.071
 6643SOL    HW220829   4.695   0.013   0.126
 6644SOL     OW20830   1.916   6.626   3.209
 6644SOL    HW120831   1.988   6.669   3.155
 6644SOL    HW220832   1.847   6.695   3.233
 6645SOL     OW20833   6.089   2.363   0.584
 6645SOL    HW120834   6.082   2.412   0.497
 6645SOL    HW220835   6.081   2.265   0.567
 6646SOL     OW20836   3.961   0.141   6.680
 6646SOL    HW120837   3.933   0.045   6.676
 6646SOL    HW220838   4.020   0.155   6.759
 6647SOL     OW20839   4.506   5.050   1.251
 6647SOL    HW120840   4.522   5.002   1.164
 6647SOL    HW220841   4.429   5.113   1.240
 6648SOL     OW20842   2.446   6.464   5.569
 6648SOL    HW120843   2.356   6.440   5.604
 6648SOL    HW220844   2.443   6.554   5.526
 6649SOL     OW20845   6.057   2.211   6.899
 6649SOL    HW120846   6.153   2.197   6.924
 6649SOL    HW220847   6.001   2.140   6.942
 6650SOL     OW20848   2.782   1.261   5.020
 6650SOL    HW120849   2.841   1.342   5.026
 6650SOL    HW220850   2.692   1.283   5.058
 6651SOL     OW20851   0.320   1.598   6.999
 6651SOL    HW120852   0.273   1.669   0.030
 6651SOL    HW220853   0.333   1.631   6.905
 6652SOL     OW20854   1.092   4.488   0.218
 6652SOL    HW120855   1.150   4.510   0.296
 6652SOL    HW220856   0.996   4.489   0.246
 6653SOL     OW20857   5.666   2.851   0.690
 6653SOL    HW120858   5.668   2.841   0.789
 6653SOL    HW220859   5.574   2.833   0.656
 6654SOL     OW20860   0.793   4.246   2.849
 6654SOL    HW120861   0.694   4.255   2.846
 6654SOL    HW220862   0.836   4.333   2.825
 6655SOL     OW20863   6.817   5.260   1.548
 6655SOL    HW120864   6.770   5.345   1.524
 6655SOL    HW220865   6.860   5.271   1.638
 6656SOL     OW20866   4.273   1.731   2.674
 6656SOL    HW120867   4.180   1.761   2.699
 6656SOL    HW220868   4.304   1.662   2.739
 6657SOL     OW20869   5.681   2.348   4.419
 6657SOL    HW120870   5.635   2.283   4.479
 6657SOL    HW220871   5.633   2.436   4.423
 6658SOL     OW20872   6.311   6.242   4.880
 6658SOL    HW120873   6.212   6.245   4.893
 6658SOL    HW220874   6.333   6.176   4.808
 6659SOL     OW20875   1.239   5.013   1.800
 6659SOL    HW120876   1.243   4.922   1.757
 6659SOL    HW220877   1.330   5.054   1.798
 6660SOL     OW20878   0.294   6.462   3.354
 6660SOL    HW120879   0.341   6.391   3.302
 6660SOL    HW220880   0.355   6.540   3.367
 6661SOL     OW20881   3.123   6.491   4.129
 6661SOL    HW120882   3.201   6.452   4.079
 6661SOL    HW220883   3.097   6.578   4.086
 6662SOL     OW20884   2.546   0.044   2.199
 6662SOL    HW120885   2.527   0.133   2.242
 6662SOL    HW220886   2.602   7.011   2.261
 6663SOL     OW20887   1.573   4.509   5.920
 6663SOL    HW120888   1.635   4.550   5.853
 6663SOL    HW220889   1.525   4.432   5.879
 6664SOL     OW20890   3.060   0.547   1.843
 6664SOL    HW120891   3.041   0.594   1.757
 6664SOL    HW220892   3.104   0.459   1.823
 6665SOL     OW20893   2.671   0.521   6.065
 6665SOL    HW120894   2.749   0.480   6.018
 6665SOL    HW220895   2.676   0.620   6.061
 6666SOL     OW20896   5.273   6.476   5.053
 6666SOL    HW120897   5.188   6.529   5.049
 6666SOL    HW220898   5.281   6.432   5.142
 6667SOL     OW20899   6.743   6.498   6.443
 6667SOL    HW120900   6.777   6.422   6.388
 6667SOL    HW220901   6.643   6.491   6.452
 6668SOL     OW20902   0.050   6.272   1.007
 6668SOL    HW120903   0.004   6.325   1.079
 6668SOL    HW220904   0.112   6.332   0.957
 6669SOL     OW20905   1.550   1.679   2.062
 6669SOL    HW120906   1.489   1.725   1.997
 6669SOL    HW220907   1.627   1.739   2.084
 6670SOL     OW20908   3.527   2.714   0.939
 6670SOL    HW120909   3.566   2.684   1.026
 6670SOL    HW220910   3.542   2.644   0.870
 6671SOL     OW20911   5.396   6.435   6.921
 6671SOL    HW120912   5.321   6.377   6.887
 6671SOL    HW220913   5.418   6.504   6.852
 6672SOL     OW20914   1.151   2.018   0.604
 6672SOL    HW120915   1.211   2.097   0.592
 6672SOL    HW220916   1.072   2.044   0.659
 6673SOL     OW20917   5.798   3.797   4.370
 6673SOL    HW120918   5.712   3.790   4.421
 6673SOL    HW220919   5.789   3.865   4.297
 6674SOL     OW20920   0.398   2.825   6.796
 6674SOL    HW120921   0.388   2.795   6.890
 6674SOL    HW220922   0.327   2.783   6.740
 6675SOL     OW20923   4.529   2.877   6.773
 6675SOL    HW120924   4.599   2.930   6.822
 6675SOL    HW220925   4.503   2.926   6.690
 6676SOL     OW20926   1.072   3.626   3.740
 6676SOL    HW120927   1.172   3.629   3.747
 6676SOL    HW220928   1.046   3.561   3.668
 6677SOL     OW20929   0.758   1.862   0.514
 6677SOL    HW120930   0.828   1.842   0.445
 6677SOL    HW220931   0.787   1.941   0.568
 6678SOL     OW20932   1.626   5.064   0.197
 6678SOL    HW120933   1.693   5.021   0.257
 6678SOL    HW220934   1.538   5.070   0.245
 6679SOL     OW20935   2.459   1.281   4.129
 6679SOL    HW120936   2.409   1.196   4.118
 6679SOL    HW220937   2.414   1.339   4.196
 6680SOL     OW20938   5.720   6.633   0.147
 6680SOL    HW120939   5.769   6.688   0.214
 6680SOL    HW220940   5.659   6.569   0.194
 6681SOL     OW20941   4.215   5.662   1.454
 6681SOL    HW120942   4.218   5.586   1.519
 6681SOL    HW220943   4.126   5.708   1.460
 6682SOL     OW20944   3.341   5.327   6.692
 6682SOL    HW120945   3.416   5.392   6.703
 6682SOL    HW220946   3.339   5.295   6.598
 6683SOL     OW20947   6.381   3.277   6.814
 6683SOL    HW120948   6.444   3.212   6.858
 6683SOL    HW220949   6.311   3.226   6.765
 6684SOL     OW20950   3.586   0.083   1.534
 6684SOL    HW120951   3.505   0.039   1.575
 6684SOL    HW220952   3.557   0.143   1.460
 6685SOL     OW20953   4.084   3.374   7.022
 6685SOL    HW120954   4.144   3.417   6.954
 6685SOL    HW220955   4.060   3.441   0.070
 6686SOL     OW20956   5.739   5.402   3.712
 6686SOL    HW120957   5.672   5.435   3.646
 6686SOL    HW220958   5.710   5.426   3.805
 6687SOL     OW20959   6.520   2.094   2.007
 6687SOL    HW120960   6.544   2.065   1.915
 6687SOL    HW220961   6.571   2.177   2.031
 6688SOL     OW20962   3.861   5.394   1.168
 6688SOL    HW120963   3.838   5.361   1.077
 6688SOL    HW220964   3.831   5.489   1.178
 6689SOL     OW20965   2.988   5.183   6.111
 6689SOL    HW120966   2.958   5.271   6.073
 6689SOL    HW220967   2.998   5.117   6.037
 6690SOL     OW20968   0.792   0.149   6.043
 6690SOL    HW120969   0.841   0.159   5.956
 6690SOL    HW220970   0.782   0.052   6.065
 6691SOL     OW20971   2.377   1.930   2.678
 6691SOL    HW120972   2.426   1.844   2.676
 6691SOL    HW220973   2.327   1.938   2.765
 6692SOL     OW20974   4.760   5.051   1.531
 6692SOL    HW120975   4.675   5.008   1.563
 6692SOL    HW220976   4.765   5.044   1.431
 6693SOL     OW20977   4.345   1.511   4.562
 6693SOL    HW120978   4.272   1.539   4.624
 6693SOL    HW220979   4.334   1.556   4.474
 6694SOL     OW20980   3.820   5.790   0.951
 6694SOL    HW120981   3.762   5.871   0.938
 6694SOL    HW220982   3.767   5.708   0.933
 6695SOL     OW20983   2.637   2.105   6.729
 6695SOL    HW120984   2.672   2.193   6.762
 6695SOL    HW220985   2.648   2.036   6.800
 6696SOL     OW20986   4.101   3.640   4.471
 6696SOL    HW120987   4.133   3.560   4.421
 6696SOL    HW220988   4.068   3.709   4.406
 6697SOL     OW20989   4.908   2.450   2.246
 6697SOL    HW120990   4.989   2.474   2.300
 6697SOL    HW220991   4.873   2.361   2.276
 6698SOL     OW20992   3.665   4.188   1.684
 6698SOL    HW120993   3.593   4.257   1.675
 6698SOL    HW220994   3.754   4.235   1.693
 6699SOL     OW20995   1.094   4.781   5.426
 6699SOL    HW120996   1.077   4.694   5.472
 6699SOL    HW220997   1.117   4.851   5.494
 6700SOL     OW20998   6.189   0.149   0.510
 6700SOL    HW120999   6.170   0.237   0.552
 6700SOL    HW221000   6.287   0.131   0.513
 6701SOL     OW21001   5.565   6.814   1.664
 6701SOL    HW121002   5.526   6.831   1.755
 6701SOL    HW221003   5.492   6.809   1.596
 6702SOL     OW21004   2.689   2.165   0.754
 6702SOL    HW121005   2.593   2.175   0.779
 6702SOL    HW221006   2.739   2.247   0.782
 6703SOL     OW21007   1.979   2.040   5.967
 6703SOL    HW121008   1.933   2.039   5.878
 6703SOL    HW221009   2.020   1.950   5.984
 6704SOL     OW21010   3.710   1.733   5.270
 6704SOL    HW121011   3.768   1.663   5.229
 6704SOL    HW221012   3.643   1.765   5.203
 6705SOL     OW21013   6.522   3.484   1.548
 6705SOL    HW121014   6.465   3.504   1.627
 6705SOL    HW221015   6.619   3.487   1.575
 6706SOL     OW21016   0.477   6.516   1.542
 6706SOL    HW121017   0.543   6.572   1.593
 6706SOL    HW221018   0.480   6.422   1.576
 6707SOL     OW21019   5.772   0.447   2.313
 6707SOL    HW121020   5.763   0.529   2.255
 6707SOL    HW221021   5.714   0.375   2.277
 6708SOL     OW21022   0.399   4.067   1.487
 6708SOL    HW121023   0.388   3.979   1.533
 6708SOL    HW221024   0.418   4.051   1.390
 6709SOL     OW21025   1.219   4.700   2.265
 6709SOL    HW121026   1.193   4.722   2.359
 6709SOL    HW221027   1.141   4.661   2.217
 6710SOL     OW21028   4.534   0.965   2.129
 6710SOL    HW121029   4.501   0.872   2.144
 6710SOL    HW221030   4.456   1.028   2.128
 6711SOL     OW21031   4.594   6.123   6.470
 6711SOL    HW121032   4.550   6.153   6.554
 6711SOL    HW221033   4.582   6.024   6.460
 6712SOL     OW21034   5.960   3.604   0.553
 6712SOL    HW121035   6.029   3.550   0.505
 6712SOL    HW221036   5.964   3.699   0.521
 6713SOL     OW21037   1.542   0.059   4.222
 6713SOL    HW121038   1.476   7.007   4.212
 6713SOL    HW221039   1.493   0.146   4.230
 6714SOL     OW21040   5.772   1.157   0.488
 6714SOL    HW121041   5.827   1.075   0.502
 6714SOL    HW221042   5.712   1.144   0.409
 6715SOL     OW21043   1.122   0.667   0.854
 6715SOL    HW121044   1.102   0.759   0.888
 6715SOL    HW221045   1.086   0.599   0.917
 6716SOL     OW21046   6.637   5.338   2.507
 6716SOL    HW121047   6.715   5.277   2.516
 6716SOL    HW221048   6.587   5.341   2.594
 6717SOL     OW21049   3.558   2.685   6.415
 6717SOL    HW121050   3.524   2.669   6.322
 6717SOL    HW221051   3.520   2.615   6.476
 6718SOL     OW21052   3.274   0.207   2.544
 6718SOL    HW121053   3.241   0.218   2.450
 6718SOL    HW221054   3.295   0.110   2.560
 6719SOL     OW21055   1.905   0.237   6.337
 6719SOL    HW121056   1.828   0.296   6.361
 6719SOL    HW221057   1.878   0.141   6.350
 6720SOL     OW21058   2.401   0.705   5.797
 6720SOL    HW121059   2.430   0.745   5.884
 6720SOL    HW221060   2.441   0.614   5.787
 6721SOL     OW21061   0.671   1.392   0.424
 6721SOL    HW121062   0.651   1.487   0.452
 6721SOL    HW221063   0.585   1.348   0.396
 6722SOL     OW21064   6.195   3.096   0.090
 6722SOL    HW121065   6.244   3.174   0.127
 6722SOL    HW221066   6.144   3.050   0.163
 6723SOL     OW21067   1.893   2.209   6.151
 6723SOL    HW121068   1.912   2.141   6.080
 6723SOL    HW221069   1.976   2.261   6.171
 6724SOL     OW21070   1.877   3.474   5.795
 6724SOL    HW121071   1.801   3.466   5.859
 6724SOL    HW221072   1.946   3.404   5.816
 6725SOL     OW21073   6.076   3.119   3.279
 6725SOL    HW121074   6.153   3.109   3.341
 6725SOL    HW221075   6.106   3.101   3.185
 6726SOL     OW21076   0.049   0.920   5.545
 6726SOL    HW121077   0.026   0.865   5.465
 6726SOL    HW221078   0.148   0.932   5.552
 6727SOL     OW21079   1.287   4.561   6.024
 6727SOL    HW121080   1.379   4.522   6.016
 6727SOL    HW221081   1.294   4.655   6.058
 6728SOL     OW21082   3.778   2.106   3.543
 6728SOL    HW121083   3.857   2.155   3.504
 6728SOL    HW221084   3.811   2.038   3.608
 6729SOL     OW21085   4.835   1.854   1.141
 6729SOL    HW121086   4.805   1.910   1.063
 6729SOL    HW221087   4.755   1.818   1.189
 6730SOL     OW21088   1.263   1.106   1.118
 6730SOL    HW121089   1.222   1.046   1.187
 6730SOL    HW221090   1.361   1.113   1.133
 6731SOL     OW21091   3.019   6.334   0.728
 6731SOL    HW121092   2.987   6.401   0.660
 6731SOL    HW221093   3.025   6.378   0.818
 6732SOL     OW21094   5.821   5.042   4.351
 6732SOL    HW121095   5.883   5.065   4.277
 6732SOL    HW221096   5.870   4.990   4.421
 6733SOL     OW21097   3.557   5.608   6.457
 6733SOL    HW121098   3.514   5.518   6.464
 6733SOL    HW221099   3.543   5.659   6.541
 6734SOL     OW21100   5.316   1.477   5.355
 6734SOL    HW121101   5.243   1.445   5.416
 6734SOL    HW221102   5.333   1.408   5.284
 6735SOL     OW21103   5.884   3.355   3.588
 6735SOL    HW121104   5.888   3.273   3.531
 6735SOL    HW221105   5.976   3.394   3.596
 6736SOL     OW21106   3.399   3.928   1.116
 6736SOL    HW121107   3.391   3.830   1.136
 6736SOL    HW221108   3.383   3.944   1.019
 6737SOL     OW21109   1.345   2.986   1.546
 6737SOL    HW121110   1.432   2.958   1.586
 6737SOL    HW221111   1.274   2.919   1.568
 6738SOL     OW21112   1.760   5.780   3.523
 6738SOL    HW121113   1.755   5.699   3.464
 6738SOL    HW221114   1.783   5.860   3.468
 6739SOL     OW21115   6.517   0.079   4.099
 6739SOL    HW121116   6.562   0.085   4.188
 6739SOL    HW221117   6.497   7.005   4.078
 6740SOL     OW21118   6.305   6.579   4.483
 6740SOL    HW121119   6.364   6.621   4.551
 6740SOL    HW221120   6.210   6.608   4.499
 6741SOL     OW21121   4.611   1.955   5.630
 6741SOL    HW121122   4.600   2.018   5.708
 6741SOL    HW221123   4.576   1.999   5.548
 6742SOL     OW21124   5.476   4.454   3.207
 6742SOL    HW121125   5.573   4.478   3.203
 6742SOL    HW221126   5.459   4.375   3.149
 6743SOL     OW21127   4.226   4.309   0.194
 6743SOL    HW121128   4.247   4.212   0.178
 6743SOL    HW221129   4.131   4.327   0.168
 6744SOL     OW21130   6.405   5.315   6.213
 6744SOL    HW121131   6.487   5.272   6.250
 6744SOL    HW221132   6.342   5.245   6.182
 6745SOL     OW21133   7.020   6.272   4.048
 6745SOL    HW121134   6.932   6.232   4.073
 6745SOL    HW221135   7.015   6.372   4.055
 6746SOL     OW21136   1.786   1.398   2.850
 6746SOL    HW121137   1.779   1.450   2.765
 6746SOL    HW221138   1.812   1.460   2.924
 6747SOL     OW21139   0.831   6.941   6.587
 6747SOL    HW121140   0.744   6.926   6.635
 6747SOL    HW221141   0.837   6.878   6.510
 6748SOL     OW21142   2.516   1.732   3.965
 6748SOL    HW121143   2.445   1.663   3.949
 6748SOL    HW221144   2.482   1.822   3.937
 6749SOL     OW21145   3.537   4.308   0.832
 6749SOL    HW121146   3.504   4.391   0.786
 6749SOL    HW221147   3.632   4.290   0.804
 6750SOL     OW21148   2.819   1.775   4.572
 6750SOL    HW121149   2.862   1.815   4.491
 6750SOL    HW221150   2.758   1.842   4.614
 6751SOL     OW21151   4.445   6.961   3.522
 6751SOL    HW121152   4.349   6.980   3.498
 6751SOL    HW221153   4.449   6.880   3.579
 6752SOL     OW21154   1.753   6.313   2.885
 6752SOL    HW121155   1.845   6.323   2.847
 6752SOL    HW221156   1.745   6.371   2.966
 6753SOL     OW21157   3.801   2.571   5.376
 6753SOL    HW121158   3.804   2.651   5.315
 6753SOL    HW221159   3.715   2.573   5.428
 6754SOL     OW21160   6.116   0.710   1.221
 6754SOL    HW121161   6.118   0.810   1.222
 6754SOL    HW221162   6.025   0.678   1.249
 6755SOL     OW21163   3.005   4.817   0.885
 6755SOL    HW121164   3.045   4.800   0.975
 6755SOL    HW221165   2.946   4.741   0.859
 6756SOL     OW21166   2.322   1.806   5.696
 6756SOL    HW121167   2.360   1.891   5.732
 6756SOL    HW221168   2.238   1.783   5.746
 6757SOL     OW21169   3.052   0.810   0.547
 6757SOL    HW121170   3.064   0.794   0.449
 6757SOL    HW221171   3.036   0.723   0.593
 6758SOL     OW21172   5.501   2.623   0.884
 6758SOL    HW121173   5.586   2.575   0.906
 6758SOL    HW221174   5.438   2.618   0.962
 6759SOL     OW21175   0.124   3.252   3.077
 6759SOL    HW121176   0.218   3.238   3.046
 6759SOL    HW221177   0.120   3.330   3.139
 6760SOL     OW21178   5.498   2.994   3.033
 6760SOL    HW121179   5.577   3.055   3.039
 6760SOL    HW221180   5.459   2.998   2.941
 6761SOL     OW21181   4.846   2.059   4.351
 6761SOL    HW121182   4.875   1.996   4.424
 6761SOL    HW221183   4.917   2.129   4.339
 6762SOL     OW21184   6.634   5.492   3.576
 6762SOL    HW121185   6.659   5.395   3.581
 6762SOL    HW221186   6.679   5.533   3.497
 6763SOL     OW21187   4.559   5.732   4.876
 6763SOL    HW121188   4.554   5.659   4.808
 6763SOL    HW221189   4.620   5.704   4.950
 6764SOL     OW21190   1.371   5.861   2.154
 6764SOL    HW121191   1.457   5.831   2.113
 6764SOL    HW221192   1.356   5.812   2.240
 6765SOL     OW21193   6.131   5.064   3.766
 6765SOL    HW121194   6.143   5.136   3.834
 6765SOL    HW221195   6.047   5.013   3.784
 6766SOL     OW21196   4.674   6.514   0.368
 6766SOL    HW121197   4.751   6.484   0.311
 6766SOL    HW221198   4.603   6.554   0.311
 6767SOL     OW21199   2.837   0.596   0.309
 6767SOL    HW121200   2.839   0.684   0.356
 6767SOL    HW221201   2.929   0.557   0.307
 6768SOL     OW21202   1.945   0.831   6.612
 6768SOL    HW121203   2.029   0.837   6.558
 6768SOL    HW221204   1.934   0.914   6.667
 6769SOL     OW21205   3.367   2.803   0.554
 6769SOL    HW121206   3.329   2.885   0.512
 6769SOL    HW221207   3.389   2.736   0.483
 6770SOL     OW21208   6.891   0.787   1.908
 6770SOL    HW121209   6.806   0.829   1.875
 6770SOL    HW221210   6.953   0.773   1.831
 6771SOL     OW21211   4.650   2.018   3.069
 6771SOL    HW121212   4.727   2.082   3.070
 6771SOL    HW221213   4.656   1.960   2.989
 6772SOL     OW21214   3.140   1.065   2.433
 6772SOL    HW121215   3.117   1.067   2.335
 6772SOL    HW221216   3.137   1.157   2.470
 6773SOL     OW21217   6.735   4.019   1.488
 6773SOL    HW121218   6.703   3.979   1.574
 6773SOL    HW221219   6.823   3.979   1.463
 6774SOL     OW21220   0.154   2.530   6.042
 6774SOL    HW121221   0.209   2.488   5.970
 6774SOL    HW221222   0.127   2.622   6.014
 6775SOL     OW21223   2.707   3.600   0.627
 6775SOL    HW121224   2.652   3.683   0.637
 6775SOL    HW221225   2.647   3.521   0.617
 6776SOL     OW21226   4.350   4.668   0.372
 6776SOL    HW121227   4.365   4.754   0.322
 6776SOL    HW221228   4.401   4.594   0.328
 6777SOL     OW21229   4.409   4.785   6.288
 6777SOL    HW121230   4.463   4.713   6.243
 6777SOL    HW221231   4.412   4.772   6.387
 6778SOL     OW21232   0.499   3.977   2.080
 6778SOL    HW121233   0.571   4.042   2.055
 6778SOL    HW221234   0.495   3.970   2.180
 6779SOL     OW21235   6.597   4.060   6.884
 6779SOL    HW121236   6.642   4.031   6.969
 6779SOL    HW221237   6.666   4.076   6.814
 6780SOL     OW21238   1.056   2.354   2.306
 6780SOL    HW121239   1.109   2.410   2.370
 6780SOL    HW221240   1.049   2.261   2.341
 6781SOL     OW21241   5.609   6.153   5.251
 6781SOL    HW121242   5.530   6.121   5.303
 6781SOL    HW221243   5.652   6.229   5.299
 6782SOL     OW21244   0.278   0.747   2.608
 6782SOL    HW121245   0.363   0.725   2.656
 6782SOL    HW221246   0.201   0.705   2.655
 6783SOL     OW21247   0.393   6.633   6.341
 6783SOL    HW121248   0.406   6.534   6.349
 6783SOL    HW221249   0.352   6.654   6.252
 6784SOL     OW21250   4.015   4.154   0.398
 6784SOL    HW121251   3.974   4.245   0.394
 6784SOL    HW221252   4.112   4.162   0.421
 6785SOL     OW21253   5.912   4.699   2.058
 6785SOL    HW121254   5.896   4.783   2.005
 6785SOL    HW221255   5.838   4.688   2.125
 6786SOL     OW21256   1.389   1.928   6.714
 6786SOL    HW121257   1.375   2.020   6.678
 6786SOL    HW221258   1.356   1.860   6.648
 6787SOL     OW21259   2.009   3.709   0.828
 6787SOL    HW121260   1.960   3.717   0.914
 6787SOL    HW221261   1.978   3.780   0.765
 6788SOL     OW21262   2.794   3.807   1.651
 6788SOL    HW121263   2.823   3.782   1.743
 6788SOL    HW221264   2.696   3.824   1.650
 6789SOL     OW21265   0.489   6.760   2.185
 6789SOL    HW121266   0.476   6.700   2.264
 6789SOL    HW221267   0.442   6.720   2.105
 6790SOL     OW21268   1.553   4.008   0.114
 6790SOL    HW121269   1.627   3.950   0.149
 6790SOL    HW221270   1.465   3.972   0.145
 6791SOL     OW21271   3.961   2.447   1.008
 6791SOL    HW121272   4.037   2.506   0.980
 6791SOL    HW221273   3.938   2.466   1.103
 6792SOL     OW21274   6.806   5.847   6.222
 6792SOL    HW121275   6.880   5.789   6.188
 6792SOL    HW221276   6.825   5.943   6.200
 6793SOL     OW21277   0.748   2.452   0.688
 6793SOL    HW121278   0.770   2.366   0.642
 6793SOL    HW221279   0.809   2.525   0.656
 6794SOL     OW21280   5.363   1.328   5.143
 6794SOL    HW121281   5.420   1.375   5.076
 6794SOL    HW221282   5.377   1.229   5.135
 6795SOL     OW21283   2.512   5.950   0.806
 6795SOL    HW121284   2.586   5.888   0.780
 6795SOL    HW221285   2.445   5.901   0.862
 6796SOL     OW21286   5.812   1.056   2.277
 6796SOL    HW121287   5.902   1.022   2.248
 6796SOL    HW221288   5.747   1.047   2.202
 6797SOL     OW21289   5.096   3.783   1.558
 6797SOL    HW121290   5.052   3.755   1.474
 6797SOL    HW221291   5.029   3.787   1.632
 6798SOL     OW21292   5.580   5.470   2.790
 6798SOL    HW121293   5.533   5.555   2.811
 6798SOL    HW221294   5.537   5.426   2.712
 6799SOL     OW21295   5.790   5.764   0.325
 6799SOL    HW121296   5.775   5.852   0.281
 6799SOL    HW221297   5.835   5.777   0.413
 6800SOL     OW21298   2.099   4.488   0.659
 6800SOL    HW121299   2.132   4.419   0.724
 6800SOL    HW221300   2.034   4.549   0.705
 6801SOL     OW21301   1.627   1.229   2.152
 6801SOL    HW121302   1.712   1.177   2.142
 6801SOL    HW221303   1.554   1.169   2.183
 6802SOL     OW21304   2.501   6.044   0.441
 6802SOL    HW121305   2.594   6.073   0.418
 6802SOL    HW221306   2.440   6.123   0.436
 6803SOL     OW21307   4.742   2.576   6.562
 6803SOL    HW121308   4.693   2.505   6.512
 6803SOL    HW221309   4.692   2.663   6.553
 6804SOL     OW21310   2.363   5.612   3.395
 6804SOL    HW121311   2.431   5.664   3.446
 6804SOL    HW221312   2.278   5.608   3.448
 6805SOL     OW21313   5.517   6.437   4.595
 6805SOL    HW121314   5.508   6.534   4.620
 6805SOL    HW221315   5.608   6.404   4.618
 6806SOL     OW21316   5.107   1.159   3.606
 6806SOL    HW121317   5.083   1.129   3.514
 6806SOL    HW221318   5.089   1.256   3.616
 6807SOL     OW21319   2.374   2.888   6.968
 6807SOL    HW121320   2.338   2.950   0.015
 6807SOL    HW221321   2.308   2.814   6.953
 6808SOL     OW21322   0.633   2.986   5.439
 6808SOL    HW121323   0.649   2.982   5.538
 6808SOL    HW221324   0.552   2.932   5.417
 6809SOL     OW21325   2.010   4.260   0.137
 6809SOL    HW121326   1.946   4.270   0.213
 6809SOL    HW221327   2.071   4.339   0.134
 6810SOL     OW21328   1.293   0.499   1.876
 6810SOL    HW121329   1.365   0.430   1.872
 6810SOL    HW221330   1.332   0.588   1.899
 6811SOL     OW21331   5.065   4.234   0.437
 6811SOL    HW121332   5.072   4.311   0.373
 6811SOL    HW221333   5.144   4.173   0.424
 6812SOL     OW21334   3.740   3.190   3.393
 6812SOL    HW121335   3.713   3.214   3.486
 6812SOL    HW221336   3.723   3.093   3.377
 6813SOL     OW21337   4.709   1.584   1.609
 6813SOL    HW121338   4.668   1.498   1.576
 6813SOL    HW221339   4.672   1.660   1.557
 6814SOL     OW21340   3.266   2.805   1.021
 6814SOL    HW121341   3.174   2.768   1.027
 6814SOL    HW221342   3.318   2.754   0.952
 6815SOL     OW21343   3.020   6.848   1.529
 6815SOL    HW121344   2.949   6.779   1.512
 6815SOL    HW221345   3.109   6.812   1.501
 6816SOL     OW21346   6.618   5.146   0.110
 6816SOL    HW121347   6.643   5.118   0.017
 6816SOL    HW221348   6.581   5.067   0.159
 6817SOL     OW21349   6.669   1.577   5.322
 6817SOL    HW121350   6.665   1.648   5.392
 6817SOL    HW221351   6.662   1.487   5.366
 6818SOL     OW21352   2.713   6.016   1.892
 6818SOL    HW121353   2.619   6.037   1.920
 6818SOL    HW221354   2.754   5.952   1.958
 6819SOL     OW21355   3.743   0.941   3.697
 6819SOL    HW121356   3.659   0.977   3.737
 6819SOL    HW221357   3.722   0.861   3.641
 6820SOL     OW21358   1.308   4.803   3.644
 6820SOL    HW121359   1.235   4.736   3.657
 6820SOL    HW221360   1.383   4.782   3.707
 6821SOL     OW21361   2.699   2.099   5.151
 6821SOL    HW121362   2.705   2.147   5.239
 6821SOL    HW221363   2.637   2.021   5.160
 6822SOL     OW21364   5.626   1.746   6.242
 6822SOL    HW121365   5.696   1.787   6.184
 6822SOL    HW221366   5.540   1.795   6.229
 6823SOL     OW21367   3.836   3.627   4.064
 6823SOL    HW121368   3.921   3.579   4.042
 6823SOL    HW221369   3.758   3.572   4.035
 6824SOL     OW21370   0.591   2.613   6.177
 6824SOL    HW121371   0.520   2.683   6.175
 6824SOL    HW221372   0.617   2.594   6.272
 6825SOL     OW21373   4.819   0.135   2.312
 6825SOL    HW121374   4.762   0.159   2.391
 6825SOL    HW221375   4.793   0.044   2.279
 6826SOL     OW21376   2.111   3.410   2.810
 6826SOL    HW121377   2.105   3.501   2.770
 6826SOL    HW221378   2.169   3.352   2.752
 6827SOL     OW21379   5.010   5.761   0.226
 6827SOL    HW121380   5.088   5.812   0.260
 6827SOL    HW221381   4.941   5.751   0.298
 6828SOL     OW21382   1.601   2.415   1.639
 6828SOL    HW121383   1.682   2.474   1.648
 6828SOL    HW221384   1.607   2.340   1.705
 6829SOL     OW21385   5.092   6.762   3.692
 6829SOL    HW121386   5.138   6.706   3.760
 6829SOL    HW221387   5.158   6.793   3.624
 6830SOL     OW21388   5.779   1.384   2.977
 6830SOL    HW121389   5.749   1.369   2.883
 6830SOL    HW221390   5.719   1.450   3.021
 6831SOL     OW21391   0.847   0.585   6.136
 6831SOL    HW121392   0.826   0.509   6.198
 6831SOL    HW221393   0.762   0.628   6.106
 6832SOL     OW21394   2.924   4.309   1.368
 6832SOL    HW121395   2.947   4.217   1.337
 6832SOL    HW221396   2.831   4.309   1.406
 6833SOL     OW21397   4.181   5.327   0.019
 6833SOL    HW121398   4.277   5.349   0.005
 6833SOL    HW221399   4.125   5.409   0.005
 6834SOL     OW21400   4.111   6.612   1.824
 6834SOL    HW121401   4.122   6.650   1.732
 6834SOL    HW221402   4.154   6.672   1.891
 6835SOL     OW21403   4.296   0.104   5.188
 6835SOL    HW121404   4.207   0.144   5.167
 6835SOL    HW221405   4.318   0.034   5.120
 6836SOL     OW21406   3.193   6.238   0.538
 6836SOL    HW121407   3.274   6.195   0.579
 6836SOL    HW221408   3.120   6.242   0.606
 6837SOL     OW21409   1.748   3.201   2.110
 6837SOL    HW121410   1.708   3.110   2.120
 6837SOL    HW221411   1.830   3.196   2.053
 6838SOL     OW21412   1.764   0.847   0.980
 6838SOL    HW121413   1.815   0.933   0.973
 6838SOL    HW221414   1.720   0.843   1.070
 6839SOL     OW21415   4.786   0.950   0.678
 6839SOL    HW121416   4.772   0.945   0.776
 6839SOL    HW221417   4.822   0.863   0.645
 6840SOL     OW21418   2.206   2.139   5.695
 6840SOL    HW121419   2.154   2.155   5.612
 6840SOL    HW221420   2.147   2.095   5.764
 6841SOL     OW21421   6.010   3.363   6.002
 6841SOL    HW121422   6.050   3.294   5.941
 6841SOL    HW221423   5.970   3.318   6.082
 6842SOL     OW21424   2.174   4.956   1.430
 6842SOL    HW121425   2.093   4.923   1.381
 6842SOL    HW221426   2.208   4.884   1.490
 6843SOL     OW21427   5.174   0.263   6.386
 6843SOL    HW121428   5.150   0.186   6.444
 6843SOL    HW221429   5.107   0.336   6.397
 6844SOL     OW21430   5.562   0.761   4.005
 6844SOL    HW121431   5.533   0.856   4.000
 6844SOL    HW221432   5.492   0.703   3.963
 6845SOL     OW21433   5.654   2.813   2.811
 6845SOL    HW121434   5.653   2.721   2.851
 6845SOL    HW221435   5.680   2.879   2.882
 6846SOL     OW21436   2.959   4.073   6.963
 6846SOL    HW121437   3.055   4.097   6.954
 6846SOL    HW221438   2.907   4.151   6.997
 6847SOL     OW21439   6.640   3.887   4.604
 6847SOL    HW121440   6.662   3.832   4.523
 6847SOL    HW221441   6.713   3.877   4.672
 6848SOL     OW21442   5.329   4.111   4.172
 6848SOL    HW121443   5.239   4.068   4.180
 6848SOL    HW221444   5.400   4.045   4.197
 6849SOL     OW21445   3.532   4.377   5.694
 6849SOL    HW121446   3.540   4.282   5.667
 6849SOL    HW221447   3.447   4.415   5.656
 6850SOL     OW21448   4.257   2.323   3.217
 6850SOL    HW121449   4.198   2.325   3.136
 6850SOL    HW221450   4.310   2.238   3.218
 6851SOL     OW21451   2.102   2.945   2.865
 6851SOL    HW121452   2.156   2.925   2.783
 6851SOL    HW221453   2.164   2.973   2.939
 6852SOL     OW21454   2.733   5.440   1.087
 6852SOL    HW121455   2.706   5.365   1.146
 6852SOL    HW221456   2.830   5.462   1.101
 6853SOL     OW21457   5.363   3.261   6.165
 6853SOL    HW121458   5.402   3.341   6.211
 6853SOL    HW221459   5.269   3.281   6.138
 6854SOL     OW21460   5.113   6.542   5.577
 6854SOL    HW121461   5.109   6.530   5.478
 6854SOL    HW221462   5.180   6.612   5.599
 6855SOL     OW21463   4.202   5.689   3.493
 6855SOL    HW121464   4.291   5.687   3.447
 6855SOL    HW221465   4.130   5.691   3.424
 6856SOL     OW21466   0.510   2.393   6.056
 6856SOL    HW121467   0.554   2.481   6.071
 6856SOL    HW221468   0.426   2.406   6.002
 6857SOL     OW21469   0.984   3.202   6.714
 6857SOL    HW121470   1.054   3.271   6.731
 6857SOL    HW221471   0.963   3.154   6.800
 6858SOL     OW21472   3.306   4.203   1.693
 6858SOL    HW121473   3.210   4.229   1.692
 6858SOL    HW221474   3.363   4.285   1.702
 6859SOL     OW21475   0.804   1.495   1.820
 6859SOL    HW121476   0.893   1.490   1.775
 6859SOL    HW221477   0.766   1.403   1.832
 6860SOL     OW21478   0.021   4.881   2.104
 6860SOL    HW121479   7.002   4.851   2.190
 6860SOL    HW221480   6.972   4.891   2.035
 6861SOL     OW21481   4.672   3.272   5.721
 6861SOL    HW121482   4.618   3.215   5.782
 6861SOL    HW221483   4.631   3.272   5.630
 6862SOL     OW21484   0.844   4.501   6.156
 6862SOL    HW121485   0.853   4.584   6.103
 6862SOL    HW221486   0.929   4.483   6.205
 6863SOL     OW21487   6.785   6.742   4.625
 6863SOL    HW121488   6.810   6.801   4.703
 6863SOL    HW221489   6.864   6.731   4.565
 6864SOL     OW21490   1.623   3.905   6.066
 6864SOL    HW121491   1.557   3.870   6.133
 6864SOL    HW221492   1.709   3.855   6.074
 6865SOL     OW21493   2.022   0.835   5.044
 6865SOL    HW121494   2.015   0.756   4.984
 6865SOL    HW221495   2.105   0.886   5.023
 6866SOL     OW21496   6.630   4.417   2.025
 6866SOL    HW121497   6.583   4.490   2.075
 6866SOL    HW221498   6.685   4.364   2.089
 6867SOL     OW21499   1.586   4.178   0.836
 6867SOL    HW121500   1.561   4.197   0.931
 6867SOL    HW221501   1.668   4.121   0.833
 6868SOL     OW21502   1.847   5.860   5.617
 6868SOL    HW121503   1.800   5.834   5.701
 6868SOL    HW221504   1.942   5.882   5.637
 6869SOL     OW21505   3.677   6.880   5.662
 6869SOL    HW121506   3.579   6.892   5.680
 6869SOL    HW221507   3.730   6.919   5.738
 6870SOL     OW21508   0.891   3.351   0.142
 6870SOL    HW121509   0.901   3.274   0.206
 6870SOL    HW221510   0.933   3.327   0.055
 6871SOL     OW21511   6.872   3.506   2.092
 6871SOL    HW121512   6.789   3.472   2.137
 6871SOL    HW221513   6.855   3.596   2.054
 6872SOL     OW21514   1.427   2.680   2.236
 6872SOL    HW121515   1.475   2.659   2.150
 6872SOL    HW221516   1.490   2.669   2.313
 6873SOL     OW21517   1.240   4.043   4.109
 6873SOL    HW121518   1.208   4.076   4.198
 6873SOL    HW221519   1.320   3.985   4.122
 6874SOL     OW21520   6.024   5.732   2.790
 6874SOL    HW121521   6.071   5.781   2.864
 6874SOL    HW221522   6.012   5.794   2.713
 6875SOL     OW21523   1.639   2.800   1.644
 6875SOL    HW121524   1.701   2.861   1.693
 6875SOL    HW221525   1.642   2.820   1.546
 6876SOL     OW21526   3.432   0.129   3.514
 6876SOL    HW121527   3.363   0.057   3.508
 6876SOL    HW221528   3.518   0.096   3.476
 6877SOL     OW21529   2.691   4.396   1.694
 6877SOL    HW121530   2.636   4.480   1.691
 6877SOL    HW221531   2.778   4.415   1.741
 6878SOL     OW21532   2.192   0.992   3.802
 6878SOL    HW121533   2.140   0.997   3.888
 6878SOL    HW221534   2.289   0.987   3.822
 6879SOL     OW21535   2.419   2.253   0.368
 6879SOL    HW121536   2.513   2.286   0.377
 6879SOL    HW221537   2.409   2.205   0.281
 6880SOL     OW21538   1.174   5.745   6.248
 6880SOL    HW121539   1.142   5.757   6.342
 6880SOL    HW221540   1.229   5.662   6.242
 6881SOL     OW21541   1.917   3.939   0.506
 6881SOL    HW121542   1.832   3.889   0.487
 6881SOL    HW221543   1.968   3.953   0.421
 6882SOL     OW21544   2.628   0.485   0.082
 6882SOL    HW121545   2.721   0.465   0.054
 6882SOL    HW221546   2.610   0.443   0.171
 6883SOL     OW21547   5.294   0.699   6.318
 6883SOL    HW121548   5.316   0.675   6.413
 6883SOL    HW221549   5.309   0.797   6.305
 6884SOL     OW21550   1.844   4.227   2.881
 6884SOL    HW121551   1.881   4.316   2.908
 6884SOL    HW221552   1.787   4.190   2.954
 6885SOL     OW21553   4.948   4.682   4.216
 6885SOL    HW121554   4.944   4.649   4.122
 6885SOL    HW221555   4.991   4.613   4.274
 6886SOL     OW21556   5.875   1.438   5.228
 6886SOL    HW121557   5.859   1.507   5.298
 6886SOL    HW221558   5.941   1.371   5.262
 6887SOL     OW21559   5.040   6.153   6.641
 6887SOL    HW121560   5.026   6.131   6.544
 6887SOL    HW221561   4.953   6.150   6.689
 6888SOL     OW21562   5.766   4.095   6.307
 6888SOL    HW121563   5.700   4.052   6.369
 6888SOL    HW221564   5.845   4.127   6.360
 6889SOL     OW21565   1.385   2.986   5.599
 6889SOL    HW121566   1.439   2.943   5.527
 6889SOL    HW221567   1.445   3.037   5.660
 6890SOL     OW21568   3.744   5.686   3.040
 6890SOL    HW121569   3.661   5.742   3.043
 6890SOL    HW221570   3.761   5.647   3.131
 6891SOL     OW21571   2.130   2.982   1.235
 6891SOL    HW121572   2.155   2.885   1.228
 6891SOL    HW221573   2.179   3.023   1.312
 6892SOL     OW21574   3.196   1.496   4.420
 6892SOL    HW121575   3.285   1.501   4.374
 6892SOL    HW221576   3.137   1.431   4.373
 6893SOL     OW21577   6.136   3.571   6.667
 6893SOL    HW121578   6.094   3.488   6.702
 6893SOL    HW221579   6.235   3.564   6.674
 6894SOL     OW21580   5.433   4.103   1.184
 6894SOL    HW121581   5.385   4.038   1.244
 6894SOL    HW221582   5.380   4.188   1.179
 6895SOL     OW21583   1.261   5.927   0.820
 6895SOL    HW121584   1.239   5.892   0.729
 6895SOL    HW221585   1.324   5.864   0.866
 6896SOL     OW21586   3.486   1.855   4.324
 6896SOL    HW121587   3.442   1.906   4.250
 6896SOL    HW221588   3.471   1.903   4.411
 6897SOL     OW21589   4.997   3.744   5.090
 6897SOL    HW121590   4.950   3.656   5.091
 6897SOL    HW221591   5.069   3.744   5.159
 6898SOL     OW21592   2.320   1.217   1.272
 6898SOL    HW121593   2.319   1.299   1.329
 6898SOL    HW221594   2.377   1.147   1.315
 6899SOL     OW21595   5.626   5.840   2.303
 6899SOL    HW121596   5.654   5.747   2.325
 6899SOL    HW221597   5.639   5.899   2.383
 6900SOL     OW21598   6.809   4.316   6.273
 6900SOL    HW121599   6.806   4.397   6.332
 6900SOL    HW221600   6.793   4.235   6.329
 6901SOL     OW21601   4.704   4.714   6.819
 6901SOL    HW121602   4.738   4.790   6.873
 6901SOL    HW221603   4.746   4.717   6.728
 6902SOL     OW21604   6.968   6.033   6.001
 6902SOL    HW121605   6.993   6.014   6.096
 6902SOL    HW221606   6.895   6.101   5.999
 6903SOL     OW21607   2.456   4.778   5.288
 6903SOL    HW121608   2.381   4.779   5.222
 6903SOL    HW221609   2.514   4.699   5.272
 6904SOL     OW21610   0.488   6.119   5.259
 6904SOL    HW121611   0.488   6.217   5.243
 6904SOL    HW221612   0.515   6.100   5.353
 6905SOL     OW21613   5.263   5.354   0.011
 6905SOL    HW121614   5.205   5.312   0.080
 6905SOL    HW221615   5.351   5.381   0.052
 6906SOL     OW21616   3.889   1.526   3.680
 6906SOL    HW121617   3.862   1.621   3.695
 6906SOL    HW221618   3.841   1.467   3.745
 6907SOL     OW21619   6.327   2.111   1.488
 6907SOL    HW121620   6.321   2.061   1.575
 6907SOL    HW221621   6.395   2.185   1.498
 6908SOL     OW21622   2.444   4.384   6.874
 6908SOL    HW121623   2.405   4.412   6.786
 6908SOL    HW221624   2.514   4.314   6.858
 6909SOL     OW21625   5.309   4.905   1.957
 6909SOL    HW121626   5.291   5.000   1.982
 6909SOL    HW221627   5.346   4.901   1.864
 6910SOL     OW21628   1.419   3.289   2.877
 6910SOL    HW121629   1.432   3.203   2.827
 6910SOL    HW221630   1.508   3.325   2.905
 6911SOL     OW21631   3.564   6.761   5.427
 6911SOL    HW121632   3.625   6.816   5.485
 6911SOL    HW221633   3.497   6.821   5.383
 6912SOL     OW21634   1.970   3.207   6.371
 6912SOL    HW121635   2.029   3.278   6.333
 6912SOL    HW221636   1.891   3.249   6.415
 6913SOL     OW21637   5.181   5.954   5.306
 6913SOL    HW121638   5.117   5.935   5.380
 6913SOL    HW221639   5.176   5.881   5.238
 6914SOL     OW21640   6.324   3.573   1.730
 6914SOL    HW121641   6.271   3.601   1.810
 6914SOL    HW221642   6.294   3.625   1.650
 6915SOL     OW21643   1.009   3.175   1.913
 6915SOL    HW121644   1.065   3.226   1.848
 6915SOL    HW221645   0.930   3.230   1.939
 6916SOL     OW21646   5.239   0.885   6.031
 6916SOL    HW121647   5.288   0.799   6.021
 6916SOL    HW221648   5.173   0.877   6.106
 6917SOL     OW21649   4.901   5.754   1.635
 6917SOL    HW121650   4.991   5.715   1.655
 6917SOL    HW221651   4.870   5.811   1.711
 6918SOL     OW21652   0.569   3.042   2.199
 6918SOL    HW121653   0.606   3.058   2.108
 6918SOL    HW221654   0.563   2.944   2.216
 6919SOL     OW21655   6.093   6.970   2.695
 6919SOL    HW121656   6.049   0.036   2.680
 6919SOL    HW221657   6.144   6.971   2.781
 6920SOL     OW21658   4.752   0.459   5.037
 6920SOL    HW121659   4.754   0.375   4.982
 6920SOL    HW221660   4.674   0.456   5.099
 6921SOL     OW21661   4.361   0.048   4.395
 6921SOL    HW121662   4.399   7.014   4.322
 6921SOL    HW221663   4.352   0.143   4.364
 6922SOL     OW21664   2.085   6.237   4.260
 6922SOL    HW121665   2.079   6.153   4.314
 6922SOL    HW221666   2.154   6.297   4.300
 6923SOL     OW21667   6.035   6.213   2.322
 6923SOL    HW121668   6.026   6.116   2.303
 6923SOL    HW221669   5.948   6.250   2.355
 6924SOL     OW21670   3.250   6.343   1.434
 6924SOL    HW121671   3.349   6.329   1.435
 6924SOL    HW221672   3.206   6.276   1.494
 6925SOL     OW21673   5.188   6.461   6.412
 6925SOL    HW121674   5.284   6.453   6.386
 6925SOL    HW221675   5.138   6.380   6.380
 6926SOL     OW21676   1.977   1.474   0.467
 6926SOL    HW121677   1.879   1.455   0.454
 6926SOL    HW221678   1.998   1.474   0.564
 6927SOL     OW21679   3.680   0.871   0.711
 6927SOL    HW121680   3.726   0.789   0.678
 6927SOL    HW221681   3.683   0.942   0.641
 6928SOL     OW21682   5.249   5.321   0.693
 6928SOL    HW121683   5.245   5.417   0.721
 6928SOL    HW221684   5.193   5.308   0.612
 6929SOL     OW21685   5.120   4.991   1.406
 6929SOL    HW121686   5.147   5.026   1.496
 6929SOL    HW221687   5.199   4.952   1.360
 6930SOL     OW21688   0.689   0.870   0.341
 6930SOL    HW121689   0.739   0.955   0.356
 6930SOL    HW221690   0.753   0.795   0.323
 6931SOL     OW21691   2.209   1.952   1.379
 6931SOL    HW121692   2.275   1.941   1.304
 6931SOL    HW221693   2.195   2.049   1.397
 6932SOL     OW21694   4.833   5.076   0.208
 6932SOL    HW121695   4.796   4.986   0.234
 6932SOL    HW221696   4.787   5.147   0.260
 6933SOL     OW21697   3.428   5.940   6.126
 6933SOL    HW121698   3.348   6.000   6.127
 6933SOL    HW221699   3.419   5.873   6.200
 6934SOL     OW21700   4.992   3.864   6.618
 6934SOL    HW121701   4.933   3.804   6.565
 6934SOL    HW221702   4.938   3.907   6.691
 6935SOL     OW21703   4.932   5.606   1.960
 6935SOL    HW121704   4.998   5.634   1.890
 6935SOL    HW221705   4.977   5.549   2.028
 6936SOL     OW21706   0.499   2.265   4.285
 6936SOL    HW121707   0.532   2.346   4.235
 6936SOL    HW221708   0.546   2.259   4.373
 6937SOL     OW21709   5.785   6.427   0.447
 6937SOL    HW121710   5.702   6.466   0.486
 6937SOL    HW221711   5.862   6.487   0.466
 6938SOL     OW21712   0.403   1.062   4.424
 6938SOL    HW121713   0.311   1.088   4.396
 6938SOL    HW221714   0.469   1.096   4.356
 6939SOL     OW21715   6.384   4.985   3.342
 6939SOL    HW121716   6.374   5.084   3.334
 6939SOL    HW221717   6.293   4.942   3.337
 6940SOL     OW21718   4.495   6.517   0.601
 6940SOL    HW121719   4.396   6.505   0.606
 6940SOL    HW221720   4.524   6.513   0.506
 6941SOL     OW21721   2.932   3.816   2.245
 6941SOL    HW121722   2.926   3.717   2.230
 6941SOL    HW221723   2.866   3.862   2.185
 6942SOL     OW21724   6.280   6.437   1.846
 6942SOL    HW121725   6.245   6.344   1.855
 6942SOL    HW221726   6.366   6.435   1.795
 6943SOL     OW21727   3.452   4.631   0.006
 6943SOL    HW121728   3.503   4.716   7.019
 6943SOL    HW221729   3.494   4.574   0.077
 6944SOL     OW21730   0.933   4.168   6.168
 6944SOL    HW121731   0.884   4.243   6.213
 6944SOL    HW221732   0.889   4.146   6.081
 6945SOL     OW21733   6.053   2.065   0.579
 6945SOL    HW121734   5.995   2.051   0.498
 6945SOL    HW221735   6.002   2.039   0.661
 6946SOL     OW21736   3.990   5.815   2.308
 6946SOL    HW121737   3.993   5.719   2.280
 6946SOL    HW221738   4.083   5.849   2.321
 6947SOL     OW21739   4.658   5.051   6.538
 6947SOL    HW121740   4.734   5.110   6.513
 6947SOL    HW221741   4.572   5.099   6.523
 6948SOL     OW21742   0.345   6.211   1.225
 6948SOL    HW121743   0.248   6.233   1.219
 6948SOL    HW221744   0.396   6.266   1.158
 6949SOL     OW21745   2.780   2.388   3.394
 6949SOL    HW121746   2.814   2.294   3.393
 6949SOL    HW221747   2.774   2.423   3.301
 6950SOL     OW21748   1.303   6.953   4.293
 6950SOL    HW121749   1.242   6.917   4.223
 6950SOL    HW221750   1.276   6.916   4.382
 6951SOL     OW21751   6.511   5.312   6.843
 6951SOL    HW121752   6.430   5.317   6.784
 6951SOL    HW221753   6.544   5.405   6.860
 6952SOL     OW21754   2.856   5.182   2.773
 6952SOL    HW121755   2.862   5.275   2.809
 6952SOL    HW221756   2.933   5.164   2.712
 6953SOL     OW21757   5.042   0.002   0.599
 6953SOL    HW121758   5.042   0.005   0.499
 6953SOL    HW221759   5.054   6.929   0.629
 6954SOL     OW21760   0.563   3.619   1.394
 6954SOL    HW121761   0.623   3.618   1.474
 6954SOL    HW221762   0.525   3.528   1.378
 6955SOL     OW21763   5.599   0.085   2.462
 6955SOL    HW121764   5.518   0.141   2.478
 6955SOL    HW221765   5.657   0.086   2.544
 6956SOL     OW21766   5.993   5.925   1.828
 6956SOL    HW121767   5.959   5.886   1.913
 6956SOL    HW221768   5.916   5.941   1.766
 6957SOL     OW21769   5.450   6.041   6.360
 6957SOL    HW121770   5.407   6.046   6.450
 6957SOL    HW221771   5.443   5.948   6.324
 6958SOL     OW21772   3.586   3.522   3.963
 6958SOL    HW121773   3.648   3.463   3.910
 6958SOL    HW221774   3.491   3.497   3.944
 6959SOL     OW21775   1.113   3.862   2.937
 6959SOL    HW121776   1.040   3.911   2.890
 6959SOL    HW221777   1.192   3.851   2.876
 6960SOL     OW21778   1.504   4.910   0.734
 6960SOL    HW121779   1.459   4.904   0.823
 6960SOL    HW221780   1.435   4.906   0.662
 6961SOL     OW21781   4.071   1.456   4.914
 6961SOL    HW121782   4.002   1.422   4.849
 6961SOL    HW221783   4.158   1.409   4.898
 6962SOL     OW21784   3.702   6.469   0.130
 6962SOL    HW121785   3.773   6.539   0.134
 6962SOL    HW221786   3.743   6.379   0.144
 6963SOL     OW21787   5.110   6.344   0.291
 6963SOL    HW121788   5.134   6.441   0.288
 6963SOL    HW221789   5.150   6.302   0.373
 6964SOL     OW21790   2.764   0.191   5.793
 6964SOL    HW121791   2.802   0.215   5.704
 6964SOL    HW221792   2.756   0.273   5.849
 6965SOL     OW21793   1.356   2.231   0.556
 6965SOL    HW121794   1.430   2.223   0.623
 6965SOL    HW221795   1.393   2.265   0.469
 6966SOL     OW21796   1.073   0.313   2.226
 6966SOL    HW121797   1.157   0.280   2.184
 6966SOL    HW221798   1.031   0.383   2.169
 6967SOL     OW21799   3.672   1.888   6.034
 6967SOL    HW121800   3.586   1.865   5.988
 6967SOL    HW221801   3.706   1.808   6.084
 6968SOL     OW21802   3.446   6.961   3.220
 6968SOL    HW121803   3.496   0.005   3.164
 6968SOL    HW221804   3.348   6.973   3.207
 6969SOL     OW21805   2.602   1.891   1.257
 6969SOL    HW121806   2.597   1.810   1.315
 6969SOL    HW221807   2.694   1.930   1.261
 6970SOL     OW21808   3.133   4.859   6.266
 6970SOL    HW121809   3.082   4.834   6.184
 6970SOL    HW221810   3.070   4.893   6.336
 6971SOL     OW21811   5.319   4.345   1.173
 6971SOL    HW121812   5.356   4.437   1.159
 6971SOL    HW221813   5.233   4.351   1.223
 6972SOL     OW21814   4.903   3.610   2.980
 6972SOL    HW121815   4.973   3.580   3.045
 6972SOL    HW221816   4.825   3.548   2.984
 6973SOL     OW21817   1.317   1.861   2.547
 6973SOL    HW121818   1.369   1.775   2.549
 6973SOL    HW221819   1.224   1.842   2.518
 6974SOL     OW21820   3.009   3.859   2.501
 6974SOL    HW121821   2.981   3.854   2.405
 6974SOL    HW221822   3.035   3.769   2.534
 6975SOL     OW21823   3.097   5.786   4.941
 6975SOL    HW121824   2.997   5.779   4.951
 6975SOL    HW221825   3.120   5.873   4.898
 6976SOL     OW21826   5.029   4.222   5.285
 6976SOL    HW121827   4.951   4.228   5.346
 6976SOL    HW221828   5.013   4.148   5.219
 6977SOL     OW21829   4.174   4.294   1.615
 6977SOL    HW121830   4.230   4.211   1.624
 6977SOL    HW221831   4.169   4.320   1.518
 6978SOL     OW21832   5.819   3.396   1.134
 6978SOL    HW121833   5.855   3.365   1.046
 6978SOL    HW221834   5.759   3.325   1.172
 6979SOL     OW21835   1.061   3.670   1.414
 6979SOL    HW121836   1.067   3.571   1.400
 6979SOL    HW221837   1.131   3.716   1.360
 6980SOL     OW21838   1.426   0.349   2.959
 6980SOL    HW121839   1.487   0.338   2.880
 6980SOL    HW221840   1.357   0.277   2.959
 6981SOL     OW21841   3.970   3.483   6.749
 6981SOL    HW121842   4.001   3.491   6.654
 6981SOL    HW221843   4.047   3.503   6.810
 6982SOL     OW21844   1.072   1.148   3.864
 6982SOL    HW121845   0.976   1.149   3.893
 6982SOL    HW221846   1.122   1.083   3.921
 6983SOL     OW21847   4.498   0.897   4.603
 6983SOL    HW121848   4.469   0.878   4.697
 6983SOL    HW221849   4.453   0.980   4.571
 6984SOL     OW21850   1.065   2.637   2.942
 6984SOL    HW121851   1.151   2.662   2.897
 6984SOL    HW221852   0.989   2.660   2.882
 6985SOL     OW21853   0.088   4.365   6.969
 6985SOL    HW121854   0.130   4.428   6.904
 6985SOL    HW221855   0.082   4.274   6.929
 6986SOL     OW21856   4.050   5.902   6.195
 6986SOL    HW121857   4.142   5.884   6.230
 6986SOL    HW221858   4.048   5.992   6.151
 6987SOL     OW21859   7.002   1.692   5.719
 6987SOL    HW121860   0.062   1.742   5.745
 6987SOL    HW221861   6.991   1.610   5.776
 6988SOL     OW21862   2.980   0.732   6.326
 6988SOL    HW121863   3.020   0.789   6.254
 6988SOL    HW221864   2.984   0.636   6.298
 6989SOL     OW21865   0.069   4.414   2.240
 6989SOL    HW121866   7.017   4.481   2.247
 6989SOL    HW221867   0.071   4.358   2.322
 6990SOL     OW21868   3.708   2.825   2.090
 6990SOL    HW121869   3.614   2.843   2.059
 6990SOL    HW221870   3.710   2.743   2.146
 6991SOL     OW21871   5.372   4.784   2.787
 6991SOL    HW121872   5.422   4.737   2.859
 6991SOL    HW221873   5.386   4.883   2.795
 6992SOL     OW21874   0.348   7.007   0.314
 6992SOL    HW121875   0.334   7.001   0.215
 6992SOL    HW221876   0.302   0.066   0.349
 6993SOL     OW21877   5.614   0.965   1.765
 6993SOL    HW121878   5.544   1.009   1.708
 6993SOL    HW221879   5.699   1.016   1.759
 6994SOL     OW21880   1.503   6.959   3.595
 6994SOL    HW121881   1.477   6.961   3.692
 6994SOL    HW221882   1.597   6.926   3.586
 6995SOL     OW21883   0.712   3.844   0.234
 6995SOL    HW121884   0.771   3.924   0.233
 6995SOL    HW221885   0.764   3.763   0.208
 6996SOL     OW21886   1.768   0.395   6.675
 6996SOL    HW121887   1.697   0.455   6.636
 6996SOL    HW221888   1.745   0.372   6.769
 6997SOL     OW21889   0.161   5.048   5.176
 6997SOL    HW121890   0.149   4.949   5.182
 6997SOL    HW221891   0.072   5.092   5.162
 6998SOL     OW21892   1.075   1.534   1.468
 6998SOL    HW121893   1.089   1.469   1.543
 6998SOL    HW221894   1.164   1.570   1.438
 6999SOL     OW21895   0.884   2.581   6.787
 6999SOL    HW121896   0.910   2.526   6.866
 6999SOL    HW221897   0.965   2.629   6.751
 7000SOL     OW21898   6.197   0.233   2.919
 7000SOL    HW121899   6.123   0.297   2.942
 7000SOL    HW221900   6.231   0.254   2.827
 7001SOL     OW21901   0.986   1.500   4.474
 7001SOL    HW121902   0.936   1.565   4.532
 7001SOL    HW221903   0.945   1.497   4.383
 7002SOL     OW21904   0.540   5.613   3.694
 7002SOL    HW121905   0.565   5.708   3.713
 7002SOL    HW221906   0.492   5.574   3.772
 7003SOL     OW21907   5.988   4.378   1.183
 7003SOL    HW121908   6.058   4.318   1.221
 7003SOL    HW221909   6.029   4.465   1.156
 7004SOL     OW21910   1.430   6.073   0.448
 7004SOL    HW121911   1.351   6.107   0.500
 7004SOL    HW221912   1.502   6.046   0.512
 7005SOL     OW21913   1.310   0.265   6.818
 7005SOL    HW121914   1.319   0.253   6.916
 7005SOL    HW221915   1.267   0.353   6.798
 7006SOL     OW21916   6.966   6.734   3.400
 7006SOL    HW121917   6.883   6.687   3.369
 7006SOL    HW221918   6.940   6.815   3.453
 7007SOL     OW21919   3.990   0.885   5.815
 7007SOL    HW121920   3.901   0.925   5.836
 7007SOL    HW221921   4.040   0.944   5.752
 7008SOL     OW21922   6.697   4.162   3.251
 7008SOL    HW121923   6.661   4.164   3.345
 7008SOL    HW221924   6.793   4.136   3.254
 7009SOL     OW21925   4.065   6.167   2.317
 7009SOL    HW121926   4.052   6.265   2.335
 7009SOL    HW221927   3.991   6.135   2.257
 7010SOL     OW21928   5.307   3.949   2.504
 7010SOL    HW121929   5.339   3.899   2.424
 7010SOL    HW221930   5.334   4.045   2.497
 7011SOL     OW21931   3.485   6.486   0.347
 7011SOL    HW121932   3.472   6.395   0.309
 7011SOL    HW221933   3.445   6.491   0.438
 7012SOL     OW21934   1.313   2.785   0.770
 7012SOL    HW121935   1.407   2.750   0.772
 7012SOL    HW221936   1.304   2.850   0.694
 7013SOL     OW21937   2.492   0.991   0.113
 7013SOL    HW121938   2.466   1.028   0.024
 7013SOL    HW221939   2.412   0.985   0.172
 7014SOL     OW21940   6.279   3.741   1.528
 7014SOL    HW121941   6.271   3.662   1.467
 7014SOL    HW221942   6.345   3.806   1.490
 7015SOL     OW21943   5.683   4.365   2.395
 7015SOL    HW121944   5.781   4.387   2.392
 7015SOL    HW221945   5.645   4.372   2.303
 7016SOL     OW21946   3.174   4.766   1.095
 7016SOL    HW121947   3.151   4.777   1.192
 7016SOL    HW221948   3.268   4.796   1.080
 7017SOL     OW21949   4.130   4.816   3.635
 7017SOL    HW121950   4.114   4.883   3.563
 7017SOL    HW221951   4.043   4.795   3.681
 7018SOL     OW21952   4.825   3.109   4.449
 7018SOL    HW121953   4.870   3.198   4.450
 7018SOL    HW221954   4.805   3.081   4.544
 7019SOL     OW21955   5.163   5.514   2.246
 7019SOL    HW121956   5.089   5.450   2.225
 7019SOL    HW221957   5.235   5.466   2.297
 7020SOL     OW21958   0.680   3.325   6.872
 7020SOL    HW121959   0.626   3.396   6.917
 7020SOL    HW221960   0.712   3.259   6.941
 7021SOL     OW21961   0.949   2.581   4.999
 7021SOL    HW121962   0.909   2.667   5.031
 7021SOL    HW221963   1.028   2.558   5.055
 7022SOL     OW21964   4.041   0.889   0.031
 7022SOL    HW121965   3.964   0.847   0.078
 7022SOL    HW221966   4.115   0.906   0.096
 7023SOL     OW21967   0.645   1.776   1.862
 7023SOL    HW121968   0.668   1.679   1.864
 7023SOL    HW221969   0.572   1.792   1.796
 7024SOL     OW21970   3.749   2.940   3.625
 7024SOL    HW121971   3.661   2.917   3.667
 7024SOL    HW221972   3.749   2.910   3.530
 7025SOL     OW21973   3.135   0.226   0.034
 7025SOL    HW121974   3.194   0.268   0.103
 7025SOL    HW221975   3.055   0.186   0.079
 7026SOL     OW21976   3.040   1.497   0.998
 7026SOL    HW121977   2.975   1.572   1.014
 7026SOL    HW221978   2.989   1.413   0.980
 7027SOL     OW21979   2.355   5.616   2.861
 7027SOL    HW121980   2.349   5.628   2.960
 7027SOL    HW221981   2.319   5.526   2.836
 7028SOL     OW21982   2.863   0.534   3.729
 7028SOL    HW121983   2.879   0.601   3.657
 7028SOL    HW221984   2.937   0.538   3.796
 7029SOL     OW21985   3.146   3.440   5.563
 7029SOL    HW121986   3.094   3.521   5.535
 7029SOL    HW221987   3.244   3.456   5.552
 7030SOL     OW21988   0.231   1.720   4.528
 7030SOL    HW121989   0.241   1.636   4.474
 7030SOL    HW221990   0.145   1.765   4.504
 7031SOL     OW21991   4.574   6.044   0.726
 7031SOL    HW121992   4.478   6.021   0.740
 7031SOL    HW221993   4.584   6.142   0.712
 7032SOL     OW21994   4.144   0.033   3.919
 7032SOL    HW121995   4.154   0.131   3.937
 7032SOL    HW221996   4.197   0.009   3.837
 7033SOL     OW21997   1.621   2.341   5.182
 7033SOL    HW121998   1.697   2.378   5.129
 7033SOL    HW221999   1.562   2.415   5.213
 7034SOL     OW22000   6.765   1.759   3.246
 7034SOL    HW122001   6.818   1.838   3.217
 7034SOL    HW222002   6.671   1.767   3.212
 7035SOL     OW22003   2.183   0.344   1.498
 7035SOL    HW122004   2.092   0.378   1.474
 7035SOL    HW222005   2.176   0.281   1.576
 7036SOL     OW22006   0.430   1.578   2.038
 7036SOL    HW122007   0.341   1.550   2.076
 7036SOL    HW222008   0.503   1.545   2.097
 7037SOL     OW22009   0.190   0.293   6.020
 7037SOL    HW122010   0.271   0.350   6.004
 7037SOL    HW222011   0.218   0.204   6.055
 7038SOL     OW22012   2.547   4.323   6.277
 7038SOL    HW122013   2.459   4.331   6.230
 7038SOL    HW222014   2.616   4.289   6.213
 7039SOL     OW22015   0.773   5.164   3.052
 7039SOL    HW122016   0.730   5.254   3.045
 7039SOL    HW222017   0.769   5.118   2.963
 7040SOL     OW22018   4.324   1.838   5.360
 7040SOL    HW122019   4.375   1.772   5.306
 7040SOL    HW222020   4.387   1.903   5.402
 7041SOL     OW22021   1.378   0.990   3.615
 7041SOL    HW122022   1.346   1.027   3.527
 7041SOL    HW222023   1.433   0.908   3.599
 7042SOL     OW22024   4.235   6.034   4.890
 7042SOL    HW122025   4.253   6.088   4.807
 7042SOL    HW222026   4.139   6.008   4.893
 7043SOL     OW22027   2.454   4.597   3.522
 7043SOL    HW122028   2.483   4.686   3.487
 7043SOL    HW222029   2.471   4.526   3.454
 7044SOL     OW22030   5.230   6.348   3.866
 7044SOL    HW122031   5.234   6.447   3.883
 7044SOL    HW222032   5.185   6.303   3.943
 7045SOL     OW22033   6.020   5.517   2.208
 7045SOL    HW122034   6.090   5.478   2.148
 7045SOL    HW222035   5.930   5.483   2.181
 7046SOL     OW22036   3.166   2.028   4.521
 7046SOL    HW122037   3.178   1.931   4.542
 7046SOL    HW222038   3.174   2.081   4.606
 7047SOL     OW22039   0.751   0.550   1.180
 7047SOL    HW122040   0.802   0.510   1.104
 7047SOL    HW222041   0.775   0.504   1.265
 7048SOL     OW22042   6.619   5.639   5.007
 7048SOL    HW122043   6.669   5.577   5.067
 7048SOL    HW222044   6.632   5.734   5.038
 7049SOL     OW22045   3.909   1.508   1.832
 7049SOL    HW122046   3.984   1.574   1.827
 7049SOL    HW222047   3.825   1.555   1.859
 7050SOL     OW22048   3.476   5.005   0.736
 7050SOL    HW122049   3.511   5.013   0.829
 7050SOL    HW222050   3.376   5.007   0.737
 7051SOL     OW22051   0.275   0.197   2.104
 7051SOL    HW122052   0.326   0.217   2.021
 7051SOL    HW222053   0.307   0.111   2.144
 7052SOL     OW22054   6.032   6.771   2.964
 7052SOL    HW122055   6.089   6.851   2.946
 7052SOL    HW222056   5.993   6.778   3.056
 7053SOL     OW22057   1.563   3.198   3.698
 7053SOL    HW122058   1.616   3.279   3.725
 7053SOL    HW222059   1.480   3.193   3.754
 7054SOL     OW22060   0.104   0.292   1.077
 7054SOL    HW122061   0.173   0.350   1.120
 7054SOL    HW222062   0.013   0.319   1.109
 7055SOL     OW22063   2.016   0.491   6.500
 7055SOL    HW122064   2.046   0.445   6.417
 7055SOL    HW222065   1.941   0.440   6.542
 7056SOL     OW22066   6.451   5.949   1.341
 7056SOL    HW122067   6.497   5.997   1.267
 7056SOL    HW222068   6.500   5.864   1.362
 7057SOL     OW22069   2.697   4.934   4.691
 7057SOL    HW122070   2.761   5.004   4.725
 7057SOL    HW222071   2.688   4.861   4.760
 7058SOL     OW22072   5.123   2.036   6.836
 7058SOL    HW122073   5.160   2.003   6.923
 7058SOL    HW222074   5.195   2.040   6.768
 7059SOL     OW22075   2.045   1.379   4.671
 7059SOL    HW122076   2.076   1.425   4.755
 7059SOL    HW222077   2.125   1.354   4.616
 7060SOL     OW22078   3.234   6.609   2.607
 7060SOL    HW122079   3.221   6.629   2.704
 7060SOL    HW222080   3.321   6.648   2.577
 7061SOL     OW22081   1.760   1.832   2.817
 7061SOL    HW122082   1.745   1.908   2.881
 7061SOL    HW222083   1.708   1.848   2.733
 7062SOL     OW22084   4.545   1.574   3.809
 7062SOL    HW122085   4.560   1.670   3.785
 7062SOL    HW222086   4.528   1.521   3.726
 7063SOL     OW22087   0.683   6.549   2.265
 7063SOL    HW122088   0.712   6.541   2.361
 7063SOL    HW222089   0.666   6.457   2.228
 7064SOL     OW22090   4.956   1.915   5.342
 7064SOL    HW122091   5.014   1.982   5.297
 7064SOL    HW222092   4.925   1.951   5.430
 7065SOL     OW22093   3.635   4.479   5.414
 7065SOL    HW122094   3.649   4.416   5.491
 7065SOL    HW222095   3.724   4.505   5.376
 7066SOL     OW22096   4.184   0.638   6.918
 7066SOL    HW122097   4.271   0.679   6.890
 7066SOL    HW222098   4.109   0.700   6.894
 7067SOL     OW22099   1.881   3.096   0.009
 7067SOL    HW122100   1.891   3.084   0.108
 7067SOL    HW222101   1.892   3.193   7.009
 7068SOL     OW22102   5.698   4.297   4.336
 7068SOL    HW122103   5.655   4.352   4.408
 7068SOL    HW222104   5.725   4.357   4.260
 7069SOL     OW22105   6.104   0.733   5.659
 7069SOL    HW122106   6.127   0.817   5.610
 7069SOL    HW222107   6.101   0.751   5.757
 7070SOL     OW22108   0.079   0.194   4.800
 7070SOL    HW122109   7.004   0.196   4.823
 7070SOL    HW222110   0.101   0.270   4.739
 7071SOL     OW22111   5.012   6.993   6.054
 7071SOL    HW122112   5.071   0.005   6.127
 7071SOL    HW222113   4.943   6.933   6.094
 7072SOL     OW22114   0.699   4.378   6.550
 7072SOL    HW122115   0.703   4.474   6.521
 7072SOL    HW222116   0.623   4.365   6.613
 7073SOL     OW22117   4.267   0.561   3.493
 7073SOL    HW122118   4.325   0.580   3.572
 7073SOL    HW222119   4.308   0.601   3.411
 7074SOL     OW22120   6.289   3.766   3.083
 7074SOL    HW122121   6.377   3.813   3.090
 7074SOL    HW222122   6.229   3.796   3.157
 7075SOL     OW22123   3.508   4.934   5.039
 7075SOL    HW122124   3.423   4.905   5.084
 7075SOL    HW222125   3.491   4.946   4.941
 7076SOL     OW22126   5.847   3.386   2.617
 7076SOL    HW122127   5.811   3.309   2.566
 7076SOL    HW222128   5.947   3.379   2.623
 7077SOL     OW22129   2.612   4.917   2.196
 7077SOL    HW122130   2.579   4.911   2.290
 7077SOL    HW222131   2.683   4.988   2.191
 7078SOL     OW22132   5.277   6.961   0.849
 7078SOL    HW122133   5.289   0.011   0.916
 7078SOL    HW222134   5.313   6.991   0.760
 7079SOL     OW22135   0.704   6.990   3.700
 7079SOL    HW122136   0.796   0.003   3.717
 7079SOL    HW222137   0.672   7.022   3.611
 7080SOL     OW22138   3.877   1.921   5.134
 7080SOL    HW122139   3.930   1.880   5.061
 7080SOL    HW222140   3.819   1.850   5.176
 7081SOL     OW22141   1.480   0.855   0.063
 7081SOL    HW122142   1.509   0.947   0.039
 7081SOL    HW222143   1.380   0.853   0.073
 7082SOL     OW22144   6.889   3.769   1.995
 7082SOL    HW122145   6.843   3.722   1.920
 7082SOL    HW222146   6.854   3.862   2.003
 7083SOL     OW22147   6.836   2.487   2.478
 7083SOL    HW122148   6.802   2.576   2.447
 7083SOL    HW222149   6.767   2.417   2.460
 7084SOL     OW22150   0.570   5.656   0.064
 7084SOL    HW122151   0.476   5.690   0.057
 7084SOL    HW222152   0.632   5.734   0.073
 7085SOL     OW22153   0.404   2.705   2.445
 7085SOL    HW122154   0.305   2.695   2.434
 7085SOL    HW222155   0.424   2.794   2.486
 7086SOL     OW22156   6.068   0.572   6.368
 7086SOL    HW122157   6.167   0.588   6.376
 7086SOL    HW222158   6.039   0.587   6.274
 7087SOL     OW22159   5.786   2.993   3.165
 7087SOL    HW122160   5.814   2.900   3.188
 7087SOL    HW222161   5.784   3.049   3.248
 7088SOL     OW22162   5.791   1.655   5.412
 7088SOL    HW122163   5.705   1.605   5.412
 7088SOL    HW222164   5.817   1.676   5.506
 7089SOL     OW22165   4.197   5.418   1.906
 7089SOL    HW122166   4.281   5.375   1.940
 7089SOL    HW222167   4.186   5.508   1.948
 7090SOL     OW22168   3.591   1.657   1.232
 7090SOL    HW122169   3.641   1.570   1.221
 7090SOL    HW222170   3.495   1.643   1.210
 7091SOL     OW22171   1.064   6.787   0.504
 7091SOL    HW122172   0.999   6.861   0.489
 7091SOL    HW222173   1.117   6.772   0.420
 7092SOL     OW22174   4.381   2.199   6.352
 7092SOL    HW122175   4.321   2.218   6.275
 7092SOL    HW222176   4.338   2.133   6.414
 7093SOL     OW22177   3.234   4.030   0.641
 7093SOL    HW122178   3.280   4.044   0.553
 7093SOL    HW222179   3.148   4.079   0.642
 7094SOL     OW22180   2.000   0.171   5.873
 7094SOL    HW122181   1.920   0.112   5.871
 7094SOL    HW222182   2.046   0.163   5.961
 7095SOL     OW22183   3.084   4.759   5.608
 7095SOL    HW122184   3.005   4.815   5.631
 7095SOL    HW222185   3.054   4.676   5.560
 7096SOL     OW22186   6.911   0.601   1.123
 7096SOL    HW122187   6.912   0.688   1.171
 7096SOL    HW222188   6.949   0.613   1.031
 7097SOL     OW22189   5.704   0.240   1.680
 7097SOL    HW122190   5.655   0.175   1.738
 7097SOL    HW222191   5.698   0.331   1.721
 7098SOL     OW22192   1.728   6.679   4.387
 7098SOL    HW122193   1.806   6.619   4.368
 7098SOL    HW222194   1.688   6.710   4.300
 7099SOL     OW22195   3.098   2.021   4.057
 7099SOL    HW122196   3.020   1.965   4.030
 7099SOL    HW222197   3.096   2.107   4.006
 7100SOL     OW22198   0.603   3.493   0.876
 7100SOL    HW122199   0.568   3.454   0.791
 7100SOL    HW222200   0.663   3.426   0.920
 7101SOL     OW22201   1.845   6.859   5.438
 7101SOL    HW122202   1.842   6.766   5.473
 7101SOL    HW222203   1.837   6.857   5.338
 7102SOL     OW22204   5.032   0.627   0.701
 7102SOL    HW122205   5.067   0.564   0.770
 7102SOL    HW222206   5.097   0.702   0.688
 7103SOL     OW22207   5.186   5.285   2.711
 7103SOL    HW122208   5.151   5.341   2.786
 7103SOL    HW222209   5.114   5.274   2.642
 7104SOL     OW22210   5.274   3.090   3.537
 7104SOL    HW122211   5.200   3.120   3.597
 7104SOL    HW222212   5.325   3.017   3.582
 7105SOL     OW22213   3.268   4.138   3.906
 7105SOL    HW122214   3.329   4.217   3.902
 7105SOL    HW222215   3.272   4.099   3.998
 7106SOL     OW22216   3.726   2.982   1.543
 7106SOL    HW122217   3.724   3.010   1.639
 7106SOL    HW222218   3.632   2.974   1.509
 7107SOL     OW22219   3.983   7.013   0.046
 7107SOL    HW122220   4.043   6.934   0.034
 7107SOL    HW222221   4.000   0.056   6.994
 7108SOL     OW22222   3.046   6.091   2.781
 7108SOL    HW122223   3.060   6.174   2.727
 7108SOL    HW222224   2.962   6.099   2.834
 7109SOL     OW22225   1.715   0.267   5.858
 7109SOL    HW122226   1.696   0.282   5.761
 7109SOL    HW222227   1.809   0.294   5.879
 7110SOL     OW22228   3.049   6.339   4.628
 7110SOL    HW122229   3.053   6.371   4.723
 7110SOL    HW222230   3.142   6.337   4.590
 7111SOL     OW22231   1.146   0.626   3.594
 7111SOL    HW122232   1.207   0.594   3.667
 7111SOL    HW222233   1.126   0.723   3.607
 7112SOL     OW22234   2.129   4.651   4.585
 7112SOL    HW122235   2.039   4.636   4.543
 7112SOL    HW222236   2.173   4.729   4.541
 7113SOL     OW22237   3.028   4.832   5.000
 7113SOL    HW122238   3.114   4.780   5.004
 7113SOL    HW222239   2.951   4.768   4.996
 7114SOL     OW22240   4.962   5.192   0.848
 7114SOL    HW122241   5.036   5.251   0.880
 7114SOL    HW222242   4.952   5.114   0.911
 7115SOL     OW22243   6.170   4.351   6.790
 7115SOL    HW122244   6.160   4.251   6.786
 7115SOL    HW222245   6.266   4.374   6.801
 7116SOL     OW22246   6.555   3.367   4.374
 7116SOL    HW122247   6.605   3.288   4.410
 7116SOL    HW222248   6.521   3.346   4.283
 7117SOL     OW22249   6.164   0.268   3.569
 7117SOL    HW122250   6.118   0.226   3.647
 7117SOL    HW222251   6.192   0.196   3.504
 7118SOL     OW22252   4.145   4.603   5.349
 7118SOL    HW122253   4.210   4.598   5.425
 7118SOL    HW222254   4.182   4.555   5.270
 7119SOL     OW22255   4.724   6.920   4.812
 7119SOL    HW122256   4.630   6.896   4.787
 7119SOL    HW222257   4.770   6.961   4.733
 7120SOL     OW22258   4.787   1.210   1.266
 7120SOL    HW122259   4.868   1.221   1.207
 7120SOL    HW222260   4.817   1.189   1.359
 7121SOL     OW22261   0.624   6.516   3.507
 7121SOL    HW122262   0.543   6.465   3.535
 7121SOL    HW222263   0.703   6.455   3.507
 7122SOL     OW22264   2.978   0.227   6.122
 7122SOL    HW122265   3.071   0.189   6.116
 7122SOL    HW222266   2.914   0.153   6.144
 7123SOL     OW22267   5.864   5.287   5.013
 7123SOL    HW122268   5.815   5.200   5.019
 7123SOL    HW222269   5.946   5.283   5.071
 7124SOL     OW22270   0.763   2.327   1.315
 7124SOL    HW122271   0.689   2.297   1.255
 7124SOL    HW222272   0.839   2.262   1.310
 7125SOL     OW22273   0.947   0.343   1.684
 7125SOL    HW122274   0.914   0.256   1.720
 7125SOL    HW222275   1.012   0.327   1.609
 7126SOL     OW22276   4.164   6.116   1.603
 7126SOL    HW122277   4.146   6.160   1.514
 7126SOL    HW222278   4.181   6.187   1.671
 7127SOL     OW22279   2.702   6.185   5.276
 7127SOL    HW122280   2.784   6.174   5.220
 7127SOL    HW222281   2.622   6.155   5.224
 7128SOL     OW22282   3.141   4.250   6.662
 7128SOL    HW122283   3.229   4.232   6.620
 7128SOL    HW222284   3.129   4.348   6.674
 7129SOL     OW22285   0.173   0.823   1.393
 7129SOL    HW122286   0.231   0.741   1.388
 7129SOL    HW222287   0.230   0.905   1.387
 7130SOL     OW22288   2.871   6.362   4.188
 7130SOL    HW122289   2.967   6.385   4.171
 7130SOL    HW222290   2.844   6.398   4.277
 7131SOL     OW22291   4.073   1.034   2.241
 7131SOL    HW122292   3.990   1.037   2.297
 7131SOL    HW222293   4.103   1.127   2.221
 7132SOL     OW22294   5.561   3.732   0.114
 7132SOL    HW122295   5.599   3.783   0.192
 7132SOL    HW222296   5.489   3.671   0.146
 7133SOL     OW22297   3.507   5.641   3.363
 7133SOL    HW122298   3.504   5.576   3.440
 7133SOL    HW222299   3.457   5.724   3.388
 7134SOL     OW22300   6.039   5.415   1.375
 7134SOL    HW122301   5.997   5.470   1.448
 7134SOL    HW222302   6.103   5.472   1.324
 7135SOL     OW22303   2.216   2.913   1.793
 7135SOL    HW122304   2.213   2.890   1.696
 7135SOL    HW222305   2.210   3.013   1.804
 7136SOL     OW22306   2.878   1.687   1.504
 7136SOL    HW122307   2.908   1.761   1.444
 7136SOL    HW222308   2.905   1.707   1.598
 7137SOL     OW22309   2.636   1.961   1.592
 7137SOL    HW122310   2.640   2.059   1.570
 7137SOL    HW222311   2.720   1.934   1.638
 7138SOL     OW22312   1.925   1.740   0.495
 7138SOL    HW122313   1.960   1.647   0.491
 7138SOL    HW222314   1.826   1.738   0.505
 7139SOL     OW22315   6.373   5.948   1.601
 7139SOL    HW122316   6.433   5.933   1.522
 7139SOL    HW222317   6.278   5.950   1.569
 7140SOL     OW22318   6.674   3.311   0.701
 7140SOL    HW122319   6.770   3.294   0.725
 7140SOL    HW222320   6.648   3.250   0.626
 7141SOL     OW22321   3.853   6.519   1.527
 7141SOL    HW122322   3.858   6.592   1.596
 7141SOL    HW222323   3.785   6.543   1.458
 7142SOL     OW22324   3.379   0.558   4.646
 7142SOL    HW122325   3.375   0.608   4.560
 7142SOL    HW222326   3.375   0.460   4.627
 7143SOL     OW22327   2.672   4.711   6.581
 7143SOL    HW122328   2.716   4.764   6.507
 7143SOL    HW222329   2.650   4.620   6.547
 7144SOL     OW22330   6.400   1.101   3.989
 7144SOL    HW122331   6.424   1.198   3.992
 7144SOL    HW222332   6.340   1.079   4.065
 7145SOL     OW22333   4.704   2.136   0.236
 7145SOL    HW122334   4.694   2.124   0.335
 7145SOL    HW222335   4.661   2.059   0.189
 7146SOL     OW22336   2.300   0.764   5.302
 7146SOL    HW122337   2.334   0.694   5.239
 7146SOL    HW222338   2.319   0.855   5.265
 7147SOL     OW22339   5.796   4.856   2.360
 7147SOL    HW122340   5.762   4.762   2.356
 7147SOL    HW222341   5.720   4.918   2.377
 7148SOL     OW22342   6.691   6.334   0.648
 7148SOL    HW122343   6.783   6.303   0.627
 7148SOL    HW222344   6.681   6.430   0.619
 7149SOL     OW22345   6.850   5.287   4.154
 7149SOL    HW122346   6.893   5.197   4.155
 7149SOL    HW222347   6.811   5.307   4.244
 7150SOL     OW22348   3.925   3.733   6.914
 7150SOL    HW122349   3.894   3.667   6.846
 7150SOL    HW222350   4.023   3.720   6.930
 7151SOL     OW22351   3.430   0.432   1.018
 7151SOL    HW122352   3.343   0.385   1.032
 7151SOL    HW222353   3.439   0.458   0.922
 7152SOL     OW22354   0.443   1.653   6.752
 7152SOL    HW122355   0.399   1.614   6.671
 7152SOL    HW222356   0.530   1.694   6.726
 7153SOL     OW22357   3.705   6.438   1.054
 7153SOL    HW122358   3.688   6.445   1.153
 7153SOL    HW222359   3.658   6.357   1.018
 7154SOL     OW22360   4.352   1.181   2.249
 7154SOL    HW122361   4.324   1.170   2.344
 7154SOL    HW222362   4.321   1.270   2.215
 7155SOL     OW22363   3.512   1.716   2.632
 7155SOL    HW122364   3.515   1.802   2.580
 7155SOL    HW222365   3.471   1.645   2.576
 7156SOL     OW22366   6.288   3.925   0.290
 7156SOL    HW122367   6.328   3.941   0.199
 7156SOL    HW222368   6.357   3.942   0.360
 7157SOL     OW22369   6.077   4.390   6.388
 7157SOL    HW122370   6.051   4.487   6.385
 7157SOL    HW222371   6.163   4.380   6.439
 7158SOL     OW22372   4.996   6.948   3.884
 7158SOL    HW122373   4.991   0.025   3.897
 7158SOL    HW222374   5.036   6.929   3.794
 7159SOL     OW22375   0.721   5.867   3.382
 7159SOL    HW122376   0.715   5.891   3.285
 7159SOL    HW222377   0.664   5.787   3.400
 7160SOL     OW22378   5.583   7.004   2.918
 7160SOL    HW122379   5.555   0.016   3.008
 7160SOL    HW222380   5.573   6.904   2.917
 7161SOL     OW22381   3.998   3.080   3.658
 7161SOL    HW122382   4.087   3.037   3.671
 7161SOL    HW222383   3.926   3.011   3.665
 7162SOL     OW22384   0.319   4.890   2.096
 7162SOL    HW122385   0.360   4.886   2.187
 7162SOL    HW222386   0.221   4.871   2.103
 7163SOL     OW22387   1.212   1.586   1.956
 7163SOL    HW122388   1.256   1.540   2.032
 7163SOL    HW222389   1.221   1.531   1.873
 7164SOL     OW22390   1.753   1.119   6.000
 7164SOL    HW122391   1.778   1.050   5.932
 7164SOL    HW222392   1.725   1.203   5.954
 7165SOL     OW22393   6.534   0.572   0.263
 7165SOL    HW122394   6.450   0.625   0.248
 7165SOL    HW222395   6.543   0.504   0.191
 7166SOL     OW22396   5.091   6.656   6.208
 7166SOL    HW122397   5.120   6.571   6.253
 7166SOL    HW222398   5.133   6.734   6.256
 7167SOL     OW22399   6.005   2.053   5.056
 7167SOL    HW122400   6.011   2.116   4.979
 7167SOL    HW222401   6.080   1.988   5.053
 7168SOL     OW22402   2.750   0.888   1.995
 7168SOL    HW122403   2.796   0.905   1.908
 7168SOL    HW222404   2.692   0.966   2.018
 7169SOL     OW22405   2.197   4.269   6.100
 7169SOL    HW122406   2.196   4.180   6.054
 7169SOL    HW222407   2.212   4.341   6.032
 7170SOL     OW22408   4.094   0.826   1.818
 7170SOL    HW122409   4.109   0.922   1.793
 7170SOL    HW222410   3.996   0.810   1.833
 7171SOL     OW22411   5.903   4.745   0.688
 7171SOL    HW122412   5.823   4.725   0.633
 7171SOL    HW222413   5.896   4.696   0.775
 7172SOL     OW22414   1.313   1.234   4.369
 7172SOL    HW122415   1.357   1.320   4.395
 7172SOL    HW222416   1.318   1.169   4.445
 7173SOL     OW22417   5.228   6.221   6.812
 7173SOL    HW122418   5.163   6.184   6.746
 7173SOL    HW222419   5.179   6.264   6.887
 7174SOL     OW22420   5.786   4.270   1.461
 7174SOL    HW122421   5.809   4.365   1.486
 7174SOL    HW222422   5.688   4.256   1.471
 7175SOL     OW22423   6.044   3.682   5.485
 7175SOL    HW122424   5.979   3.756   5.503
 7175SOL    HW222425   5.997   3.594   5.493
 7176SOL     OW22426   6.943   1.331   4.619
 7176SOL    HW122427   6.988   1.371   4.699
 7176SOL    HW222428   6.878   1.261   4.649
 7177SOL     OW22429   1.705   5.307   4.611
 7177SOL    HW122430   1.798   5.342   4.622
 7177SOL    HW222431   1.663   5.297   4.701
 7178SOL     OW22432   0.821   1.125   5.370
 7178SOL    HW122433   0.758   1.048   5.370
 7178SOL    HW222434   0.808   1.180   5.288
 7179SOL     OW22435   3.864   5.681   6.660
 7179SOL    HW122436   3.905   5.591   6.648
 7179SOL    HW222437   3.774   5.683   6.616
 7180SOL     OW22438   1.341   4.794   1.324
 7180SOL    HW122439   1.322   4.702   1.291
 7180SOL    HW222440   1.290   4.860   1.269
 7181SOL     OW22441   2.477   1.451   5.856
 7181SOL    HW122442   2.533   1.428   5.776
 7181SOL    HW222443   2.491   1.547   5.880
 7182SOL     OW22444   0.983   3.428   4.082
 7182SOL    HW122445   1.013   3.514   4.040
 7182SOL    HW222446   1.040   3.407   4.161
 7183SOL     OW22447   0.999   6.565   1.654
 7183SOL    HW122448   0.953   6.493   1.604
 7183SOL    HW222449   1.089   6.582   1.613
 7184SOL     OW22450   6.374   0.062   3.626
 7184SOL    HW122451   6.370   0.055   3.725
 7184SOL    HW222452   6.340   0.152   3.598
 7185SOL     OW22453   5.028   0.206   4.877
 7185SOL    HW122454   5.039   0.294   4.831
 7185SOL    HW222455   4.939   0.167   4.855
 7186SOL     OW22456   0.394   0.108   6.995
 7186SOL    HW122457   0.393   0.022   0.023
 7186SOL    HW222458   0.411   0.090   6.898
 7187SOL     OW22459   2.896   3.240   5.035
 7187SOL    HW122460   2.911   3.153   5.082
 7187SOL    HW222461   2.854   3.223   4.946
 7188SOL     OW22462   4.219   5.006   6.839
 7188SOL    HW122463   4.234   5.098   6.803
 7188SOL    HW222464   4.190   4.946   6.764
 7189SOL     OW22465   6.175   2.393   5.245
 7189SOL    HW122466   6.080   2.373   5.270
 7189SOL    HW222467   6.205   2.477   5.292
 7190SOL     OW22468   5.845   5.312   1.219
 7190SOL    HW122469   5.918   5.346   1.277
 7190SOL    HW222470   5.756   5.337   1.259
 7191SOL     OW22471   0.689   3.877   3.130
 7191SOL    HW122472   0.657   3.843   3.219
 7191SOL    HW222473   0.653   3.818   3.058
 7192SOL     OW22474   1.642   5.020   6.575
 7192SOL    HW122475   1.550   4.983   6.561
 7192SOL    HW222476   1.708   4.945   6.576
 7193SOL     OW22477   2.466   2.611   2.591
 7193SOL    HW122478   2.547   2.570   2.551
 7193SOL    HW222479   2.398   2.541   2.610
 7194SOL     OW22480   3.083   2.625   6.127
 7194SOL    HW122481   3.095   2.625   6.227
 7194SOL    HW222482   3.097   2.717   6.092
 7195SOL     OW22483   0.264   3.129   6.202
 7195SOL    HW122484   0.281   3.182   6.119
 7195SOL    HW222485   0.341   3.068   6.219
 7196SOL     OW22486   3.389   4.073   2.381
 7196SOL    HW122487   3.359   4.072   2.286
 7196SOL    HW222488   3.452   4.149   2.396
 7197SOL     OW22489   1.927   3.925   5.558
 7197SOL    HW122490   1.908   3.877   5.472
 7197SOL    HW222491   1.964   3.861   5.625
 7198SOL     OW22492   6.450   1.289   0.854
 7198SOL    HW122493   6.534   1.289   0.908
 7198SOL    HW222494   6.462   1.344   0.772
 7199SOL     OW22495   1.154   0.648   2.191
 7199SOL    HW122496   1.126   0.572   2.132
 7199SOL    HW222497   1.089   0.657   2.267
 7200SOL     OW22498   1.970   2.555   0.647
 7200SOL    HW122499   2.007   2.521   0.734
 7200SOL    HW222500   1.889   2.501   0.622
 7201SOL     OW22501   5.819   5.888   4.007
 7201SOL    HW122502   5.834   5.828   4.086
 7201SOL    HW222503   5.900   5.946   3.993
 7202SOL     OW22504   4.919   0.810   5.599
 7202SOL    HW122505   4.987   0.744   5.568
 7202SOL    HW222506   4.952   0.857   5.681
 7203SOL     OW22507   0.306   1.879   2.077
 7203SOL    HW122508   0.264   1.858   1.988
 7203SOL    HW222509   0.406   1.871   2.068
 7204SOL     OW22510   6.893   1.288   1.176
 7204SOL    HW122511   6.885   1.387   1.171
 7204SOL    HW222512   6.848   1.255   1.259
 7205SOL     OW22513   1.928   2.164   5.487
 7205SOL    HW122514   1.962   2.165   5.392
 7205SOL    HW222515   1.893   2.255   5.510
 7206SOL     OW22516   1.901   2.172   1.361
 7206SOL    HW122517   1.876   2.220   1.277
 7206SOL    HW222518   1.917   2.237   1.435
 7207SOL     OW22519   1.427   2.288   4.081
 7207SOL    HW122520   1.396   2.289   3.986
 7207SOL    HW222521   1.437   2.194   4.112
 7208SOL     OW22522   3.375   1.003   4.495
 7208SOL    HW122523   3.385   1.051   4.407
 7208SOL    HW222524   3.354   1.069   4.567
 7209SOL     OW22525   2.731   2.114   2.123
 7209SOL    HW122526   2.716   2.119   2.222
 7209SOL    HW222527   2.777   2.197   2.092
 7210SOL     OW22528   2.923   1.666   3.457
 7210SOL    HW122529   2.825   1.652   3.445
 7210SOL    HW222530   2.939   1.750   3.509
 7211SOL     OW22531   3.046   6.118   5.619
 7211SOL    HW122532   3.108   6.172   5.562
 7211SOL    HW222533   3.042   6.158   5.711
 7212SOL     OW22534   5.774   5.039   6.151
 7212SOL    HW122535   5.676   5.061   6.144
 7212SOL    HW222536   5.825   5.122   6.174
 7213SOL     OW22537   3.392   1.012   0.783
 7213SOL    HW122538   3.474   0.957   0.804
 7213SOL    HW222539   3.417   1.108   0.779
 7214SOL     OW22540   0.690   1.162   6.354
 7214SOL    HW122541   0.660   1.075   6.393
 7214SOL    HW222542   0.782   1.152   6.317
 7215SOL     OW22543   0.065   2.875   2.965
 7215SOL    HW122544   0.002   2.935   3.015
 7215SOL    HW222545   0.027   2.854   2.875
 7216SOL     OW22546   2.885   6.180   3.366
 7216SOL    HW122547   2.788   6.156   3.362
 7216SOL    HW222548   2.915   6.212   3.275
 7217SOL     OW22549   1.176   4.099   3.544
 7217SOL    HW122550   1.160   4.142   3.455
 7217SOL    HW222551   1.110   4.133   3.610
 7218SOL     OW22552   6.283   3.735   4.880
 7218SOL    HW122553   6.232   3.672   4.939
 7218SOL    HW222554   6.224   3.812   4.856
 7219SOL     OW22555   3.189   6.254   1.931
 7219SOL    HW122556   3.205   6.208   1.844
 7219SOL    HW222557   3.099   6.230   1.966
 7220SOL     OW22558   6.844   4.324   4.180
 7220SOL    HW122559   6.820   4.421   4.185
 7220SOL    HW222560   6.803   4.283   4.099
 7221SOL     OW22561   3.339   6.225   4.945
 7221SOL    HW122562   3.355   6.254   5.040
 7221SOL    HW222563   3.425   6.191   4.906
 7222SOL     OW22564   6.707   6.661   3.362
 7222SOL    HW122565   6.681   6.733   3.298
 7222SOL    HW222566   6.635   6.652   3.432
 7223SOL     OW22567   2.002   2.092   1.029
 7223SOL    HW122568   2.019   2.009   1.082
 7223SOL    HW222569   2.067   2.097   0.953
 7224SOL     OW22570   4.269   2.164   3.530
 7224SOL    HW122571   4.179   2.132   3.497
 7224SOL    HW222572   4.340   2.134   3.466
 7225SOL     OW22573   1.955   6.812   0.737
 7225SOL    HW122574   2.044   6.826   0.780
 7225SOL    HW222575   1.917   6.725   0.766
 7226SOL     OW22576   6.158   1.202   6.870
 7226SOL    HW122577   6.124   1.192   6.964
 7226SOL    HW222578   6.081   1.218   6.808
 7227SOL     OW22579   2.910   0.743   2.149
 7227SOL    HW122580   2.868   0.813   2.091
 7227SOL    HW222581   2.922   0.778   2.242
 7228SOL     OW22582   0.747   1.937   2.444
 7228SOL    HW122583   0.673   1.926   2.511
 7228SOL    HW222584   0.716   1.906   2.355
 7229SOL     OW22585   6.816   0.319   4.445
 7229SOL    HW122586   6.893   0.261   4.418
 7229SOL    HW222587   6.819   0.336   4.543
 7230SOL     OW22588   2.558   4.981   4.286
 7230SOL    HW122589   2.541   5.039   4.206
 7230SOL    HW222590   2.585   4.890   4.256
 7231SOL     OW22591   4.090   1.356   6.678
 7231SOL    HW122592   4.085   1.346   6.579
 7231SOL    HW222593   4.184   1.337   6.708
 7232SOL     OW22594   5.310   0.202   2.544
 7232SOL    HW122595   5.229   0.152   2.512
 7232SOL    HW222596   5.328   0.177   2.640
 7233SOL     OW22597   6.156   1.225   5.716
 7233SOL    HW122598   6.223   1.291   5.681
 7233SOL    HW222599   6.146   1.237   5.815
 7234SOL     OW22600   4.876   3.810   3.481
 7234SOL    HW122601   4.836   3.723   3.454
 7234SOL    HW222602   4.868   3.875   3.405
 7235SOL     OW22603   6.527   5.676   1.522
 7235SOL    HW122604   6.547   5.644   1.614
 7235SOL    HW222605   6.471   5.608   1.474
 7236SOL     OW22606   2.056   2.707   3.090
 7236SOL    HW122607   2.104   2.754   3.017
 7236SOL    HW222608   2.010   2.774   3.149
 7237SOL     OW22609   5.250   0.692   6.597
 7237SOL    HW122610   5.279   0.624   6.664
 7237SOL    HW222611   5.150   0.694   6.594
 7238SOL     OW22612   4.517   2.591   0.029
 7238SOL    HW122613   4.552   2.515   0.083
 7238SOL    HW222614   4.552   2.585   6.958
 7239SOL     OW22615   0.379   3.498   2.448
 7239SOL    HW122616   0.387   3.571   2.517
 7239SOL    HW222617   0.458   3.500   2.388
 7240SOL     OW22618   6.646   2.027   5.820
 7240SOL    HW122619   6.595   1.966   5.881
 7240SOL    HW222620   6.696   1.972   5.753
 7241SOL     OW22621   2.315   0.599   0.892
 7241SOL    HW122622   2.392   0.538   0.911
 7241SOL    HW222623   2.332   0.688   0.936
 7242SOL     OW22624   0.601   5.936   4.201
 7242SOL    HW122625   0.602   5.875   4.122
 7242SOL    HW222626   0.688   5.986   4.206
 7243SOL     OW22627   6.713   4.086   6.383
 7243SOL    HW122628   6.756   4.006   6.427
 7243SOL    HW222629   6.679   4.059   6.293
 7244SOL     OW22630   0.294   6.896   0.073
 7244SOL    HW122631   0.349   6.855   0.001
 7244SOL    HW222632   0.212   6.841   0.088
 7245SOL     OW22633   1.772   2.662   6.946
 7245SOL    HW122634   1.719   2.746   6.959
 7245SOL    HW222635   1.709   2.584   6.944
 7246SOL     OW22636   3.066   0.463   4.564
 7246SOL    HW122637   2.994   0.405   4.528
 7246SOL    HW222638   3.056   0.556   4.527
 7247SOL     OW22639   2.938   2.543   5.442
 7247SOL    HW122640   2.992   2.543   5.526
 7247SOL    HW222641   2.841   2.552   5.463
 7248SOL     OW22642   3.405   0.727   4.423
 7248SOL    HW122643   3.380   0.821   4.447
 7248SOL    HW222644   3.504   0.716   4.430
 7249SOL     OW22645   4.079   4.773   2.145
 7249SOL    HW122646   4.045   4.686   2.109
 7249SOL    HW222647   4.050   4.847   2.085
 7250SOL     OW22648   5.135   4.980   5.592
 7250SOL    HW122649   5.187   5.040   5.531
 7250SOL    HW222650   5.084   4.913   5.537
 7251SOL     OW22651   0.242   6.543   5.693
 7251SOL    HW122652   0.336   6.573   5.681
 7251SOL    HW222653   0.184   6.622   5.713
 7252SOL     OW22654   3.311   4.030   2.123
 7252SOL    HW122655   3.314   3.930   2.125
 7252SOL    HW222656   3.358   4.062   2.040
 7253SOL     OW22657   1.476   5.934   5.899
 7253SOL    HW122658   1.575   5.949   5.895
 7253SOL    HW222659   1.429   6.011   5.857
 7254SOL     OW22660   5.751   4.436   3.734
 7254SOL    HW122661   5.721   4.352   3.779
 7254SOL    HW222662   5.678   4.469   3.673
 7255SOL     OW22663   5.093   3.450   6.568
 7255SOL    HW122664   5.113   3.507   6.489
 7255SOL    HW222665   5.094   3.506   6.651
 7256SOL     OW22666   3.422   6.876   5.712
 7256SOL    HW122667   3.348   6.933   5.675
 7256SOL    HW222668   3.384   6.795   5.756
 7257SOL     OW22669   0.010   1.930   4.859
 7257SOL    HW122670   6.980   1.848   4.882
 7257SOL    HW222671   7.005   2.005   4.919
 7258SOL     OW22672   5.959   2.541   2.218
 7258SOL    HW122673   6.028   2.506   2.155
 7258SOL    HW222674   5.871   2.546   2.172
 7259SOL     OW22675   1.079   3.604   3.045
 7259SOL    HW122676   1.151   3.599   3.114
 7259SOL    HW222677   1.076   3.696   3.006
 7260SOL     OW22678   5.291   2.605   1.059
 7260SOL    HW122679   5.262   2.521   1.104
 7260SOL    HW222680   5.216   2.671   1.059
 7261SOL     OW22681   0.032   4.052   0.446
 7261SOL    HW122682   0.128   4.075   0.431
 7261SOL    HW222683   0.021   4.014   0.538
 7262SOL     OW22684   5.314   1.515   6.056
 7262SOL    HW122685   5.320   1.608   6.091
 7262SOL    HW222686   5.227   1.474   6.084
 7263SOL     OW22687   0.638   6.619   0.449
 7263SOL    HW122688   0.686   6.540   0.488
 7263SOL    HW222689   0.607   6.679   0.522
 7264SOL     OW22690   5.765   1.340   0.702
 7264SOL    HW122691   5.775   1.290   0.616
 7264SOL    HW222692   5.848   1.328   0.757
 7265SOL     OW22693   5.316   5.694   4.562
 7265SOL    HW122694   5.305   5.746   4.648
 7265SOL    HW222695   5.242   5.628   4.553
 7266SOL     OW22696   6.861   0.708   3.908
 7266SOL    HW122697   6.943   0.765   3.911
 7266SOL    HW222698   6.814   0.712   3.996
 7267SOL     OW22699   6.533   6.169   5.083
 7267SOL    HW122700   6.563   6.234   5.153
 7267SOL    HW222701   6.448   6.201   5.042
 7268SOL     OW22702   6.432   5.663   4.245
 7268SOL    HW122703   6.394   5.573   4.221
 7268SOL    HW222704   6.376   5.735   4.204
 7269SOL     OW22705   1.917   5.511   5.739
 7269SOL    HW122706   1.934   5.460   5.823
 7269SOL    HW222707   1.998   5.564   5.715
 7270SOL     OW22708   0.167   2.131   3.953
 7270SOL    HW122709   0.212   2.201   4.007
 7270SOL    HW222710   0.236   2.080   3.900
 7271SOL     OW22711   1.330   4.949   4.095
 7271SOL    HW122712   1.364   5.012   4.025
 7271SOL    HW222713   1.249   4.902   4.060
 7272SOL     OW22714   6.542   6.511   1.709
 7272SOL    HW122715   6.550   6.492   1.611
 7272SOL    HW222716   6.632   6.534   1.746
 7273SOL     OW22717   5.061   2.982   6.088
 7273SOL    HW122718   5.156   2.981   6.057
 7273SOL    HW222719   5.022   2.890   6.080
 7274SOL     OW22720   0.949   4.539   6.606
 7274SOL    HW122721   0.883   4.552   6.680
 7274SOL    HW222722   0.918   4.467   6.545
 7275SOL     OW22723   6.996   6.749   2.768
 7275SOL    HW122724   0.042   6.682   2.738
 7275SOL    HW222725   6.943   6.710   2.844
 7276SOL     OW22726   5.547   0.433   3.717
 7276SOL    HW122727   5.548   0.408   3.620
 7276SOL    HW222728   5.528   0.531   3.726
 7277SOL     OW22729   4.758   0.707   5.886
 7277SOL    HW122730   4.833   0.655   5.846
 7277SOL    HW222731   4.768   0.710   5.986
 7278SOL     OW22732   3.065   3.999   1.953
 7278SOL    HW122733   3.003   4.063   1.907
 7278SOL    HW222734   3.158   4.036   1.952
 7279SOL     OW22735   4.104   6.340   7.006
 7279SOL    HW122736   4.138   6.378   0.069
 7279SOL    HW222737   4.105   6.240   7.010
 7280SOL     OW22738   5.545   6.520   4.923
 7280SOL    HW122739   5.529   6.595   4.859
 7280SOL    HW222740   5.463   6.504   4.977
 7281SOL     OW22741   3.263   1.455   6.746
 7281SOL    HW122742   3.214   1.541   6.758
 7281SOL    HW222743   3.267   1.432   6.649
 7282SOL     OW22744   5.971   4.834   2.566
 7282SOL    HW122745   5.899   4.856   2.500
 7282SOL    HW222746   6.053   4.888   2.546
 7283SOL     OW22747   2.566   1.354   3.197
 7283SOL    HW122748   2.599   1.341   3.103
 7283SOL    HW222749   2.470   1.328   3.202
 7284SOL     OW22750   0.431   4.247   5.353
 7284SOL    HW122751   0.336   4.251   5.323
 7284SOL    HW222752   0.488   4.209   5.280
 7285SOL     OW22753   5.255   4.875   2.281
 7285SOL    HW122754   5.224   4.848   2.189
 7285SOL    HW222755   5.245   4.799   2.344
 7286SOL     OW22756   2.376   1.949   1.141
 7286SOL    HW122757   2.470   1.935   1.173
 7286SOL    HW222758   2.329   1.861   1.136
 7287SOL     OW22759   1.030   1.942   6.745
 7287SOL    HW122760   0.953   2.000   6.720
 7287SOL    HW222761   1.066   1.898   6.663
 7288SOL     OW22762   3.906   0.650   6.626
 7288SOL    HW122763   3.807   0.647   6.637
 7288SOL    HW222764   3.928   0.697   6.540
 7289SOL     OW22765   5.968   1.543   3.289
 7289SOL    HW122766   6.061   1.547   3.324
 7289SOL    HW222767   5.938   1.635   3.263
 7290SOL     OW22768   2.778   5.552   5.554
 7290SOL    HW122769   2.836   5.497   5.615
 7290SOL    HW222770   2.780   5.647   5.584
 7291SOL     OW22771   2.277   0.475   1.259
 7291SOL    HW122772   2.248   0.412   1.331
 7291SOL    HW222773   2.196   0.511   1.212
 7292SOL     OW22774   2.391   0.384   3.863
 7292SOL    HW122775   2.459   0.390   3.936
 7292SOL    HW222776   2.363   0.476   3.835
 7293SOL     OW22777   1.746   1.507   4.778
 7293SOL    HW122778   1.727   1.590   4.831
 7293SOL    HW222779   1.738   1.527   4.681
 7294SOL     OW22780   2.612   4.819   0.657
 7294SOL    HW122781   2.653   4.784   0.741
 7294SOL    HW222782   2.533   4.875   0.679
 7295SOL     OW22783   0.867   2.044   0.662
 7295SOL    HW122784   0.808   2.047   0.743
 7295SOL    HW222785   0.839   2.116   0.599
 7296SOL     OW22786   2.868   4.609   1.109
 7296SOL    HW122787   2.889   4.522   1.153
 7296SOL    HW222788   2.872   4.683   1.176
 7297SOL     OW22789   4.175   5.975   0.528
 7297SOL    HW122790   4.158   5.975   0.626
 7297SOL    HW222791   4.180   6.069   0.495
 7298SOL     OW22792   5.254   4.432   5.704
 7298SOL    HW122793   5.179   4.386   5.752
 7298SOL    HW222794   5.337   4.427   5.759
 7299SOL     OW22795   0.842   2.145   6.668
 7299SOL    HW122796   0.820   2.174   6.575
 7299SOL    HW222797   0.758   2.122   6.716
 7300SOL     OW22798   5.352   5.452   1.733
 7300SOL    HW122799   5.412   5.395   1.788
 7300SOL    HW222800   5.401   5.483   1.651
 7301SOL     OW22801   6.172   0.848   4.739
 7301SOL    HW122802   6.259   0.853   4.789
 7301SOL    HW222803   6.186   0.881   4.645
 7302SOL     OW22804   0.396   1.510   0.259
 7302SOL    HW122805   0.381   1.548   0.168
 7302SOL    HW222806   0.416   1.584   0.324
 7303SOL     OW22807   4.953   0.773   6.745
 7303SOL    HW122808   4.939   0.869   6.766
 7303SOL    HW222809   5.018   0.734   6.810
 7304SOL     OW22810   3.695   4.315   6.458
 7304SOL    HW122811   3.730   4.404   6.429
 7304SOL    HW222812   3.601   4.303   6.424
 7305SOL     OW22813   4.455   1.905   0.913
 7305SOL    HW122814   4.446   1.806   0.921
 7305SOL    HW222815   4.365   1.946   0.899
 7306SOL     OW22816   5.279   3.524   1.423
 7306SOL    HW122817   5.259   3.536   1.521
 7306SOL    HW222818   5.223   3.586   1.370
 7307SOL     OW22819   3.254   6.632   1.495
 7307SOL    HW122820   3.199   6.605   1.574
 7307SOL    HW222821   3.252   6.559   1.427
 7308SOL     OW22822   0.065   3.645   5.420
 7308SOL    HW122823   0.107   3.554   5.418
 7308SOL    HW222824   0.031   3.668   5.329
 7309SOL     OW22825   5.354   6.086   0.355
 7309SOL    HW122826   5.395   6.084   0.264
 7309SOL    HW222827   5.376   6.174   0.399
 7310SOL     OW22828   2.257   4.555   1.143
 7310SOL    HW122829   2.350   4.584   1.163
 7310SOL    HW222830   2.194   4.631   1.157
 7311SOL     OW22831   3.192   2.169   2.590
 7311SOL    HW122832   3.288   2.194   2.593
 7311SOL    HW222833   3.163   2.161   2.495
 7312SOL     OW22834   0.322   2.915   5.713
 7312SOL    HW122835   0.371   3.002   5.726
 7312SOL    HW222836   0.225   2.934   5.697
 7313SOL     OW22837   4.580   2.690   6.033
 7313SOL    HW122838   4.583   2.593   6.010
 7313SOL    HW222839   4.500   2.709   6.090
 7314SOL     OW22840   6.831   4.212   5.315
 7314SOL    HW122841   6.807   4.273   5.391
 7314SOL    HW222842   6.759   4.215   5.246
 7315SOL     OW22843   6.517   0.650   3.347
 7315SOL    HW122844   6.515   0.609   3.438
 7315SOL    HW222845   6.466   0.593   3.283
 7316SOL     OW22846   3.060   3.694   5.844
 7316SOL    HW122847   3.004   3.612   5.856
 7316SOL    HW222848   3.012   3.759   5.786
 7317SOL     OW22849   4.254   0.863   2.377
 7317SOL    HW122850   4.211   0.821   2.456
 7317SOL    HW222851   4.187   0.920   2.329
 7318SOL     OW22852   0.828   1.587   1.131
 7318SOL    HW122853   0.809   1.547   1.041
 7318SOL    HW222854   0.918   1.630   1.131
 7319SOL     OW22855   6.332   3.992   6.463
 7319SOL    HW122856   6.404   3.924   6.454
 7319SOL    HW222857   6.327   4.047   6.380
 7320SOL     OW22858   6.804   3.611   1.772
 7320SOL    HW122859   6.903   3.614   1.765
 7320SOL    HW222860   6.774   3.517   1.786
 7321SOL     OW22861   2.706   0.466   5.559
 7321SOL    HW122862   2.782   0.400   5.566
 7321SOL    HW222863   2.737   0.547   5.511
 7322SOL     OW22864   0.824   2.875   2.567
 7322SOL    HW122865   0.740   2.929   2.560
 7322SOL    HW222866   0.828   2.809   2.492
 7323SOL     OW22867   2.116   2.240   2.234
 7323SOL    HW122868   2.213   2.216   2.224
 7323SOL    HW222869   2.065   2.158   2.260
 7324SOL     OW22870   5.413   6.590   2.427
 7324SOL    HW122871   5.367   6.661   2.480
 7324SOL    HW222872   5.346   6.529   2.385
 7325SOL     OW22873   3.668   0.370   6.268
 7325SOL    HW122874   3.747   0.312   6.290
 7325SOL    HW222875   3.604   0.369   6.345
 7326SOL     OW22876   2.076   6.585   5.496
 7326SOL    HW122877   2.084   6.499   5.546
 7326SOL    HW222878   2.123   6.577   5.408
 7327SOL     OW22879   6.395   2.833   5.203
 7327SOL    HW122880   6.336   2.770   5.253
 7327SOL    HW222881   6.417   2.794   5.114
 7328SOL     OW22882   3.461   0.274   6.759
 7328SOL    HW122883   3.492   0.247   6.667
 7328SOL    HW222884   3.375   0.228   6.779
 7329SOL     OW22885   4.355   3.663   1.682
 7329SOL    HW122886   4.320   3.665   1.776
 7329SOL    HW222887   4.454   3.644   1.685
 7330SOL     OW22888   3.004   2.166   0.082
 7330SOL    HW122889   3.091   2.170   0.132
 7330SOL    HW222890   2.980   2.257   0.049
 7331SOL     OW22891   5.392   7.010   1.580
 7331SOL    HW122892   5.319   6.981   1.642
 7331SOL    HW222893   5.481   6.997   1.624
 7332SOL     OW22894   2.264   5.980   0.548
 7332SOL    HW122895   2.246   5.882   0.551
 7332SOL    HW222896   2.358   5.997   0.519
 7333SOL     OW22897   0.212   3.099   3.519
 7333SOL    HW122898   0.214   3.199   3.520
 7333SOL    HW222899   0.303   3.064   3.495
 7334SOL     OW22900   4.363   6.085   6.882
 7334SOL    HW122901   4.277   6.068   6.929
 7334SOL    HW222902   4.439   6.045   6.933
 7335SOL     OW22903   1.907   2.836   2.564
 7335SOL    HW122904   1.825   2.849   2.509
 7335SOL    HW222905   1.883   2.790   2.649
 7336SOL     OW22906   1.507   6.220   3.186
 7336SOL    HW122907   1.572   6.270   3.128
 7336SOL    HW222908   1.416   6.223   3.145
 7337SOL     OW22909   0.569   2.767   2.232
 7337SOL    HW122910   0.625   2.694   2.194
 7337SOL    HW222911   0.514   2.730   2.307
 7338SOL     OW22912   6.527   2.507   1.297
 7338SOL    HW122913   6.457   2.568   1.259
 7338SOL    HW222914   6.601   2.563   1.335
 7339SOL     OW22915   5.102   5.932   3.741
 7339SOL    HW122916   5.194   5.972   3.747
 7339SOL    HW222917   5.044   5.990   3.683
 7340SOL     OW22918   1.576   1.066   0.677
 7340SOL    HW122919   1.604   0.973   0.653
 7340SOL    HW222920   1.617   1.131   0.612
 7341SOL     OW22921   6.774   2.146   6.661
 7341SOL    HW122922   6.720   2.199   6.726
 7341SOL    HW222923   6.791   2.200   6.579
 7342SOL     OW22924   6.398   0.783   2.257
 7342SOL    HW122925   6.407   0.693   2.301
 7342SOL    HW222926   6.352   0.846   2.319
 7343SOL     OW22927   4.280   2.888   0.348
 7343SOL    HW122928   4.196   2.834   0.353
 7343SOL    HW222929   4.261   2.977   0.306
 7344SOL     OW22930   1.429   0.245   5.903
 7344SOL    HW122931   1.437   0.150   5.933
 7344SOL    HW222932   1.518   0.289   5.907
 7345SOL     OW22933   3.726   3.137   5.183
 7345SOL    HW122934   3.759   3.089   5.101
 7345SOL    HW222935   3.739   3.236   5.170
 7346SOL     OW22936   4.008   6.644   3.048
 7346SOL    HW122937   3.978   6.557   3.007
 7346SOL    HW222938   3.958   6.659   3.133
 7347SOL     OW22939   0.448   2.091   7.001
 7347SOL    HW122940   0.349   2.077   7.000
 7347SOL    HW222941   0.490   2.033   0.048
 7348SOL     OW22942   1.287   3.693   4.078
 7348SOL    HW122943   1.307   3.602   4.115
 7348SOL    HW222944   1.348   3.713   4.002
 7349SOL     OW22945   4.342   0.338   1.428
 7349SOL    HW122946   4.378   0.403   1.362
 7349SOL    HW222947   4.243   0.331   1.417
 7350SOL     OW22948   2.794   0.857   5.529
 7350SOL    HW122949   2.701   0.823   5.538
 7350SOL    HW222950   2.809   0.931   5.596
 7351SOL     OW22951   5.319   5.048   3.808
 7351SOL    HW122952   5.256   4.982   3.768
 7351SOL    HW222953   5.271   5.136   3.821
 7352SOL     OW22954   1.208   1.593   2.856
 7352SOL    HW122955   1.227   1.576   2.953
 7352SOL    HW222956   1.197   1.692   2.841
 7353SOL     OW22957   0.570   0.530   6.613
 7353SOL    HW122958   0.534   0.540   6.706
 7353SOL    HW222959   0.668   0.549   6.613
 7354SOL     OW22960   1.925   0.946   4.347
 7354SOL    HW122961   1.941   0.982   4.439
 7354SOL    HW222962   1.886   1.018   4.289
 7355SOL     OW22963   0.073   2.255   6.495
 7355SOL    HW122964   0.115   2.246   6.586
 7355SOL    HW222965   6.998   2.275   6.506
 7356SOL     OW22966   3.814   4.333   6.142
 7356SOL    HW122967   3.774   4.285   6.064
 7356SOL    HW222968   3.840   4.267   6.213
 7357SOL     OW22969   3.664   5.955   2.250
 7357SOL    HW122970   3.666   5.865   2.206
 7357SOL    HW222971   3.638   6.024   2.184
 7358SOL     OW22972   6.000   3.143   2.219
 7358SOL    HW122973   6.100   3.135   2.217
 7358SOL    HW222974   5.960   3.052   2.232
 7359SOL     OW22975   4.593   2.426   6.007
 7359SOL    HW122976   4.676   2.410   6.061
 7359SOL    HW222977   4.548   2.338   5.988
 7360SOL     OW22978   2.005   3.589   5.442
 7360SOL    HW122979   2.075   3.519   5.453
 7360SOL    HW222980   2.016   3.633   5.352
 7361SOL     OW22981   5.141   0.513   2.803
 7361SOL    HW122982   5.070   0.522   2.732
 7361SOL    HW222983   5.230   0.505   2.759
 7362SOL     OW22984   3.861   5.410   6.122
 7362SOL    HW122985   3.900   5.502   6.121
 7362SOL    HW222986   3.773   5.411   6.170
 7363SOL     OW22987   4.136   0.975   1.528
 7363SOL    HW122988   4.052   0.923   1.512
 7363SOL    HW222989   4.121   1.040   1.602
 7364SOL     OW22990   4.242   6.932   1.691
 7364SOL    HW122991   4.146   6.949   1.714
 7364SOL    HW222992   4.297   6.932   1.775
 7365SOL     OW22993   6.322   5.885   2.670
 7365SOL    HW122994   6.373   5.967   2.646
 7365SOL    HW222995   6.374   5.832   2.737
 7366SOL     OW22996   2.137   0.325   4.729
 7366SOL    HW122997   2.236   0.319   4.736
 7366SOL    HW222998   2.096   0.310   4.819
 7367SOL     OW22999   4.350   2.025   0.195
 7367SOL    HW123000   4.353   2.026   0.295
 7367SOL    HW223001   4.353   1.930   0.163
 7368SOL     OW23002   3.579   3.161   2.735
 7368SOL    HW123003   3.487   3.154   2.699
 7368SOL    HW223004   3.623   3.243   2.700
 7369SOL     OW23005   3.687   2.379   1.070
 7369SOL    HW123006   3.774   2.357   1.027
 7369SOL    HW223007   3.696   2.462   1.125
 7370SOL     OW23008   2.447   2.478   5.207
 7370SOL    HW123009   2.446   2.560   5.150
 7370SOL    HW223010   2.541   2.456   5.233
 7371SOL     OW23011   3.113   6.873   4.005
 7371SOL    HW123012   3.152   6.831   4.087
 7371SOL    HW223013   3.043   6.813   3.967
 7372SOL     OW23014   4.032   0.251   5.069
 7372SOL    HW123015   4.028   0.168   5.013
 7372SOL    HW223016   3.982   0.325   5.023
 7373SOL     OW23017   4.984   1.653   5.222
 7373SOL    HW123018   4.979   1.744   5.262
 7373SOL    HW223019   5.013   1.587   5.291
 7374SOL     OW23020   1.475   1.689   4.939
 7374SOL    HW123021   1.432   1.763   4.887
 7374SOL    HW223022   1.438   1.689   5.033
 7375SOL     OW23023   2.179   2.971   2.268
 7375SOL    HW123024   2.232   2.984   2.184
 7375SOL    HW223025   2.238   2.930   2.338
 7376SOL     OW23026   1.551   3.371   1.361
 7376SOL    HW123027   1.599   3.293   1.321
 7376SOL    HW223028   1.457   3.345   1.384
 7377SOL     OW23029   3.666   5.158   0.523
 7377SOL    HW123030   3.749   5.198   0.564
 7377SOL    HW223031   3.602   5.232   0.502
 7378SOL     OW23032   1.756   0.172   4.094
 7378SOL    HW123033   1.668   0.149   4.136
 7378SOL    HW223034   1.762   0.128   4.004
 7379SOL     OW23035   3.251   0.302   1.277
 7379SOL    HW123036   3.287   0.307   1.370
 7379SOL    HW223037   3.194   0.220   1.268
 7380SOL     OW23038   6.376   4.110   3.773
 7380SOL    HW123039   6.287   4.153   3.784
 7380SOL    HW223040   6.368   4.011   3.788
 7381SOL     OW23041   4.135   2.660   0.885
 7381SOL    HW123042   4.071   2.737   0.892
 7381SOL    HW223043   4.220   2.682   0.933
 7382SOL     OW23044   6.059   2.000   5.910
 7382SOL    HW123045   6.103   2.087   5.887
 7382SOL    HW223046   6.095   1.967   5.997
 7383SOL     OW23047   1.772   6.081   2.227
 7383SOL    HW123048   1.837   6.156   2.218
 7383SOL    HW223049   1.738   6.055   2.136
 7384SOL     OW23050   6.619   6.616   1.257
 7384SOL    HW123051   6.681   6.653   1.326
 7384SOL    HW223052   6.597   6.687   1.190
 7385SOL     OW23053   3.111   5.229   2.642
 7385SOL    HW123054   3.174   5.175   2.697
 7385SOL    HW223055   3.157   5.311   2.608
 7386SOL     OW23056   0.202   3.307   6.432
 7386SOL    HW123057   0.275   3.319   6.499
 7386SOL    HW223058   0.227   3.235   6.367
 7387SOL     OW23059   5.907   4.942   5.753
 7387SOL    HW123060   5.863   5.032   5.755
 7387SOL    HW223061   5.883   4.891   5.836
 7388SOL     OW23062   1.019   5.608   2.614
 7388SOL    HW123063   0.926   5.588   2.646
 7388SOL    HW223064   1.081   5.611   2.692
 7389SOL     OW23065   0.179   3.001   0.163
 7389SOL    HW123066   0.100   3.002   0.225
 7389SOL    HW223067   0.149   2.980   0.070
 7390SOL     OW23068   2.915   1.803   2.489
 7390SOL    HW123069   2.951   1.896   2.485
 7390SOL    HW223070   2.989   1.738   2.475
 7391SOL     OW23071   3.825   3.567   2.398
 7391SOL    HW123072   3.739   3.614   2.414
 7391SOL    HW223073   3.837   3.554   2.299
 7392SOL     OW23074   4.069   6.557   6.529
 7392SOL    HW123075   4.075   6.614   6.611
 7392SOL    HW223076   3.987   6.581   6.477
 7393SOL     OW23077   6.734   4.759   3.811
 7393SOL    HW123078   6.689   4.747   3.723
 7393SOL    HW223079   6.674   4.724   3.884
 7394SOL     OW23080   2.133   2.872   6.351
 7394SOL    HW123081   2.203   2.851   6.283
 7394SOL    HW223082   2.048   2.897   6.304
 7395SOL     OW23083   2.236   3.324   1.258
 7395SOL    HW123084   2.255   3.265   1.336
 7395SOL    HW223085   2.319   3.333   1.202
 7396SOL     OW23086   2.495   5.742   1.777
 7396SOL    HW123087   2.483   5.767   1.873
 7396SOL    HW223088   2.548   5.813   1.731
 7397SOL     OW23089   4.911   3.782   4.826
 7397SOL    HW123090   4.967   3.809   4.904
 7397SOL    HW223091   4.823   3.748   4.858
 7398SOL     OW23092   1.448   4.783   3.335
 7398SOL    HW123093   1.523   4.755   3.275
 7398SOL    HW223094   1.481   4.852   3.400
 7399SOL     OW23095   5.947   3.042   4.599
 7399SOL    HW123096   5.927   3.046   4.500
 7399SOL    HW223097   5.871   3.083   4.649
 7400SOL     OW23098   5.350   2.312   5.140
 7400SOL    HW123099   5.336   2.254   5.060
 7400SOL    HW223100   5.402   2.393   5.115
 7401SOL     OW23101   1.531   2.718   3.025
 7401SOL    HW123102   1.491   2.707   2.935
 7401SOL    HW223103   1.477   2.783   3.078
 7402SOL     OW23104   2.497   5.205   5.403
 7402SOL    HW123105   2.578   5.198   5.345
 7402SOL    HW223106   2.522   5.184   5.497
 7403SOL     OW23107   2.198   3.004   3.411
 7403SOL    HW123108   2.251   2.922   3.430
 7403SOL    HW223109   2.109   2.978   3.372
 7404SOL     OW23110   3.400   4.183   1.406
 7404SOL    HW123111   3.375   4.253   1.473
 7404SOL    HW223112   3.425   4.226   1.320
 7405SOL     OW23113   3.171   5.616   5.371
 7405SOL    HW123114   3.248   5.642   5.313
 7405SOL    HW223115   3.125   5.698   5.405
 7406SOL     OW23116   0.261   1.372   5.199
 7406SOL    HW123117   0.165   1.377   5.228
 7406SOL    HW223118   0.272   1.420   5.112
 7407SOL     OW23119   0.854   6.199   6.613
 7407SOL    HW123120   0.762   6.170   6.589
 7407SOL    HW223121   0.912   6.198   6.531
 7408SOL     OW23122   3.469   4.322   5.262
 7408SOL    HW123123   3.533   4.389   5.301
 7408SOL    HW223124   3.385   4.320   5.318
 7409SOL     OW23125   5.452   4.010   0.060
 7409SOL    HW123126   5.381   4.061   0.108
 7409SOL    HW223127   5.456   3.917   0.095
 7410SOL     OW23128   0.144   0.953   0.255
 7410SOL    HW123129   0.091   0.897   0.319
 7410SOL    HW223130   0.144   1.048   0.287
 7411SOL     OW23131   1.129   1.790   6.017
 7411SOL    HW123132   1.109   1.733   5.937
 7411SOL    HW223133   1.224   1.821   6.014
 7412SOL     OW23134   3.812   0.027   0.242
 7412SOL    HW123135   3.871   0.010   0.163
 7412SOL    HW223136   3.724   7.004   0.229
 7413SOL     OW23137   4.944   4.879   3.105
 7413SOL    HW123138   4.874   4.948   3.088
 7413SOL    HW223139   5.027   4.903   3.055
 7414SOL     OW23140   1.773   2.203   4.360
 7414SOL    HW123141   1.807   2.293   4.332
 7414SOL    HW223142   1.683   2.213   4.403
 7415SOL     OW23143   3.605   6.714   6.375
 7415SOL    HW123144   3.532   6.776   6.403
 7415SOL    HW223145   3.626   6.729   6.278
 7416SOL     OW23146   1.382   1.157   2.526
 7416SOL    HW123147   1.287   1.181   2.505
 7416SOL    HW223148   1.428   1.234   2.568
 7417SOL     OW23149   1.269   2.459   3.469
 7417SOL    HW123150   1.185   2.506   3.497
 7417SOL    HW223151   1.268   2.445   3.370
 7418SOL     OW23152   1.769   4.773   6.561
 7418SOL    HW123153   1.722   4.685   6.565
 7418SOL    HW223154   1.867   4.758   6.549
 7419SOL     OW23155   6.341   3.775   3.671
 7419SOL    HW123156   6.280   3.850   3.643
 7419SOL    HW223157   6.309   3.689   3.633
 7420SOL     OW23158   0.037   5.921   1.826
 7420SOL    HW123159   0.056   5.842   1.885
 7420SOL    HW223160   0.038   6.004   1.881
 7421SOL     OW23161   4.756   3.719   1.396
 7421SOL    HW123162   4.765   3.624   1.365
 7421SOL    HW223163   4.815   3.777   1.340
 7422SOL     OW23164   6.277   3.222   2.102
 7422SOL    HW123165   6.206   3.290   2.121
 7422SOL    HW223166   6.263   3.185   2.010
 7423SOL     OW23167   5.801   1.919   5.814
 7423SOL    HW123168   5.805   1.936   5.716
 7423SOL    HW223169   5.884   1.955   5.857
 7424SOL     OW23170   6.584   1.140   5.188
 7424SOL    HW123171   6.621   1.193   5.111
 7424SOL    HW223172   6.489   1.117   5.170
 7425SOL     OW23173   5.231   0.125   0.294
 7425SOL    HW123174   5.302   0.130   0.224
 7425SOL    HW223175   5.183   0.037   0.287
 7426SOL     OW23176   3.212   2.813   5.953
 7426SOL    HW123177   3.293   2.793   5.896
 7426SOL    HW223178   3.130   2.783   5.904
 7427SOL     OW23179   3.708   1.528   4.149
 7427SOL    HW123180   3.666   1.552   4.236
 7427SOL    HW223181   3.807   1.523   4.159
 7428SOL     OW23182   4.025   6.360   5.901
 7428SOL    HW123183   3.939   6.322   5.936
 7428SOL    HW223184   4.015   6.458   5.889
 7429SOL     OW23185   1.111   6.817   2.956
 7429SOL    HW123186   1.101   6.727   2.915
 7429SOL    HW223187   1.159   6.878   2.893
 7430SOL     OW23188   6.569   4.560   2.798
 7430SOL    HW123189   6.658   4.603   2.786
 7430SOL    HW223190   6.571   4.466   2.763
 7431SOL     OW23191   2.184   2.510   4.597
 7431SOL    HW123192   2.177   2.535   4.501
 7431SOL    HW223193   2.228   2.421   4.606
 7432SOL     OW23194   1.895   0.282   3.161
 7432SOL    HW123195   1.909   0.285   3.062
 7432SOL    HW223196   1.981   0.258   3.206
 7433SOL     OW23197   2.991   6.562   6.945
 7433SOL    HW123198   3.067   6.530   7.000
 7433SOL    HW223199   2.936   6.484   6.914
 7434SOL     OW23200   4.754   6.280   6.125
 7434SOL    HW123201   4.730   6.244   6.215
 7434SOL    HW223202   4.680   6.337   6.090
 7435SOL     OW23203   4.933   6.389   1.876
 7435SOL    HW123204   5.004   6.327   1.911
 7435SOL    HW223205   4.973   6.479   1.860
 7436SOL     OW23206   5.175   4.016   6.111
 7436SOL    HW123207   5.187   3.979   6.203
 7436SOL    HW223208   5.246   3.978   6.051
 7437SOL     OW23209   2.985   5.516   1.061
 7437SOL    HW123210   3.030   5.532   0.973
 7437SOL    HW223211   3.054   5.513   1.133
 7438SOL     OW23212   2.076   0.796   0.673
 7438SOL    HW123213   2.013   0.785   0.596
 7438SOL    HW223214   2.025   0.811   0.757
 7439SOL     OW23215   1.942   5.500   6.092
 7439SOL    HW123216   1.978   5.445   6.017
 7439SOL    HW223217   2.010   5.566   6.121
 7440SOL     OW23218   5.071   3.193   4.137
 7440SOL    HW123219   5.148   3.176   4.197
 7440SOL    HW223220   4.996   3.131   4.161
 7441SOL     OW23221   5.623   6.382   2.427
 7441SOL    HW123222   5.678   6.466   2.422
 7441SOL    HW223223   5.526   6.406   2.423
 7442SOL     OW23224   5.914   0.925   6.160
 7442SOL    HW123225   5.908   0.980   6.077
 7442SOL    HW223226   5.823   0.902   6.193
 7443SOL     OW23227   6.862   5.815   2.175
 7443SOL    HW123228   6.777   5.799   2.126
 7443SOL    HW223229   6.932   5.752   2.143
 7444SOL     OW23230   7.008   0.639   6.146
 7444SOL    HW123231   6.966   0.613   6.233
 7444SOL    HW223232   6.950   0.608   6.071
 7445SOL     OW23233   3.746   0.018   2.070
 7445SOL    HW123234   3.770   0.113   2.054
 7445SOL    HW223235   3.820   6.995   2.120
 7446SOL     OW23236   5.013   2.889   0.499
 7446SOL    HW123237   4.992   2.977   0.542
 7446SOL    HW223238   4.964   2.882   0.412
 7447SOL     OW23239   0.598   4.349   0.385
 7447SOL    HW123240   0.626   4.280   0.318
 7447SOL    HW223241   0.611   4.314   0.477
 7448SOL     OW23242   5.388   6.058   6.636
 7448SOL    HW123243   5.346   6.107   6.712
 7448SOL    HW223244   5.401   5.962   6.661
 7449SOL     OW23245   0.457   4.579   0.420
 7449SOL    HW123246   0.522   4.504   0.430
 7449SOL    HW223247   0.401   4.565   0.338
 7450SOL     OW23248   5.202   1.840   5.903
 7450SOL    HW123249   5.277   1.905   5.890
 7450SOL    HW223250   5.228   1.771   5.970
 7451SOL     OW23251   5.782   5.433   2.123
 7451SOL    HW123252   5.775   5.415   2.221
 7451SOL    HW223253   5.713   5.500   2.096
 7452SOL     OW23254   5.796   6.352   4.895
 7452SOL    HW123255   5.811   6.440   4.850
 7452SOL    HW223256   5.708   6.355   4.944
 7453SOL     OW23257   5.549   5.574   6.466
 7453SOL    HW123258   5.508   5.489   6.432
 7453SOL    HW223259   5.523   5.587   6.561
 7454SOL     OW23260   3.264   1.954   0.578
 7454SOL    HW123261   3.316   2.023   0.628
 7454SOL    HW223262   3.182   1.930   0.631
 7455SOL     OW23263   6.541   2.874   2.595
 7455SOL    HW123264   6.627   2.894   2.549
 7455SOL    HW223265   6.558   2.858   2.692
 7456SOL     OW23266   2.607   2.508   4.851
 7456SOL    HW123267   2.534   2.552   4.799
 7456SOL    HW223268   2.681   2.574   4.867
 7457SOL     OW23269   2.308   0.154   3.737
 7457SOL    HW123270   2.390   0.096   3.730
 7457SOL    HW223271   2.331   0.238   3.786
 7458SOL     OW23272   1.195   6.788   4.504
 7458SOL    HW123273   1.255   6.708   4.510
 7458SOL    HW223274   1.100   6.760   4.514
 7459SOL     OW23275   6.564   1.300   2.639
 7459SOL    HW123276   6.650   1.320   2.591
 7459SOL    HW223277   6.538   1.205   2.620
 7460SOL     OW23278   1.547   6.792   0.214
 7460SOL    HW123279   1.566   6.814   0.310
 7460SOL    HW223280   1.449   6.779   0.201
 7461SOL     OW23281   0.288   6.046   6.081
 7461SOL    HW123282   0.305   6.095   5.996
 7461SOL    HW223283   0.367   5.991   6.105
 7462SOL     OW23284   1.089   5.519   1.055
 7462SOL    HW123285   1.177   5.529   1.008
 7462SOL    HW223286   1.104   5.522   1.154
 7463SOL     OW23287   3.580   4.743   0.315
 7463SOL    HW123288   3.553   4.755   0.410
 7463SOL    HW223289   3.582   4.646   0.293
 7464SOL     OW23290   0.275   5.575   4.704
 7464SOL    HW123291   0.253   5.538   4.614
 7464SOL    HW223292   0.198   5.630   4.738
 7465SOL     OW23293   2.440   5.075   0.248
 7465SOL    HW123294   2.462   5.029   0.162
 7465SOL    HW223295   2.466   5.171   0.241
 7466SOL     OW23296   0.584   0.550   5.529
 7466SOL    HW123297   0.495   0.510   5.552
 7466SOL    HW223298   0.636   0.485   5.474
 7467SOL     OW23299   0.409   2.815   6.238
 7467SOL    HW123300   0.314   2.785   6.227
 7467SOL    HW223301   0.424   2.841   6.333
 7468SOL     OW23302   5.693   2.937   4.858
 7468SOL    HW123303   5.680   2.908   4.952
 7468SOL    HW223304   5.754   3.017   4.855
 7469SOL     OW23305   6.640   2.107   0.562
 7469SOL    HW123306   6.706   2.112   0.637
 7469SOL    HW223307   6.551   2.078   0.597
 7470SOL     OW23308   5.989   3.693   3.509
 7470SOL    HW123309   5.920   3.641   3.460
 7470SOL    HW223310   5.996   3.661   3.603
 7471SOL     OW23311   5.654   5.968   6.497
 7471SOL    HW123312   5.683   5.879   6.463
 7471SOL    HW223313   5.608   6.018   6.424
 7472SOL     OW23314   6.809   7.006   5.449
 7472SOL    HW123315   6.894   0.035   5.442
 7472SOL    HW223316   6.746   0.014   5.378
 7473SOL     OW23317   4.514   0.134   3.948
 7473SOL    HW123318   4.604   0.175   3.964
 7473SOL    HW223319   4.483   0.157   3.856
 7474SOL     OW23320   5.582   2.478   6.364
 7474SOL    HW123321   5.576   2.419   6.445
 7474SOL    HW223322   5.512   2.549   6.370
 7475SOL     OW23323   4.525   2.033   2.005
 7475SOL    HW123324   4.460   1.957   2.008
 7475SOL    HW223325   4.504   2.092   1.927
 7476SOL     OW23326   2.254   1.904   2.923
 7476SOL    HW123327   2.156   1.917   2.917
 7476SOL    HW223328   2.293   1.975   2.982
 7477SOL     OW23329   0.498   3.879   4.886
 7477SOL    HW123330   0.462   3.907   4.797
 7477SOL    HW223331   0.594   3.854   4.877
 7478SOL     OW23332   6.341   2.189   5.158
 7478SOL    HW123333   6.329   2.125   5.234
 7478SOL    HW223334   6.303   2.278   5.182
 7479SOL     OW23335   5.602   3.400   6.992
 7479SOL    HW123336   5.688   3.446   7.016
 7479SOL    HW223337   5.568   3.349   0.049
 7480SOL     OW23338   3.058   5.089   2.388
 7480SOL    HW123339   3.077   5.145   2.469
 7480SOL    HW223340   3.144   5.057   2.348
 7481SOL     OW23341   6.380   4.438   6.438
 7481SOL    HW123342   6.402   4.357   6.492
 7481SOL    HW223343   6.378   4.518   6.498
 7482SOL     OW23344   4.101   2.237   2.522
 7482SOL    HW123345   4.007   2.269   2.532
 7482SOL    HW223346   4.123   2.228   2.425
 7483SOL     OW23347   4.671   2.147   5.049
 7483SOL    HW123348   4.727   2.191   4.979
 7483SOL    HW223349   4.576   2.142   5.017
 7484SOL     OW23350   2.303   6.266   5.028
 7484SOL    HW123351   2.212   6.262   5.069
 7484SOL    HW223352   2.324   6.361   5.003
 7485SOL     OW23353   2.535   0.150   4.087
 7485SOL    HW123354   2.577   0.063   4.113
 7485SOL    HW223355   2.605   0.221   4.086
 7486SOL     OW23356   0.525   6.038   0.416
 7486SOL    HW123357   0.507   5.943   0.389
 7486SOL    HW223358   0.613   6.043   0.464
 7487SOL     OW23359   4.869   0.241   3.519
 7487SOL    HW123360   4.921   0.287   3.447
 7487SOL    HW223361   4.789   0.196   3.479
 7488SOL     OW23362   0.790   6.130   4.208
 7488SOL    HW123363   0.881   6.115   4.169
 7488SOL    HW223364   0.748   6.209   4.164
 7489SOL     OW23365   6.060   3.739   0.232
 7489SOL    HW123366   6.097   3.646   0.240
 7489SOL    HW223367   6.135   3.804   0.223
 7490SOL     OW23368   1.298   2.485   2.709
 7490SOL    HW123369   1.295   2.399   2.759
 7490SOL    HW223370   1.271   2.469   2.614
 7491SOL     OW23371   4.549   3.182   0.873
 7491SOL    HW123372   4.516   3.148   0.961
 7491SOL    HW223373   4.611   3.115   0.833
 7492SOL     OW23374   1.612   0.679   3.995
 7492SOL    HW123375   1.645   0.620   4.069
 7492SOL    HW223376   1.512   0.683   3.998
 7493SOL     OW23377   6.460   3.763   5.643
 7493SOL    HW123378   6.555   3.771   5.611
 7493SOL    HW223379   6.398   3.760   5.564
 7494SOL     OW23380   6.133   0.946   2.761
 7494SOL    HW123381   6.059   0.879   2.758
 7494SOL    HW223382   6.140   0.985   2.852
 7495SOL     OW23383   2.280   2.862   4.795
 7495SOL    HW123384   2.309   2.929   4.864
 7495SOL    HW223385   2.200   2.813   4.828
 7496SOL     OW23386   6.134   3.831   3.299
 7496SOL    HW123387   6.062   3.781   3.348
 7496SOL    HW223388   6.136   3.926   3.332
 7497SOL     OW23389   0.952   6.533   0.559
 7497SOL    HW123390   0.920   6.512   0.466
 7497SOL    HW223391   0.979   6.629   0.564
 7498SOL     OW23392   3.444   0.240   3.094
 7498SOL    HW123393   3.371   0.217   3.030
 7498SOL    HW223394   3.499   0.315   3.057
 7499SOL     OW23395   3.992   2.246   3.997
 7499SOL    HW123396   3.989   2.271   4.093
 7499SOL    HW223397   3.908   2.197   3.972
 7500SOL     OW23398   4.172   6.976   3.517
 7500SOL    HW123399   4.093   6.939   3.467
 7500SOL    HW223400   4.163   0.052   3.525
 7501SOL     OW23401   5.531   2.776   4.270
 7501SOL    HW123402   5.435   2.765   4.245
 7501SOL    HW223403   5.588   2.760   4.189
 7502SOL     OW23404   3.295   0.073   4.735
 7502SOL    HW123405   3.289   6.997   4.720
 7502SOL    HW223406   3.331   0.117   4.653
 7503SOL     OW23407   1.933   6.128   0.825
 7503SOL    HW123408   1.845   6.176   0.828
 7503SOL    HW223409   1.956   6.094   0.916
 7504SOL     OW23410   0.232   6.121   2.619
 7504SOL    HW123411   0.186   6.177   2.688
 7504SOL    HW223412   0.175   6.043   2.596
 7505SOL     OW23413   6.975   0.835   5.208
 7505SOL    HW123414   0.018   0.910   5.197
 7505SOL    HW223415   6.884   0.873   5.228
 7506SOL     OW23416   3.202   1.626   3.372
 7506SOL    HW123417   3.106   1.624   3.398
 7506SOL    HW223418   3.252   1.690   3.431
 7507SOL     OW23419   6.426   3.290   4.724
 7507SOL    HW123420   6.480   3.229   4.783
 7507SOL    HW223421   6.340   3.245   4.699
 7508SOL     OW23422   1.480   5.961   0.193
 7508SOL    HW123423   1.579   5.949   0.197
 7508SOL    HW223424   1.448   6.002   0.278
 7509SOL     OW23425   5.109   3.917   0.218
 7509SOL    HW123426   5.133   3.995   0.161
 7509SOL    HW223427   5.187   3.891   0.274
 7510SOL     OW23428   4.070   3.504   3.985
 7510SOL    HW123429   4.142   3.443   3.951
 7510SOL    HW223430   4.076   3.591   3.936
 7511SOL     OW23431   3.523   5.739   2.705
 7511SOL    HW123432   3.481   5.703   2.788
 7511SOL    HW223433   3.619   5.760   2.722
 7512SOL     OW23434   2.768   7.002   6.979
 7512SOL    HW123435   2.677   6.967   6.997
 7512SOL    HW223436   2.824   6.931   6.937
 7513SOL     OW23437   2.106   2.551   3.505
 7513SOL    HW123438   2.053   2.525   3.585
 7513SOL    HW223439   2.066   2.633   3.463
 7514SOL     OW23440   2.253   4.603   3.155
 7514SOL    HW123441   2.347   4.585   3.184
 7514SOL    HW223442   2.236   4.556   3.068
 7515SOL     OW23443   6.842   4.520   5.108
 7515SOL    HW123444   6.915   4.453   5.105
 7515SOL    HW223445   6.794   4.513   5.196
 7516SOL     OW23446   1.164   5.461   5.470
 7516SOL    HW123447   1.076   5.417   5.454
 7516SOL    HW223448   1.236   5.409   5.425
 7517SOL     OW23449   1.172   2.597   6.984
 7517SOL    HW123450   1.236   2.520   6.990
 7517SOL    HW223451   1.080   2.566   7.008
 7518SOL     OW23452   4.863   3.015   4.206
 7518SOL    HW123453   4.860   3.043   4.301
 7518SOL    HW223454   4.772   3.024   4.165
 7519SOL     OW23455   4.235   0.108   4.639
 7519SOL    HW123456   4.283   0.065   4.562
 7519SOL    HW223457   4.242   0.207   4.631
 7520SOL     OW23458   1.864   1.478   2.127
 7520SOL    HW123459   1.909   1.446   2.210
 7520SOL    HW223460   1.834   1.572   2.139
 7521SOL     OW23461   5.287   1.423   4.629
 7521SOL    HW123462   5.288   1.502   4.691
 7521SOL    HW223463   5.324   1.450   4.540
 7522SOL     OW23464   1.164   6.285   4.212
 7522SOL    HW123465   1.104   6.365   4.215
 7522SOL    HW223466   1.259   6.315   4.207
 7523SOL     OW23467   5.430   1.271   6.256
 7523SOL    HW123468   5.464   1.363   6.269
 7523SOL    HW223469   5.343   1.274   6.206
 7524SOL     OW23470   7.021   2.569   4.167
 7524SOL    HW123471   0.038   2.559   4.075
 7524SOL    HW223472   0.058   2.627   4.223
 7525SOL     OW23473   4.450   6.336   6.642
 7525SOL    HW123474   4.549   6.334   6.657
 7525SOL    HW223475   4.420   6.430   6.632
 7526SOL     OW23476   1.962   3.466   1.873
 7526SOL    HW123477   1.990   3.440   1.780
 7526SOL    HW223478   2.042   3.465   1.933
 7527SOL     OW23479   4.141   5.861   3.699
 7527SOL    HW123480   4.173   5.792   3.633
 7527SOL    HW223481   4.081   5.817   3.766
 7528SOL     OW23482   5.712   2.225   0.062
 7528SOL    HW123483   5.761   2.311   0.047
 7528SOL    HW223484   5.728   2.194   0.156
 7529SOL     OW23485   5.758   1.803   3.842
 7529SOL    HW123486   5.733   1.724   3.786
 7529SOL    HW223487   5.799   1.873   3.785
 7530SOL     OW23488   0.183   1.490   2.172
 7530SOL    HW123489   0.106   1.435   2.141
 7530SOL    HW223490   0.245   1.433   2.226
 7531SOL     OW23491   4.337   2.413   3.606
 7531SOL    HW123492   4.361   2.452   3.517
 7531SOL    HW223493   4.284   2.329   3.592
 7532SOL     OW23494   5.114   5.864   6.886
 7532SOL    HW123495   5.201   5.831   6.849
 7532SOL    HW223496   5.132   5.929   6.959
 7533SOL     OW23497   4.399   3.192   1.655
 7533SOL    HW123498   4.455   3.150   1.727
 7533SOL    HW223499   4.459   3.232   1.585
 7534SOL     OW23500   5.088   6.898   4.334
 7534SOL    HW123501   5.057   6.835   4.263
 7534SOL    HW223502   5.149   6.849   4.397
 7535SOL     OW23503   1.284   6.513   4.424
 7535SOL    HW123504   1.220   6.437   4.414
 7535SOL    HW223505   1.358   6.503   4.357
 7536SOL     OW23506   5.497   6.139   4.605
 7536SOL    HW123507   5.522   6.209   4.538
 7536SOL    HW223508   5.411   6.165   4.650
 7537SOL     OW23509   2.267   5.709   2.163
 7537SOL    HW123510   2.224   5.628   2.203
 7537SOL    HW223511   2.205   5.787   2.173
 7538SOL     OW23512   0.928   3.401   1.611
 7538SOL    HW123513   1.010   3.437   1.654
 7538SOL    HW223514   0.942   3.393   1.512
 7539SOL     OW23515   1.255   5.571   3.842
 7539SOL    HW123516   1.276   5.668   3.852
 7539SOL    HW223517   1.157   5.560   3.825
 7540SOL     OW23518   4.961   5.619   4.070
 7540SOL    HW123519   5.013   5.615   4.156
 7540SOL    HW223520   4.953   5.714   4.041
 7541SOL     OW23521   1.060   3.899   6.665
 7541SOL    HW123522   1.037   3.996   6.672
 7541SOL    HW223523   0.993   3.845   6.716
 7542SOL     OW23524   6.015   6.279   6.009
 7542SOL    HW123525   6.080   6.353   5.996
 7542SOL    HW223526   6.047   6.197   5.962
 7543SOL     OW23527   2.888   0.627   5.400
 7543SOL    HW123528   2.985   0.647   5.416
 7543SOL    HW223529   2.834   0.707   5.425
 7544SOL     OW23530   6.918   2.785   3.787
 7544SOL    HW123531   6.874   2.845   3.720
 7544SOL    HW223532   6.995   2.834   3.829
 7545SOL     OW23533   0.744   5.910   6.722
 7545SOL    HW123534   0.838   5.906   6.757
 7545SOL    HW223535   0.744   5.902   6.623
 7546SOL     OW23536   3.437   2.866   1.969
 7546SOL    HW123537   3.359   2.812   2.001
 7546SOL    HW223538   3.404   2.946   1.919
 7547SOL     OW23539   4.563   0.132   1.785
 7547SOL    HW123540   4.533   0.217   1.742
 7547SOL    HW223541   4.649   0.148   1.835
 7548SOL     OW23542   4.596   2.375   6.423
 7548SOL    HW123543   4.651   2.323   6.489
 7548SOL    HW223544   4.518   2.320   6.394
 7549SOL     OW23545   4.529   2.443   5.677
 7549SOL    HW123546   4.573   2.423   5.589
 7549SOL    HW223547   4.568   2.385   5.748
 7550SOL     OW23548   1.672   4.160   3.851
 7550SOL    HW123549   1.665   4.081   3.791
 7550SOL    HW223550   1.581   4.194   3.873
 7551SOL     OW23551   5.172   2.056   5.219
 7551SOL    HW123552   5.228   2.014   5.290
 7551SOL    HW223553   5.198   2.152   5.210
 7552SOL     OW23554   2.408   6.191   4.181
 7552SOL    HW123555   2.383   6.100   4.215
 7552SOL    HW223556   2.331   6.253   4.193
 7553SOL     OW23557   5.950   5.851   6.119
 7553SOL    HW123558   5.884   5.780   6.144
 7553SOL    HW223559   5.928   5.886   6.028
 7554SOL     OW23560   5.414   1.206   0.268
 7554SOL    HW123561   5.391   1.257   0.350
 7554SOL    HW223562   5.430   1.110   0.292
 7555SOL     OW23563   3.186   6.671   6.717
 7555SOL    HW123564   3.116   6.618   6.670
 7555SOL    HW223565   3.179   6.654   6.816
 7556SOL     OW23566   1.067   1.244   0.657
 7556SOL    HW123567   1.164   1.248   0.681
 7556SOL    HW223568   1.053   1.173   0.588
 7557SOL     OW23569   5.099   0.403   7.001
 7557SOL    HW123570   5.085   0.396   0.077
 7557SOL    HW223571   5.184   0.357   6.975
 7558SOL     OW23572   1.112   2.742   4.471
 7558SOL    HW123573   1.112   2.840   4.492
 7558SOL    HW223574   1.087   2.690   4.553
 7559SOL     OW23575   3.430   2.082   4.900
 7559SOL    HW123576   3.360   2.043   4.961
 7559SOL    HW223577   3.520   2.047   4.927
 7560SOL     OW23578   6.667   0.317   6.469
 7560SOL    HW123579   6.675   0.310   6.370
 7560SOL    HW223580   6.728   0.251   6.513
 7561SOL     OW23581   5.285   1.949   5.455
 7561SOL    HW123582   5.278   2.041   5.493
 7561SOL    HW223583   5.242   1.884   5.517
 7562SOL     OW23584   1.095   5.321   4.845
 7562SOL    HW123585   1.076   5.357   4.936
 7562SOL    HW223586   1.154   5.385   4.796
 7563SOL     OW23587   2.810   6.488   2.067
 7563SOL    HW123588   2.729   6.497   2.125
 7563SOL    HW223589   2.785   6.440   1.983
 7564SOL     OW23590   4.634   0.623   4.825
 7564SOL    HW123591   4.674   0.560   4.892
 7564SOL    HW223592   4.537   0.634   4.843
 7565SOL     OW23593   5.491   3.440   6.340
 7565SOL    HW123594   5.478   3.539   6.339
 7565SOL    HW223595   5.469   3.404   6.431
 7566SOL     OW23596   4.840   4.841   2.158
 7566SOL    HW123597   4.836   4.885   2.248
 7566SOL    HW223598   4.856   4.910   2.088
 7567SOL     OW23599   0.316   0.970   4.048
 7567SOL    HW123600   0.264   1.020   4.118
 7567SOL    HW223601   0.317   1.023   3.963
 7568SOL     OW23602   5.911   5.293   1.767
 7568SOL    HW123603   5.860   5.223   1.717
 7568SOL    HW223604   5.853   5.373   1.781
 7569SOL     OW23605   3.795   4.541   6.369
 7569SOL    HW123606   3.812   4.507   6.276
 7569SOL    HW223607   3.849   4.624   6.384
 7570SOL     OW23608   6.914   3.103   3.118
 7570SOL    HW123609   6.834   3.146   3.076
 7570SOL    HW223610   6.995   3.158   3.099
 7571SOL     OW23611   5.741   3.408   2.897
 7571SOL    HW123612   5.788   3.402   2.809
 7571SOL    HW223613   5.785   3.478   2.954
 7572SOL     OW23614   4.943   6.754   2.675
 7572SOL    HW123615   5.018   6.724   2.616
 7572SOL    HW223616   4.883   6.815   2.623
 7573SOL     OW23617   5.714   6.551   5.642
 7573SOL    HW123618   5.626   6.598   5.636
 7573SOL    HW223619   5.721   6.505   5.731
 7574SOL     OW23620   6.387   0.815   3.937
 7574SOL    HW123621   6.339   0.819   3.850
 7574SOL    HW223622   6.418   0.907   3.963
 7575SOL     OW23623   6.440   6.540   0.965
 7575SOL    HW123624   6.468   6.453   0.924
 7575SOL    HW223625   6.446   6.613   0.897
 7576SOL     OW23626   5.638   2.872   0.993
 7576SOL    HW123627   5.589   2.949   0.953
 7576SOL    HW223628   5.573   2.799   1.017
 7577SOL     OW23629   0.493   0.018   0.527
 7577SOL    HW123630   0.453   7.012   0.440
 7577SOL    HW223631   0.443   0.096   0.564
 7578SOL     OW23632   0.501   5.309   3.274
 7578SOL    HW123633   0.598   5.316   3.299
 7578SOL    HW223634   0.493   5.309   3.174
 7579SOL     OW23635   6.622   1.973   1.749
 7579SOL    HW123636   6.617   1.970   1.649
 7579SOL    HW223637   6.698   1.915   1.780
 7580SOL     OW23638   1.869   4.491   3.345
 7580SOL    HW123639   1.928   4.414   3.319
 7580SOL    HW223640   1.783   4.486   3.294
 7581SOL     OW23641   0.484   1.132   1.584
 7581SOL    HW123642   0.486   1.141   1.684
 7581SOL    HW223643   0.565   1.177   1.545
 7582SOL     OW23644   4.202   1.497   4.131
 7582SOL    HW123645   4.267   1.424   4.153
 7582SOL    HW223646   4.167   1.484   4.039
 7583SOL     OW23647   4.988   3.351   3.468
 7583SOL    HW123648   5.050   3.334   3.392
 7583SOL    HW223649   4.965   3.264   3.513
 7584SOL     OW23650   1.583   1.067   2.739
 7584SOL    HW123651   1.526   0.988   2.719
 7584SOL    HW223652   1.554   1.109   2.825
 7585SOL     OW23653   1.068   2.297   6.459
 7585SOL    HW123654   1.007   2.302   6.380
 7585SOL    HW223655   1.117   2.209   6.457
 7586SOL     OW23656   1.407   0.724   1.955
 7586SOL    HW123657   1.482   0.788   1.972
 7586SOL    HW223658   1.370   0.693   2.043
 7587SOL     OW23659   3.266   0.764   0.742
 7587SOL    HW123660   3.251   0.760   0.643
 7587SOL    HW223661   3.318   0.845   0.765
 7588SOL     OW23662   1.150   3.174   4.728
 7588SOL    HW123663   1.135   3.109   4.802
 7588SOL    HW223664   1.230   3.231   4.748
 7589SOL     OW23665   0.791   0.729   2.689
 7589SOL    HW123666   0.826   0.713   2.781
 7589SOL    HW223667   0.814   0.652   2.630
 7590SOL     OW23668   0.533   1.808   0.349
 7590SOL    HW123669   0.555   1.847   0.260
 7590SOL    HW223670   0.591   1.850   0.419
 7591SOL     OW23671   4.398   3.173   6.986
 7591SOL    HW123672   4.404   3.173   0.063
 7591SOL    HW223673   4.312   3.132   6.957
 7592SOL     OW23674   6.207   5.440   5.366
 7592SOL    HW123675   6.269   5.516   5.346
 7592SOL    HW223676   6.123   5.474   5.408
 7593SOL     OW23677   0.045   1.674   5.362
 7593SOL    HW123678   0.060   1.746   5.430
 7593SOL    HW223679   0.013   1.591   5.408
 7594SOL     OW23680   0.228   4.190   1.093
 7594SOL    HW123681   0.302   4.180   1.159
 7594SOL    HW223682   0.214   4.287   1.072
 7595SOL     OW23683   6.189   2.946   6.026
 7595SOL    HW123684   6.133   2.866   6.044
 7595SOL    HW223685   6.155   2.993   5.945
 7596SOL     OW23686   3.196   0.545   5.214
 7596SOL    HW123687   3.174   0.596   5.298
 7596SOL    HW223688   3.182   0.604   5.135
 7597SOL     OW23689   2.142   5.755   2.546
 7597SOL    HW123690   2.089   5.839   2.560
 7597SOL    HW223691   2.098   5.700   2.476
 7598SOL     OW23692   5.948   0.767   2.403
 7598SOL    HW123693   5.931   0.779   2.305
 7598SOL    HW223694   5.990   0.678   2.419
 7599SOL     OW23695   4.180   3.360   0.884
 7599SOL    HW123696   4.251   3.424   0.855
 7599SOL    HW223697   4.110   3.410   0.935
 7600SOL     OW23698   1.437   1.171   3.859
 7600SOL    HW123699   1.358   1.154   3.918
 7600SOL    HW223700   1.428   1.117   3.775
 7601SOL     OW23701   3.956   5.521   2.240
 7601SOL    HW123702   3.876   5.555   2.289
 7601SOL    HW223703   4.003   5.452   2.296
 7602SOL     OW23704   0.336   2.183   0.410
 7602SOL    HW123705   0.299   2.091   0.398
 7602SOL    HW223706   0.273   2.237   0.467
 7603SOL     OW23707   2.526   0.073   5.932
 7603SOL    HW123708   2.583   7.018   5.962
 7603SOL    HW223709   2.578   0.129   5.868
 7604SOL     OW23710   1.235   1.950   5.095
 7604SOL    HW123711   1.293   2.032   5.089
 7604SOL    HW223712   1.223   1.911   5.004
 7605SOL     OW23713   2.115   0.151   6.537
 7605SOL    HW123714   2.056   0.191   6.467
 7605SOL    HW223715   2.195   0.209   6.550
 7606SOL     OW23716   6.277   1.504   4.336
 7606SOL    HW123717   6.208   1.454   4.388
 7606SOL    HW223718   6.233   1.574   4.280
 7607SOL     OW23719   3.161   6.201   6.835
 7607SOL    HW123720   3.080   6.163   6.880
 7607SOL    HW223721   3.177   6.293   6.869
 7608SOL     OW23722   5.153   2.508   6.388
 7608SOL    HW123723   5.109   2.511   6.477
 7608SOL    HW223724   5.239   2.559   6.391
 7609SOL     OW23725   0.340   2.892   3.819
 7609SOL    HW123726   0.378   2.928   3.904
 7609SOL    HW223727   0.380   2.941   3.742
 7610SOL     OW23728   3.479   5.033   6.583
 7610SOL    HW123729   3.536   4.955   6.611
 7610SOL    HW223730   3.494   5.052   6.486
 7611SOL     OW23731   4.826   3.209   1.165
 7611SOL    HW123732   4.914   3.241   1.200
 7611SOL    HW223733   4.763   3.286   1.155
 7612SOL     OW23734   3.241   2.046   2.995
 7612SOL    HW123735   3.293   2.035   3.080
 7612SOL    HW223736   3.298   2.017   2.917
 7613SOL     OW23737   1.444   1.626   2.505
 7613SOL    HW123738   1.524   1.607   2.448
 7613SOL    HW223739   1.395   1.540   2.522
 7614SOL     OW23740   4.994   3.175   0.817
 7614SOL    HW123741   4.929   3.144   0.887
 7614SOL    HW223742   4.958   3.152   0.726
 7615SOL     OW23743   5.313   3.184   5.217
 7615SOL    HW123744   5.246   3.110   5.228
 7615SOL    HW223745   5.401   3.145   5.191
 7616SOL     OW23746   5.787   6.523   3.532
 7616SOL    HW123747   5.747   6.441   3.493
 7616SOL    HW223748   5.780   6.599   3.468
 7617SOL     OW23749   5.095   5.286   3.150
 7617SOL    HW123750   5.041   5.203   3.143
 7617SOL    HW223751   5.107   5.310   3.247
 7618SOL     OW23752   2.468   2.033   0.206
 7618SOL    HW123753   2.568   2.034   0.209
 7618SOL    HW223754   2.438   2.057   0.113
 7619SOL     OW23755   0.745   2.279   4.449
 7619SOL    HW123756   0.745   2.377   4.426
 7619SOL    HW223757   0.832   2.239   4.420
 7620SOL     OW23758   3.605   4.648   0.986
 7620SOL    HW123759   3.647   4.574   1.039
 7620SOL    HW223760   3.564   4.610   0.903
 7621SOL     OW23761   0.285   5.607   1.051
 7621SOL    HW123762   0.328   5.520   1.027
 7621SOL    HW223763   0.347   5.682   1.032
 7622SOL     OW23764   4.493   4.623   0.611
 7622SOL    HW123765   4.437   4.633   0.528
 7622SOL    HW223766   4.554   4.544   0.601
 7623SOL     OW23767   4.037   4.875   1.531
 7623SOL    HW123768   4.067   4.907   1.441
 7623SOL    HW223769   4.062   4.778   1.541
 7624SOL     OW23770   0.523   2.322   1.967
 7624SOL    HW123771   0.428   2.292   1.969
 7624SOL    HW223772   0.568   2.285   1.885
 7625SOL     OW23773   5.228   1.724   0.421
 7625SOL    HW123774   5.145   1.749   0.372
 7625SOL    HW223775   5.205   1.696   0.514
 7626SOL     OW23776   5.812   0.434   5.749
 7626SOL    HW123777   5.800   0.524   5.791
 7626SOL    HW223778   5.900   0.430   5.702
 7627SOL     OW23779   3.450   2.415   0.169
 7627SOL    HW123780   3.529   2.379   0.218
 7627SOL    HW223781   3.411   2.492   0.221
 7628SOL     OW23782   3.375   2.159   0.731
 7628SOL    HW123783   3.287   2.199   0.754
 7628SOL    HW223784   3.449   2.224   0.750
 7629SOL     OW23785   5.598   3.255   3.756
 7629SOL    HW123786   5.636   3.332   3.707
 7629SOL    HW223787   5.597   3.174   3.697
 7630SOL     OW23788   1.441   0.472   5.127
 7630SOL    HW123789   1.361   0.463   5.067
 7630SOL    HW223790   1.524   0.453   5.074
 7631SOL     OW23791   2.143   0.008   4.922
 7631SOL    HW123792   2.156   0.101   4.956
 7631SOL    HW223793   2.221   7.005   4.865
 7632SOL     OW23794   4.732   5.838   0.807
 7632SOL    HW123795   4.668   5.909   0.775
 7632SOL    HW223796   4.825   5.865   0.784
 7633SOL     OW23797   5.638   0.686   0.975
 7633SOL    HW123798   5.586   0.730   1.048
 7633SOL    HW223799   5.576   0.652   0.905
 7634SOL     OW23800   1.537   2.177   0.735
 7634SOL    HW123801   1.602   2.193   0.809
 7634SOL    HW223802   1.476   2.101   0.761
 7635SOL     OW23803   2.760   5.160   5.011
 7635SOL    HW123804   2.661   5.166   4.998
 7635SOL    HW223805   2.805   5.147   4.923
 7636SOL     OW23806   0.908   4.899   4.648
 7636SOL    HW123807   0.888   4.994   4.622
 7636SOL    HW223808   1.003   4.878   4.627
 7637SOL     OW23809   0.442   6.602   4.255
 7637SOL    HW123810   0.410   6.563   4.168
 7637SOL    HW223811   0.531   6.563   4.277
 7638SOL     OW23812   0.742   5.171   1.827
 7638SOL    HW123813   0.646   5.176   1.856
 7638SOL    HW223814   0.798   5.222   1.892
 7639SOL     OW23815   0.786   1.132   0.330
 7639SOL    HW123816   0.768   1.224   0.363
 7639SOL    HW223817   0.754   1.123   0.236
 7640SOL     OW23818   3.097   1.134   6.794
 7640SOL    HW123819   2.998   1.145   6.791
 7640SOL    HW223820   3.138   1.210   6.843
 7641SOL     OW23821   6.491   4.127   2.963
 7641SOL    HW123822   6.515   4.058   3.032
 7641SOL    HW223823   6.409   4.096   2.913
 7642SOL     OW23824   5.737   1.442   3.338
 7642SOL    HW123825   5.671   1.511   3.308
 7642SOL    HW223826   5.828   1.466   3.306
 7643SOL     OW23827   5.213   2.648   3.007
 7643SOL    HW123828   5.198   2.717   2.936
 7643SOL    HW223829   5.289   2.675   3.065
 7644SOL     OW23830   4.587   3.296   1.471
 7644SOL    HW123831   4.635   3.320   1.387
 7644SOL    HW223832   4.635   3.223   1.518
 7645SOL     OW23833   3.317   4.129   5.985
 7645SOL    HW123834   3.344   4.036   5.961
 7645SOL    HW223835   3.394   4.191   5.971
 7646SOL     OW23836   1.282   2.778   2.666
 7646SOL    HW123837   1.355   2.847   2.668
 7646SOL    HW223838   1.323   2.688   2.650
 7647SOL     OW23839   6.947   3.162   4.905
 7647SOL    HW123840   6.951   3.261   4.895
 7647SOL    HW223841   6.870   3.137   4.963
 7648SOL     OW23842   1.988   2.122   3.299
 7648SOL    HW123843   1.895   2.153   3.277
 7648SOL    HW223844   1.988   2.083   3.391
 7649SOL     OW23845   6.711   1.185   4.516
 7649SOL    HW123846   6.626   1.166   4.467
 7649SOL    HW223847   6.758   1.100   4.537
 7650SOL     OW23848   3.874   0.844   1.467
 7650SOL    HW123849   3.783   0.812   1.439
 7650SOL    HW223850   3.935   0.765   1.476
 7651SOL     OW23851   2.425   5.089   4.514
 7651SOL    HW123852   2.475   5.051   4.437
 7651SOL    HW223853   2.472   5.067   4.599
 7652SOL     OW23854   6.120   1.679   4.542
 7652SOL    HW123855   6.121   1.579   4.539
 7652SOL    HW223856   6.164   1.711   4.626
 7653SOL     OW23857   0.597   2.036   6.763
 7653SOL    HW123858   0.567   2.028   6.858
 7653SOL    HW223859   0.518   2.043   6.703
 7654SOL     OW23860   6.263   3.422   5.166
 7654SOL    HW123861   6.207   3.504   5.166
 7654SOL    HW223862   6.346   3.437   5.220
 7655SOL     OW23863   2.939   0.731   3.562
 7655SOL    HW123864   2.989   0.689   3.486
 7655SOL    HW223865   2.924   0.828   3.541
 7656SOL     OW23866   6.867   3.876   6.456
 7656SOL    HW123867   6.867   3.779   6.432
 7656SOL    HW223868   6.951   3.918   6.422
 7657SOL     OW23869   1.496   4.266   4.867
 7657SOL    HW123870   1.576   4.285   4.924
 7657SOL    HW223871   1.417   4.244   4.925
 7658SOL     OW23872   2.459   0.454   0.573
 7658SOL    HW123873   2.508   0.541   0.578
 7658SOL    HW223874   2.362   0.469   0.592
 7659SOL     OW23875   4.822   4.046   5.278
 7659SOL    HW123876   4.882   4.028   5.200
 7659SOL    HW223877   4.770   4.130   5.261
 7660SOL     OW23878   0.156   5.039   4.507
 7660SOL    HW123879   0.199   5.128   4.499
 7660SOL    HW223880   0.222   4.973   4.542
 7661SOL     OW23881   4.687   2.091   5.879
 7661SOL    HW123882   4.730   2.180   5.871
 7661SOL    HW223883   4.755   2.022   5.903
 7662SOL     OW23884   1.502   1.918   2.323
 7662SOL    HW123885   1.439   1.930   2.400
 7662SOL    HW223886   1.583   1.869   2.353
 7663SOL     OW23887   5.775   5.186   5.695
 7663SOL    HW123888   5.746   5.270   5.650
 7663SOL    HW223889   5.736   5.107   5.647
 7664SOL     OW23890   4.218   1.213   2.910
 7664SOL    HW123891   4.200   1.158   2.829
 7664SOL    HW223892   4.131   1.238   2.953
 7665SOL     OW23893   4.264   2.268   3.994
 7665SOL    HW123894   4.322   2.198   3.952
 7665SOL    HW223895   4.174   2.267   3.950
 7666SOL     OW23896   5.984   5.558   3.686
 7666SOL    HW123897   6.065   5.544   3.742
 7666SOL    HW223898   5.909   5.501   3.720
 7667SOL     OW23899   4.806   6.197   2.393
 7667SOL    HW123900   4.724   6.253   2.390
 7667SOL    HW223901   4.795   6.125   2.462
 7668SOL     OW23902   2.079   5.209   0.850
 7668SOL    HW123903   2.168   5.208   0.896
 7668SOL    HW223904   2.018   5.144   0.896
 7669SOL     OW23905   3.265   6.164   6.056
 7669SOL    HW123906   3.295   6.221   5.980
 7669SOL    HW223907   3.235   6.221   6.132
 7670SOL     OW23908   0.343   6.258   0.314
 7670SOL    HW123909   0.426   6.214   0.350
 7670SOL    HW223910   0.344   6.251   0.214
 7671SOL     OW23911   5.289   0.357   1.954
 7671SOL    HW123912   5.383   0.370   1.985
 7671SOL    HW223913   5.239   0.443   1.963
 7672SOL     OW23914   5.477   4.675   3.040
 7672SOL    HW123915   5.515   4.758   3.081
 7672SOL    HW223916   5.463   4.606   3.111
 7673SOL     OW23917   1.101   5.838   3.709
 7673SOL    HW123918   1.155   5.815   3.628
 7673SOL    HW223919   1.131   5.927   3.744
 7674SOL     OW23920   3.516   0.107   4.422
 7674SOL    HW123921   3.579   0.031   4.409
 7674SOL    HW223922   3.550   0.187   4.373
 7675SOL     OW23923   3.631   6.548   3.041
 7675SOL    HW123924   3.590   6.469   3.085
 7675SOL    HW223925   3.714   6.520   2.993
 7676SOL     OW23926   3.095   3.298   5.786
 7676SOL    HW123927   3.134   3.209   5.762
 7676SOL    HW223928   3.111   3.363   5.712
 7677SOL     OW23929   6.082   4.338   1.505
 7677SOL    HW123930   6.006   4.280   1.478
 7677SOL    HW223931   6.090   4.415   1.442
 7678SOL     OW23932   1.630   1.900   5.652
 7678SOL    HW123933   1.627   1.980   5.592
 7678SOL    HW223934   1.552   1.902   5.715
 7679SOL     OW23935   2.453   5.529   4.889
 7679SOL    HW123936   2.475   5.444   4.842
 7679SOL    HW223937   2.435   5.601   4.822
 7680SOL     OW23938   1.856   0.565   5.188
 7680SOL    HW123939   1.850   0.632   5.115
 7680SOL    HW223940   1.941   0.579   5.240
 7681SOL     OW23941   3.139   2.904   6.240
 7681SOL    HW123942   3.219   2.900   6.180
 7681SOL    HW223943   3.139   2.824   6.301
 7682SOL     OW23944   3.037   1.629   3.091
 7682SOL    HW123945   3.097   1.556   3.124
 7682SOL    HW223946   3.014   1.613   2.995
 7683SOL     OW23947   0.132   1.177   4.506
 7683SOL    HW123948   0.118   1.109   4.577
 7683SOL    HW223949   0.071   1.255   4.522
 7684SOL     OW23950   4.102   2.511   1.623
 7684SOL    HW123951   4.051   2.452   1.685
 7684SOL    HW223952   4.074   2.606   1.637
 7685SOL     OW23953   3.355   0.524   0.371
 7685SOL    HW123954   3.355   0.620   0.399
 7685SOL    HW223955   3.409   0.471   0.436
 7686SOL     OW23956   4.353   0.363   4.583
 7686SOL    HW123957   4.320   0.442   4.531
 7686SOL    HW223958   4.449   0.345   4.560
 7687SOL     OW23959   5.620   5.148   4.494
 7687SOL    HW123960   5.700   5.135   4.435
 7687SOL    HW223961   5.597   5.246   4.497
 7688SOL     OW23962   0.754   5.265   6.301
 7688SOL    HW123963   0.771   5.191   6.366
 7688SOL    HW223964   0.659   5.295   6.310
 7689SOL     OW23965   4.474   0.339   1.654
 7689SOL    HW123966   4.423   0.336   1.568
 7689SOL    HW223967   4.508   0.432   1.669
 7690SOL     OW23968   6.241   5.006   0.439
 7690SOL    HW123969   6.239   4.925   0.497
 7690SOL    HW223970   6.164   5.066   0.461
 7691SOL     OW23971   4.463   4.443   3.508
 7691SOL    HW123972   4.549   4.478   3.472
 7691SOL    HW223973   4.479   4.397   3.595
 7692SOL     OW23974   1.098   6.433   2.212
 7692SOL    HW123975   1.086   6.334   2.208
 7692SOL    HW223976   1.067   6.474   2.126
 7693SOL     OW23977   2.513   1.011   0.881
 7693SOL    HW123978   2.454   1.077   0.835
 7693SOL    HW223979   2.582   0.977   0.817
 7694SOL     OW23980   5.793   2.703   4.562
 7694SOL    HW123981   5.860   2.729   4.632
 7694SOL    HW223982   5.744   2.785   4.531
 7695SOL     OW23983   6.398   0.468   3.168
 7695SOL    HW123984   6.345   0.528   3.109
 7695SOL    HW223985   6.438   0.394   3.114
 7696SOL     OW23986   0.580   2.203   6.484
 7696SOL    HW123987   0.506   2.172   6.544
 7696SOL    HW223988   0.562   2.296   6.454
 7697SOL     OW23989   3.720   6.886   2.810
 7697SOL    HW123990   3.655   6.960   2.828
 7697SOL    HW223991   3.810   6.911   2.845
 7698SOL     OW23992   6.335   2.063   6.683
 7698SOL    HW123993   6.242   2.025   6.680
 7698SOL    HW223994   6.357   2.089   6.777
 7699SOL     OW23995   3.534   5.765   6.672
 7699SOL    HW123996   3.449   5.759   6.725
 7699SOL    HW223997   3.563   5.860   6.667
 7700SOL     OW23998   4.741   6.117   2.722
 7700SOL    HW123999   4.696   6.123   2.811
 7700SOL    HW224000   4.829   6.072   2.732
 7701SOL     OW24001   0.467   2.906   6.484
 7701SOL    HW124002   0.497   2.984   6.429
 7701SOL    HW224003   0.539   2.882   6.549
 7702SOL     OW24004   4.777   6.753   5.414
 7702SOL    HW124005   4.738   6.661   5.410
 7702SOL    HW224006   4.775   6.786   5.509
 7703SOL     OW24007   6.188   0.113   4.372
 7703SOL    HW124008   6.165   0.205   4.404
 7703SOL    HW224009   6.282   0.111   4.341
 7704SOL     OW24010   6.138   1.446   3.987
 7704SOL    HW124011   6.061   1.501   4.019
 7704SOL    HW224012   6.142   1.451   3.887
 7705SOL     OW24013   2.159   4.731   0.413
 7705SOL    HW124014   2.176   4.732   0.511
 7705SOL    HW224015   2.228   4.674   0.368
 7706SOL     OW24016   3.746   2.916   2.741
 7706SOL    HW124017   3.704   3.006   2.754
 7706SOL    HW224018   3.806   2.918   2.661
 7707SOL     OW24019   6.459   5.949   0.180
 7707SOL    HW124020   6.448   5.990   0.271
 7707SOL    HW224021   6.529   5.878   0.184
 7708SOL     OW24022   2.633   6.656   4.319
 7708SOL    HW124023   2.571   6.731   4.295
 7708SOL    HW224024   2.728   6.687   4.307
 7709SOL     OW24025   6.650   4.553   0.892
 7709SOL    HW124026   6.639   4.562   0.793
 7709SOL    HW224027   6.633   4.642   0.935
 7710SOL     OW24028   1.816   3.337   0.454
 7710SOL    HW124029   1.761   3.258   0.481
 7710SOL    HW224030   1.856   3.379   0.535
 7711SOL     OW24031   6.790   4.631   5.626
 7711SOL    HW124032   6.738   4.657   5.545
 7711SOL    HW224033   6.728   4.618   5.703
 7712SOL     OW24034   6.650   4.822   5.967
 7712SOL    HW124035   6.720   4.873   6.017
 7712SOL    HW224036   6.561   4.836   6.011
 7713SOL     OW24037   1.776   4.943   0.732
 7713SOL    HW124038   1.677   4.947   0.746
 7713SOL    HW224039   1.821   5.009   0.793
 7714SOL     OW24040   6.759   0.996   4.226
 7714SOL    HW124041   6.794   0.981   4.319
 7714SOL    HW224042   6.764   0.910   4.175
 7715SOL     OW24043   2.037   2.633   6.342
 7715SOL    HW124044   2.073   2.727   6.337
 7715SOL    HW224045   2.064   2.591   6.429
 7716SOL     OW24046   0.628   6.186   6.259
 7716SOL    HW124047   0.718   6.146   6.241
 7716SOL    HW224048   0.577   6.126   6.320
 7717SOL     OW24049   1.652   1.924   6.476
 7717SOL    HW124050   1.671   1.920   6.574
 7717SOL    HW224051   1.600   2.007   6.455
 7718SOL     OW24052   1.445   4.221   2.561
 7718SOL    HW124053   1.518   4.185   2.619
 7718SOL    HW224054   1.462   4.196   2.466
 7719SOL     OW24055   1.589   3.797   4.747
 7719SOL    HW124056   1.584   3.893   4.775
 7719SOL    HW224057   1.571   3.790   4.649
 7720SOL     OW24058   6.204   1.800   6.380
 7720SOL    HW124059   6.295   1.780   6.416
 7720SOL    HW224060   6.143   1.825   6.455
 7721SOL     OW24061   1.436   0.101   2.730
 7721SOL    HW124062   1.452   0.113   2.828
 7721SOL    HW224063   1.522   0.110   2.681
 7722SOL     OW24064   2.250   5.191   4.093
 7722SOL    HW124065   2.151   5.184   4.104
 7722SOL    HW224066   2.283   5.272   4.142
 7723SOL     OW24067   5.122   3.020   6.758
 7723SOL    HW124068   5.146   3.109   6.798
 7723SOL    HW224069   5.052   2.976   6.813
 7724SOL     OW24070   2.856   4.068   1.571
 7724SOL    HW124071   2.788   4.059   1.498
 7724SOL    HW224072   2.867   3.980   1.617
 7725SOL     OW24073   5.820   2.717   2.560
 7725SOL    HW124074   5.918   2.696   2.563
 7725SOL    HW224075   5.798   2.783   2.632
 7726SOL     OW24076   0.762   3.329   5.924
 7726SOL    HW124077   0.743   3.349   6.020
 7726SOL    HW224078   0.741   3.233   5.906
 7727SOL     OW24079   4.762   2.564   2.010
 7727SOL    HW124080   4.775   2.656   2.046
 7727SOL    HW224081   4.780   2.497   2.083
 7728SOL     OW24082   2.136   2.864   5.138
 7728SOL    HW124083   2.231   2.896   5.136
 7728SOL    HW224084   2.106   2.857   5.233
 7729SOL     OW24085   6.138   2.100   2.896
 7729SOL    HW124086   6.225   2.125   2.938
 7729SOL    HW224087   6.155   2.043   2.815
 7730SOL     OW24088   5.622   4.717   5.438
 7730SOL    HW124089   5.652   4.811   5.455
 7730SOL    HW224090   5.561   4.687   5.511
 7731SOL     OW24091   5.958   0.020   0.503
 7731SOL    HW124092   6.048   0.056   0.528
 7731SOL    HW224093   5.967   6.981   0.425
 7732SOL     OW24094   4.802   0.477   6.328
 7732SOL    HW124095   4.704   0.493   6.320
 7732SOL    HW224096   4.823   0.383   6.301
 7733SOL     OW24097   6.313   6.048   2.371
 7733SOL    HW124098   6.222   6.010   2.358
 7733SOL    HW224099   6.379   5.996   2.317
 7734SOL     OW24100   2.976   4.089   5.424
 7734SOL    HW124101   2.880   4.068   5.403
 7734SOL    HW224102   3.006   4.167   5.370
 7735SOL     OW24103   6.380   6.208   0.317
 7735SOL    HW124104   6.374   6.202   0.417
 7735SOL    HW224105   6.290   6.189   0.277
 7736SOL     OW24106   2.936   2.877   0.816
 7736SOL    HW124107   2.987   2.834   0.741
 7736SOL    HW224108   2.958   2.975   0.819
 7737SOL     OW24109   4.223   5.643   0.928
 7737SOL    HW124110   4.268   5.598   1.005
 7737SOL    HW224111   4.250   5.740   0.925
 7738SOL     OW24112   2.741   5.988   6.695
 7738SOL    HW124113   2.763   5.891   6.702
 7738SOL    HW224114   2.642   6.001   6.704
 7739SOL     OW24115   1.450   2.656   1.766
 7739SOL    HW124116   1.356   2.682   1.744
 7739SOL    HW224117   1.513   2.726   1.732
 7740SOL     OW24118   1.056   0.916   3.669
 7740SOL    HW124119   1.137   0.974   3.674
 7740SOL    HW224120   1.028   0.891   3.762
 7741SOL     OW24121   1.875   5.009   6.167
 7741SOL    HW124122   1.831   4.940   6.225
 7741SOL    HW224123   1.964   5.033   6.206
 7742SOL     OW24124   3.481   1.706   4.044
 7742SOL    HW124125   3.467   1.803   4.065
 7742SOL    HW224126   3.558   1.672   4.098
 7743SOL     OW24127   5.248   1.075   6.836
 7743SOL    HW124128   5.300   1.147   6.883
 7743SOL    HW224129   5.154   1.076   6.868
 7744SOL     OW24130   0.699   5.890   4.787
 7744SOL    HW124131   0.680   5.957   4.859
 7744SOL    HW224132   0.788   5.848   4.804
 7745SOL     OW24133   1.588   6.260   0.063
 7745SOL    HW124134   1.640   6.346   0.063
 7745SOL    HW224135   1.546   6.247   0.153
 7746SOL     OW24136   0.837   6.107   0.989
 7746SOL    HW124137   0.894   6.026   0.988
 7746SOL    HW224138   0.877   6.176   1.049
 7747SOL     OW24139   0.219   6.457   0.900
 7747SOL    HW124140   0.224   6.514   0.982
 7747SOL    HW224141   0.234   6.513   0.819
 7748SOL     OW24142   4.078   2.800   5.940
 7748SOL    HW124143   4.055   2.885   5.893
 7748SOL    HW224144   4.076   2.815   6.039
 7749SOL     OW24145   3.851   3.673   3.666
 7749SOL    HW124146   3.788   3.742   3.702
 7749SOL    HW224147   3.819   3.641   3.577
 7750SOL     OW24148   5.823   4.818   5.962
 7750SOL    HW124149   5.878   4.764   6.025
 7750SOL    HW224150   5.759   4.875   6.013
 7751SOL     OW24151   6.590   1.610   4.560
 7751SOL    HW124152   6.557   1.607   4.465
 7751SOL    HW224153   6.686   1.639   4.561
 7752SOL     OW24154   5.769   5.502   5.273
 7752SOL    HW124155   5.820   5.542   5.197
 7752SOL    HW224156   5.704   5.569   5.309
 7753SOL     OW24157   2.603   0.426   4.051
 7753SOL    HW124158   2.629   0.521   4.035
 7753SOL    HW224159   2.685   0.372   4.071
 7754SOL     OW24160   5.790   0.145   1.428
 7754SOL    HW124161   5.764   0.172   1.336
 7754SOL    HW224162   5.740   0.199   1.495
 7755SOL     OW24163   0.245   6.220   5.443
 7755SOL    HW124164   0.246   6.201   5.344
 7755SOL    HW224165   0.233   6.318   5.458
 7756SOL     OW24166   2.721   4.658   2.539
 7756SOL    HW124167   2.803   4.701   2.500
 7756SOL    HW224168   2.643   4.719   2.527
 7757SOL     OW24169   4.634   6.256   5.458
 7757SOL    HW124170   4.673   6.247   5.549
 7757SOL    HW224171   4.540   6.224   5.459
 7758SOL     OW24172   2.294   2.778   6.126
 7758SOL    HW124173   2.271   2.694   6.077
 7758SOL    HW224174   2.389   2.802   6.110
 7759SOL     OW24175   2.264   0.560   4.365
 7759SOL    HW124176   2.198   0.520   4.429
 7759SOL    HW224177   2.216   0.625   4.305
 7760SOL     OW24178   5.398   3.245   2.002
 7760SOL    HW124179   5.461   3.168   2.012
 7760SOL    HW224180   5.377   3.283   2.092
 7761SOL     OW24181   3.460   7.007   6.418
 7761SOL    HW124182   3.403   0.059   6.452
 7761SOL    HW224183   3.427   6.920   6.453
 7762SOL     OW24184   4.193   1.234   0.268
 7762SOL    HW124185   4.099   1.213   0.295
 7762SOL    HW224186   4.231   1.158   0.216
 7763SOL     OW24187   1.105   2.013   0.988
 7763SOL    HW124188   1.055   2.098   1.006
 7763SOL    HW224189   1.104   1.955   1.070
 7764SOL     OW24190   3.985   3.373   2.472
 7764SOL    HW124191   3.958   3.320   2.552
 7764SOL    HW224192   3.918   3.446   2.456
 7765SOL     OW24193   6.174   3.444   3.529
 7765SOL    HW124194   6.226   3.516   3.483
 7765SOL    HW224195   6.168   3.465   3.626
 7766SOL     OW24196   6.029   1.481   0.179
 7766SOL    HW124197   5.968   1.450   0.252
 7766SOL    HW224198   6.069   1.569   0.204
 7767SOL     OW24199   4.055   6.396   3.693
 7767SOL    HW124200   4.034   6.299   3.686
 7767SOL    HW224201   3.971   6.449   3.699
 7768SOL     OW24202   3.368   5.016   2.246
 7768SOL    HW124203   3.448   4.970   2.209
 7768SOL    HW224204   3.285   4.977   2.206
 7769SOL     OW24205   4.570   2.137   1.052
 7769SOL    HW124206   4.528   2.053   1.016
 7769SOL    HW224207   4.507   2.182   1.115
 7770SOL     OW24208   3.005   4.938   1.770
 7770SOL    HW124209   3.098   4.942   1.808
 7770SOL    HW224210   2.974   5.031   1.751
 7771SOL     OW24211   2.308   2.066   4.838
 7771SOL    HW124212   2.308   2.027   4.745
 7771SOL    HW224213   2.362   2.151   4.838
 7772SOL     OW24214   4.874   1.056   4.254
 7772SOL    HW124215   4.893   1.132   4.191
 7772SOL    HW224216   4.932   1.065   4.335
 7773SOL     OW24217   4.016   4.106   5.864
 7773SOL    HW124218   4.090   4.051   5.826
 7773SOL    HW224219   3.994   4.073   5.956
 7774SOL     OW24220   5.178   1.223   6.167
 7774SOL    HW124221   5.111   1.298   6.169
 7774SOL    HW224222   5.178   1.182   6.075
 7775SOL     OW24223   3.606   6.751   3.258
 7775SOL    HW124224   3.567   6.843   3.266
 7775SOL    HW224225   3.563   6.703   3.181
 7776SOL     OW24226   3.497   3.342   5.887
 7776SOL    HW124227   3.493   3.287   5.803
 7776SOL    HW224228   3.416   3.324   5.943
 7777SOL     OW24229   2.065   1.101   6.316
 7777SOL    HW124230   2.033   1.024   6.261
 7777SOL    HW224231   2.023   1.185   6.283
 7778SOL     OW24232   5.817   0.431   0.627
 7778SOL    HW124233   5.768   0.354   0.588
 7778SOL    HW224234   5.916   0.414   0.624
 7779SOL     OW24235   3.136   2.244   0.857
 7779SOL    HW124236   3.084   2.161   0.874
 7779SOL    HW224237   3.119   2.310   0.930
 7780SOL     OW24238   1.091   6.071   4.034
 7780SOL    HW124239   1.086   5.976   4.064
 7780SOL    HW224240   1.138   6.126   4.102
 7781SOL     OW24241   1.627   3.684   5.850
 7781SOL    HW124242   1.631   3.772   5.804
 7781SOL    HW224243   1.686   3.685   5.931
 7782SOL     OW24244   2.256   4.021   6.470
 7782SOL    HW124245   2.353   4.035   6.455
 7782SOL    HW224246   2.240   3.987   6.563
 7783SOL     OW24247   2.525   6.433   6.565
 7783SOL    HW124248   2.616   6.474   6.563
 7783SOL    HW224249   2.459   6.500   6.599
 7784SOL     OW24250   1.037   2.990   6.996
 7784SOL    HW124251   1.131   3.019   7.014
 7784SOL    HW224252   1.031   2.890   7.001
 7785SOL     OW24253   2.431   6.890   3.524
 7785SOL    HW124254   2.490   6.812   3.503
 7785SOL    HW224255   2.438   6.913   3.621
 7786SOL     OW24256   3.131   4.702   5.296
 7786SOL    HW124257   3.150   4.705   5.394
 7786SOL    HW224258   3.044   4.655   5.280
 7787SOL     OW24259   2.376   2.703   5.056
 7787SOL    HW124260   2.425   2.744   4.979
 7787SOL    HW224261   2.279   2.725   5.049
 7788SOL     OW24262   1.660   1.950   1.700
 7788SOL    HW124263   1.606   1.873   1.666
 7788SOL    HW224264   1.681   2.012   1.625
 7789SOL     OW24265   2.901   0.275   0.983
 7789SOL    HW124266   2.845   0.194   0.999
 7789SOL    HW224267   2.871   0.321   0.900
 7790SOL     OW24268   6.540   4.367   3.118
 7790SOL    HW124269   6.507   4.336   3.029
 7790SOL    HW224270   6.593   4.294   3.161
 7791SOL     OW24271   2.451   6.022   4.666
 7791SOL    HW124272   2.531   6.082   4.676
 7791SOL    HW224273   2.368   6.075   4.681
 7792SOL     OW24274   1.553   5.839   6.328
 7792SOL    HW124275   1.625   5.813   6.392
 7792SOL    HW224276   1.545   5.768   6.258
 7793SOL     OW24277   1.261   1.122   5.313
 7793SOL    HW124278   1.360   1.106   5.314
 7793SOL    HW224279   1.240   1.194   5.247
 7794SOL     OW24280   4.877   4.927   4.328
 7794SOL    HW124281   4.859   4.840   4.282
 7794SOL    HW224282   4.968   4.925   4.370
 7795SOL     OW24283   1.867   4.350   5.606
 7795SOL    HW124284   1.887   4.434   5.657
 7795SOL    HW224285   1.905   4.356   5.514
 7796SOL     OW24286   3.849   4.039   3.653
 7796SOL    HW124287   3.753   4.018   3.671
 7796SOL    HW224288   3.888   4.088   3.731
 7797SOL     OW24289   0.373   6.200   3.264
 7797SOL    HW124290   0.438   6.252   3.207
 7797SOL    HW224291   0.419   6.170   3.347
 7798SOL     OW24292   3.054   5.535   0.042
 7798SOL    HW124293   3.127   5.470   0.064
 7798SOL    HW224294   3.065   5.564   6.969
 7799SOL     OW24295   6.853   5.988   1.258
 7799SOL    HW124296   6.808   5.917   1.312
 7799SOL    HW224297   6.851   5.962   1.161
 7800SOL     OW24298   0.467   4.949   1.543
 7800SOL    HW124299   0.408   4.983   1.470
 7800SOL    HW224300   0.542   5.014   1.557
 7801SOL     OW24301   2.227   1.115   0.095
 7801SOL    HW124302   2.166   1.047   0.135
 7801SOL    HW224303   2.250   1.184   0.164
 7802SOL     OW24304   6.123   2.848   1.895
 7802SOL    HW124305   6.160   2.817   1.982
 7802SOL    HW224306   6.044   2.793   1.870
 7803SOL     OW24307   4.396   3.618   5.584
 7803SOL    HW124308   4.418   3.707   5.622
 7803SOL    HW224309   4.346   3.564   5.651
 7804SOL     OW24310   5.678   1.491   4.489
 7804SOL    HW124311   5.583   1.497   4.459
 7804SOL    HW224312   5.730   1.569   4.452
 7805SOL     OW24313   5.599   2.054   1.590
 7805SOL    HW124314   5.657   2.133   1.570
 7805SOL    HW224315   5.505   2.083   1.601
 7806SOL     OW24316   5.334   2.981   5.929
 7806SOL    HW124317   5.275   3.029   5.864
 7806SOL    HW224318   5.425   2.970   5.889
 7807SOL     OW24319   0.021   4.658   6.277
 7807SOL    HW124320   6.968   4.625   6.333
 7807SOL    HW224321   7.015   4.663   6.182
 7808SOL     OW24322   0.669   1.479   4.975
 7808SOL    HW124323   0.631   1.522   5.057
 7808SOL    HW224324   0.656   1.380   4.980
 7809SOL     OW24325   2.254   5.611   4.540
 7809SOL    HW124326   2.285   5.517   4.557
 7809SOL    HW224327   2.274   5.635   4.445
 7810SOL     OW24328   3.064   0.982   5.483
 7810SOL    HW124329   3.095   1.048   5.552
 7810SOL    HW224330   2.972   0.950   5.507
 7811SOL     OW24331   6.068   4.716   4.055
 7811SOL    HW124332   6.005   4.752   3.985
 7811SOL    HW224333   6.055   4.618   4.064
 7812SOL     OW24334   1.502   1.825   4.329
 7812SOL    HW124335   1.477   1.918   4.302
 7812SOL    HW224336   1.420   1.773   4.349
 7813SOL     OW24337   5.412   2.980   6.883
 7813SOL    HW124338   5.322   3.018   6.859
 7813SOL    HW224339   5.484   3.038   6.846
 7814SOL     OW24340   6.884   2.479   3.495
 7814SOL    HW124341   6.805   2.449   3.549
 7814SOL    HW224342   6.922   2.400   3.446
 7815SOL     OW24343   5.210   1.563   6.959
 7815SOL    HW124344   5.284   1.510   6.919
 7815SOL    HW224345   5.135   1.570   6.893
 7816SOL     OW24346   0.612   3.742   5.907
 7816SOL    HW124347   0.585   3.820   5.850
 7816SOL    HW224348   0.701   3.708   5.878
 7817SOL     OW24349   5.995   4.103   4.278
 7817SOL    HW124350   5.957   4.110   4.371
 7817SOL    HW224351   5.923   4.071   4.216
 7818SOL     OW24352   5.997   6.945   1.396
 7818SOL    HW124353   6.034   6.884   1.466
 7818SOL    HW224354   5.913   6.988   1.429
 7819SOL     OW24355   0.247   2.836   1.415
 7819SOL    HW124356   0.323   2.772   1.400
 7819SOL    HW224357   0.280   2.915   1.466
 7820SOL     OW24358   1.828   1.802   5.318
 7820SOL    HW124359   1.862   1.757   5.235
 7820SOL    HW224360   1.733   1.830   5.303
 7821SOL     OW24361   3.969   5.627   0.789
 7821SOL    HW124362   4.062   5.613   0.825
 7821SOL    HW224363   3.924   5.700   0.840
 7822SOL     OW24364   0.732   6.456   5.434
 7822SOL    HW124365   0.708   6.527   5.368
 7822SOL    HW224366   0.807   6.488   5.492
 7823SOL     OW24367   2.151   4.213   4.471
 7823SOL    HW124368   2.179   4.298   4.515
 7823SOL    HW224369   2.224   4.182   4.409
 7824SOL     OW24370   6.952   2.470   5.257
 7824SOL    HW124371   6.978   2.560   5.292
 7824SOL    HW224372   6.925   2.479   5.161
 7825SOL     OW24373   2.285   2.647   6.623
 7825SOL    HW124374   2.205   2.591   6.644
 7825SOL    HW224375   2.256   2.741   6.604
 7826SOL     OW24376   6.723   2.132   0.311
 7826SOL    HW124377   6.694   2.129   0.407
 7826SOL    HW224378   6.690   2.051   0.263
 7827SOL     OW24379   0.495   5.727   2.755
 7827SOL    HW124380   0.578   5.759   2.710
 7827SOL    HW224381   0.443   5.805   2.790
 7828SOL     OW24382   0.016   3.752   6.677
 7828SOL    HW124383   0.036   3.824   6.611
 7828SOL    HW224384   6.988   3.678   6.633
 7829SOL     OW24385   3.314   3.111   1.438
 7829SOL    HW124386   3.251   3.043   1.477
 7829SOL    HW224387   3.354   3.075   1.354
 7830SOL     OW24388   3.295   5.619   5.009
 7830SOL    HW124389   3.282   5.523   4.987
 7830SOL    HW224390   3.208   5.668   4.997
 7831SOL     OW24391   1.999   1.525   1.188
 7831SOL    HW124392   1.978   1.523   1.285
 7831SOL    HW224393   1.970   1.612   1.149
 7832SOL     OW24394   5.296   0.615   4.659
 7832SOL    HW124395   5.243   0.695   4.686
 7832SOL    HW224396   5.382   0.645   4.617
 7833SOL     OW24397   1.370   0.194   3.826
 7833SOL    HW124398   1.380   0.265   3.756
 7833SOL    HW224399   1.293   0.217   3.885
 7834SOL     OW24400   6.270   2.247   4.277
 7834SOL    HW124401   6.325   2.263   4.195
 7834SOL    HW224402   6.251   2.149   4.285
 7835SOL     OW24403   4.051   1.797   5.545
 7835SOL    HW124404   4.132   1.809   5.604
 7835SOL    HW224405   4.067   1.721   5.482
 7836SOL     OW24406   3.950   4.076   5.365
 7836SOL    HW124407   3.887   4.139   5.319
 7836SOL    HW224408   4.041   4.084   5.324
 7837SOL     OW24409   5.894   6.729   0.366
 7837SOL    HW124410   5.972   6.671   0.389
 7837SOL    HW224411   5.924   6.807   0.311
 7838SOL     OW24412   5.618   5.420   1.271
 7838SOL    HW124413   5.603   5.402   1.174
 7838SOL    HW224414   5.531   5.412   1.320
 7839SOL     OW24415   6.393   4.842   4.618
 7839SOL    HW124416   6.468   4.894   4.578
 7839SOL    HW224417   6.430   4.765   4.671
 7840SOL     OW24418   1.536   4.169   3.530
 7840SOL    HW124419   1.570   4.261   3.551
 7840SOL    HW224420   1.436   4.172   3.524
 7841SOL     OW24421   5.009   1.826   6.586
 7841SOL    HW124422   4.960   1.820   6.499
 7841SOL    HW224423   4.955   1.879   6.652
 7842SOL     OW24424   2.228   1.478   2.749
 7842SOL    HW124425   2.165   1.468   2.826
 7842SOL    HW224426   2.298   1.545   2.771
 7843SOL     OW24427   6.651   6.676   4.058
 7843SOL    HW124428   6.707   6.729   4.121
 7843SOL    HW224429   6.697   6.590   4.036
 7844SOL     OW24430   3.768   1.275   2.596
 7844SOL    HW124431   3.679   1.280   2.641
 7844SOL    HW224432   3.836   1.323   2.651
 7845SOL     OW24433   5.850   1.811   1.973
 7845SOL    HW124434   5.829   1.733   1.915
 7845SOL    HW224435   5.808   1.799   2.063
 7846SOL     OW24436   1.547   2.679   0.448
 7846SOL    HW124437   1.526   2.759   0.392
 7846SOL    HW224438   1.573   2.603   0.388
 7847SOL     OW24439   5.968   2.507   3.757
 7847SOL    HW124440   6.024   2.570   3.811
 7847SOL    HW224441   5.951   2.424   3.811
 7848SOL     OW24442   2.648   4.347   0.995
 7848SOL    HW124443   2.742   4.315   0.981
 7848SOL    HW224444   2.603   4.359   0.907
 7849SOL     OW24445   5.585   3.184   6.007
 7849SOL    HW124446   5.501   3.195   6.060
 7849SOL    HW224447   5.645   3.264   6.022
 7850SOL     OW24448   6.818   1.525   3.374
 7850SOL    HW124449   6.772   1.608   3.341
 7850SOL    HW224450   6.750   1.453   3.390
 7851SOL     OW24451   1.253   3.926   1.439
 7851SOL    HW124452   1.247   3.864   1.362
 7851SOL    HW224453   1.349   3.942   1.462
 7852SOL     OW24454   3.199   1.666   0.301
 7852SOL    HW124455   3.274   1.676   0.366
 7852SOL    HW224456   3.112   1.683   0.347
 7853SOL     OW24457   4.094   3.024   1.322
 7853SOL    HW124458   4.031   2.947   1.327
 7853SOL    HW224459   4.183   2.997   1.360
 7854SOL     OW24460   4.505   1.944   6.016
 7854SOL    HW124461   4.559   2.009   5.964
 7854SOL    HW224462   4.541   1.852   6.003
 7855SOL     OW24463   5.180   6.716   4.527
 7855SOL    HW124464   5.199   6.630   4.479
 7855SOL    HW224465   5.143   6.696   4.617
 7856SOL     OW24466   2.028   4.751   4.838
 7856SOL    HW124467   2.084   4.738   4.756
 7856SOL    HW224468   2.026   4.667   4.891
 7857SOL     OW24469   5.365   4.190   0.374
 7857SOL    HW124470   5.459   4.214   0.350
 7857SOL    HW224471   5.307   4.272   0.371
 7858SOL     OW24472   0.027   5.686   5.823
 7858SOL    HW124473   0.067   5.712   5.911
 7858SOL    HW224474   6.983   5.613   5.837
 7859SOL     OW24475   5.099   3.262   6.089
 7859SOL    HW124476   5.076   3.170   6.057
 7859SOL    HW224477   5.098   3.263   6.189
 7860SOL     OW24478   3.120   1.181   4.567
 7860SOL    HW124479   3.090   1.093   4.601
 7860SOL    HW224480   3.041   1.241   4.553
 7861SOL     OW24481   2.733   5.517   1.865
 7861SOL    HW124482   2.648   5.499   1.817
 7861SOL    HW224483   2.754   5.615   1.862
 7862SOL     OW24484   3.069   5.578   1.810
 7862SOL    HW124485   3.159   5.579   1.852
 7862SOL    HW224486   3.027   5.488   1.824
 7863SOL     OW24487   6.682   4.279   3.520
 7863SOL    HW124488   6.771   4.321   3.540
 7863SOL    HW224489   6.616   4.308   3.589
 7864SOL     OW24490   2.002   6.095   5.907
 7864SOL    HW124491   2.074   6.163   5.912
 7864SOL    HW224492   1.959   6.085   5.997
 7865SOL     OW24493   6.014   6.076   4.048
 7865SOL    HW124494   5.947   6.149   4.030
 7865SOL    HW224495   6.061   6.095   4.134
 7866SOL     OW24496   1.929   0.622   5.912
 7866SOL    HW124497   1.996   0.582   5.975
 7866SOL    HW224498   1.939   0.721   5.912
 7867SOL     OW24499   5.617   0.493   4.047
 7867SOL    HW124500   5.610   0.587   4.079
 7867SOL    HW224501   5.708   0.457   4.069
 7868SOL     OW24502   4.067   5.996   0.808
 7868SOL    HW124503   4.063   6.006   0.907
 7868SOL    HW224504   3.976   6.011   0.769
 7869SOL     OW24505   5.613   4.706   5.775
 7869SOL    HW124506   5.642   4.797   5.805
 7869SOL    HW224507   5.521   4.711   5.737
 7870SOL     OW24508   4.246   6.430   4.987
 7870SOL    HW124509   4.310   6.492   5.031
 7870SOL    HW224510   4.152   6.461   5.005
 7871SOL     OW24511   5.385   1.429   2.209
 7871SOL    HW124512   5.440   1.477   2.278
 7871SOL    HW224513   5.324   1.494   2.164
 7872SOL     OW24514   1.691   5.122   2.641
 7872SOL    HW124515   1.783   5.083   2.635
 7872SOL    HW224516   1.694   5.205   2.696
 7873SOL     OW24517   6.888   1.364   0.839
 7873SOL    HW124518   6.886   1.456   0.876
 7873SOL    HW224519   6.945   1.361   0.757
 7874SOL     OW24520   5.660   2.347   1.045
 7874SOL    HW124521   5.578   2.317   0.996
 7874SOL    HW224522   5.650   2.327   1.143
 7875SOL     OW24523   3.859   4.015   6.863
 7875SOL    HW124524   3.935   4.031   6.925
 7875SOL    HW224525   3.877   3.932   6.809
 7876SOL     OW24526   0.875   6.812   2.614
 7876SOL    HW124527   0.842   6.894   2.662
 7876SOL    HW224528   0.859   6.822   2.516
 7877SOL     OW24529   6.412   1.790   2.855
 7877SOL    HW124530   6.464   1.707   2.837
 7877SOL    HW224531   6.329   1.766   2.906
 7878SOL     OW24532   4.780   4.176   3.618
 7878SOL    HW124533   4.777   4.229   3.533
 7878SOL    HW224534   4.688   4.172   3.658
 7879SOL     OW24535   2.812   5.302   3.680
 7879SOL    HW124536   2.879   5.329   3.610
 7879SOL    HW224537   2.783   5.383   3.730
 7880SOL     OW24538   2.543   3.856   1.693
 7880SOL    HW124539   2.454   3.840   1.735
 7880SOL    HW224540   2.561   3.954   1.690
 7881SOL     OW24541   5.023   3.900   4.601
 7881SOL    HW124542   4.976   3.867   4.682
 7881SOL    HW224543   4.986   3.989   4.575
 7882SOL     OW24544   2.507   3.637   1.205
 7882SOL    HW124545   2.544   3.561   1.151
 7882SOL    HW224546   2.480   3.604   1.295
 7883SOL     OW24547   0.452   0.709   5.325
 7883SOL    HW124548   0.376   0.670   5.273
 7883SOL    HW224549   0.459   0.663   5.413
 7884SOL     OW24550   0.500   3.177   4.619
 7884SOL    HW124551   0.559   3.244   4.663
 7884SOL    HW224552   0.446   3.130   4.689
 7885SOL     OW24553   6.074   5.192   0.575
 7885SOL    HW124554   6.055   5.267   0.639
 7885SOL    HW224555   5.989   5.165   0.529
 7886SOL     OW24556   4.793   5.703   0.412
 7886SOL    HW124557   4.709   5.649   0.419
 7886SOL    HW224558   4.772   5.799   0.429
 7887SOL     OW24559   4.409   1.755   6.851
 7887SOL    HW124560   4.465   1.807   6.786
 7887SOL    HW224561   4.435   1.658   6.846
 7888SOL     OW24562   5.026   0.467   4.753
 7888SOL    HW124563   5.034   0.511   4.842
 7888SOL    HW224564   5.054   0.531   4.682
 7889SOL     OW24565   0.259   5.559   2.246
 7889SOL    HW124566   0.313   5.598   2.321
 7889SOL    HW224567   0.167   5.538   2.279
 7890SOL     OW24568   2.267   3.965   2.036
 7890SOL    HW124569   2.247   4.057   2.069
 7890SOL    HW224570   2.365   3.950   2.035
 7891SOL     OW24571   2.646   4.630   2.174
 7891SOL    HW124572   2.701   4.607   2.094
 7891SOL    HW224573   2.667   4.723   2.203
 7892SOL     OW24574   1.909   2.441   5.502
 7892SOL    HW124575   1.824   2.394   5.480
 7892SOL    HW224576   1.927   2.512   5.433
 7893SOL     OW24577   5.737   6.647   0.782
 7893SOL    HW124578   5.765   6.565   0.831
 7893SOL    HW224579   5.819   6.698   0.753
 7894SOL     OW24580   2.176   6.147   2.366
 7894SOL    HW124581   2.102   6.199   2.408
 7894SOL    HW224582   2.138   6.072   2.312
 7895SOL     OW24583   5.990   0.949   4.977
 7895SOL    HW124584   6.000   1.018   5.048
 7895SOL    HW224585   6.078   0.932   4.934
 7896SOL     OW24586   5.008   4.056   5.603
 7896SOL    HW124587   5.004   4.141   5.550
 7896SOL    HW224588   4.936   4.058   5.673
 7897SOL     OW24589   2.031   3.756   6.454
 7897SOL    HW124590   2.084   3.809   6.388
 7897SOL    HW224591   2.092   3.700   6.509
 7898SOL     OW24592   4.346   2.102   3.784
 7898SOL    HW124593   4.324   2.162   3.707
 7898SOL    HW224594   4.279   2.027   3.789
 7899SOL     OW24595   5.755   2.482   2.028
 7899SOL    HW124596   5.671   2.442   1.992
 7899SOL    HW224597   5.830   2.417   2.017
 7900SOL     OW24598   1.760   5.601   1.138
 7900SOL    HW124599   1.754   5.582   1.039
 7900SOL    HW224600   1.855   5.616   1.163
 7901SOL     OW24601   6.351   6.424   6.169
 7901SOL    HW124602   6.287   6.500   6.155
 7901SOL    HW224603   6.433   6.439   6.114
 7902SOL     OW24604   4.655   4.609   0.900
 7902SOL    HW124605   4.594   4.622   0.978
 7902SOL    HW224606   4.602   4.575   0.822
 7903SOL     OW24607   6.628   1.870   0.217
 7903SOL    HW124608   6.698   1.829   0.274
 7903SOL    HW224609   6.577   1.798   0.170
 7904SOL     OW24610   0.340   1.439   2.813
 7904SOL    HW124611   0.254   1.460   2.767
 7904SOL    HW224612   0.393   1.524   2.824
 7905SOL     OW24613   3.733   1.394   1.484
 7905SOL    HW124614   3.802   1.461   1.510
 7905SOL    HW224615   3.759   1.304   1.520
 7906SOL     OW24616   5.689   5.863   6.762
 7906SOL    HW124617   5.629   5.894   6.688
 7906SOL    HW224618   5.784   5.891   6.742
 7907SOL     OW24619   6.414   2.459   4.119
 7907SOL    HW124620   6.466   2.393   4.065
 7907SOL    HW224621   6.395   2.540   4.064
 7908SOL     OW24622   0.060   1.393   3.951
 7908SOL    HW124623   0.072   1.486   3.915
 7908SOL    HW224624   0.142   1.339   3.930
 7909SOL     OW24625   4.750   4.320   4.805
 7909SOL    HW124626   4.766   4.222   4.790
 7909SOL    HW224627   4.837   4.369   4.799
 7910SOL     OW24628   4.269   3.460   5.796
 7910SOL    HW124629   4.307   3.472   5.888
 7910SOL    HW224630   4.170   3.469   5.799
 7911SOL     OW24631   6.590   4.575   0.615
 7911SOL    HW124632   6.645   4.491   0.606
 7911SOL    HW224633   6.516   4.574   0.548
 7912SOL     OW24634   6.000   4.573   6.001
 7912SOL    HW124635   5.967   4.509   6.070
 7912SOL    HW224636   6.097   4.591   6.016
 7913SOL     OW24637   0.097   5.401   6.673
 7913SOL    HW124638   0.091   5.466   6.749
 7913SOL    HW224639   0.136   5.448   6.593
 7914SOL     OW24640   5.889   4.027   0.887
 7914SOL    HW124641   5.789   4.036   0.894
 7914SOL    HW224642   5.920   4.066   0.800
 7915SOL     OW24643   4.399   1.634   3.492
 7915SOL    HW124644   4.350   1.625   3.578
 7915SOL    HW224645   4.365   1.713   3.441
 7916SOL     OW24646   5.358   3.138   5.570
 7916SOL    HW124647   5.401   3.049   5.556
 7916SOL    HW224648   5.299   3.159   5.492
 7917SOL     OW24649   4.147   3.695   4.910
 7917SOL    HW124650   4.129   3.601   4.882
 7917SOL    HW224651   4.244   3.707   4.928
 7918SOL     OW24652   6.336   1.413   2.253
 7918SOL    HW124653   6.324   1.314   2.249
 7918SOL    HW224654   6.255   1.458   2.215
 7919SOL     OW24655   5.505   5.123   2.201
 7919SOL    HW124656   5.593   5.126   2.154
 7919SOL    HW224657   5.514   5.067   2.284
 7920SOL     OW24658   0.303   5.225   1.302
 7920SOL    HW124659   0.252   5.147   1.264
 7920SOL    HW224660   0.398   5.198   1.317
 7921SOL     OW24661   2.735   6.595   1.736
 7921SOL    HW124662   2.760   6.502   1.764
 7921SOL    HW224663   2.703   6.594   1.641
 7922SOL     OW24664   0.995   5.570   6.909
 7922SOL    HW124665   1.039   5.619   6.984
 7922SOL    HW224666   1.059   5.562   6.832
 7923SOL     OW24667   1.394   1.286   3.497
 7923SOL    HW124668   1.348   1.228   3.563
 7923SOL    HW224669   1.438   1.363   3.544
 7924SOL     OW24670   3.351   6.923   3.839
 7924SOL    HW124671   3.258   6.927   3.877
 7924SOL    HW224672   3.359   6.843   3.779
 7925SOL     OW24673   6.239   1.567   6.147
 7925SOL    HW124674   6.250   1.496   6.216
 7925SOL    HW224675   6.156   1.619   6.166
 7926SOL     OW24676   2.806   0.603   2.766
 7926SOL    HW124677   2.762   0.689   2.791
 7926SOL    HW224678   2.772   0.573   2.677
 7927SOL     OW24679   3.866   5.307   5.487
 7927SOL    HW124680   3.892   5.392   5.534
 7927SOL    HW224681   3.933   5.236   5.508
 7928SOL     OW24682   2.127   5.148   3.115
 7928SOL    HW124683   2.092   5.094   3.191
 7928SOL    HW224684   2.219   5.116   3.091
 7929SOL     OW24685   4.076   3.844   4.693
 7929SOL    HW124686   4.108   3.784   4.620
 7929SOL    HW224687   4.106   3.808   4.781
 7930SOL     OW24688   4.141   5.290   3.312
 7930SOL    HW124689   4.203   5.295   3.391
 7930SOL    HW224690   4.194   5.269   3.230
 7931SOL     OW24691   2.262   2.482   0.276
 7931SOL    HW124692   2.217   2.450   0.193
 7931SOL    HW224693   2.326   2.413   0.309
 7932SOL     OW24694   1.938   0.069   0.081
 7932SOL    HW124695   1.871   7.017   0.085
 7932SOL    HW224696   2.028   0.034   0.109
 7933SOL     OW24697   1.040   0.316   6.598
 7933SOL    HW124698   1.100   0.389   6.565
 7933SOL    HW224699   1.085   0.227   6.584
 7934SOL     OW24700   2.877   3.971   0.374
 7934SOL    HW124701   2.779   3.983   0.362
 7934SOL    HW224702   2.895   3.904   0.446
 7935SOL     OW24703   5.060   6.058   0.942
 7935SOL    HW124704   5.037   6.154   0.924
 7935SOL    HW224705   5.000   5.998   0.889
 7936SOL     OW24706   4.139   6.331   3.216
 7936SOL    HW124707   4.100   6.307   3.127
 7936SOL    HW224708   4.239   6.329   3.211
 7937SOL     OW24709   5.988   6.239   5.379
 7937SOL    HW124710   5.947   6.310   5.436
 7937SOL    HW224711   5.984   6.267   5.283
 7938SOL     OW24712   4.089   5.209   4.904
 7938SOL    HW124713   4.150   5.287   4.890
 7938SOL    HW224714   4.010   5.238   4.960
 7939SOL     OW24715   0.352   1.512   5.523
 7939SOL    HW124716   0.408   1.448   5.470
 7939SOL    HW224717   0.257   1.481   5.523
 7940SOL     OW24718   2.191   5.413   1.313
 7940SOL    HW124719   2.135   5.392   1.233
 7940SOL    HW224720   2.131   5.430   1.392
 7941SOL     OW24721   0.235   1.052   0.566
 7941SOL    HW124722   0.152   1.083   0.519
 7941SOL    HW224723   0.309   1.116   0.550
 7942SOL     OW24724   0.663   6.792   1.994
 7942SOL    HW124725   0.752   6.815   2.035
 7942SOL    HW224726   0.599   6.768   2.067
 7943SOL     OW24727   5.506   2.261   0.819
 7943SOL    HW124728   5.414   2.300   0.812
 7943SOL    HW224729   5.558   2.284   0.737
 7944SOL     OW24730   0.355   3.457   1.283
 7944SOL    HW124731   0.255   3.451   1.281
 7944SOL    HW224732   0.393   3.404   1.207
 7945SOL     OW24733   5.348   6.733   2.799
 7945SOL    HW124734   5.307   6.678   2.872
 7945SOL    HW224735   5.436   6.693   2.772
 7946SOL     OW24736   1.769   2.552   6.154
 7946SOL    HW124737   1.812   2.577   6.241
 7946SOL    HW224738   1.674   2.525   6.170
 7947SOL     OW24739   3.966   3.034   6.222
 7947SOL    HW124740   4.002   2.941   6.209
 7947SOL    HW224741   3.990   3.090   6.142
 7948SOL     OW24742   6.712   6.838   0.511
 7948SOL    HW124743   6.685   6.923   0.465
 7948SOL    HW224744   6.764   6.781   0.447
 7949SOL     OW24745   5.129   4.728   3.899
 7949SOL    HW124746   5.220   4.713   3.858
 7949SOL    HW224747   5.139   4.747   3.996
 7950SOL     OW24748   4.208   4.722   3.976
 7950SOL    HW124749   4.132   4.762   4.027
 7950SOL    HW224750   4.184   4.718   3.879
 7951SOL     OW24751   3.201   3.435   0.394
 7951SOL    HW124752   3.228   3.391   0.480
 7951SOL    HW224753   3.148   3.371   0.339
 7952SOL     OW24754   6.582   2.799   0.180
 7952SOL    HW124755   6.586   2.729   0.109
 7952SOL    HW224756   6.627   2.882   0.149
 7953SOL     OW24757   2.414   2.706   3.106
 7953SOL    HW124758   2.466   2.621   3.116
 7953SOL    HW224759   2.407   2.729   3.009
 7954SOL     OW24760   4.786   4.944   5.230
 7954SOL    HW124761   4.810   5.017   5.294
 7954SOL    HW224762   4.752   4.984   5.145
 7955SOL     OW24763   6.717   6.621   6.823
 7955SOL    HW124764   6.772   6.552   6.776
 7955SOL    HW224765   6.756   6.712   6.806
 7956SOL     OW24766   6.659   6.118   3.531
 7956SOL    HW124767   6.570   6.097   3.570
 7956SOL    HW224768   6.728   6.116   3.603
 7957SOL     OW24769   1.114   1.853   0.370
 7957SOL    HW124770   1.058   1.780   0.409
 7957SOL    HW224771   1.129   1.924   0.438
 7958SOL     OW24772   3.086   5.546   4.082
 7958SOL    HW124773   3.169   5.537   4.137
 7958SOL    HW224774   3.101   5.615   4.011
 7959SOL     OW24775   6.090   4.760   0.491
 7959SOL    HW124776   6.116   4.664   0.487
 7959SOL    HW224777   6.040   4.778   0.576
 7960SOL     OW24778   2.936   0.984   1.399
 7960SOL    HW124779   3.004   0.995   1.471
 7960SOL    HW224780   2.916   0.887   1.387
 7961SOL     OW24781   1.146   5.911   5.820
 7961SOL    HW124782   1.183   5.828   5.778
 7961SOL    HW224783   1.208   5.987   5.802
 7962SOL     OW24784   2.301   0.949   1.847
 7962SOL    HW124785   2.400   0.934   1.848
 7962SOL    HW224786   2.280   1.031   1.794
 7963SOL     OW24787   0.441   0.958   5.693
 7963SOL    HW124788   0.524   1.013   5.686
 7963SOL    HW224789   0.400   0.972   5.783
 7964SOL     OW24790   5.382   5.298   3.117
 7964SOL    HW124791   5.423   5.228   3.176
 7964SOL    HW224792   5.283   5.295   3.126
 7965SOL     OW24793   5.082   2.424   0.610
 7965SOL    HW124794   5.134   2.462   0.533
 7965SOL    HW224795   4.995   2.388   0.576
 7966SOL     OW24796   1.152   5.275   3.958
 7966SOL    HW124797   1.126   5.179   3.972
 7966SOL    HW224798   1.195   5.311   4.040
 7967SOL     OW24799   3.353   5.942   2.613
 7967SOL    HW124800   3.315   6.002   2.684
 7967SOL    HW224801   3.400   5.865   2.656
 7968SOL     OW24802   2.173   2.306   3.902
 7968SOL    HW124803   2.254   2.317   3.959
 7968SOL    HW224804   2.114   2.235   3.940
 7969SOL     OW24805   4.287   0.792   3.296
 7969SOL    HW124806   4.296   0.881   3.341
 7969SOL    HW224807   4.211   0.795   3.232
 7970SOL     OW24808   6.965   4.058   2.956
 7970SOL    HW124809   6.983   4.135   2.894
 7970SOL    HW224810   6.937   4.094   3.045
 7971SOL     OW24811   3.357   0.969   2.118
 7971SOL    HW124812   3.387   0.877   2.145
 7971SOL    HW224813   3.271   0.992   2.164
 7972SOL     OW24814   6.984   4.484   1.358
 7972SOL    HW124815   6.954   4.393   1.329
 7972SOL    HW224816   6.937   4.509   1.442
 7973SOL     OW24817   4.955   3.418   3.759
 7973SOL    HW124818   4.941   3.504   3.807
 7973SOL    HW224819   4.970   3.435   3.662
 7974SOL     OW24820   5.302   0.615   4.262
 7974SOL    HW124821   5.367   0.546   4.294
 7974SOL    HW224822   5.321   0.702   4.308
 7975SOL     OW24823   3.591   0.640   4.802
 7975SOL    HW124824   3.512   0.662   4.744
 7975SOL    HW224825   3.638   0.724   4.827
 7976SOL     OW24826   0.971   6.174   4.942
 7976SOL    HW124827   1.040   6.102   4.948
 7976SOL    HW224828   0.880   6.133   4.945
 7977SOL     OW24829   5.021   6.015   1.769
 7977SOL    HW124830   4.932   6.047   1.799
 7977SOL    HW224831   5.022   6.008   1.669
 7978SOL     OW24832   4.456   3.404   6.112
 7978SOL    HW124833   4.530   3.340   6.093
 7978SOL    HW224834   4.493   3.497   6.117
 7979SOL     OW24835   2.856   0.389   4.438
 7979SOL    HW124836   2.761   0.387   4.472
 7979SOL    HW224837   2.861   0.449   4.358
 7980SOL     OW24838   3.568   5.957   0.361
 7980SOL    HW124839   3.645   5.914   0.408
 7980SOL    HW224840   3.592   5.974   0.266
 7981SOL     OW24841   1.168   4.997   2.052
 7981SOL    HW124842   1.194   5.027   1.960
 7981SOL    HW224843   1.247   5.005   2.113
 7982SOL     OW24844   6.338   2.355   0.783
 7982SOL    HW124845   6.313   2.395   0.872
 7982SOL    HW224846   6.256   2.348   0.726
 7983SOL     OW24847   5.293   2.045   2.745
 7983SOL    HW124848   5.233   1.987   2.800
 7983SOL    HW224849   5.329   1.993   2.668
 7984SOL     OW24850   0.981   2.439   2.061
 7984SOL    HW124851   0.895   2.401   2.026
 7984SOL    HW224852   0.995   2.410   2.155
 7985SOL     OW24853   1.406   0.523   2.194
 7985SOL    HW124854   1.466   0.565   2.262
 7985SOL    HW224855   1.313   0.557   2.206
 7986SOL     OW24856   3.898   1.347   6.426
 7986SOL    HW124857   3.874   1.287   6.350
 7986SOL    HW224858   3.900   1.442   6.394
 7987SOL     OW24859   0.398   2.627   5.316
 7987SOL    HW124860   0.490   2.640   5.278
 7987SOL    HW224861   0.364   2.713   5.353
 7988SOL     OW24862   3.068   2.187   4.299
 7988SOL    HW124863   3.119   2.128   4.361
 7988SOL    HW224864   3.051   2.139   4.213
 7989SOL     OW24865   3.259   2.452   5.445
 7989SOL    HW124866   3.200   2.394   5.501
 7989SOL    HW224867   3.253   2.424   5.349
 7990SOL     OW24868   0.976   3.013   4.283
 7990SOL    HW124869   1.028   3.030   4.367
 7990SOL    HW224870   1.035   3.030   4.204
 7991SOL     OW24871   0.327   2.549   5.567
 7991SOL    HW124872   0.391   2.589   5.633
 7991SOL    HW224873   0.360   2.567   5.475
 7992SOL     OW24874   1.725   0.228   0.568
 7992SOL    HW124875   1.733   0.326   0.584
 7992SOL    HW224876   1.791   0.179   0.626
 7993SOL     OW24877   1.802   5.585   6.820
 7993SOL    HW124878   1.853   5.522   6.761
 7993SOL    HW224879   1.771   5.663   6.765
 7994SOL     OW24880   4.739   0.619   3.892
 7994SOL    HW124881   4.752   0.567   3.807
 7994SOL    HW224882   4.793   0.703   3.888
 7995SOL     OW24883   3.321   5.379   3.608
 7995SOL    HW124884   3.415   5.347   3.603
 7995SOL    HW224885   3.282   5.353   3.697
 7996SOL     OW24886   3.302   6.873   4.447
 7996SOL    HW124887   3.368   6.947   4.439
 7996SOL    HW224888   3.319   6.822   4.531
 7997SOL     OW24889   6.143   2.152   1.074
 7997SOL    HW124890   6.088   2.130   1.154
 7997SOL    HW224891   6.139   2.250   1.056
 7998SOL     OW24892   5.642   4.635   0.631
 7998SOL    HW124893   5.650   4.579   0.548
 7998SOL    HW224894   5.546   4.639   0.659
 7999SOL     OW24895   1.644   0.423   5.335
 7999SOL    HW124896   1.708   0.469   5.274
 7999SOL    HW224897   1.552   0.460   5.321
 8000SOL     OW24898   6.479   0.446   5.779
 8000SOL    HW124899   6.472   0.448   5.879
 8000SOL    HW224900   6.558   0.391   5.753
 8001SOL     OW24901   1.529   6.504   1.847
 8001SOL    HW124902   1.499   6.596   1.875
 8001SOL    HW224903   1.622   6.510   1.811
 8002SOL     OW24904   6.812   3.870   5.131
 8002SOL    HW124905   6.773   3.860   5.039
 8002SOL    HW224906   6.904   3.830   5.132
 8003SOL     OW24907   3.372   4.966   3.179
 8003SOL    HW124908   3.283   4.930   3.205
 8003SOL    HW224909   3.397   5.042   3.240
 8004SOL     OW24910   2.040   4.335   3.217
 8004SOL    HW124911   2.099   4.257   3.240
 8004SOL    HW224912   2.075   4.381   3.136
 8005SOL     OW24913   3.408   0.608   2.363
 8005SOL    HW124914   3.504   0.602   2.388
 8005SOL    HW224915   3.364   0.678   2.420
 8006SOL     OW24916   2.863   5.744   0.326
 8006SOL    HW124917   2.874   5.738   0.426
 8006SOL    HW224918   2.777   5.701   0.300
 8007SOL     OW24919   0.456   0.482   4.019
 8007SOL    HW124920   0.382   0.436   3.969
 8007SOL    HW224921   0.455   0.579   3.997
 8008SOL     OW24922   6.185   6.644   0.088
 8008SOL    HW124923   6.205   6.668   7.015
 8008SOL    HW224924   6.108   6.580   0.090
 8009SOL     OW24925   6.815   0.510   3.277
 8009SOL    HW124926   6.792   0.414   3.292
 8009SOL    HW224927   6.805   0.560   3.363
 8010SOL     OW24928   2.362   1.817   6.897
 8010SOL    HW124929   2.459   1.809   6.875
 8010SOL    HW224930   2.346   1.788   6.992
 8011SOL     OW24931   2.607   2.303   1.207
 8011SOL    HW124932   2.666   2.272   1.281
 8011SOL    HW224933   2.567   2.392   1.231
 8012SOL     OW24934   1.903   6.643   1.549
 8012SOL    HW124935   1.987   6.695   1.565
 8012SOL    HW224936   1.913   6.586   1.468
 8013SOL     OW24937   5.937   5.101   4.115
 8013SOL    HW124938   5.968   5.196   4.110
 8013SOL    HW224939   6.017   5.041   4.115
 8014SOL     OW24940   1.654   6.213   6.283
 8014SOL    HW124941   1.578   6.179   6.337
 8014SOL    HW224942   1.627   6.297   6.235
 8015SOL     OW24943   2.494   3.127   0.795
 8015SOL    HW124944   2.424   3.115   0.725
 8015SOL    HW224945   2.554   3.047   0.795
 8016SOL     OW24946   4.383   0.099   0.640
 8016SOL    HW124947   4.473   0.056   0.639
 8016SOL    HW224948   4.364   0.136   0.731
 8017SOL     OW24949   6.517   4.632   4.791
 8017SOL    HW124950   6.609   4.593   4.796
 8017SOL    HW224951   6.453   4.561   4.759
 8018SOL     OW24952   4.533   1.711   5.619
 8018SOL    HW124953   4.461   1.694   5.685
 8018SOL    HW224954   4.565   1.805   5.627
 8019SOL     OW24955   1.938   5.567   0.286
 8019SOL    HW124956   2.024   5.525   0.316
 8019SOL    HW224957   1.910   5.527   0.199
 8020SOL     OW24958   5.387   5.819   6.793
 8020SOL    HW124959   5.411   5.737   6.740
 8020SOL    HW224960   5.415   5.806   6.888
 8021SOL     OW24961   1.213   1.957   1.277
 8021SOL    HW124962   1.223   1.967   1.376
 8021SOL    HW224963   1.299   1.983   1.232
 8022SOL     OW24964   4.728   7.009   3.202
 8022SOL    HW124965   4.826   6.995   3.217
 8022SOL    HW224966   4.685   0.014   3.288
 8023SOL     OW24967   6.029   5.942   2.346
 8023SOL    HW124968   6.070   5.852   2.326
 8023SOL    HW224969   5.974   5.936   2.430
 8024SOL     OW24970   4.208   5.476   5.937
 8024SOL    HW124971   4.213   5.575   5.947
 8024SOL    HW224972   4.285   5.443   5.882
 8025SOL     OW24973   3.614   6.024   6.682
 8025SOL    HW124974   3.536   6.078   6.648
 8025SOL    HW224975   3.632   6.047   6.777
 8026SOL     OW24976   1.349   3.514   6.526
 8026SOL    HW124977   1.249   3.523   6.527
 8026SOL    HW224978   1.390   3.605   6.524
 8027SOL     OW24979   4.529   2.049   5.369
 8027SOL    HW124980   4.589   1.992   5.313
 8027SOL    HW224981   4.536   2.144   5.338
 8028SOL     OW24982   4.798   5.295   5.972
 8028SOL    HW124983   4.745   5.315   5.890
 8028SOL    HW224984   4.895   5.312   5.953
 8029SOL     OW24985   4.075   4.633   0.081
 8029SOL    HW124986   4.153   4.639   0.020
 8029SOL    HW224987   4.057   4.537   0.103
 8030SOL     OW24988   5.401   4.641   5.615
 8030SOL    HW124989   5.363   4.554   5.645
 8030SOL    HW224990   5.342   4.681   5.545
 8031SOL     OW24991   4.460   5.244   1.599
 8031SOL    HW124992   4.528   5.309   1.566
 8031SOL    HW224993   4.471   5.156   1.552
 8032SOL     OW24994   6.079   4.120   4.933
 8032SOL    HW124995   6.009   4.104   5.003
 8032SOL    HW224996   6.059   4.206   4.886
 8033SOL     OW24997   5.419   2.470   0.223
 8033SOL    HW124998   5.330   2.514   0.211
 8033SOL    HW224999   5.487   2.538   0.248
 8034SOL     OW25000   4.957   6.622   5.092
 8034SOL    HW125001   5.009   6.703   5.066
 8034SOL    HW225002   4.868   6.624   5.049
 8035SOL     OW25003   5.831   6.139   6.146
 8035SOL    HW125004   5.872   6.050   6.163
 8035SOL    HW225005   5.894   6.194   6.089
 8036SOL     OW25006   2.279   3.836   1.792
 8036SOL    HW125007   2.263   3.874   1.883
 8036SOL    HW225008   2.258   3.904   1.723
 8037SOL     OW25009   2.233   3.362   0.680
 8037SOL    HW125010   2.141   3.387   0.651
 8037SOL    HW225011   2.277   3.440   0.725
 8038SOL     OW25012   7.010   1.937   3.377
 8038SOL    HW125013   7.017   1.977   3.285
 8038SOL    HW225014   0.020   2.004   3.444
 8039SOL     OW25015   2.524   0.336   2.914
 8039SOL    HW125016   2.485   0.391   2.841
 8039SOL    HW225017   2.610   0.377   2.944
 8040SOL     OW25018   0.626   5.392   1.118
 8040SOL    HW125019   0.632   5.487   1.149
 8040SOL    HW225020   0.543   5.379   1.064
 8041SOL     OW25021   4.139   1.236   1.066
 8041SOL    HW125022   4.041   1.218   1.064
 8041SOL    HW225023   4.176   1.209   1.155
 8042SOL     OW25024   3.379   2.872   2.375
 8042SOL    HW125025   3.404   2.821   2.457
 8042SOL    HW225026   3.461   2.906   2.330
 8043SOL     OW25027   2.565   0.472   0.956
 8043SOL    HW125028   2.593   0.391   0.905
 8043SOL    HW225029   2.606   0.554   0.915
 8044SOL     OW25030   3.128   2.983   1.557
 8044SOL    HW125031   3.110   2.918   1.631
 8044SOL    HW225032   3.070   3.064   1.568
 8045SOL     OW25033   6.347   2.187   3.069
 8045SOL    HW125034   6.355   2.271   3.016
 8045SOL    HW225035   6.438   2.157   3.098
 8046SOL     OW25036   5.487   4.324   5.428
 8046SOL    HW125037   5.572   4.377   5.436
 8046SOL    HW225038   5.466   4.311   5.331
 8047SOL     OW25039   3.292   5.813   4.661
 8047SOL    HW125040   3.334   5.883   4.604
 8047SOL    HW225041   3.262   5.853   4.747
 8048SOL     OW25042   6.477   0.157   5.503
 8048SOL    HW125043   6.463   0.076   5.447
 8048SOL    HW225044   6.410   0.227   5.479
 8049SOL     OW25045   1.114   6.484   1.251
 8049SOL    HW125046   1.083   6.578   1.266
 8049SOL    HW225047   1.195   6.485   1.192
 8050SOL     OW25048   1.643   3.615   1.089
 8050SOL    HW125049   1.619   3.673   1.011
 8050SOL    HW225050   1.623   3.520   1.066
 8051SOL     OW25051   4.123   0.786   3.019
 8051SOL    HW125052   4.075   0.767   2.933
 8051SOL    HW225053   4.208   0.834   2.999
 8052SOL     OW25054   2.996   1.629   2.816
 8052SOL    HW125055   3.012   1.596   2.724
 8052SOL    HW225056   3.008   1.729   2.818
 8053SOL     OW25057   3.812   4.079   2.937
 8053SOL    HW125058   3.850   4.171   2.947
 8053SOL    HW225059   3.887   4.012   2.936
 8054SOL     OW25060   4.717   6.357   4.455
 8054SOL    HW125061   4.749   6.429   4.393
 8054SOL    HW225062   4.795   6.306   4.490
 8055SOL     OW25063   1.215   6.928   5.866
 8055SOL    HW125064   1.199   7.010   5.811
 8055SOL    HW225065   1.297   6.940   5.921
 8056SOL     OW25066   4.910   1.768   3.017
 8056SOL    HW125067   4.885   1.766   3.114
 8056SOL    HW225068   5.009   1.774   3.008
 8057SOL     OW25069   2.878   6.929   3.195
 8057SOL    HW125070   2.883   0.000   3.231
 8057SOL    HW225071   2.869   6.932   3.096
 8058SOL     OW25072   2.533   0.287   2.307
 8058SOL    HW125073   2.595   0.362   2.283
 8058SOL    HW225074   2.439   0.322   2.314
 8059SOL     OW25075   3.200   2.162   4.770
 8059SOL    HW125076   3.145   2.214   4.834
 8059SOL    HW225077   3.292   2.148   4.808
 8060SOL     OW25078   0.100   1.034   4.744
 8060SOL    HW125079   0.003   1.025   4.767
 8060SOL    HW225080   0.141   0.943   4.740
 8061SOL     OW25081   6.276   5.661   2.536
 8061SOL    HW125082   6.278   5.738   2.600
 8061SOL    HW225083   6.301   5.577   2.584
 8062SOL     OW25084   1.463   3.757   4.513
 8062SOL    HW125085   1.473   3.794   4.421
 8062SOL    HW225086   1.375   3.785   4.551
 8063SOL     OW25087   3.350   3.313   6.804
 8063SOL    HW125088   3.292   3.287   6.728
 8063SOL    HW225089   3.298   3.368   6.869
 8064SOL     OW25090   0.277   4.147   0.330
 8064SOL    HW125091   0.346   4.151   0.258
 8064SOL    HW225092   0.201   4.207   0.307
 8065SOL     OW25093   4.868   6.773   4.536
 8065SOL    HW125094   4.939   6.725   4.587
 8065SOL    HW225095   4.884   6.872   4.542
 8066SOL     OW25096   1.762   1.389   0.844
 8066SOL    HW125097   1.840   1.451   0.832
 8066SOL    HW225098   1.678   1.436   0.819
 8067SOL     OW25099   4.316   2.992   1.453
 8067SOL    HW125100   4.332   3.066   1.519
 8067SOL    HW225101   4.395   2.931   1.452
 8068SOL     OW25102   0.415   4.538   4.732
 8068SOL    HW125103   0.489   4.476   4.759
 8068SOL    HW225104   0.444   4.592   4.653
 8069SOL     OW25105   1.450   6.117   0.885
 8069SOL    HW125106   1.414   6.167   0.963
 8069SOL    HW225107   1.386   6.044   0.859
 8070SOL     OW25108   3.633   6.081   2.005
 8070SOL    HW125109   3.627   6.009   1.937
 8070SOL    HW225110   3.570   6.155   1.981
 8071SOL     OW25111   3.674   6.450   5.512
 8071SOL    HW125112   3.582   6.443   5.474
 8071SOL    HW225113   3.729   6.373   5.479
 8072SOL     OW25114   4.360   1.548   0.459
 8072SOL    HW125115   4.367   1.466   0.402
 8072SOL    HW225116   4.380   1.523   0.554
 8073SOL     OW25117   4.548   6.870   6.071
 8073SOL    HW125118   4.646   6.855   6.062
 8073SOL    HW225119   4.510   6.896   5.982
 8074SOL     OW25120   3.354   3.788   0.319
 8074SOL    HW125121   3.405   3.792   0.405
 8074SOL    HW225122   3.272   3.731   0.332
 8075SOL     OW25123   6.830   1.316   2.494
 8075SOL    HW125124   6.791   1.294   2.404
 8075SOL    HW225125   6.929   1.303   2.492
 8076SOL     OW25126   5.543   2.558   5.058
 8076SOL    HW125127   5.527   2.645   5.105
 8076SOL    HW225128   5.507   2.563   4.965
 8077SOL     OW25129   1.146   0.323   1.462
 8077SOL    HW125130   1.100   0.312   1.374
 8077SOL    HW225131   1.214   0.251   1.474
 8078SOL     OW25132   6.583   2.413   0.909
 8078SOL    HW125133   6.591   2.506   0.944
 8078SOL    HW225134   6.502   2.406   0.851
 8079SOL     OW25135   6.885   2.203   3.012
 8079SOL    HW125136   6.879   2.281   3.074
 8079SOL    HW225137   6.881   2.234   2.917
 8080SOL     OW25138   2.487   3.758   0.091
 8080SOL    HW125139   2.560   3.823   0.116
 8080SOL    HW225140   2.525   3.666   0.088
 8081SOL     OW25141   5.921   0.637   5.334
 8081SOL    HW125142   6.012   0.602   5.310
 8081SOL    HW225143   5.855   0.563   5.331
 8082SOL     OW25144   6.379   2.472   3.540
 8082SOL    HW125145   6.423   2.537   3.601
 8082SOL    HW225146   6.427   2.385   3.543
 8083SOL     OW25147   4.710   2.622   2.674
 8083SOL    HW125148   4.696   2.654   2.580
 8083SOL    HW225149   4.735   2.698   2.732
 8084SOL     OW25150   6.485   6.368   1.217
 8084SOL    HW125151   6.573   6.332   1.184
 8084SOL    HW225152   6.489   6.468   1.218
 8085SOL     OW25153   5.405   0.338   0.963
 8085SOL    HW125154   5.472   0.314   0.892
 8085SOL    HW225155   5.363   0.255   0.998
 8086SOL     OW25156   3.655   0.401   4.610
 8086SOL    HW125157   3.630   0.304   4.608
 8086SOL    HW225158   3.601   0.448   4.679
 8087SOL     OW25159   2.609   2.646   0.981
 8087SOL    HW125160   2.631   2.568   0.923
 8087SOL    HW225161   2.634   2.731   0.935
 8088SOL     OW25162   5.641   1.028   2.071
 8088SOL    HW125163   5.615   0.980   1.987
 8088SOL    HW225164   5.628   1.126   2.059
 8089SOL     OW25165   5.030   2.690   0.756
 8089SOL    HW125166   5.052   2.593   0.746
 8089SOL    HW225167   5.113   2.744   0.750
 8090SOL     OW25168   5.160   1.728   6.275
 8090SOL    HW125169   5.170   1.678   6.361
 8090SOL    HW225170   5.246   1.776   6.254
 8091SOL     OW25171   3.305   4.508   6.819
 8091SOL    HW125172   3.337   4.430   6.765
 8091SOL    HW225173   3.374   4.533   6.886
 8092SOL     OW25174   1.541   0.957   5.027
 8092SOL    HW125175   1.534   1.020   4.950
 8092SOL    HW225176   1.511   0.866   5.000
 8093SOL     OW25177   5.880   5.993   1.425
 8093SOL    HW125178   5.840   6.006   1.516
 8093SOL    HW225179   5.979   6.006   1.429
 8094SOL     OW25180   1.490   4.115   6.434
 8094SOL    HW125181   1.585   4.083   6.441
 8094SOL    HW225182   1.435   4.074   6.507
 8095SOL     OW25183   5.458   3.204   4.858
 8095SOL    HW125184   5.449   3.176   4.763
 8095SOL    HW225185   5.530   3.151   4.902
 8096SOL     OW25186   3.021   5.756   1.615
 8096SOL    HW125187   2.924   5.780   1.610
 8096SOL    HW225188   3.035   5.685   1.684
 8097SOL     OW25189   5.183   1.006   3.822
 8097SOL    HW125190   5.281   0.989   3.808
 8097SOL    HW225191   5.151   1.072   3.754
 8098SOL     OW25192   2.971   6.014   4.167
 8098SOL    HW125193   2.885   6.066   4.164
 8098SOL    HW225194   2.966   5.939   4.101
 8099SOL     OW25195   5.200   6.083   4.741
 8099SOL    HW125196   5.135   6.144   4.786
 8099SOL    HW225197   5.253   6.034   4.810
 8100SOL     OW25198   0.061   6.906   0.419
 8100SOL    HW125199   0.043   6.845   0.496
 8100SOL    HW225200   0.012   6.873   0.338
 8101SOL     OW25201   1.483   6.468   3.865
 8101SOL    HW125202   1.514   6.451   3.771
 8101SOL    HW225203   1.485   6.566   3.884
 8102SOL     OW25204   7.018   5.435   5.605
 8102SOL    HW125205   6.994   5.478   5.692
 8102SOL    HW225206   6.996   5.498   5.530
 8103SOL     OW25207   3.662   1.425   2.193
 8103SOL    HW125208   3.661   1.325   2.195
 8103SOL    HW225209   3.710   1.460   2.273
 8104SOL     OW25210   2.908   6.963   5.848
 8104SOL    HW125211   2.895   0.030   5.805
 8104SOL    HW225212   2.894   6.971   5.946
 8105SOL     OW25213   2.371   2.069   3.655
 8105SOL    HW125214   2.405   2.022   3.573
 8105SOL    HW225215   2.271   2.070   3.654
 8106SOL     OW25216   0.869   4.243   3.553
 8106SOL    HW125217   0.892   4.285   3.640
 8106SOL    HW225218   0.821   4.157   3.569
 8107SOL     OW25219   1.957   6.444   5.801
 8107SOL    HW125220   1.958   6.442   5.901
 8107SOL    HW225221   2.027   6.382   5.766
 8108SOL     OW25222   0.440   3.925   4.609
 8108SOL    HW125223   0.398   4.016   4.604
 8108SOL    HW225224   0.430   3.879   4.521
 8109SOL     OW25225   1.862   4.524   5.179
 8109SOL    HW125226   1.892   4.605   5.229
 8109SOL    HW225227   1.765   4.534   5.155
 8110SOL     OW25228   1.779   6.327   0.580
 8110SOL    HW125229   1.752   6.269   0.657
 8110SOL    HW225230   1.860   6.289   0.536
 8111SOL     OW25231   2.809   5.773   4.893
 8111SOL    HW125232   2.783   5.692   4.946
 8111SOL    HW225233   2.797   5.756   4.796
 8112SOL     OW25234   2.483   0.455   5.730
 8112SOL    HW125235   2.410   0.392   5.703
 8112SOL    HW225236   2.555   0.453   5.661
 8113SOL     OW25237   3.764   2.594   0.013
 8113SOL    HW125238   3.836   2.654   7.002
 8113SOL    HW225239   3.684   2.600   6.975
 8114SOL     OW25240   2.195   2.927   2.610
 8114SOL    HW125241   2.248   2.846   2.583
 8114SOL    HW225242   2.105   2.924   2.566
 8115SOL     OW25243   3.278   1.624   1.284
 8115SOL    HW125244   3.249   1.568   1.361
 8115SOL    HW225245   3.303   1.565   1.207
 8116SOL     OW25246   5.972   6.632   5.075
 8116SOL    HW125247   5.938   6.716   5.118
 8116SOL    HW225248   6.071   6.639   5.061
 8117SOL     OW25249   1.176   1.298   5.107
 8117SOL    HW125250   1.250   1.314   5.042
 8117SOL    HW225251   1.092   1.273   5.057
 8118SOL     OW25252   1.304   4.143   5.549
 8118SOL    HW125253   1.296   4.072   5.619
 8118SOL    HW225254   1.393   4.136   5.504
 8119SOL     OW25255   0.675   5.886   3.104
 8119SOL    HW125256   0.633   5.796   3.095
 8119SOL    HW225257   0.669   5.934   3.017
 8120SOL     OW25258   4.175   4.554   0.959
 8120SOL    HW125259   4.178   4.621   0.884
 8120SOL    HW225260   4.226   4.589   1.037
 8121SOL     OW25261   6.965   0.284   2.737
 8121SOL    HW125262   6.918   0.344   2.802
 8121SOL    HW225263   0.040   0.308   2.735
 8122SOL     OW25264   6.964   6.292   1.898
 8122SOL    HW125265   6.948   6.384   1.863
 8122SOL    HW225266   6.882   6.236   1.886
 8123SOL     OW25267   1.354   6.568   6.409
 8123SOL    HW125268   1.436   6.597   6.361
 8123SOL    HW225269   1.288   6.642   6.410
 8124SOL     OW25270   1.281   5.411   1.657
 8124SOL    HW125271   1.221   5.470   1.710
 8124SOL    HW225272   1.228   5.335   1.619
 8125SOL     OW25273   5.898   4.185   2.992
 8125SOL    HW125274   5.867   4.242   2.916
 8125SOL    HW225275   5.984   4.221   3.028
 8126SOL     OW25276   5.814   4.336   2.756
 8126SOL    HW125277   5.750   4.266   2.727
 8126SOL    HW225278   5.764   4.418   2.785
 8127SOL     OW25279   2.064   5.028   0.257
 8127SOL    HW125280   1.977   4.984   0.280
 8127SOL    HW225281   2.063   5.052   0.160
 8128SOL     OW25282   3.203   3.058   5.725
 8128SOL    HW125283   3.212   2.995   5.801
 8128SOL    HW225284   3.183   3.008   5.641
 8129SOL     OW25285   5.786   0.692   6.653
 8129SOL    HW125286   5.737   0.667   6.570
 8129SOL    HW225287   5.878   0.724   6.630
 8130SOL     OW25288   1.043   5.303   6.907
 8130SOL    HW125289   0.968   5.272   6.849
 8130SOL    HW225290   1.034   5.401   6.924
 8131SOL     OW25291   3.074   0.439   0.349
 8131SOL    HW125292   3.098   0.346   0.379
 8131SOL    HW225293   3.157   0.487   0.321
 8132SOL     OW25294   5.793   5.430   4.280
 8132SOL    HW125295   5.840   5.392   4.360
 8132SOL    HW225296   5.832   5.519   4.258
 8133SOL     OW25297   2.710   5.231   3.357
 8133SOL    HW125298   2.783   5.283   3.401
 8133SOL    HW225299   2.621   5.264   3.390
 8134SOL     OW25300   2.037   2.544   3.791
 8134SOL    HW125301   2.081   2.599   3.862
 8134SOL    HW225302   2.062   2.448   3.803
 8135SOL     OW25303   3.760   5.435   2.531
 8135SOL    HW125304   3.726   5.369   2.599
 8135SOL    HW225305   3.695   5.510   2.521
 8136SOL     OW25306   3.957   5.679   2.689
 8136SOL    HW125307   3.968   5.615   2.766
 8136SOL    HW225308   4.020   5.654   2.616
 8137SOL     OW25309   2.157   3.864   4.863
 8137SOL    HW125310   2.119   3.944   4.817
 8137SOL    HW225311   2.217   3.894   4.938
 8138SOL     OW25312   5.315   1.634   2.789
 8138SOL    HW125313   5.298   1.535   2.794
 8138SOL    HW225314   5.365   1.655   2.705
 8139SOL     OW25315   1.758   2.987   2.987
 8139SOL    HW125316   1.801   3.033   3.065
 8139SOL    HW225317   1.781   2.890   2.989
 8140SOL     OW25318   5.199   0.631   0.253
 8140SOL    HW125319   5.258   0.597   0.180
 8140SOL    HW225320   5.199   0.567   0.329
 8141SOL     OW25321   4.590   1.687   5.963
 8141SOL    HW125322   4.667   1.695   6.027
 8141SOL    HW225323   4.604   1.609   5.903
 8142SOL     OW25324   1.737   5.893   0.130
 8142SOL    HW125325   1.711   5.938   0.045
 8142SOL    HW225326   1.834   5.867   0.125
 8143SOL     OW25327   5.347   4.628   0.851
 8143SOL    HW125328   5.292   4.697   0.804
 8143SOL    HW225329   5.356   4.652   0.947
 8144SOL     OW25330   0.116   4.992   6.099
 8144SOL    HW125331   0.082   4.898   6.094
 8144SOL    HW225332   0.215   4.991   6.116
 8145SOL     OW25333   5.802   5.787   0.032
 8145SOL    HW125334   5.785   5.702   0.082
 8145SOL    HW225335   5.759   5.782   6.965
 8146SOL     OW25336   5.777   0.413   4.417
 8146SOL    HW125337   5.788   0.315   4.435
 8146SOL    HW225338   5.742   0.458   4.499
 8147SOL     OW25339   0.806   0.927   5.852
 8147SOL    HW125340   0.769   0.839   5.819
 8147SOL    HW225341   0.772   0.945   5.944
 8148SOL     OW25342   3.810   4.739   0.110
 8148SOL    HW125343   3.904   4.719   0.139
 8148SOL    HW225344   3.747   4.709   0.182
 8149SOL     OW25345   1.476   6.411   4.253
 8149SOL    HW125346   1.500   6.360   4.171
 8149SOL    HW225347   1.540   6.388   4.326
 8150SOL     OW25348   1.085   3.052   0.691
 8150SOL    HW125349   1.033   2.967   0.688
 8150SOL    HW225350   1.151   3.048   0.766
 8151SOL     OW25351   6.465   4.531   4.088
 8151SOL    HW125352   6.437   4.576   4.003
 8151SOL    HW225353   6.464   4.432   4.074
 8152SOL     OW25354   4.697   2.302   3.338
 8152SOL    HW125355   4.772   2.286   3.274
 8152SOL    HW225356   4.661   2.215   3.371
 8153SOL     OW25357   0.068   1.648   3.819
 8153SOL    HW125358   0.041   1.646   3.723
 8153SOL    HW225359   0.002   1.703   3.871
 8154SOL     OW25360   2.333   1.698   3.685
 8154SOL    HW125361   2.310   1.601   3.695
 8154SOL    HW225362   2.420   1.707   3.636
 8155SOL     OW25363   1.602   4.745   1.718
 8155SOL    HW125364   1.541   4.814   1.757
 8155SOL    HW225365   1.574   4.655   1.751
 8156SOL     OW25366   5.944   4.905   1.865
 8156SOL    HW125367   5.903   4.932   1.778
 8156SOL    HW225368   5.984   4.986   1.910
 8157SOL     OW25369   6.908   2.886   6.642
 8157SOL    HW125370   6.885   2.823   6.568
 8157SOL    HW225371   6.932   2.975   6.603
 8158SOL     OW25372   5.582   4.590   6.017
 8158SOL    HW125373   5.631   4.631   5.940
 8158SOL    HW225374   5.485   4.615   6.011
 8159SOL     OW25375   3.501   5.725   5.744
 8159SOL    HW125376   3.537   5.808   5.788
 8159SOL    HW225377   3.577   5.674   5.703
 8160SOL     OW25378   5.057   1.106   3.313
 8160SOL    HW125379   4.957   1.108   3.302
 8160SOL    HW225380   5.093   1.024   3.270
 8161SOL     OW25381   5.880   3.018   0.854
 8161SOL    HW125382   5.913   2.935   0.809
 8161SOL    HW225383   5.807   2.994   0.918
 8162SOL     OW25384   0.444   5.034   6.571
 8162SOL    HW125385   0.437   4.953   6.629
 8162SOL    HW225386   0.413   5.115   6.623
 8163SOL     OW25387   4.443   4.704   5.270
 8163SOL    HW125388   4.538   4.714   5.300
 8163SOL    HW225389   4.387   4.673   5.347
 8164SOL     OW25390   5.794   1.111   0.102
 8164SOL    HW125391   5.724   1.181   0.098
 8164SOL    HW225392   5.754   1.022   0.083
 8165SOL     OW25393   6.939   2.084   6.222
 8165SOL    HW125394   6.887   2.167   6.202
 8165SOL    HW225395   6.933   2.021   6.145
 8166SOL     OW25396   1.551   2.253   4.530
 8166SOL    HW125397   1.491   2.334   4.525
 8166SOL    HW225398   1.588   2.245   4.623
 8167SOL     OW25399   6.463   1.937   4.448
 8167SOL    HW125400   6.412   1.873   4.392
 8167SOL    HW225401   6.429   1.935   4.542
 8168SOL     OW25402   2.478   0.731   1.454
 8168SOL    HW125403   2.535   0.678   1.517
 8168SOL    HW225404   2.488   0.695   1.361
 8169SOL     OW25405   5.330   2.089   0.610
 8169SOL    HW125406   5.362   2.175   0.648
 8169SOL    HW225407   5.269   2.044   0.676
 8170SOL     OW25408   6.482   4.617   2.439
 8170SOL    HW125409   6.460   4.680   2.514
 8170SOL    HW225410   6.550   4.551   2.469
 8171SOL     OW25411   1.743   1.167   0.485
 8171SOL    HW125412   1.731   1.078   0.440
 8171SOL    HW225413   1.715   1.240   0.423
 8172SOL     OW25414   0.770   2.749   1.716
 8172SOL    HW125415   0.717   2.664   1.720
 8172SOL    HW225416   0.809   2.768   1.806
 8173SOL     OW25417   5.517   2.354   1.928
 8173SOL    HW125418   5.475   2.371   2.018
 8173SOL    HW225419   5.492   2.262   1.897
 8174SOL     OW25420   2.073   5.524   2.694
 8174SOL    HW125421   2.009   5.561   2.760
 8174SOL    HW225422   2.125   5.599   2.652
 8175SOL     OW25423   0.402   2.683   4.535
 8175SOL    HW125424   0.426   2.589   4.555
 8175SOL    HW225425   0.337   2.717   4.603
 8176SOL     OW25426   1.506   4.437   0.777
 8176SOL    HW125427   1.559   4.362   0.817
 8176SOL    HW225428   1.568   4.513   0.754
 8177SOL     OW25429   3.508   1.428   2.767
 8177SOL    HW125430   3.559   1.494   2.820
 8177SOL    HW225431   3.462   1.474   2.690
 8178SOL     OW25432   2.073   6.396   1.432
 8178SOL    HW125433   2.155   6.408   1.375
 8178SOL    HW225434   1.992   6.410   1.376
 8179SOL     OW25435   5.457   1.017   3.865
 8179SOL    HW125436   5.548   0.991   3.834
 8179SOL    HW225437   5.464   1.097   3.925
 8180SOL     OW25438   5.537   6.823   0.037
 8180SOL    HW125439   5.625   6.777   0.050
 8180SOL    HW225440   5.508   6.813   6.964
 8181SOL     OW25441   0.837   1.343   1.271
 8181SOL    HW125442   0.817   1.421   1.213
 8181SOL    HW225443   0.929   1.308   1.249
 8182SOL     OW25444   3.023   3.628   4.769
 8182SOL    HW125445   2.943   3.596   4.717
 8182SOL    HW225446   3.052   3.556   4.832
 8183SOL     OW25447   6.320   0.361   4.714
 8183SOL    HW125448   6.340   0.306   4.795
 8183SOL    HW225449   6.222   0.379   4.709
 8184SOL     OW25450   0.807   6.773   6.898
 8184SOL    HW125451   0.821   6.698   6.832
 8184SOL    HW225452   0.758   6.739   6.978
 8185SOL     OW25453   0.929   0.332   0.600
 8185SOL    HW125454   1.023   0.313   0.626
 8185SOL    HW225455   0.925   0.357   0.503
 8186SOL     OW25456   1.097   4.969   6.283
 8186SOL    HW125457   1.162   4.904   6.245
 8186SOL    HW225458   1.138   5.019   6.359
 8187SOL     OW25459   1.399   1.606   5.201
 8187SOL    HW125460   1.321   1.568   5.251
 8187SOL    HW225461   1.482   1.558   5.230
 8188SOL     OW25462   3.266   2.036   3.756
 8188SOL    HW125463   3.255   2.135   3.743
 8188SOL    HW225464   3.187   1.988   3.718
 8189SOL     OW25465   4.643   4.742   3.876
 8189SOL    HW125466   4.628   4.803   3.954
 8189SOL    HW225467   4.624   4.791   3.791
 8190SOL     OW25468   5.514   3.283   2.919
 8190SOL    HW125469   5.505   3.247   2.827
 8190SOL    HW225470   5.595   3.343   2.924
 8191SOL     OW25471   4.371   5.147   1.887
 8191SOL    HW125472   4.374   5.176   1.792
 8191SOL    HW225473   4.464   5.138   1.923
 8192SOL     OW25474   1.766   5.133   3.470
 8192SOL    HW125475   1.718   5.132   3.557
 8192SOL    HW225476   1.818   5.049   3.459
 8193SOL     OW25477   6.768   4.955   5.273
 8193SOL    HW125478   6.842   4.887   5.268
 8193SOL    HW225479   6.700   4.934   5.204
 8194SOL     OW25480   4.256   6.578   1.556
 8194SOL    HW125481   4.186   6.622   1.499
 8194SOL    HW225482   4.337   6.637   1.561
 8195SOL     OW25483   5.610   6.976   3.350
 8195SOL    HW125484   5.558   6.990   3.434
 8195SOL    HW225485   5.678   0.025   3.340
 8196SOL     OW25486   4.608   0.500   6.837
 8196SOL    HW125487   4.577   0.428   6.775
 8196SOL    HW225488   4.670   0.460   6.905
 8197SOL     OW25489   5.004   1.542   1.389
 8197SOL    HW125490   4.996   1.640   1.371
 8197SOL    HW225491   4.999   1.526   1.488
 8198SOL     OW25492   2.377   6.656   1.733
 8198SOL    HW125493   2.384   6.572   1.679
 8198SOL    HW225494   2.378   6.633   1.831
 8199SOL     OW25495   5.272   2.693   6.055
 8199SOL    HW125496   5.277   2.735   5.965
 8199SOL    HW225497   5.349   2.630   6.067
 8200SOL     OW25498   5.204   3.387   1.090
 8200SOL    HW125499   5.222   3.478   1.053
 8200SOL    HW225500   5.124   3.391   1.150
 8201SOL     OW25501   0.155   0.344   5.331
 8201SOL    HW125502   0.189   0.386   5.248
 8201SOL    HW225503   0.071   0.390   5.360
 8202SOL     OW25504   0.077   6.553   2.153
 8202SOL    HW125505   0.102   6.618   2.082
 8202SOL    HW225506   0.159   6.505   2.186
 8203SOL     OW25507   1.679   3.111   0.527
 8203SOL    HW125508   1.769   3.069   0.513
 8203SOL    HW225509   1.634   3.068   0.604
 8204SOL     OW25510   4.683   3.457   1.235
 8204SOL    HW125511   4.596   3.431   1.194
 8204SOL    HW225512   4.721   3.536   1.185
 8205SOL     OW25513   0.914   2.927   0.488
 8205SOL    HW125514   0.988   2.913   0.422
 8205SOL    HW225515   0.835   2.871   0.462
 8206SOL     OW25516   3.721   1.405   7.012
 8206SOL    HW125517   3.653   1.391   0.062
 8206SOL    HW225518   3.770   1.491   0.006
 8207SOL     OW25519   3.558   2.859   4.089
 8207SOL    HW125520   3.507   2.907   4.161
 8207SOL    HW225521   3.515   2.771   4.071
 8208SOL     OW25522   0.957   0.874   0.613
 8208SOL    HW125523   0.986   0.929   0.535
 8208SOL    HW225524   1.025   0.879   0.686
 8209SOL     OW25525   6.284   1.122   5.252
 8209SOL    HW125526   6.290   1.217   5.284
 8209SOL    HW225527   6.210   1.075   5.300
 8210SOL     OW25528   2.125   2.831   0.235
 8210SOL    HW125529   2.220   2.810   0.255
 8210SOL    HW225530   2.080   2.750   0.196
 8211SOL     OW25531   3.381   3.654   1.184
 8211SOL    HW125532   3.359   3.701   1.269
 8211SOL    HW225533   3.298   3.614   1.145
 8212SOL     OW25534   1.618   2.338   2.857
 8212SOL    HW125535   1.579   2.415   2.908
 8212SOL    HW225536   1.545   2.278   2.826
 8213SOL     OW25537   0.699   5.100   1.568
 8213SOL    HW125538   0.706   5.102   1.667
 8213SOL    HW225539   0.791   5.097   1.528
 8214SOL     OW25540   5.536   4.512   3.523
 8214SOL    HW125541   5.444   4.492   3.558
 8214SOL    HW225542   5.529   4.547   3.430
 8215SOL     OW25543   3.607   4.913   4.586
 8215SOL    HW125544   3.657   4.957   4.660
 8215SOL    HW225545   3.521   4.877   4.621
 8216SOL     OW25546   5.382   4.496   4.066
 8216SOL    HW125547   5.285   4.475   4.050
 8216SOL    HW225548   5.416   4.556   3.993
 8217SOL     OW25549   1.710   5.828   0.752
 8217SOL    HW125550   1.762   5.911   0.772
 8217SOL    HW225551   1.649   5.844   0.675
 8218SOL     OW25552   0.680   1.649   6.974
 8218SOL    HW125553   0.722   1.598   0.026
 8218SOL    HW225554   0.619   1.589   6.923
 8219SOL     OW25555   4.590   1.940   0.045
 8219SOL    HW125556   4.622   1.908   6.979
 8219SOL    HW225557   4.514   1.882   0.076
 8220SOL     OW25558   3.629   3.433   2.653
 8220SOL    HW125559   3.710   3.489   2.674
 8220SOL    HW225560   3.554   3.459   2.714
 8221SOL     OW25561   4.401   6.390   4.078
 8221SOL    HW125562   4.309   6.360   4.101
 8221SOL    HW225563   4.468   6.325   4.114
 8222SOL     OW25564   5.496   2.103   1.882
 8222SOL    HW125565   5.584   2.062   1.909
 8222SOL    HW225566   5.469   2.066   1.793
 8223SOL     OW25567   0.582   4.392   5.740
 8223SOL    HW125568   0.528   4.472   5.714
 8223SOL    HW225569   0.596   4.391   5.839
 8224SOL     OW25570   0.854   2.438   2.947
 8224SOL    HW125571   0.856   2.422   2.848
 8224SOL    HW225572   0.918   2.511   2.970
 8225SOL     OW25573   4.665   1.183   6.768
 8225SOL    HW125574   4.740   1.218   6.711
 8225SOL    HW225575   4.612   1.259   6.804
 8226SOL     OW25576   5.252   0.545   1.484
 8226SOL    HW125577   5.300   0.488   1.551
 8226SOL    HW225578   5.294   0.532   1.394
 8227SOL     OW25579   6.573   2.858   4.093
 8227SOL    HW125580   6.669   2.830   4.084
 8227SOL    HW225581   6.548   2.860   4.190
 8228SOL     OW25582   0.370   2.388   5.180
 8228SOL    HW125583   0.398   2.458   5.246
 8228SOL    HW225584   0.451   2.343   5.143
 8229SOL     OW25585   2.520   5.386   0.408
 8229SOL    HW125586   2.448   5.338   0.458
 8229SOL    HW225587   2.527   5.349   0.315
 8230SOL     OW25588   5.324   0.255   5.191
 8230SOL    HW125589   5.341   0.300   5.103
 8230SOL    HW225590   5.230   0.223   5.195
 8231SOL     OW25591   4.970   6.045   1.508
 8231SOL    HW125592   4.981   6.021   1.411
 8231SOL    HW225593   4.902   6.118   1.517
 8232SOL     OW25594   4.087   1.569   0.389
 8232SOL    HW125595   4.174   1.551   0.434
 8232SOL    HW225596   4.101   1.632   0.313
 8233SOL     OW25597   0.279   5.239   5.982
 8233SOL    HW125598   0.356   5.302   5.991
 8233SOL    HW225599   0.198   5.279   6.024
 8234SOL     OW25600   3.090   2.877   0.352
 8234SOL    HW125601   3.152   2.940   0.397
 8234SOL    HW225602   2.997   2.913   0.355
 8235SOL     OW25603   2.908   3.782   0.596
 8235SOL    HW125604   2.988   3.735   0.557
 8235SOL    HW225605   2.844   3.715   0.632
 8236SOL     OW25606   6.921   3.469   7.009
 8236SOL    HW125607   6.840   3.495   6.957
 8236SOL    HW225608   7.000   3.520   6.976
 8237SOL     OW25609   4.934   5.635   5.529
 8237SOL    HW125610   4.937   5.730   5.497
 8237SOL    HW225611   4.975   5.576   5.460
 8238SOL     OW25612   1.501   3.951   6.861
 8238SOL    HW125613   1.482   3.853   6.859
 8238SOL    HW225614   1.526   3.978   6.954
 8239SOL     OW25615   6.252   2.014   5.411
 8239SOL    HW125616   6.162   2.042   5.378
 8239SOL    HW225617   6.273   1.922   5.376
 8240SOL     OW25618   3.229   3.634   2.754
 8240SOL    HW125619   3.168   3.702   2.793
 8240SOL    HW225620   3.189   3.597   2.670
 8241SOL     OW25621   3.034   6.550   0.927
 8241SOL    HW125622   3.085   6.597   0.854
 8241SOL    HW225623   3.040   6.603   1.011
 8242SOL     OW25624   0.803   4.456   5.517
 8242SOL    HW125625   0.751   4.371   5.513
 8242SOL    HW225626   0.787   4.501   5.605
 8243SOL     OW25627   0.460   3.164   5.710
 8243SOL    HW125628   0.542   3.108   5.700
 8243SOL    HW225629   0.462   3.238   5.643
 8244SOL     OW25630   0.217   0.225   4.118
 8244SOL    HW125631   0.293   0.163   4.134
 8244SOL    HW225632   0.230   0.274   4.032
 8245SOL     OW25633   4.418   1.798   2.034
 8245SOL    HW125634   4.396   1.739   1.957
 8245SOL    HW225635   4.479   1.750   2.097
 8246SOL     OW25636   6.669   4.236   5.821
 8246SOL    HW125637   6.667   4.302   5.895
 8246SOL    HW225638   6.576   4.222   5.787
 8247SOL     OW25639   0.747   0.959   1.422
 8247SOL    HW125640   0.744   0.957   1.322
 8247SOL    HW225641   0.748   1.054   1.453
 8248SOL     OW25642   6.167   4.604   3.701
 8248SOL    HW125643   6.131   4.693   3.674
 8248SOL    HW225644   6.257   4.615   3.743
 8249SOL     OW25645   1.761   4.407   4.303
 8249SOL    HW125646   1.834   4.340   4.312
 8249SOL    HW225647   1.754   4.437   4.208
 8250SOL     OW25648   3.633   4.018   3.180
 8250SOL    HW125649   3.679   4.004   3.092
 8250SOL    HW225650   3.546   4.064   3.165
 8251SOL     OW25651   5.580   1.963   4.821
 8251SOL    HW125652   5.577   1.942   4.919
 8251SOL    HW225653   5.600   2.061   4.809
 8252SOL     OW25654   3.305   3.722   6.317
 8252SOL    HW125655   3.244   3.788   6.360
 8252SOL    HW225656   3.272   3.629   6.334
 8253SOL     OW25657   3.798   2.784   5.198
 8253SOL    HW125658   3.824   2.853   5.266
 8253SOL    HW225659   3.834   2.810   5.108
 8254SOL     OW25660   4.278   4.733   4.816
 8254SOL    HW125661   4.311   4.825   4.835
 8254SOL    HW225662   4.323   4.698   4.734
 8255SOL     OW25663   3.772   6.252   4.312
 8255SOL    HW125664   3.711   6.209   4.378
 8255SOL    HW225665   3.821   6.182   4.261
 8256SOL     OW25666   6.232   0.597   3.642
 8256SOL    HW125667   6.241   0.584   3.544
 8256SOL    HW225668   6.320   0.626   3.680
 8257SOL     OW25669   6.164   5.088   3.080
 8257SOL    HW125670   6.183   5.186   3.087
 8257SOL    HW225671   6.146   5.064   2.984
 8258SOL     OW25672   4.407   1.582   0.724
 8258SOL    HW125673   4.468   1.654   0.691
 8258SOL    HW225674   4.384   1.598   0.820
 8259SOL     OW25675   4.350   1.434   3.287
 8259SOL    HW125676   4.273   1.455   3.348
 8259SOL    HW225677   4.436   1.457   3.333
 8260SOL     OW25678   2.438   6.719   2.046
 8260SOL    HW125679   2.339   6.711   2.029
 8260SOL    HW225680   2.453   6.752   2.139
 8261SOL     OW25681   5.653   0.878   1.412
 8261SOL    HW125682   5.576   0.845   1.357
 8261SOL    HW225683   5.624   0.959   1.463
 8262SOL     OW25684   1.209   2.317   1.433
 8262SOL    HW125685   1.273   2.347   1.504
 8262SOL    HW225686   1.116   2.317   1.470
 8263SOL     OW25687   0.181   1.630   1.151
 8263SOL    HW125688   0.086   1.652   1.132
 8263SOL    HW225689   0.203   1.654   1.245
 8264SOL     OW25690   1.243   5.608   2.398
 8264SOL    HW125691   1.172   5.555   2.444
 8264SOL    HW225692   1.296   5.659   2.467
 8265SOL     OW25693   1.585   0.234   1.265
 8265SOL    HW125694   1.625   0.254   1.355
 8265SOL    HW225695   1.486   0.230   1.272
 8266SOL     OW25696   2.086   6.607   2.593
 8266SOL    HW125697   2.001   6.659   2.581
 8266SOL    HW225698   2.137   6.607   2.507
 8267SOL     OW25699   2.199   3.708   1.136
 8267SOL    HW125700   2.197   3.695   1.235
 8267SOL    HW225701   2.197   3.806   1.116
 8268SOL     OW25702   2.006   6.432   6.069
 8268SOL    HW125703   1.944   6.366   6.110
 8268SOL    HW225704   2.100   6.402   6.081
 8269SOL     OW25705   5.954   1.278   1.199
 8269SOL    HW125706   5.924   1.261   1.292
 8269SOL    HW225707   6.035   1.337   1.199
 8270SOL     OW25708   2.665   6.913   4.517
 8270SOL    HW125709   2.738   6.847   4.497
 8270SOL    HW225710   2.630   6.951   4.432
 8271SOL     OW25711   6.775   0.898   2.778
 8271SOL    HW125712   6.822   0.947   2.704
 8271SOL    HW225713   6.838   0.882   2.853
 8272SOL     OW25714   5.020   1.003   1.611
 8272SOL    HW125715   4.955   0.976   1.540
 8272SOL    HW225716   5.097   0.940   1.612
 8273SOL     OW25717   2.116   6.384   1.060
 8273SOL    HW125718   2.105   6.481   1.079
 8273SOL    HW225719   2.044   6.354   0.998
 8274SOL     OW25720   4.641   4.906   2.689
 8274SOL    HW125721   4.560   4.965   2.687
 8274SOL    HW225722   4.629   4.836   2.760
 8275SOL     OW25723   4.593   2.050   6.276
 8275SOL    HW125724   4.528   2.114   6.319
 8275SOL    HW225725   4.575   2.047   6.177
 8276SOL     OW25726   0.992   1.940   4.107
 8276SOL    HW125727   0.949   1.965   4.020
 8276SOL    HW225728   1.059   1.867   4.091
 8277SOL     OW25729   0.143   0.716   6.565
 8277SOL    HW125730   0.240   0.722   6.542
 8277SOL    HW225731   0.095   0.797   6.532
 8278SOL     OW25732   2.340   2.149   6.730
 8278SOL    HW125733   2.436   2.148   6.701
 8278SOL    HW225734   2.282   2.172   6.652
 8279SOL     OW25735   0.550   6.373   4.606
 8279SOL    HW125736   0.576   6.279   4.630
 8279SOL    HW225737   0.604   6.404   4.528
 8280SOL     OW25738   2.827   3.290   6.995
 8280SOL    HW125739   2.854   3.382   0.003
 8280SOL    HW225740   2.820   3.289   6.896
 8281SOL     OW25741   0.886   5.412   1.576
 8281SOL    HW125742   0.831   5.495   1.565
 8281SOL    HW225743   0.928   5.387   1.489
 8282SOL     OW25744   5.909   2.981   6.409
 8282SOL    HW125745   5.940   2.963   6.502
 8282SOL    HW225746   5.832   2.921   6.387
 8283SOL     OW25747   1.352   4.605   6.432
 8283SOL    HW125748   1.302   4.565   6.509
 8283SOL    HW225749   1.404   4.533   6.386
 8284SOL     OW25750   0.607   4.198   1.746
 8284SOL    HW125751   0.627   4.191   1.648
 8284SOL    HW225752   0.513   4.228   1.759
 8285SOL     OW25753   3.919   3.016   5.042
 8285SOL    HW125754   3.982   3.075   5.092
 8285SOL    HW225755   3.965   2.983   4.959
 8286SOL     OW25756   5.496   2.541   6.092
 8286SOL    HW125757   5.551   2.553   6.175
 8286SOL    HW225758   5.512   2.450   6.054
 8287SOL     OW25759   1.397   5.719   4.889
 8287SOL    HW125760   1.375   5.721   4.792
 8287SOL    HW225761   1.340   5.650   4.934
 8288SOL     OW25762   2.654   2.415   3.146
 8288SOL    HW125763   2.607   2.465   3.073
 8288SOL    HW225764   2.719   2.350   3.105
 8289SOL     OW25765   0.597   7.003   0.954
 8289SOL    HW125766   0.595   0.069   0.907
 8289SOL    HW225767   0.692   6.979   0.974
 8290SOL     OW25768   6.462   1.389   0.253
 8290SOL    HW125769   6.518   1.347   0.325
 8290SOL    HW225770   6.516   1.394   0.168
 8291SOL     OW25771   5.025   0.142   6.853
 8291SOL    HW125772   5.060   0.050   6.835
 8291SOL    HW225773   5.098   0.198   6.893
 8292SOL     OW25774   2.611   6.361   0.260
 8292SOL    HW125775   2.567   6.285   0.212
 8292SOL    HW225776   2.642   6.429   0.193
 8293SOL     OW25777   3.848   6.724   0.039
 8293SOL    HW125778   3.834   6.671   6.978
 8293SOL    HW225779   3.833   6.821   0.019
 8294SOL     OW25780   5.680   3.668   5.770
 8294SOL    HW125781   5.711   3.667   5.864
 8294SOL    HW225782   5.630   3.753   5.752
 8295SOL     OW25783   5.643   4.837   1.692
 8295SOL    HW125784   5.643   4.840   1.792
 8295SOL    HW225785   5.587   4.760   1.661
 8296SOL     OW25786   1.413   6.687   5.919
 8296SOL    HW125787   1.482   6.641   5.863
 8296SOL    HW225788   1.365   6.755   5.864
 8297SOL     OW25789   6.316   2.575   3.173
 8297SOL    HW125790   6.328   2.525   3.087
 8297SOL    HW225791   6.241   2.535   3.225
 8298SOL     OW25792   5.628   1.206   1.454
 8298SOL    HW125793   5.567   1.203   1.533
 8298SOL    HW225794   5.722   1.220   1.485
 8299SOL     OW25795   0.627   2.575   1.918
 8299SOL    HW125796   0.585   2.650   1.867
 8299SOL    HW225797   0.561   2.500   1.927
 8300SOL     OW25798   0.484   5.188   5.408
 8300SOL    HW125799   0.478   5.286   5.391
 8300SOL    HW225800   0.561   5.170   5.469
 8301SOL     OW25801   4.312   1.862   1.625
 8301SOL    HW125802   4.289   1.958   1.608
 8301SOL    HW225803   4.286   1.807   1.545
 8302SOL     OW25804   6.239   5.849   6.095
 8302SOL    HW125805   6.140   5.853   6.104
 8302SOL    HW225806   6.277   5.941   6.093
 8303SOL     OW25807   6.983   0.394   4.084
 8303SOL    HW125808   7.011   0.473   4.139
 8303SOL    HW225809   0.031   0.324   4.087
 8304SOL     OW25810   1.479   3.758   6.557
 8304SOL    HW125811   1.561   3.772   6.502
 8304SOL    HW225812   1.451   3.845   6.598
 8305SOL     OW25813   3.631   5.168   4.112
 8305SOL    HW125814   3.678   5.080   4.107
 8305SOL    HW225815   3.663   5.228   4.038
 8306SOL     OW25816   0.228   3.257   4.766
 8306SOL    HW125817   0.146   3.243   4.820
 8306SOL    HW225818   0.305   3.209   4.809
 8307SOL     OW25819   3.990   5.256   1.947
 8307SOL    HW125820   4.051   5.334   1.936
 8307SOL    HW225821   3.929   5.272   2.025
 8308SOL     OW25822   4.495   6.349   1.186
 8308SOL    HW125823   4.528   6.263   1.226
 8308SOL    HW225824   4.565   6.420   1.197
 8309SOL     OW25825   5.494   5.578   3.057
 8309SOL    HW125826   5.478   5.481   3.076
 8309SOL    HW225827   5.428   5.633   3.108
 8310SOL     OW25828   0.875   4.594   0.617
 8310SOL    HW125829   0.793   4.577   0.672
 8310SOL    HW225830   0.885   4.522   0.548
 8311SOL     OW25831   0.401   1.154   5.897
 8311SOL    HW125832   0.498   1.177   5.901
 8311SOL    HW225833   0.379   1.090   5.970
 8312SOL     OW25834   5.215   6.214   1.369
 8312SOL    HW125835   5.117   6.230   1.356
 8312SOL    HW225836   5.229   6.127   1.417
 8313SOL     OW25837   3.956   1.713   2.513
 8313SOL    HW125838   4.009   1.797   2.502
 8313SOL    HW225839   4.017   1.637   2.534
 8314SOL     OW25840   4.967   6.464   0.683
 8314SOL    HW125841   5.003   6.549   0.644
 8314SOL    HW225842   4.890   6.486   0.744
 8315SOL     OW25843   3.940   2.875   0.889
 8315SOL    HW125844   3.974   2.968   0.900
 8315SOL    HW225845   3.913   2.861   0.794
 8316SOL     OW25846   0.487   3.246   1.499
 8316SOL    HW125847   0.541   3.205   1.426
 8316SOL    HW225848   0.404   3.192   1.514
 8317SOL     OW25849   2.024   3.179   2.353
 8317SOL    HW125850   2.067   3.094   2.321
 8317SOL    HW225851   2.042   3.252   2.287
 8318SOL     OW25852   4.721   2.128   4.772
 8318SOL    HW125853   4.815   2.140   4.803
 8318SOL    HW225854   4.704   2.031   4.756
 8319SOL     OW25855   3.026   2.059   5.982
 8319SOL    HW125856   3.111   2.051   5.929
 8319SOL    HW225857   2.960   2.114   5.931
 8320SOL     OW25858   3.591   4.947   0.991
 8320SOL    HW125859   3.618   5.001   1.071
 8320SOL    HW225860   3.604   4.849   1.012
 8321SOL     OW25861   0.358   1.094   6.346
 8321SOL    HW125862   0.291   1.021   6.329
 8321SOL    HW225863   0.436   1.081   6.285
 8322SOL     OW25864   6.903   0.145   7.008
 8322SOL    HW125865   6.925   0.239   0.012
 8322SOL    HW225866   6.965   0.116   6.934
 8323SOL     OW25867   0.054   0.002   2.458
 8323SOL    HW125868   0.129   0.057   2.495
 8323SOL    HW225869   0.078   6.928   2.462
 8324SOL     OW25870   6.661   0.303   2.452
 8324SOL    HW125871   6.751   0.265   2.471
 8324SOL    HW225872   6.591   0.252   2.502
 8325SOL     OW25873   3.733   2.890   4.345
 8325SOL    HW125874   3.739   2.916   4.248
 8325SOL    HW225875   3.821   2.852   4.375
 8326SOL     OW25876   4.289   3.201   5.314
 8326SOL    HW125877   4.314   3.176   5.407
 8326SOL    HW225878   4.258   3.297   5.313
 8327SOL     OW25879   4.929   2.294   5.562
 8327SOL    HW125880   4.940   2.199   5.533
 8327SOL    HW225881   4.853   2.336   5.513
 8328SOL     OW25882   2.485   3.752   6.172
 8328SOL    HW125883   2.508   3.669   6.223
 8328SOL    HW225884   2.397   3.787   6.204
 8329SOL     OW25885   0.063   3.093   5.509
 8329SOL    HW125886   0.101   3.088   5.417
 8329SOL    HW225887   7.010   3.028   5.518
 8330SOL     OW25888   1.998   0.289   0.432
 8330SOL    HW125889   2.026   0.267   0.526
 8330SOL    HW225890   2.064   0.352   0.392
 8331SOL     OW25891   2.990   6.835   1.009
 8331SOL    HW125892   3.046   6.858   1.089
 8331SOL    HW225893   2.920   6.769   1.035
 8332SOL     OW25894   4.603   5.251   2.446
 8332SOL    HW125895   4.583   5.165   2.399
 8332SOL    HW225896   4.533   5.319   2.423
 8333SOL     OW25897   0.182   6.005   0.006
 8333SOL    HW125898   0.167   6.028   0.102
 8333SOL    HW225899   0.144   6.077   6.971
 8334SOL     OW25900   5.867   1.276   4.130
 8334SOL    HW125901   5.854   1.282   4.031
 8334SOL    HW225902   5.882   1.368   4.167
 8335SOL     OW25903   6.194   5.119   5.706
 8335SOL    HW125904   6.160   5.166   5.787
 8335SOL    HW225905   6.289   5.093   5.721
 8336SOL     OW25906   6.918   1.046   2.579
 8336SOL    HW125907   6.862   1.103   2.519
 8336SOL    HW225908   6.985   0.997   2.524
 8337SOL     OW25909   0.529   6.918   3.882
 8337SOL    HW125910   0.454   6.896   3.820
 8337SOL    HW225911   0.609   6.947   3.829
 8338SOL     OW25912   2.266   4.898   1.898
 8338SOL    HW125913   2.334   4.966   1.927
 8338SOL    HW225914   2.221   4.860   1.978
 8339SOL     OW25915   6.202   1.184   2.041
 8339SOL    HW125916   6.201   1.282   2.022
 8339SOL    HW225917   6.275   1.141   1.989
 8340SOL     OW25918   4.874   3.605   1.104
 8340SOL    HW125919   4.918   3.687   1.067
 8340SOL    HW225920   4.857   3.540   1.030
 8341SOL     OW25921   2.411   6.168   0.143
 8341SOL    HW125922   2.363   6.177   0.230
 8341SOL    HW225923   2.381   6.086   0.096
 8342SOL     OW25924   3.732   6.705   1.716
 8342SOL    HW125925   3.697   6.749   1.798
 8342SOL    HW225926   3.684   6.619   1.700
 8343SOL     OW25927   1.624   5.213   6.118
 8343SOL    HW125928   1.652   5.295   6.167
 8343SOL    HW225929   1.561   5.238   6.044
 8344SOL     OW25930   4.693   6.562   5.924
 8344SOL    HW125931   4.633   6.496   5.969
 8344SOL    HW225932   4.781   6.565   5.971
 8345SOL     OW25933   5.455   1.811   3.501
 8345SOL    HW125934   5.472   1.726   3.550
 8345SOL    HW225935   5.376   1.858   3.541
 8346SOL     OW25936   2.435   4.762   0.206
 8346SOL    HW125937   2.465   4.719   0.121
 8346SOL    HW225938   2.515   4.791   0.259
 8347SOL     OW25939   2.935   6.947   5.139
 8347SOL    HW125940   3.026   6.965   5.176
 8347SOL    HW225941   2.921   7.000   5.055
 8348SOL     OW25942   1.800   7.021   1.311
 8348SOL    HW125943   1.893   0.033   1.318
 8348SOL    HW225944   1.737   0.076   1.302
 8349SOL     OW25945   5.859   3.767   0.937
 8349SOL    HW125946   5.883   3.736   1.030
 8349SOL    HW225947   5.909   3.852   0.917
 8350SOL     OW25948   5.313   0.615   4.993
 8350SOL    HW125949   5.410   0.635   5.009
 8350SOL    HW225950   5.303   0.521   4.960
 8351SOL     OW25951   3.768   5.069   4.785
 8351SOL    HW125952   3.847   5.008   4.773
 8351SOL    HW225953   3.781   5.124   4.867
 8352SOL     OW25954   6.778   0.306   1.990
 8352SOL    HW125955   6.869   0.267   1.980
 8352SOL    HW225956   6.735   0.270   2.073
 8353SOL     OW25957   5.482   3.600   2.402
 8353SOL    HW125958   5.430   3.667   2.349
 8353SOL    HW225959   5.523   3.645   2.481
 8354SOL     OW25960   3.265   1.236   7.003
 8354SOL    HW125961   3.239   1.319   0.030
 8354SOL    HW225962   3.353   1.252   6.957
 8355SOL     OW25963   2.698   0.596   6.840
 8355SOL    HW125964   2.702   0.667   6.769
 8355SOL    HW225965   2.636   0.626   6.912
 8356SOL     OW25966   0.895   6.265   0.643
 8356SOL    HW125967   0.937   6.355   0.628
 8356SOL    HW225968   0.845   6.266   0.729
 8357SOL     OW25969   4.022   5.787   5.709
 8357SOL    HW125970   3.974   5.787   5.797
 8357SOL    HW225971   4.105   5.843   5.716
 8358SOL     OW25972   2.160   2.698   5.480
 8358SOL    HW125973   2.129   2.662   5.568
 8358SOL    HW225974   2.175   2.796   5.487
 8359SOL     OW25975   3.748   6.075   4.636
 8359SOL    HW125976   3.832   6.130   4.635
 8359SOL    HW225977   3.763   5.991   4.583
 8360SOL     OW25978   3.499   6.952   2.571
 8360SOL    HW125979   3.517   6.981   2.665
 8360SOL    HW225980   3.489   6.852   2.569
 8361SOL     OW25981   1.601   0.938   1.998
 8361SOL    HW125982   1.628   0.994   2.077
 8361SOL    HW225983   1.654   0.965   1.918
 8362SOL     OW25984   2.728   2.415   0.237
 8362SOL    HW125985   2.806   2.457   0.191
 8362SOL    HW225986   2.682   2.351   0.175
 8363SOL     OW25987   1.070   2.617   0.414
 8363SOL    HW125988   1.014   2.605   0.496
 8363SOL    HW225989   1.035   2.694   0.361
 8364SOL     OW25990   0.458   3.335   2.784
 8364SOL    HW125991   0.532   3.399   2.763
 8364SOL    HW225992   0.449   3.269   2.709
 8365SOL     OW25993   1.527   4.245   1.120
 8365SOL    HW125994   1.552   4.341   1.128
 8365SOL    HW225995   1.590   4.189   1.174
 8366SOL     OW25996   4.394   5.963   2.109
 8366SOL    HW125997   4.310   5.996   2.067
 8366SOL    HW225998   4.424   5.880   2.064
 8367SOL     OW25999   4.180   6.238   4.115
 8367SOL    HW126000   4.162   6.213   4.210
 8367SOL    HW226001   4.227   6.163   4.069
 8368SOL     OW26002   2.776   5.824   6.223
 8368SOL    HW126003   2.870   5.845   6.250
 8368SOL    HW226004   2.749   5.883   6.147
 8369SOL     OW26005   1.766   1.181   6.498
 8369SOL    HW126006   1.851   1.130   6.500
 8369SOL    HW226007   1.711   1.152   6.420
 8370SOL     OW26008   2.998   2.674   5.824
 8370SOL    HW126009   3.063   2.645   5.753
 8370SOL    HW226010   2.972   2.595   5.880
 8371SOL     OW26011   1.687   3.762   0.492
 8371SOL    HW126012   1.640   3.674   0.496
 8371SOL    HW226013   1.628   3.834   0.527
 8372SOL     OW26014   0.877   6.317   2.790
 8372SOL    HW126015   0.860   6.266   2.706
 8372SOL    HW226016   0.808   6.292   2.858
 8373SOL     OW26017   0.907   6.701   5.102
 8373SOL    HW126018   0.815   6.663   5.091
 8373SOL    HW226019   0.946   6.669   5.188
 8374SOL     OW26020   0.006   1.151   6.861
 8374SOL    HW126021   0.089   1.127   6.911
 8374SOL    HW226022   0.031   1.190   6.772
 8375SOL     OW26023   3.582   5.961   5.876
 8375SOL    HW126024   3.502   5.969   5.935
 8375SOL    HW226025   3.586   6.040   5.815
 8376SOL     OW26026   2.363   0.735   4.835
 8376SOL    HW126027   2.303   0.674   4.886
 8376SOL    HW226028   2.323   0.754   4.745
 8377SOL     OW26029   6.093   5.789   1.598
 8377SOL    HW126030   6.053   5.836   1.677
 8377SOL    HW226031   6.024   5.782   1.525
 8378SOL     OW26032   5.090   4.120   3.377
 8378SOL    HW126033   5.026   4.043   3.365
 8378SOL    HW226034   5.050   4.202   3.337
 8379SOL     OW26035   6.757   3.061   1.216
 8379SOL    HW126036   6.846   3.031   1.181
 8379SOL    HW226037   6.690   2.988   1.203
 8380SOL     OW26038   6.555   0.800   2.030
 8380SOL    HW126039   6.501   0.804   2.114
 8380SOL    HW226040   6.586   0.706   2.015
 8381SOL     OW26041   0.884   5.177   4.609
 8381SOL    HW126042   0.818   5.252   4.608
 8381SOL    HW226043   0.963   5.202   4.666
 8382SOL     OW26044   1.450   1.453   2.150
 8382SOL    HW126045   1.518   1.385   2.178
 8382SOL    HW226046   1.494   1.540   2.131
 8383SOL     OW26047   2.958   2.081   6.536
 8383SOL    HW126048   2.973   2.170   6.579
 8383SOL    HW226049   2.949   2.093   6.437
 8384SOL     OW26050   6.989   6.901   0.836
 8384SOL    HW126051   0.001   6.961   0.908
 8384SOL    HW226052   0.043   6.861   0.786
 8385SOL     OW26053   5.909   2.655   1.806
 8385SOL    HW126054   5.844   2.671   1.731
 8385SOL    HW226055   5.860   2.620   1.886
 8386SOL     OW26056   0.913   4.265   2.366
 8386SOL    HW126057   0.936   4.210   2.447
 8386SOL    HW226058   0.869   4.207   2.298
 8387SOL     OW26059   1.375   1.449   0.994
 8387SOL    HW126060   1.446   1.379   1.004
 8387SOL    HW226061   1.286   1.405   0.985
 8388SOL     OW26062   2.305   6.020   1.660
 8388SOL    HW126063   2.282   5.932   1.616
 8388SOL    HW226064   2.330   6.086   1.590
 8389SOL     OW26065   5.183   3.580   2.164
 8389SOL    HW126066   5.199   3.677   2.185
 8389SOL    HW226067   5.089   3.568   2.132
 8390SOL     OW26068   3.788   1.858   6.369
 8390SOL    HW126069   3.704   1.815   6.401
 8390SOL    HW226070   3.844   1.791   6.321
 8391SOL     OW26071   6.087   6.684   0.809
 8391SOL    HW126072   6.164   6.649   0.756
 8391SOL    HW226073   6.033   6.747   0.752
 8392SOL     OW26074   6.540   3.760   3.904
 8392SOL    HW126075   6.629   3.802   3.885
 8392SOL    HW226076   6.474   3.789   3.834
 8393SOL     OW26077   5.401   0.400   2.356
 8393SOL    HW126078   5.310   0.366   2.335
 8393SOL    HW226079   5.422   0.383   2.452
 8394SOL     OW26080   6.189   3.445   2.313
 8394SOL    HW126081   6.149   3.536   2.303
 8394SOL    HW226082   6.288   3.452   2.307
 8395SOL     OW26083   2.159   0.362   5.540
 8395SOL    HW126084   2.219   0.301   5.592
 8395SOL    HW226085   2.137   0.443   5.596
 8396SOL     OW26086   4.048   4.887   4.101
 8396SOL    HW126087   4.076   4.875   4.196
 8396SOL    HW226088   3.951   4.911   4.097
 8397SOL     OW26089   6.911   1.762   4.062
 8397SOL    HW126090   6.865   1.679   4.092
 8397SOL    HW226091   6.843   1.833   4.045
 8398SOL     OW26092   4.919   1.749   6.137
 8398SOL    HW126093   5.016   1.760   6.161
 8398SOL    HW226094   4.863   1.756   6.220
 8399SOL     OW26095   6.882   6.429   6.705
 8399SOL    HW126096   6.824   6.358   6.666
 8399SOL    HW226097   6.957   6.450   6.641
 8400SOL     OW26098   1.621   2.552   4.297
 8400SOL    HW126099   1.681   2.524   4.372
 8400SOL    HW226100   1.629   2.651   4.284
 8401SOL     OW26101   2.078   0.216   5.287
 8401SOL    HW126102   2.087   0.260   5.376
 8401SOL    HW226103   2.040   0.125   5.298
 8402SOL     OW26104   4.737   0.655   6.648
 8402SOL    HW126105   4.814   0.684   6.704
 8402SOL    HW226106   4.691   0.577   6.692
 8403SOL     OW26107   7.005   4.762   3.887
 8403SOL    HW126108   0.019   4.677   3.922
 8403SOL    HW226109   6.909   4.750   3.862
 8404SOL     OW26110   3.003   1.490   6.271
 8404SOL    HW126111   3.043   1.446   6.191
 8404SOL    HW226112   2.932   1.554   6.242
 8405SOL     OW26113   3.817   1.617   6.096
 8405SOL    HW126114   3.905   1.579   6.066
 8405SOL    HW226115   3.753   1.543   6.114
 8406SOL     OW26116   4.884   0.630   0.138
 8406SOL    HW126117   4.981   0.619   0.157
 8406SOL    HW226118   4.835   0.649   0.224
 8407SOL     OW26119   4.221   6.102   3.625
 8407SOL    HW126120   4.200   6.008   3.650
 8407SOL    HW226121   4.271   6.147   3.700
 8408SOL     OW26122   5.493   6.778   0.768
 8408SOL    HW126123   5.576   6.725   0.750
 8408SOL    HW226124   5.517   6.861   0.817
 8409SOL     OW26125   4.583   2.396   1.873
 8409SOL    HW126126   4.646   2.464   1.910
 8409SOL    HW226127   4.517   2.441   1.812
 8410SOL     OW26128   6.438   1.698   1.559
 8410SOL    HW126129   6.485   1.642   1.628
 8410SOL    HW226130   6.485   1.785   1.549
 8411SOL     OW26131   0.169   6.208   1.767
 8411SOL    HW126132   0.235   6.275   1.732
 8411SOL    HW226133   0.092   6.256   1.809
 8412SOL     OW26134   3.526   3.204   0.819
 8412SOL    HW126135   3.493   3.113   0.794
 8412SOL    HW226136   3.611   3.195   0.871
 8413SOL     OW26137   4.082   5.699   6.431
 8413SOL    HW126138   4.140   5.770   6.471
 8413SOL    HW226139   3.986   5.719   6.452
 8414SOL     OW26140   1.889   1.124   2.482
 8414SOL    HW126141   1.912   1.083   2.394
 8414SOL    HW226142   1.942   1.079   2.554
 8415SOL     OW26143   3.161   0.116   4.060
 8415SOL    HW126144   3.086   0.170   4.022
 8415SOL    HW226145   3.146   0.019   4.042
 8416SOL     OW26146   5.489   1.526   4.969
 8416SOL    HW126147   5.412   1.561   4.916
 8416SOL    HW226148   5.545   1.602   5.001
 8417SOL     OW26149   1.569   3.224   5.357
 8417SOL    HW126150   1.615   3.247   5.443
 8417SOL    HW226151   1.631   3.171   5.299
 8418SOL     OW26152   0.848   5.510   2.295
 8418SOL    HW126153   0.825   5.434   2.356
 8418SOL    HW226154   0.780   5.582   2.305
 8419SOL     OW26155   5.867   1.093   2.983
 8419SOL    HW126156   5.903   1.068   3.073
 8419SOL    HW226157   5.854   1.193   2.979
 8420SOL     OW26158   3.241   6.740   2.212
 8420SOL    HW126159   3.175   6.665   2.198
 8420SOL    HW226160   3.328   6.702   2.244
 8421SOL     OW26161   3.138   6.205   6.565
 8421SOL    HW126162   3.051   6.164   6.538
 8421SOL    HW226163   3.152   6.194   6.663
 8422SOL     OW26164   4.704   2.678   2.403
 8422SOL    HW126165   4.696   2.752   2.336
 8422SOL    HW226166   4.708   2.590   2.355
 8423SOL     OW26167   4.952   4.649   5.837
 8423SOL    HW126168   4.895   4.731   5.845
 8423SOL    HW226169   4.967   4.610   5.928
 8424SOL     OW26170   2.025   0.544   3.576
 8424SOL    HW126171   1.963   0.519   3.651
 8424SOL    HW226172   2.072   0.629   3.600
 8425SOL     OW26173   3.323   3.841   3.551
 8425SOL    HW126174   3.237   3.892   3.549
 8425SOL    HW226175   3.347   3.811   3.459
 8426SOL     OW26176   3.579   3.198   2.410
 8426SOL    HW126177   3.483   3.221   2.424
 8426SOL    HW226178   3.636   3.275   2.437
 8427SOL     OW26179   3.041   3.632   3.424
 8427SOL    HW126180   3.002   3.714   3.381
 8427SOL    HW226181   3.054   3.649   3.522
 8428SOL     OW26182   6.999   0.050   1.034
 8428SOL    HW126183   0.036   0.120   1.074
 8428SOL    HW226184   6.914   0.043   1.087
 8429SOL     OW26185   1.855   5.801   6.076
 8429SOL    HW126186   1.885   5.727   6.136
 8429SOL    HW226187   1.819   5.876   6.131
 8430SOL     OW26188   3.950   4.863   4.772
 8430SOL    HW126189   3.951   4.894   4.867
 8430SOL    HW226190   3.917   4.768   4.768
 8431SOL     OW26191   2.997   3.749   6.491
 8431SOL    HW126192   3.093   3.722   6.483
 8431SOL    HW226193   2.979   3.828   6.433
 8432SOL     OW26194   6.556   5.433   6.528
 8432SOL    HW126195   6.467   5.416   6.569
 8432SOL    HW226196   6.613   5.486   6.591
 8433SOL     OW26197   4.387   2.616   1.026
 8433SOL    HW126198   4.407   2.661   1.113
 8433SOL    HW226199   4.456   2.640   0.959
 8434SOL     OW26200   1.977   5.341   4.607
 8434SOL    HW126201   2.062   5.290   4.614
 8434SOL    HW226202   1.997   5.435   4.579
 8435SOL     OW26203   5.352   0.940   2.780
 8435SOL    HW126204   5.340   0.920   2.683
 8435SOL    HW226205   5.406   1.024   2.791
 8436SOL     OW26206   2.821   6.232   3.621
 8436SOL    HW126207   2.857   6.157   3.676
 8436SOL    HW226208   2.848   6.220   3.526
 8437SOL     OW26209   2.153   3.204   2.621
 8437SOL    HW126210   2.138   3.231   2.525
 8437SOL    HW226211   2.180   3.108   2.624
 8438SOL     OW26212   1.722   3.600   3.075
 8438SOL    HW126213   1.715   3.698   3.095
 8438SOL    HW226214   1.786   3.587   2.999
 8439SOL     OW26215   6.228   5.309   3.889
 8439SOL    HW126216   6.256   5.250   3.965
 8439SOL    HW226217   6.309   5.346   3.844
 8440SOL     OW26218   2.327   1.423   3.663
 8440SOL    HW126219   2.254   1.367   3.702
 8440SOL    HW226220   2.416   1.385   3.687
 8441SOL     OW26221   5.314   5.692   5.312
 8441SOL    HW126222   5.350   5.599   5.323
 8441SOL    HW226223   5.372   5.743   5.249
 8442SOL     OW26224   3.811   1.169   5.096
 8442SOL    HW126225   3.789   1.154   4.999
 8442SOL    HW226226   3.910   1.175   5.107
 8443SOL     OW26227   1.847   4.556   3.603
 8443SOL    HW126228   1.848   4.523   3.508
 8443SOL    HW226229   1.812   4.649   3.605
 8444SOL     OW26230   4.418   6.802   3.203
 8444SOL    HW126231   4.390   6.898   3.212
 8444SOL    HW226232   4.433   6.764   3.294
 8445SOL     OW26233   2.602   0.195   6.916
 8445SOL    HW126234   2.677   0.137   6.950
 8445SOL    HW226235   2.553   0.233   6.994
 8446SOL     OW26236   0.038   6.554   5.018
 8446SOL    HW126237   6.986   6.495   4.987
 8446SOL    HW226238   0.117   6.498   5.043
 8447SOL     OW26239   4.478   1.688   2.515
 8447SOL    HW126240   4.396   1.697   2.572
 8447SOL    HW226241   4.454   1.651   2.426
 8448SOL     OW26242   4.780   6.191   3.773
 8448SOL    HW126243   4.716   6.125   3.812
 8448SOL    HW226244   4.787   6.270   3.835
 8449SOL     OW26245   1.826   3.099   3.239
 8449SOL    HW126246   1.745   3.118   3.295
 8449SOL    HW226247   1.897   3.166   3.260
 8450SOL     OW26248   0.520   0.822   7.001
 8450SOL    HW126249   0.449   0.851   6.938
 8450SOL    HW226250   0.482   0.813   0.071
 8451SOL     OW26251   3.802   1.184   1.078
 8451SOL    HW126252   3.761   1.093   1.079
 8451SOL    HW226253   3.802   1.219   0.984
 8452SOL     OW26254   5.386   1.983   4.430
 8452SOL    HW126255   5.296   1.943   4.445
 8452SOL    HW226256   5.405   1.987   4.332
 8453SOL     OW26257   0.736   5.485   6.958
 8453SOL    HW126258   0.812   5.526   6.907
 8453SOL    HW226259   0.682   5.558   7.001
 8454SOL     OW26260   0.789   4.502   6.847
 8454SOL    HW126261   0.799   4.562   6.927
 8454SOL    HW226262   0.841   4.418   6.862
 8455SOL     OW26263   0.957   0.246   2.578
 8455SOL    HW126264   1.044   0.270   2.622
 8455SOL    HW226265   0.976   0.189   2.498
 8456SOL     OW26266   5.053   0.378   3.314
 8456SOL    HW126267   5.027   0.366   3.218
 8456SOL    HW226268   5.097   0.467   3.326
 8457SOL     OW26269   6.269   6.744   4.885
 8457SOL    HW126270   6.217   6.746   4.800
 8457SOL    HW226271   6.312   6.654   4.896
 8458SOL     OW26272   0.874   6.988   0.477
 8458SOL    HW126273   0.899   0.007   0.389
 8458SOL    HW226274   0.787   6.941   0.467
 8459SOL     OW26275   1.491   5.750   3.231
 8459SOL    HW126276   1.399   5.753   3.191
 8459SOL    HW226277   1.523   5.842   3.249
 8460SOL     OW26278   4.198   4.058   5.288
 8460SOL    HW126279   4.244   3.981   5.333
 8460SOL    HW226280   4.267   4.125   5.260
 8461SOL     OW26281   6.913   2.998   4.667
 8461SOL    HW126282   6.910   3.039   4.758
 8461SOL    HW226283   6.822   2.968   4.641
 8462SOL     OW26284   2.820   1.586   1.168
 8462SOL    HW126285   2.830   1.500   1.218
 8462SOL    HW226286   2.741   1.579   1.106
 8463SOL     OW26287   5.978   0.294   2.236
 8463SOL    HW126288   5.962   0.294   2.137
 8463SOL    HW226289   5.903   0.342   2.282
 8464SOL     OW26290   5.795   3.446   4.468
 8464SOL    HW126291   5.887   3.471   4.436
 8464SOL    HW226292   5.735   3.433   4.390
 8465SOL     OW26293   1.633   1.834   0.475
 8465SOL    HW126294   1.664   1.923   0.508
 8465SOL    HW226295   1.554   1.846   0.415
 8466SOL     OW26296   1.037   5.640   3.316
 8466SOL    HW126297   1.092   5.715   3.352
 8466SOL    HW226298   0.961   5.621   3.378
 8467SOL     OW26299   2.742   5.793   0.746
 8467SOL    HW126300   2.786   5.783   0.835
 8467SOL    HW226301   2.765   5.714   0.689
 8468SOL     OW26302   3.936   2.376   0.413
 8468SOL    HW126303   3.914   2.438   0.338
 8468SOL    HW226304   3.867   2.304   0.418
 8469SOL     OW26305   3.448   2.905   6.755
 8469SOL    HW126306   3.427   2.966   6.831
 8469SOL    HW226307   3.518   2.947   6.697
 8470SOL     OW26308   1.935   2.639   1.123
 8470SOL    HW126309   1.962   2.682   1.036
 8470SOL    HW226310   2.017   2.602   1.168
 8471SOL     OW26311   3.201   0.596   4.238
 8471SOL    HW126312   3.285   0.648   4.222
 8471SOL    HW226313   3.219   0.499   4.223
 8472SOL     OW26314   0.743   6.793   4.568
 8472SOL    HW126315   0.691   6.710   4.591
 8472SOL    HW226316   0.683   6.858   4.521
 8473SOL     OW26317   0.084   5.673   0.241
 8473SOL    HW126318   0.124   5.763   0.257
 8473SOL    HW226319   7.018   5.668   0.288
 8474SOL     OW26320   3.110   2.800   1.750
 8474SOL    HW126321   3.112   2.826   1.847
 8474SOL    HW226322   3.107   2.700   1.742
 8475SOL     OW26323   5.829   1.568   2.685
 8475SOL    HW126324   5.927   1.552   2.692
 8475SOL    HW226325   5.784   1.486   2.652
 8476SOL     OW26326   5.640   0.091   1.903
 8476SOL    HW126327   5.606   0.001   1.929
 8476SOL    HW226328   5.583   0.162   1.944
 8477SOL     OW26329   2.837   6.651   1.395
 8477SOL    HW126330   2.922   6.612   1.358
 8477SOL    HW226331   2.780   6.577   1.430
 8478SOL     OW26332   1.882   0.775   5.487
 8478SOL    HW126333   1.818   0.818   5.423
 8478SOL    HW226334   1.943   0.713   5.437
 8479SOL     OW26335   6.084   0.977   0.598
 8479SOL    HW126336   6.153   0.994   0.527
 8479SOL    HW226337   6.122   1.002   0.687
 8480SOL     OW26338   3.230   0.588   1.209
 8480SOL    HW126339   3.247   0.489   1.213
 8480SOL    HW226340   3.173   0.609   1.130
 8481SOL     OW26341   3.655   1.630   4.660
 8481SOL    HW126342   3.688   1.724   4.655
 8481SOL    HW226343   3.732   1.566   4.653
 8482SOL     OW26344   1.827   0.201   1.983
 8482SOL    HW126345   1.886   0.278   1.960
 8482SOL    HW226346   1.881   0.129   2.026
 8483SOL     OW26347   2.967   5.901   2.145
 8483SOL    HW126348   2.961   5.887   2.244
 8483SOL    HW226349   3.049   5.955   2.124
 8484SOL     OW26350   0.574   4.608   4.114
 8484SOL    HW126351   0.603   4.588   4.208
 8484SOL    HW226352   0.542   4.524   4.070
 8485SOL     OW26353   2.545   4.134   0.077
 8485SOL    HW126354   2.452   4.140   0.039
 8485SOL    HW226355   2.562   4.214   0.134
 8486SOL     OW26356   5.502   1.260   2.537
 8486SOL    HW126357   5.525   1.173   2.493
 8486SOL    HW226358   5.538   1.335   2.483
 8487SOL     OW26359   5.187   0.220   1.368
 8487SOL    HW126360   5.232   0.277   1.436
 8487SOL    HW226361   5.186   0.267   1.280
 8488SOL     OW26362   5.465   4.559   4.307
 8488SOL    HW126363   5.466   4.474   4.360
 8488SOL    HW226364   5.453   4.538   4.210
 8489SOL     OW26365   5.517   4.263   1.425
 8489SOL    HW126366   5.500   4.236   1.331
 8489SOL    HW226367   5.518   4.363   1.433
 8490SOL     OW26368   4.438   5.708   2.818
 8490SOL    HW126369   4.475   5.795   2.850
 8490SOL    HW226370   4.343   5.699   2.848
 8491SOL     OW26371   2.511   0.714   2.230
 8491SOL    HW126372   2.551   0.804   2.219
 8491SOL    HW226373   2.424   0.722   2.279
 8492SOL     OW26374   5.664   3.344   5.550
 8492SOL    HW126375   5.602   3.342   5.629
 8492SOL    HW226376   5.611   3.338   5.466
 8493SOL     OW26377   4.084   1.970   6.898
 8493SOL    HW126378   4.068   1.873   6.917
 8493SOL    HW226379   4.102   2.019   6.983
 8494SOL     OW26380   2.785   5.726   6.771
 8494SOL    HW126381   2.691   5.707   6.800
 8494SOL    HW226382   2.848   5.694   6.841
 8495SOL     OW26383   6.732   2.655   0.569
 8495SOL    HW126384   6.645   2.698   0.544
 8495SOL    HW226385   6.801   2.677   0.501
 8496SOL     OW26386   0.678   2.232   3.621
 8496SOL    HW126387   0.624   2.206   3.541
 8496SOL    HW226388   0.704   2.150   3.672
 8497SOL     OW26389   5.606   5.424   4.477
 8497SOL    HW126390   5.508   5.442   4.462
 8497SOL    HW226391   5.655   5.432   4.391
 8498SOL     OW26392   0.497   0.143   1.252
 8498SOL    HW126393   0.449   0.188   1.327
 8498SOL    HW226394   0.515   0.210   1.179
 8499SOL     OW26395   3.187   4.994   6.574
 8499SOL    HW126396   3.285   5.011   6.564
 8499SOL    HW226397   3.172   4.900   6.607
 8500SOL     OW26398   2.225   6.649   5.775
 8500SOL    HW126399   2.139   6.600   5.787
 8500SOL    HW226400   2.262   6.673   5.865
 8501SOL     OW26401   1.765   3.349   6.538
 8501SOL    HW126402   1.671   3.322   6.515
 8501SOL    HW226403   1.765   3.445   6.569
 8502SOL     OW26404   0.094   6.240   1.325
 8502SOL    HW126405   0.029   6.272   1.394
 8502SOL    HW226406   0.082   6.142   1.311
 8503SOL     OW26407   1.866   4.885   3.544
 8503SOL    HW126408   1.955   4.843   3.561
 8503SOL    HW226409   1.809   4.878   3.626
 8504SOL     OW26410   1.808   6.050   3.422
 8504SOL    HW126411   1.787   6.138   3.463
 8504SOL    HW226412   1.904   6.048   3.395
 8505SOL     OW26413   5.542   4.235   4.030
 8505SOL    HW126414   5.461   4.178   4.038
 8505SOL    HW226415   5.587   4.242   4.119
 8506SOL     OW26416   1.199   6.411   0.143
 8506SOL    HW126417   1.274   6.384   0.203
 8506SOL    HW226418   1.208   6.365   0.055
 8507SOL     OW26419   2.288   0.843   6.090
 8507SOL    HW126420   2.197   0.847   6.132
 8507SOL    HW226421   2.323   0.750   6.095
 8508SOL     OW26422   6.586   2.555   5.248
 8508SOL    HW126423   6.590   2.486   5.176
 8508SOL    HW226424   6.659   2.623   5.234
 8509SOL     OW26425   5.873   1.225   4.585
 8509SOL    HW126426   5.782   1.268   4.590
 8509SOL    HW226427   5.898   1.190   4.675
 8510SOL     OW26428   5.555   5.863   3.138
 8510SOL    HW126429   5.538   5.788   3.074
 8510SOL    HW226430   5.517   5.948   3.100
 8511SOL     OW26431   6.378   4.282   0.663
 8511SOL    HW126432   6.353   4.241   0.575
 8511SOL    HW226433   6.435   4.362   0.647
 8512SOL     OW26434   4.029   2.356   7.015
 8512SOL    HW126435   4.037   2.264   0.031
 8512SOL    HW226436   3.939   2.393   0.014
 8513SOL     OW26437   5.579   3.597   0.618
 8513SOL    HW126438   5.481   3.599   0.641
 8513SOL    HW226439   5.632   3.636   0.693
 8514SOL     OW26440   2.708   1.389   4.129
 8514SOL    HW126441   2.628   1.330   4.128
 8514SOL    HW226442   2.679   1.484   4.146
 8515SOL     OW26443   0.586   1.322   6.714
 8515SOL    HW126444   0.659   1.388   6.702
 8515SOL    HW226445   0.623   1.235   6.745
 8516SOL     OW26446   5.790   3.037   2.636
 8516SOL    HW126447   5.707   3.035   2.580
 8516SOL    HW226448   5.768   3.070   2.727
 8517SOL     OW26449   2.529   2.478   5.793
 8517SOL    HW126450   2.560   2.565   5.755
 8517SOL    HW226451   2.466   2.434   5.729
 8518SOL     OW26452   5.145   4.535   6.673
 8518SOL    HW126453   5.096   4.515   6.588
 8518SOL    HW226454   5.132   4.631   6.698
 8519SOL     OW26455   1.339   4.853   0.523
 8519SOL    HW126456   1.410   4.836   0.454
 8519SOL    HW226457   1.257   4.801   0.500
 8520SOL     OW26458   4.038   3.842   5.155
 8520SOL    HW126459   4.013   3.851   5.059
 8520SOL    HW226460   4.110   3.908   5.178
 8521SOL     OW26461   1.450   6.594   5.616
 8521SOL    HW126462   1.431   6.496   5.617
 8521SOL    HW226463   1.363   6.644   5.613
 8522SOL     OW26464   0.940   0.443   0.996
 8522SOL    HW126465   1.013   0.385   0.960
 8522SOL    HW226466   0.882   0.474   0.921
 8523SOL     OW26467   2.811   6.624   6.468
 8523SOL    HW126468   2.786   6.718   6.443
 8523SOL    HW226469   2.834   6.573   6.385
 8524SOL     OW26470   1.505   4.745   4.832
 8524SOL    HW126471   1.481   4.777   4.741
 8524SOL    HW226472   1.587   4.793   4.864
 8525SOL     OW26473   6.314   4.600   0.857
 8525SOL    HW126474   6.315   4.536   0.934
 8525SOL    HW226475   6.340   4.551   0.774
 8526SOL     OW26476   2.754   6.690   1.110
 8526SOL    HW126477   2.789   6.682   1.203
 8526SOL    HW226478   2.662   6.652   1.105
 8527SOL     OW26479   3.181   0.417   6.656
 8527SOL    HW126480   3.168   0.416   6.756
 8527SOL    HW226481   3.110   0.361   6.613
 8528SOL     OW26482   4.571   1.797   1.268
 8528SOL    HW126483   4.613   1.828   1.354
 8528SOL    HW226484   4.471   1.801   1.277
 8529SOL     OW26485   1.015   6.431   6.629
 8529SOL    HW126486   0.943   6.365   6.607
 8529SOL    HW226487   1.100   6.402   6.586
 8530SOL     OW26488   2.929   3.514   3.968
 8530SOL    HW126489   2.948   3.611   3.980
 8530SOL    HW226490   2.955   3.487   3.875
 8531SOL     OW26491   6.928   5.789   3.577
 8531SOL    HW126492   6.974   5.795   3.488
 8531SOL    HW226493   6.990   5.747   3.643
 8532SOL     OW26494   3.156   6.491   3.759
 8532SOL    HW126495   3.120   6.445   3.678
 8532SOL    HW226496   3.227   6.434   3.801
 8533SOL     OW26497   0.946   6.187   6.892
 8533SOL    HW126498   0.953   6.282   6.922
 8533SOL    HW226499   0.922   6.185   6.795
 8534SOL     OW26500   4.526   2.294   4.057
 8534SOL    HW126501   4.434   2.327   4.034
 8534SOL    HW226502   4.586   2.304   3.978
 8535SOL     OW26503   5.475   1.124   4.128
 8535SOL    HW126504   5.487   1.178   4.212
 8535SOL    HW226505   5.378   1.113   4.110
 8536SOL     OW26506   0.599   1.659   4.767
 8536SOL    HW126507   0.681   1.661   4.710
 8536SOL    HW226508   0.611   1.592   4.840
 8537SOL     OW26509   5.910   0.998   3.264
 8537SOL    HW126510   5.839   0.929   3.257
 8537SOL    HW226511   5.870   1.084   3.297
 8538SOL     OW26512   1.636   1.525   0.133
 8538SOL    HW126513   1.547   1.519   0.087
 8538SOL    HW226514   1.701   1.464   0.087
 8539SOL     OW26515   6.085   2.651   2.576
 8539SOL    HW126516   6.096   2.583   2.648
 8539SOL    HW226517   6.170   2.703   2.565
 8540SOL     OW26518   4.503   0.183   6.867
 8540SOL    HW126519   4.468   0.209   6.777
 8540SOL    HW226520   4.602   0.169   6.861
 8541SOL     OW26521   2.724   2.147   4.006
 8541SOL    HW126522   2.797   2.203   4.046
 8541SOL    HW226523   2.670   2.202   3.943
 8542SOL     OW26524   3.556   4.676   6.409
 8542SOL    HW126525   3.531   4.710   6.499
 8542SOL    HW226526   3.646   4.631   6.413
 8543SOL     OW26527   2.189   2.159   0.508
 8543SOL    HW126528   2.099   2.201   0.503
 8543SOL    HW226529   2.247   2.197   0.436
 8544SOL     OW26530   5.262   2.564   4.458
 8544SOL    HW126531   5.249   2.663   4.452
 8544SOL    HW226532   5.342   2.544   4.515
 8545SOL     OW26533   4.969   6.594   5.985
 8545SOL    HW126534   5.008   6.535   5.915
 8545SOL    HW226535   5.034   6.602   6.061
 8546SOL     OW26536   6.103   1.730   3.640
 8546SOL    HW126537   6.165   1.756   3.566
 8546SOL    HW226538   6.025   1.793   3.641
 8547SOL     OW26539   1.813   5.537   5.059
 8547SOL    HW126540   1.809   5.469   5.132
 8547SOL    HW226541   1.828   5.490   4.971
 8548SOL     OW26542   5.919   1.622   5.820
 8548SOL    HW126543   6.015   1.609   5.844
 8548SOL    HW226544   5.905   1.716   5.788
 8549SOL     OW26545   6.654   3.841   3.572
 8549SOL    HW126546   6.700   3.829   3.660
 8549SOL    HW226547   6.555   3.841   3.586
 8550SOL     OW26548   1.530   5.270   6.652
 8550SOL    HW126549   1.599   5.342   6.639
 8550SOL    HW226550   1.571   5.181   6.635
 8551SOL     OW26551   3.441   4.328   6.656
 8551SOL    HW126552   3.444   4.356   6.560
 8551SOL    HW226553   3.520   4.270   6.677
 8552SOL     OW26554   3.077   5.555   3.303
 8552SOL    HW126555   3.163   5.553   3.251
 8552SOL    HW226556   3.018   5.627   3.267
 8553SOL     OW26557   5.060   6.340   0.005
 8553SOL    HW126558   5.069   6.360   0.103
 8553SOL    HW226559   4.963   6.328   7.004
 8554SOL     OW26560   0.155   4.388   0.296
 8554SOL    HW126561   0.068   4.430   0.266
 8554SOL    HW226562   0.228   4.418   0.235
 8555SOL     OW26563   0.642   0.553   3.474
 8555SOL    HW126564   0.689   0.497   3.405
 8555SOL    HW226565   0.606   0.636   3.430
 8556SOL     OW26566   0.215   0.651   3.148
 8556SOL    HW126567   0.149   0.605   3.089
 8556SOL    HW226568   0.172   0.671   3.237
 8557SOL     OW26569   6.912   6.769   1.603
 8557SOL    HW126570   6.987   6.725   1.553
 8557SOL    HW226571   6.842   6.799   1.539
 8558SOL     OW26572   2.240   5.478   2.275
 8558SOL    HW126573   2.182   5.459   2.354
 8558SOL    HW226574   2.336   5.478   2.304
 8559SOL     OW26575   1.049   1.100   1.890
 8559SOL    HW126576   1.029   1.002   1.889
 8559SOL    HW226577   1.148   1.114   1.891
 8560SOL     OW26578   0.064   1.202   0.337
 8560SOL    HW126579   0.097   1.290   0.302
 8560SOL    HW226580   6.987   1.204   0.345
 8561SOL     OW26581   4.661   6.045   2.126
 8561SOL    HW126582   4.564   6.038   2.147
 8561SOL    HW226583   4.711   6.083   2.204
 8562SOL     OW26584   4.061   6.789   4.329
 8562SOL    HW126585   4.012   6.841   4.259
 8562SOL    HW226586   4.004   6.712   4.359
 8563SOL     OW26587   2.820   3.043   0.125
 8563SOL    HW126588   2.781   2.975   0.063
 8563SOL    HW226589   2.785   3.133   0.101
 8564SOL     OW26590   1.100   0.285   3.657
 8564SOL    HW126591   1.074   0.358   3.719
 8564SOL    HW226592   1.018   0.249   3.612
 8565SOL     OW26593   3.889   7.014   0.731
 8565SOL    HW126594   3.973   0.003   0.783
 8565SOL    HW226595   3.854   0.081   0.703
 8566SOL     OW26596   1.200   2.225   3.123
 8566SOL    HW126597   1.125   2.161   3.112
 8566SOL    HW226598   1.248   2.206   3.208
 8567SOL     OW26599   5.567   1.411   1.295
 8567SOL    HW126600   5.494   1.389   1.231
 8567SOL    HW226601   5.586   1.332   1.353
 8568SOL     OW26602   4.696   1.775   0.408
 8568SOL    HW126603   4.780   1.765   0.460
 8568SOL    HW226604   4.659   1.866   0.422
 8569SOL     OW26605   4.727   0.583   4.372
 8569SOL    HW126606   4.687   0.497   4.402
 8569SOL    HW226607   4.775   0.626   4.448
 8570SOL     OW26608   1.179   4.258   6.278
 8570SOL    HW126609   1.258   4.255   6.217
 8570SOL    HW226610   1.102   4.212   6.236
 8571SOL     OW26611   0.086   4.320   4.543
 8571SOL    HW126612   0.078   4.394   4.609
 8571SOL    HW226613   0.103   4.357   4.452
 8572SOL     OW26614   1.878   5.107   5.436
 8572SOL    HW126615   1.887   5.185   5.374
 8572SOL    HW226616   1.961   5.096   5.489
 8573SOL     OW26617   4.407   6.372   6.936
 8573SOL    HW126618   4.424   6.407   6.844
 8573SOL    HW226619   4.366   6.281   6.931
 8574SOL     OW26620   0.654   4.400   6.004
 8574SOL    HW126621   0.613   4.321   6.050
 8574SOL    HW226622   0.723   4.441   6.064
 8575SOL     OW26623   3.015   2.971   6.970
 8575SOL    HW126624   3.088   2.959   0.014
 8575SOL    HW226625   2.933   3.007   7.016
 8576SOL     OW26626   0.988   6.850   1.748
 8576SOL    HW126627   0.925   6.837   1.672
 8576SOL    HW226628   1.035   6.763   1.768
 8577SOL     OW26629   6.477   5.602   3.188
 8577SOL    HW126630   6.422   5.604   3.271
 8577SOL    HW226631   6.423   5.640   3.112
 8578SOL     OW26632   4.768   0.179   3.998
 8578SOL    HW126633   4.766   0.273   4.031
 8578SOL    HW226634   4.799   0.118   4.071
 8579SOL     OW26635   1.109   4.861   3.458
 8579SOL    HW126636   1.191   4.839   3.511
 8579SOL    HW226637   1.132   4.864   3.361
 8580SOL     OW26638   1.395   6.288   1.943
 8580SOL    HW126639   1.452   6.359   1.902
 8580SOL    HW226640   1.453   6.213   1.975
 8581SOL     OW26641   3.088   1.910   0.843
 8581SOL    HW126642   3.182   1.894   0.873
 8581SOL    HW226643   3.039   1.961   0.913
 8582SOL     OW26644   4.450   4.505   2.250
 8582SOL    HW126645   4.451   4.424   2.192
 8582SOL    HW226646   4.510   4.574   2.211
 8583SOL     OW26647   6.656   0.289   6.201
 8583SOL    HW126648   6.627   0.383   6.187
 8583SOL    HW226649   6.747   0.275   6.162
 8584SOL     OW26650   6.874   4.684   0.656
 8584SOL    HW126651   6.777   4.665   0.646
 8584SOL    HW226652   6.927   4.608   0.617
 8585SOL     OW26653   0.339   0.769   0.463
 8585SOL    HW126654   0.260   0.711   0.484
 8585SOL    HW226655   0.326   0.858   0.507
 8586SOL     OW26656   3.648   6.161   3.092
 8586SOL    HW126657   3.630   6.124   3.001
 8586SOL    HW226658   3.690   6.091   3.150
 8587SOL     OW26659   0.808   1.976   2.750
 8587SOL    HW126660   0.772   2.069   2.752
 8587SOL    HW226661   0.764   1.924   2.677
 8588SOL     OW26662   3.689   2.548   0.738
 8588SOL    HW126663   3.729   2.639   0.746
 8588SOL    HW226664   3.733   2.498   0.663
 8589SOL     OW26665   3.812   1.067   4.819
 8589SOL    HW126666   3.748   1.043   4.746
 8589SOL    HW226667   3.824   0.989   4.880
 8590SOL     OW26668   6.490   5.219   4.340
 8590SOL    HW126669   6.531   5.141   4.292
 8590SOL    HW226670   6.563   5.280   4.371
 8591SOL     OW26671   1.158   3.516   6.263
 8591SOL    HW126672   1.232   3.478   6.207
 8591SOL    HW226673   1.197   3.576   6.333
 8592SOL     OW26674   6.827   4.147   1.072
 8592SOL    HW126675   6.915   4.101   1.060
 8592SOL    HW226676   6.758   4.080   1.102
 8593SOL     OW26677   1.446   6.711   2.241
 8593SOL    HW126678   1.426   6.782   2.309
 8593SOL    HW226679   1.411   6.623   2.274
 8594SOL     OW26680   3.176   4.014   4.147
 8594SOL    HW126681   3.221   3.925   4.145
 8594SOL    HW226682   3.146   4.034   4.241
 8595SOL     OW26683   2.022   2.029   2.521
 8595SOL    HW126684   2.030   1.998   2.426
 8595SOL    HW226685   2.107   2.072   2.550
 8596SOL     OW26686   5.447   5.083   1.720
 8596SOL    HW126687   5.497   5.098   1.635
 8596SOL    HW226688   5.350   5.077   1.701
 8597SOL     OW26689   2.705   1.429   0.724
 8597SOL    HW126690   2.729   1.500   0.657
 8597SOL    HW226691   2.767   1.351   0.713
 8598SOL     OW26692   6.200   4.158   0.996
 8598SOL    HW126693   6.156   4.124   1.079
 8598SOL    HW226694   6.179   4.096   0.920
 8599SOL     OW26695   0.687   2.623   3.884
 8599SOL    HW126696   0.708   2.718   3.906
 8599SOL    HW226697   0.745   2.592   3.809
 8600SOL     OW26698   6.514   4.650   6.653
 8600SOL    HW126699   6.525   4.686   6.560
 8600SOL    HW226700   6.519   4.725   6.718
 8601SOL     OW26701   0.129   1.113   4.210
 8601SOL    HW126702   0.100   1.113   4.306
 8601SOL    HW226703   0.057   1.154   4.154
 8602SOL     OW26704   2.734   5.957   2.513
 8602SOL    HW126705   2.721   5.997   2.603
 8602SOL    HW226706   2.645   5.937   2.472
 8603SOL     OW26707   3.758   3.785   0.582
 8603SOL    HW126708   3.724   3.878   0.571
 8603SOL    HW226709   3.798   3.775   0.673
 8604SOL     OW26710   5.617   3.033   3.623
 8604SOL    HW126711   5.568   2.949   3.601
 8604SOL    HW226712   5.697   3.041   3.563
 8605SOL     OW26713   3.270   5.601   3.817
 8605SOL    HW126714   3.254   5.623   3.721
 8605SOL    HW226715   3.351   5.650   3.849
 8606SOL     OW26716   2.986   4.783   6.029
 8606SOL    HW126717   2.948   4.859   5.976
 8606SOL    HW226718   2.913   4.717   6.048
 8607SOL     OW26719   3.708   5.527   1.804
 8607SOL    HW126720   3.665   5.517   1.894
 8607SOL    HW226721   3.794   5.577   1.813
 8608SOL     OW26722   4.265   4.696   2.940
 8608SOL    HW126723   4.273   4.771   2.874
 8608SOL    HW226724   4.347   4.639   2.936
 8609SOL     OW26725   3.412   0.252   5.047
 8609SOL    HW126726   3.359   0.316   4.990
 8609SOL    HW226727   3.489   0.216   4.995
 8610SOL     OW26728   0.971   6.841   3.715
 8610SOL    HW126729   1.033   6.800   3.648
 8610SOL    HW226730   0.908   6.771   3.749
 8611SOL     OW26731   1.345   1.950   4.600
 8611SOL    HW126732   1.277   1.916   4.535
 8611SOL    HW226733   1.366   2.046   4.580
 8612SOL     OW26734   3.200   3.229   6.588
 8612SOL    HW126735   3.128   3.291   6.557
 8612SOL    HW226736   3.159   3.146   6.626
 8613SOL     OW26737   1.798   1.705   1.031
 8613SOL    HW126738   1.740   1.623   1.038
 8613SOL    HW226739   1.757   1.768   0.965
 8614SOL     OW26740   0.828   3.522   3.107
 8614SOL    HW126741   0.798   3.510   3.201
 8614SOL    HW226742   0.920   3.561   3.105
 8615SOL     OW26743   4.177   2.131   5.831
 8615SOL    HW126744   4.127   2.046   5.821
 8615SOL    HW226745   4.181   2.156   5.928
 8616SOL     OW26746   1.167   4.924   6.963
 8616SOL    HW126747   1.218   4.840   6.981
 8616SOL    HW226748   1.155   4.974   0.026
 8617SOL     OW26749   6.371   2.000   0.638
 8617SOL    HW126750   6.317   2.076   0.602
 8617SOL    HW226751   6.319   1.951   0.708
 8618SOL     OW26752   4.736   6.798   2.352
 8618SOL    HW126753   4.777   6.872   2.405
 8618SOL    HW226754   4.751   6.711   2.399
 8619SOL     OW26755   4.452   4.983   7.008
 8619SOL    HW126756   4.358   4.990   6.976
 8619SOL    HW226757   4.486   4.890   6.995
 8620SOL     OW26758   5.694   6.837   2.552
 8620SOL    HW126759   5.769   6.835   2.486
 8620SOL    HW226760   5.685   6.929   2.590
 8621SOL     OW26761   6.203   1.004   4.155
 8621SOL    HW126762   6.137   0.968   4.089
 8621SOL    HW226763   6.154   1.052   4.228
 8622SOL     OW26764   4.667   4.754   0.177
 8622SOL    HW126765   4.739   4.711   0.121
 8622SOL    HW226766   4.682   4.731   0.273
 8623SOL     OW26767   0.907   4.001   2.832
 8623SOL    HW126768   0.876   4.093   2.858
 8623SOL    HW226769   0.828   3.941   2.824
 8624SOL     OW26770   1.352   4.281   3.279
 8624SOL    HW126771   1.328   4.266   3.183
 8624SOL    HW226772   1.320   4.371   3.308
 8625SOL     OW26773   4.721   0.758   4.597
 8625SOL    HW126774   4.628   0.794   4.586
 8625SOL    HW226775   4.728   0.709   4.684
 8626SOL     OW26776   3.215   3.430   4.049
 8626SOL    HW126777   3.127   3.475   4.066
 8626SOL    HW226778   3.227   3.416   3.951
 8627SOL     OW26779   0.999   0.695   1.216
 8627SOL    HW126780   0.921   0.633   1.205
 8627SOL    HW226781   1.003   0.725   1.312
 8628SOL     OW26782   6.459   0.998   0.072
 8628SOL    HW126783   6.548   0.955   0.052
 8628SOL    HW226784   6.463   1.095   0.048
 8629SOL     OW26785   0.999   5.017   3.912
 8629SOL    HW126786   0.983   5.011   3.813
 8629SOL    HW226787   1.029   4.928   3.947
 8630SOL     OW26788   5.741   3.524   4.105
 8630SOL    HW126789   5.688   3.500   4.186
 8630SOL    HW226790   5.686   3.583   4.045
 8631SOL     OW26791   4.197   5.655   5.355
 8631SOL    HW126792   4.163   5.731   5.300
 8631SOL    HW226793   4.191   5.570   5.301
 8632SOL     OW26794   3.814   0.163   3.713
 8632SOL    HW126795   3.768   0.221   3.646
 8632SOL    HW226796   3.837   0.076   3.670
 8633SOL     OW26797   5.647   1.280   3.913
 8633SOL    HW126798   5.630   1.250   4.007
 8633SOL    HW226799   5.626   1.377   3.905
 8634SOL     OW26800   6.409   4.098   1.875
 8634SOL    HW126801   6.317   4.063   1.857
 8634SOL    HW226802   6.410   4.197   1.862
 8635SOL     OW26803   6.312   3.825   6.135
 8635SOL    HW126804   6.269   3.914   6.118
 8635SOL    HW226805   6.243   3.760   6.166
 8636SOL     OW26806   6.031   5.433   0.401
 8636SOL    HW126807   5.991   5.510   0.450
 8636SOL    HW226808   6.073   5.370   0.466
 8637SOL     OW26809   1.607   0.936   0.391
 8637SOL    HW126810   1.529   0.886   0.426
 8637SOL    HW226811   1.639   0.894   0.306
 8638SOL     OW26812   2.209   4.445   0.103
 8638SOL    HW126813   2.256   4.403   0.025
 8638SOL    HW226814   2.274   4.458   0.178
 8639SOL     OW26815   5.115   2.883   2.143
 8639SOL    HW126816   5.043   2.881   2.213
 8639SOL    HW226817   5.081   2.928   2.061
 8640SOL     OW26818   4.453   4.142   0.704
 8640SOL    HW126819   4.426   4.229   0.745
 8640SOL    HW226820   4.508   4.090   0.769
 8641SOL     OW26821   0.359   4.311   3.235
 8641SOL    HW126822   0.415   4.380   3.188
 8641SOL    HW226823   0.413   4.227   3.247
 8642SOL     OW26824   4.867   1.079   1.855
 8642SOL    HW126825   4.937   1.045   1.792
 8642SOL    HW226826   4.838   1.170   1.825
 8643SOL     OW26827   4.338   0.291   6.645
 8643SOL    HW126828   4.412   0.329   6.589
 8643SOL    HW226829   4.259   0.352   6.642
 8644SOL     OW26830   5.739   2.399   5.137
 8644SOL    HW126831   5.667   2.461   5.104
 8644SOL    HW226832   5.802   2.379   5.062
 8645SOL     OW26833   6.635   3.949   1.111
 8645SOL    HW126834   6.625   3.934   1.013
 8645SOL    HW226835   6.561   3.902   1.160
 8646SOL     OW26836   4.847   1.236   0.856
 8646SOL    HW126837   4.818   1.143   0.879
 8646SOL    HW226838   4.771   1.300   0.872
 8647SOL     OW26839   3.650   4.849   6.955
 8647SOL    HW126840   3.623   4.945   6.958
 8647SOL    HW226841   3.738   4.837   7.002
 8648SOL     OW26842   5.575   0.696   4.376
 8648SOL    HW126843   5.546   0.764   4.309
 8648SOL    HW226844   5.665   0.660   4.351
 8649SOL     OW26845   6.457   4.061   5.717
 8649SOL    HW126846   6.392   3.985   5.711
 8649SOL    HW226847   6.507   4.069   5.631
 8650SOL     OW26848   1.683   4.961   4.363
 8650SOL    HW126849   1.741   4.925   4.436
 8650SOL    HW226850   1.707   5.057   4.346
 8651SOL     OW26851   3.786   1.341   0.307
 8651SOL    HW126852   3.693   1.329   0.274
 8651SOL    HW226853   3.805   1.438   0.320
 8652SOL     OW26854   2.126   4.195   3.808
 8652SOL    HW126855   2.045   4.231   3.853
 8652SOL    HW226856   2.207   4.216   3.864
 8653SOL     OW26857   0.074   2.249   5.923
 8653SOL    HW126858   0.118   2.239   6.012
 8653SOL    HW226859   0.117   2.324   5.872
 8654SOL     OW26860   6.906   6.400   2.920
 8654SOL    HW126861   6.930   6.489   2.958
 8654SOL    HW226862   6.853   6.348   2.987
 8655SOL     OW26863   5.960   6.889   3.730
 8655SOL    HW126864   5.999   6.857   3.816
 8655SOL    HW226865   5.863   6.909   3.742
 8656SOL     OW26866   6.383   0.958   1.209
 8656SOL    HW126867   6.283   0.963   1.206
 8656SOL    HW226868   6.411   0.865   1.231
 8657SOL     OW26869   5.012   5.096   6.181
 8657SOL    HW126870   5.022   5.020   6.116
 8657SOL    HW226871   5.012   5.182   6.131
 8658SOL     OW26872   5.207   4.909   0.174
 8658SOL    HW126873   5.182   4.997   0.216
 8658SOL    HW226874   5.140   4.840   0.201
 8659SOL     OW26875   4.717   0.632   3.350
 8659SOL    HW126876   4.656   0.710   3.363
 8659SOL    HW226877   4.808   0.666   3.323
 8660SOL     OW26878   6.423   4.247   0.187
 8660SOL    HW126879   6.421   4.167   0.127
 8660SOL    HW226880   6.400   4.329   0.135
 8661SOL     OW26881   6.175   3.921   2.104
 8661SOL    HW126882   6.107   3.939   2.033
 8661SOL    HW226883   6.203   4.008   2.146
 8662SOL     OW26884   5.943   6.385   1.274
 8662SOL    HW126885   5.921   6.428   1.362
 8662SOL    HW226886   6.034   6.414   1.244
 8663SOL     OW26887   2.045   5.476   0.804
 8663SOL    HW126888   2.118   5.464   0.737
 8663SOL    HW226889   2.015   5.387   0.838
 8664SOL     OW26890   4.708   5.856   6.689
 8664SOL    HW126891   4.681   5.776   6.743
 8664SOL    HW226892   4.730   5.932   6.750
 8665SOL     OW26893   4.794   6.176   5.695
 8665SOL    HW126894   4.728   6.151   5.766
 8665SOL    HW226895   4.880   6.128   5.711
 8666SOL     OW26896   4.701   1.916   5.172
 8666SOL    HW126897   4.697   2.001   5.121
 8666SOL    HW226898   4.795   1.899   5.201
 8667SOL     OW26899   5.077   1.606   3.253
 8667SOL    HW126900   5.136   1.539   3.208
 8667SOL    HW226901   5.129   1.690   3.270
 8668SOL     OW26902   5.276   2.533   4.166
 8668SOL    HW126903   5.236   2.571   4.250
 8668SOL    HW226904   5.217   2.557   4.088
 8669SOL     OW26905   3.974   0.793   6.402
 8669SOL    HW126906   3.987   0.756   6.310
 8669SOL    HW226907   4.053   0.849   6.427
 8670SOL     OW26908   3.494   5.681   4.791
 8670SOL    HW126909   3.442   5.708   4.709
 8670SOL    HW226910   3.430   5.659   4.865
 8671SOL     OW26911   5.962   0.145   3.716
 8671SOL    HW126912   5.978   0.209   3.791
 8671SOL    HW226913   5.974   0.052   3.749
 8672SOL     OW26914   2.564   5.582   4.379
 8672SOL    HW126915   2.581   5.524   4.300
 8672SOL    HW226916   2.630   5.657   4.381
 8673SOL     OW26917   0.383   2.364   6.942
 8673SOL    HW126918   0.420   2.272   6.950
 8673SOL    HW226919   0.337   2.375   6.854
 8674SOL     OW26920   0.103   6.511   2.661
 8674SOL    HW126921   0.109   6.423   2.710
 8674SOL    HW226922   0.055   6.497   2.575
 8675SOL     OW26923   2.596   2.036   4.225
 8675SOL    HW126924   2.666   2.036   4.297
 8675SOL    HW226925   2.634   2.075   4.141
 8676SOL     OW26926   3.488   0.386   2.615
 8676SOL    HW126927   3.432   0.323   2.561
 8676SOL    HW226928   3.445   0.477   2.616
 8677SOL     OW26929   2.751   5.484   6.380
 8677SOL    HW126930   2.703   5.408   6.335
 8677SOL    HW226931   2.687   5.560   6.393
 8678SOL     OW26932   0.921   0.696   0.343
 8678SOL    HW126933   0.913   0.598   0.330
 8678SOL    HW226934   1.013   0.726   0.317
 8679SOL     OW26935   5.868   1.757   4.938
 8679SOL    HW126936   5.830   1.689   4.876
 8679SOL    HW226937   5.801   1.829   4.956
 8680SOL     OW26938   1.789   3.950   0.775
 8680SOL    HW126939   1.785   3.936   0.676
 8680SOL    HW226940   1.859   4.018   0.796
 8681SOL     OW26941   4.890   4.260   0.034
 8681SOL    HW126942   4.929   4.334   0.089
 8681SOL    HW226943   4.855   4.296   6.970
 8682SOL     OW26944   3.118   6.538   2.847
 8682SOL    HW126945   3.171   6.550   2.931
 8682SOL    HW226946   3.045   6.605   2.844
 8683SOL     OW26947   1.334   3.250   1.471
 8683SOL    HW126948   1.313   3.158   1.504
 8683SOL    HW226949   1.281   3.317   1.523
 8684SOL     OW26950   6.328   3.075   4.936
 8684SOL    HW126951   6.424   3.102   4.924
 8684SOL    HW226952   6.299   3.097   5.029
 8685SOL     OW26953   1.389   2.059   6.151
 8685SOL    HW126954   1.480   2.100   6.161
 8685SOL    HW226955   1.399   1.965   6.119
 8686SOL     OW26956   6.981   2.194   2.051
 8686SOL    HW126957   6.990   2.274   2.110
 8686SOL    HW226958   6.970   2.112   2.107
 8687SOL     OW26959   3.733   6.395   2.609
 8687SOL    HW126960   3.739   6.495   2.618
 8687SOL    HW226961   3.638   6.367   2.619
 8688SOL     OW26962   2.587   6.822   0.855
 8688SOL    HW126963   2.659   6.774   0.805
 8688SOL    HW226964   2.598   6.807   0.954
 8689SOL     OW26965   4.100   6.053   6.998
 8689SOL    HW126966   4.031   6.044   6.926
 8689SOL    HW226967   4.094   5.974   0.037
 8690SOL     OW26968   1.181   1.753   4.103
 8690SOL    HW126969   1.279   1.768   4.117
 8690SOL    HW226970   1.168   1.672   4.046
 8691SOL     OW26971   4.519   2.709   6.454
 8691SOL    HW126972   4.421   2.696   6.435
 8691SOL    HW226973   4.544   2.804   6.434
 8692SOL     OW26974   3.345   2.031   3.277
 8692SOL    HW126975   3.332   2.002   3.372
 8692SOL    HW226976   3.442   2.049   3.260
 8693SOL     OW26977   5.376   2.564   0.610
 8693SOL    HW126978   5.411   2.563   0.704
 8693SOL    HW226979   5.381   2.471   0.572
 8694SOL     OW26980   5.080   0.519   6.392
 8694SOL    HW126981   5.129   0.595   6.348
 8694SOL    HW226982   4.988   0.513   6.353
 8695SOL     OW26983   4.492   2.792   5.775
 8695SOL    HW126984   4.437   2.720   5.733
 8695SOL    HW226985   4.515   2.766   5.869
 8696SOL     OW26986   3.641   5.587   0.939
 8696SOL    HW126987   3.602   5.590   0.848
 8696SOL    HW226988   3.568   5.594   1.007
 8697SOL     OW26989   6.500   3.528   0.238
 8697SOL    HW126990   6.401   3.525   0.240
 8697SOL    HW226991   6.534   3.581   0.316
 8698SOL     OW26992   5.326   5.674   4.077
 8698SOL    HW126993   5.350   5.770   4.065
 8698SOL    HW226994   5.306   5.633   3.989
 8699SOL     OW26995   1.305   2.687   5.484
 8699SOL    HW126996   1.235   2.732   5.428
 8699SOL    HW226997   1.285   2.703   5.581
 8700SOL     OW26998   2.393   0.919   4.618
 8700SOL    HW126999   2.325   0.990   4.600
 8700SOL    HW227000   2.461   0.953   4.684
 8701SOL     OW27001   0.639   1.339   6.052
 8701SOL    HW127002   0.663   1.397   5.974
 8701SOL    HW227003   0.561   1.378   6.100
 8702SOL     OW27004   5.328   4.642   0.174
 8702SOL    HW127005   5.291   4.687   0.093
 8702SOL    HW227006   5.387   4.566   0.146
 8703SOL     OW27007   3.171   5.768   1.341
 8703SOL    HW127008   3.134   5.772   1.434
 8703SOL    HW227009   3.210   5.857   1.317
 8704SOL     OW27010   6.544   4.058   2.537
 8704SOL    HW127011   6.448   4.031   2.537
 8704SOL    HW227012   6.557   4.133   2.602
 8705SOL     OW27013   4.713   0.945   6.846
 8705SOL    HW127014   4.768   0.958   6.928
 8705SOL    HW227015   4.696   1.034   6.803
 8706SOL     OW27016   4.573   2.138   6.729
 8706SOL    HW127017   4.520   2.216   6.764
 8706SOL    HW227018   4.654   2.172   6.681
 8707SOL     OW27019   3.791   3.122   0.253
 8707SOL    HW127020   3.714   3.096   0.195
 8707SOL    HW227021   3.871   3.141   0.197
 8708SOL     OW27022   3.671   0.583   2.321
 8708SOL    HW127023   3.623   0.601   2.235
 8708SOL    HW227024   3.702   0.488   2.322
 8709SOL     OW27025   6.886   4.603   6.826
 8709SOL    HW127026   6.882   4.619   6.925
 8709SOL    HW227027   6.981   4.600   6.797
 8710SOL     OW27028   1.499   3.016   3.091
 8710SOL    HW127029   1.591   3.015   3.051
 8710SOL    HW227030   1.432   3.001   3.019
 8711SOL     OW27031   0.528   0.211   2.832
 8711SOL    HW127032   0.464   0.138   2.810
 8711SOL    HW227033   0.497   0.261   2.912
 8712SOL     OW27034   3.699   1.789   3.619
 8712SOL    HW127035   3.721   1.727   3.544
 8712SOL    HW227036   3.619   1.755   3.668
 8713SOL     OW27037   7.012   3.953   3.633
 8713SOL    HW127038   0.018   3.923   3.542
 8713SOL    HW227039   6.977   4.047   3.628
 8714SOL     OW27040   1.047   0.709   5.681
 8714SOL    HW127041   1.139   0.672   5.695
 8714SOL    HW227042   1.045   0.805   5.709
 8715SOL     OW27043   6.055   0.330   0.928
 8715SOL    HW127044   5.978   0.387   0.956
 8715SOL    HW227045   6.126   0.333   0.999
 8716SOL     OW27046   0.842   1.659   1.397
 8716SOL    HW127047   0.816   1.611   1.313
 8716SOL    HW227048   0.927   1.620   1.433
 8717SOL     OW27049   4.020   3.758   2.421
 8717SOL    HW127050   4.028   3.808   2.508
 8717SOL    HW227051   3.948   3.690   2.429
 8718SOL     OW27052   0.125   2.743   5.019
 8718SOL    HW127053   0.184   2.666   4.997
 8718SOL    HW227054   0.051   2.748   4.952
 8719SOL     OW27055   1.402   0.890   5.532
 8719SOL    HW127056   1.419   0.883   5.434
 8719SOL    HW227057   1.305   0.905   5.549
 8720SOL     OW27058   6.344   4.585   5.330
 8720SOL    HW127059   6.289   4.599   5.412
 8720SOL    HW227060   6.349   4.670   5.278
 8721SOL     OW27061   5.925   2.665   4.313
 8721SOL    HW127062   6.023   2.658   4.334
 8721SOL    HW227063   5.873   2.671   4.398
 8722SOL     OW27064   3.512   1.455   0.459
 8722SOL    HW127065   3.535   1.453   0.361
 8722SOL    HW227066   3.454   1.534   0.477
 8723SOL     OW27067   5.997   5.447   0.832
 8723SOL    HW127068   5.975   5.484   0.922
 8723SOL    HW227069   5.913   5.424   0.783
 8724SOL     OW27070   6.011   0.057   5.671
 8724SOL    HW127071   5.921   0.095   5.696
 8724SOL    HW227072   6.074   0.070   5.748
 8725SOL     OW27073   1.839   0.544   0.230
 8725SOL    HW127074   1.835   0.445   0.248
 8725SOL    HW227075   1.926   0.567   0.189
 8726SOL     OW27076   6.161   0.161   1.542
 8726SOL    HW127077   6.128   0.150   1.448
 8726SOL    HW227078   6.233   0.231   1.543
 8727SOL     OW27079   6.435   6.368   2.117
 8727SOL    HW127080   6.424   6.404   2.024
 8727SOL    HW227081   6.356   6.395   2.172
 8728SOL     OW27082   3.423   6.960   5.340
 8728SOL    HW127083   3.485   0.012   5.366
 8728SOL    HW227084   3.358   6.993   5.272
 8729SOL     OW27085   4.688   5.579   2.766
 8729SOL    HW127086   4.684   5.491   2.719
 8729SOL    HW227087   4.599   5.625   2.760
 8730SOL     OW27088   6.889   5.769   2.476
 8730SOL    HW127089   6.796   5.757   2.511
 8730SOL    HW227090   6.884   5.801   2.381
 8731SOL     OW27091   1.650   1.915   3.441
 8731SOL    HW127092   1.573   1.855   3.462
 8731SOL    HW227093   1.620   1.989   3.381
 8732SOL     OW27094   5.022   4.546   1.776
 8732SOL    HW127095   4.979   4.586   1.857
 8732SOL    HW227096   5.055   4.620   1.716
 8733SOL     OW27097   1.050   6.235   2.984
 8733SOL    HW127098   1.012   6.158   3.036
 8733SOL    HW227099   1.000   6.245   2.898
 8734SOL     OW27100   0.866   4.761   1.299
 8734SOL    HW127101   0.860   4.664   1.325
 8734SOL    HW227102   0.774   4.800   1.297
 8735SOL     OW27103   0.967   1.746   6.991
 8735SOL    HW127104   0.881   1.708   6.957
 8735SOL    HW227105   0.997   1.820   6.931
 8736SOL     OW27106   0.685   6.669   0.106
 8736SOL    HW127107   0.648   6.725   0.181
 8736SOL    HW227108   0.657   6.574   0.118
 8737SOL     OW27109   4.011   6.027   5.889
 8737SOL    HW127110   3.967   6.108   5.927
 8737SOL    HW227111   3.951   5.948   5.901
 8738SOL     OW27112   1.404   3.581   4.798
 8738SOL    HW127113   1.315   3.556   4.760
 8738SOL    HW227114   1.441   3.659   4.747
 8739SOL     OW27115   0.010   4.338   6.086
 8739SOL    HW127116   6.949   4.349   6.141
 8739SOL    HW227117   0.028   4.240   6.072
 8740SOL     OW27118   3.575   0.793   5.666
 8740SOL    HW127119   3.563   0.863   5.736
 8740SOL    HW227120   3.537   0.826   5.579
 8741SOL     OW27121   1.642   2.159   2.286
 8741SOL    HW127122   1.620   2.062   2.292
 8741SOL    HW227123   1.595   2.209   2.359
 8742SOL     OW27124   5.011   6.009   1.251
 8742SOL    HW127125   5.079   6.035   1.182
 8742SOL    HW227126   4.919   6.028   1.215
 8743SOL     OW27127   2.156   5.309   2.536
 8743SOL    HW127128   2.173   5.234   2.599
 8743SOL    HW227129   2.116   5.386   2.585
 8744SOL     OW27130   4.138   2.829   6.206
 8744SOL    HW127131   4.219   2.874   6.169
 8744SOL    HW227132   4.157   2.797   6.299
 8745SOL     OW27133   5.958   1.766   5.200
 8745SOL    HW127134   5.885   1.717   5.248
 8745SOL    HW227135   5.941   1.763   5.102
 8746SOL     OW27136   4.647   4.360   5.920
 8746SOL    HW127137   4.553   4.380   5.890
 8746SOL    HW227138   4.644   4.324   6.013
 8747SOL     OW27139   0.855   2.634   3.605
 8747SOL    HW127140   0.768   2.639   3.555
 8747SOL    HW227141   0.894   2.543   3.595
 8748SOL     OW27142   0.610   0.483   0.165
 8748SOL    HW127143   0.651   0.420   0.231
 8748SOL    HW227144   0.530   0.440   0.124
 8749SOL     OW27145   3.019   0.706   4.443
 8749SOL    HW127146   3.078   0.730   4.366
 8749SOL    HW227147   2.923   0.721   4.417
 8750SOL     OW27148   2.233   2.429   5.382
 8750SOL    HW127149   2.189   2.517   5.398
 8750SOL    HW227150   2.306   2.440   5.315
 8751SOL     OW27151   0.183   0.325   2.314
 8751SOL    HW127152   0.221   0.276   2.235
 8751SOL    HW227153   0.091   0.356   2.293
 8752SOL     OW27154   2.689   4.214   6.821
 8752SOL    HW127155   2.735   4.234   6.907
 8752SOL    HW227156   2.744   4.248   6.745
 8753SOL     OW27157   4.964   1.646   4.711
 8753SOL    HW127158   4.959   1.635   4.810
 8753SOL    HW227159   4.997   1.561   4.669
 8754SOL     OW27160   0.610   1.965   5.825
 8754SOL    HW127161   0.602   1.974   5.925
 8754SOL    HW227162   0.707   1.971   5.799
 8755SOL     OW27163   2.470   1.076   6.883
 8755SOL    HW127164   2.410   1.036   6.813
 8755SOL    HW227165   2.457   1.175   6.885
 8756SOL     OW27166   2.135   3.155   3.647
 8756SOL    HW127167   2.151   3.084   3.578
 8756SOL    HW227168   2.168   3.243   3.612
 8757SOL     OW27169   4.819   6.091   5.302
 8757SOL    HW127170   4.888   6.158   5.275
 8757SOL    HW227171   4.739   6.139   5.338
 8758SOL     OW27172   5.596   6.304   1.992
 8758SOL    HW127173   5.514   6.267   1.950
 8758SOL    HW227174   5.675   6.284   1.935
 8759SOL     OW27175   4.895   1.008   6.048
 8759SOL    HW127176   4.962   0.979   6.116
 8759SOL    HW227177   4.936   1.074   5.986
 8760SOL     OW27178   1.850   1.517   4.501
 8760SOL    HW127179   1.902   1.473   4.574
 8760SOL    HW227180   1.815   1.447   4.438
 8761SOL     OW27181   5.208   0.252   0.590
 8761SOL    HW127182   5.286   0.199   0.557
 8761SOL    HW227183   5.127   0.192   0.594
 8762SOL     OW27184   1.384   3.507   2.463
 8762SOL    HW127185   1.473   3.464   2.476
 8762SOL    HW227186   1.314   3.456   2.513
 8763SOL     OW27187   6.720   5.798   5.424
 8763SOL    HW127188   6.681   5.879   5.381
 8763SOL    HW227189   6.799   5.824   5.480
 8764SOL     OW27190   5.102   1.826   3.723
 8764SOL    HW127191   5.051   1.827   3.810
 8764SOL    HW227192   5.100   1.917   3.682
 8765SOL     OW27193   5.521   6.695   4.665
 8765SOL    HW127194   5.456   6.769   4.646
 8765SOL    HW227195   5.614   6.728   4.648
 8766SOL     OW27196   3.004   4.884   3.686
 8766SOL    HW127197   2.977   4.844   3.773
 8766SOL    HW227198   3.009   4.984   3.695
 8767SOL     OW27199   4.414   0.962   2.999
 8767SOL    HW127200   4.454   0.927   3.084
 8767SOL    HW227201   4.380   1.055   3.015
 8768SOL     OW27202   1.904   3.012   0.274
 8768SOL    HW127203   1.824   2.961   0.242
 8768SOL    HW227204   1.985   2.954   0.265
 8769SOL     OW27205   0.351   0.140   5.253
 8769SOL    HW127206   0.325   0.142   5.157
 8769SOL    HW227207   0.324   0.225   5.297
 8770SOL     OW27208   5.169   4.203   1.890
 8770SOL    HW127209   5.087   4.173   1.940
 8770SOL    HW227210   5.207   4.283   1.935
 8771SOL     OW27211   1.729   1.560   6.764
 8771SOL    HW127212   1.733   1.528   6.669
 8771SOL    HW227213   1.643   1.608   6.779
 8772SOL     OW27214   6.547   1.061   6.814
 8772SOL    HW127215   6.451   1.031   6.817
 8772SOL    HW227216   6.601   1.004   6.875
 8773SOL     OW27217   3.649   2.027   3.316
 8773SOL    HW127218   3.738   1.987   3.294
 8773SOL    HW227219   3.654   2.071   3.406
 8774SOL     OW27220   0.785   1.498   0.880
 8774SOL    HW127221   0.819   1.555   0.805
 8774SOL    HW227222   0.787   1.402   0.851
 8775SOL     OW27223   5.668   6.707   3.316
 8775SOL    HW127224   5.580   6.661   3.307
 8775SOL    HW227225   5.654   6.806   3.327
 8776SOL     OW27226   3.431   3.279   4.878
 8776SOL    HW127227   3.396   3.287   4.972
 8776SOL    HW227228   3.450   3.370   4.842
 8777SOL     OW27229   6.460   4.563   1.756
 8777SOL    HW127230   6.361   4.573   1.754
 8777SOL    HW227231   6.487   4.494   1.689
 8778SOL     OW27232   0.467   2.194   3.450
 8778SOL    HW127233   0.423   2.283   3.467
 8778SOL    HW227234   0.396   2.124   3.440
 8779SOL     OW27235   1.681   4.324   1.933
 8779SOL    HW127236   1.664   4.348   1.837
 8779SOL    HW227237   1.608   4.265   1.967
 8780SOL     OW27238   1.694   5.881   4.238
 8780SOL    HW127239   1.688   5.941   4.317
 8780SOL    HW227240   1.654   5.926   4.158
 8781SOL     OW27241   0.472   1.672   2.863
 8781SOL    HW127242   0.464   1.769   2.885
 8781SOL    HW227243   0.542   1.659   2.793
 8782SOL     OW27244   5.039   1.326   2.376
 8782SOL    HW127245   5.078   1.264   2.308
 8782SOL    HW227246   4.995   1.403   2.330
 8783SOL     OW27247   6.185   3.801   3.964
 8783SOL    HW127248   6.176   3.899   3.981
 8783SOL    HW227249   6.214   3.755   4.049
 8784SOL     OW27250   5.509   5.068   5.188
 8784SOL    HW127251   5.584   5.001   5.186
 8784SOL    HW227252   5.547   5.160   5.175
 8785SOL     OW27253   5.630   4.100   6.605
 8785SOL    HW127254   5.681   4.160   6.666
 8785SOL    HW227255   5.681   4.015   6.592
 8786SOL     OW27256   1.351   6.524   6.810
 8786SOL    HW127257   1.297   6.578   6.745
 8786SOL    HW227258   1.404   6.586   6.869
 8787SOL     OW27259   2.175   3.186   1.850
 8787SOL    HW127260   2.212   3.277   1.870
 8787SOL    HW227261   2.098   3.195   1.788
 8788SOL     OW27262   6.972   2.071   5.201
 8788SOL    HW127263   0.032   2.125   5.185
 8788SOL    HW227264   6.963   2.052   5.299
 8789SOL     OW27265   6.805   0.639   6.354
 8789SOL    HW127266   6.719   0.681   6.327
 8789SOL    HW227267   6.796   0.600   6.446
 8790SOL     OW27268   6.923   1.723   0.167
 8790SOL    HW127269   6.908   1.749   0.262
 8790SOL    HW227270   6.916   1.624   0.157
 8791SOL     OW27271   5.343   7.000   5.487
 8791SOL    HW127272   5.327   6.995   5.388
 8791SOL    HW227273   5.442   6.997   5.505
 8792SOL     OW27274   4.287   7.020   3.166
 8792SOL    HW127275   4.306   0.093   3.142
 8792SOL    HW227276   4.189   7.005   3.167
 8793SOL     OW27277   2.664   5.991   4.113
 8793SOL    HW127278   2.667   5.991   4.213
 8793SOL    HW227279   2.655   6.086   4.081
 8794SOL     OW27280   2.685   6.712   2.645
 8794SOL    HW127281   2.649   6.731   2.736
 8794SOL    HW227282   2.745   6.632   2.650
 8795SOL     OW27283   1.589   6.822   5.714
 8795SOL    HW127284   1.560   6.735   5.675
 8795SOL    HW227285   1.670   6.807   5.772
 8796SOL     OW27286   4.428   1.578   5.369
 8796SOL    HW127287   4.450   1.626   5.454
 8796SOL    HW227288   4.507   1.524   5.341
 8797SOL     OW27289   1.058   6.704   6.126
 8797SOL    HW127290   1.111   6.784   6.156
 8797SOL    HW227291   1.102   6.621   6.161
 8798SOL     OW27292   6.084   3.619   5.111
 8798SOL    HW127293   5.986   3.602   5.112
 8798SOL    HW227294   6.102   3.717   5.110
 8799SOL     OW27295   2.519   4.564   3.225
 8799SOL    HW127296   2.524   4.480   3.171
 8799SOL    HW227297   2.612   4.593   3.250
 8800SOL     OW27298   4.248   4.030   5.686
 8800SOL    HW127299   4.193   3.955   5.650
 8800SOL    HW227300   4.236   4.111   5.629
 8801SOL     OW27301   2.135   1.031   4.094
 8801SOL    HW127302   2.048   1.023   4.143
 8801SOL    HW227303   2.144   1.123   4.056
 8802SOL     OW27304   1.334   6.512   2.380
 8802SOL    HW127305   1.310   6.538   2.474
 8802SOL    HW227306   1.251   6.482   2.332
 8803SOL     OW27307   2.122   5.394   6.876
 8803SOL    HW127308   2.140   5.491   6.862
 8803SOL    HW227309   2.207   5.347   6.901
 8804SOL     OW27310   3.561   0.717   1.728
 8804SOL    HW127311   3.576   0.644   1.662
 8804SOL    HW227312   3.573   0.806   1.683
 8805SOL     OW27313   1.469   6.943   3.338
 8805SOL    HW127314   1.506   6.941   3.430
 8805SOL    HW227315   1.381   6.991   3.339
 8806SOL     OW27316   1.278   5.333   0.396
 8806SOL    HW127317   1.227   5.321   0.311
 8806SOL    HW227318   1.250   5.264   0.462
 8807SOL     OW27319   6.468   5.754   5.970
 8807SOL    HW127320   6.398   5.776   6.037
 8807SOL    HW227321   6.471   5.824   5.899
 8808SOL     OW27322   5.476   1.324   0.768
 8808SOL    HW127323   5.575   1.332   0.758
 8808SOL    HW227324   5.454   1.257   0.839
 8809SOL     OW27325   5.538   3.482   1.904
 8809SOL    HW127326   5.509   3.390   1.931
 8809SOL    HW227327   5.586   3.477   1.816
 8810SOL     OW27328   5.372   1.858   4.166
 8810SOL    HW127329   5.342   1.764   4.156
 8810SOL    HW227330   5.306   1.919   4.121
 8811SOL     OW27331   2.279   1.555   3.983
 8811SOL    HW127332   2.264   1.526   4.077
 8811SOL    HW227333   2.191   1.571   3.938
 8812SOL     OW27334   0.570   1.193   0.702
 8812SOL    HW127335   0.598   1.247   0.622
 8812SOL    HW227336   0.479   1.223   0.732
 8813SOL     OW27337   0.955   6.054   1.786
 8813SOL    HW127338   0.952   5.958   1.758
 8813SOL    HW227339   1.043   6.074   1.829
 8814SOL     OW27340   0.134   0.820   6.824
 8814SOL    HW127341   0.038   0.831   6.850
 8814SOL    HW227342   0.140   0.757   6.746
 8815SOL     OW27343   6.734   5.498   1.426
 8815SOL    HW127344   6.706   5.586   1.464
 8815SOL    HW227345   6.814   5.511   1.368
 8816SOL     OW27346   1.029   5.914   0.978
 8816SOL    HW127347   1.070   5.899   0.888
 8816SOL    HW227348   1.100   5.906   1.048
 8817SOL     OW27349   1.339   5.854   5.118
 8817SOL    HW127350   1.376   5.841   5.025
 8817SOL    HW227351   1.377   5.937   5.158
 8818SOL     OW27352   0.212   3.954   3.801
 8818SOL    HW127353   0.150   3.946   3.722
 8818SOL    HW227354   0.307   3.947   3.770
 8819SOL     OW27355   4.392   6.542   4.335
 8819SOL    HW127356   4.422   6.468   4.275
 8819SOL    HW227357   4.342   6.610   4.281
 8820SOL     OW27358   1.725   2.794   4.768
 8820SOL    HW127359   1.634   2.826   4.742
 8820SOL    HW227360   1.716   2.729   4.844
 8821SOL     OW27361   2.236   0.388   6.336
 8821SOL    HW127362   2.272   0.481   6.339
 8821SOL    HW227363   2.308   0.324   6.309
 8822SOL     OW27364   0.882   0.720   2.967
 8822SOL    HW127365   0.802   0.766   3.007
 8822SOL    HW227366   0.927   0.665   3.036
 8823SOL     OW27367   1.928   0.072   0.720
 8823SOL    HW127368   1.947   7.003   0.756
 8823SOL    HW227369   1.922   0.137   0.795
 8824SOL     OW27370   2.803   3.960   0.999
 8824SOL    HW127371   2.838   3.981   0.907
 8824SOL    HW227372   2.732   3.889   0.992
 8825SOL     OW27373   1.863   1.103   2.136
 8825SOL    HW127374   1.894   1.073   2.045
 8825SOL    HW227375   1.897   1.040   2.205
 8826SOL     OW27376   5.922   1.438   6.953
 8826SOL    HW127377   5.991   1.454   6.883
 8826SOL    HW227378   5.964   1.442   0.021
 8827SOL     OW27379   2.566   1.778   3.546
 8827SOL    HW127380   2.599   1.864   3.508
 8827SOL    HW227381   2.589   1.703   3.485
 8828SOL     OW27382   3.182   6.103   3.585
 8828SOL    HW127383   3.195   6.058   3.497
 8828SOL    HW227384   3.268   6.105   3.635
 8829SOL     OW27385   0.488   3.091   6.739
 8829SOL    HW127386   0.467   2.994   6.754
 8829SOL    HW227387   0.587   3.105   6.750
 8830SOL     OW27388   0.659   1.152   0.073
 8830SOL    HW127389   0.584   1.216   0.053
 8830SOL    HW227390   0.621   1.061   0.091
 8831SOL     OW27391   6.046   0.487   2.916
 8831SOL    HW127392   6.045   0.440   3.004
 8831SOL    HW227393   5.978   0.560   2.916
 8832SOL     OW27394   0.773   6.785   2.356
 8832SOL    HW127395   0.820   6.800   2.269
 8832SOL    HW227396   0.713   6.705   2.349
 8833SOL     OW27397   2.491   5.886   4.443
 8833SOL    HW127398   2.470   5.936   4.527
 8833SOL    HW227399   2.416   5.897   4.378
 8834SOL     OW27400   5.752   3.286   4.704
 8834SOL    HW127401   5.812   3.335   4.767
 8834SOL    HW227402   5.769   3.318   4.610
 8835SOL     OW27403   6.639   6.822   5.592
 8835SOL    HW127404   6.667   6.852   5.684
 8835SOL    HW227405   6.651   6.897   5.527
 8836SOL     OW27406   4.187   0.813   0.567
 8836SOL    HW127407   4.273   0.855   0.595
 8836SOL    HW227408   4.200   0.714   0.558
 8837SOL     OW27409   0.488   1.133   1.850
 8837SOL    HW127410   0.413   1.154   1.912
 8837SOL    HW227411   0.507   1.035   1.853
 8838SOL     OW27412   2.495   5.048   3.251
 8838SOL    HW127413   2.547   5.124   3.213
 8838SOL    HW227414   2.450   5.077   3.336
 8839SOL     OW27415   6.220   6.379   3.148
 8839SOL    HW127416   6.222   6.447   3.075
 8839SOL    HW227417   6.241   6.422   3.235
 8840SOL     OW27418   5.697   2.260   2.251
 8840SOL    HW127419   5.688   2.297   2.158
 8840SOL    HW227420   5.746   2.173   2.247
 8841SOL     OW27421   1.014   1.673   5.413
 8841SOL    HW127422   0.943   1.720   5.465
 8841SOL    HW227423   1.041   1.730   5.335
 8842SOL     OW27424   2.664   2.594   1.452
 8842SOL    HW127425   2.734   2.654   1.491
 8842SOL    HW227426   2.622   2.541   1.524
 8843SOL     OW27427   1.474   2.871   5.200
 8843SOL    HW127428   1.524   2.894   5.284
 8843SOL    HW227429   1.521   2.795   5.154
 8844SOL     OW27430   6.004   1.262   6.461
 8844SOL    HW127431   5.908   1.273   6.486
 8844SOL    HW227432   6.030   1.166   6.468
 8845SOL     OW27433   4.622   3.895   0.232
 8845SOL    HW127434   4.594   3.991   0.229
 8845SOL    HW227435   4.711   3.884   0.189
 8846SOL     OW27436   1.906   4.963   4.005
 8846SOL    HW127437   1.914   4.937   4.101
 8846SOL    HW227438   1.930   5.059   3.994
 8847SOL     OW27439   2.802   0.375   2.936
 8847SOL    HW127440   2.790   0.429   2.853
 8847SOL    HW227441   2.897   0.380   2.966
 8848SOL     OW27442   1.873   0.878   1.626
 8848SOL    HW127443   1.907   0.916   1.712
 8848SOL    HW227444   1.946   0.880   1.557
 8849SOL     OW27445   1.565   6.134   2.384
 8849SOL    HW127446   1.489   6.132   2.319
 8849SOL    HW227447   1.651   6.142   2.334
 8850SOL     OW27448   3.017   2.344   6.624
 8850SOL    HW127449   3.068   2.397   6.692
 8850SOL    HW227450   2.938   2.397   6.593
 8851SOL     OW27451   1.773   4.555   2.315
 8851SOL    HW127452   1.705   4.619   2.350
 8851SOL    HW227453   1.770   4.470   2.369
 8852SOL     OW27454   1.316   1.671   5.650
 8852SOL    HW127455   1.238   1.694   5.707
 8852SOL    HW227456   1.285   1.650   5.557
 8853SOL     OW27457   3.159   0.989   1.532
 8853SOL    HW127458   3.196   1.073   1.573
 8853SOL    HW227459   3.176   0.912   1.593
 8854SOL     OW27460   1.695   2.602   4.972
 8854SOL    HW127461   1.596   2.590   4.979
 8854SOL    HW227462   1.734   2.530   4.916
 8855SOL     OW27463   5.800   5.076   1.640
 8855SOL    HW127464   5.830   5.064   1.545
 8855SOL    HW227465   5.728   5.010   1.662
 8856SOL     OW27466   0.105   5.461   6.064
 8856SOL    HW127467   0.122   5.556   6.092
 8856SOL    HW227468   0.012   5.436   6.089
 8857SOL     OW27469   6.367   1.381   5.334
 8857SOL    HW127470   6.464   1.388   5.312
 8857SOL    HW227471   6.313   1.425   5.262
 8858SOL     OW27472   6.072   4.964   5.513
 8858SOL    HW127473   6.135   5.033   5.548
 8858SOL    HW227474   5.990   4.961   5.569
 8859SOL     OW27475   0.712   0.965   3.707
 8859SOL    HW127476   0.726   1.048   3.653
 8859SOL    HW227477   0.767   0.890   3.669
 8860SOL     OW27478   6.830   2.653   1.455
 8860SOL    HW127479   6.889   2.727   1.486
 8860SOL    HW227480   6.810   2.592   1.532
 8861SOL     OW27481   4.288   1.720   1.376
 8861SOL    HW127482   4.304   1.621   1.376
 8861SOL    HW227483   4.243   1.746   1.291
 8862SOL     OW27484   4.618   5.271   5.206
 8862SOL    HW127485   4.559   5.227   5.139
 8862SOL    HW227486   4.648   5.204   5.274
 8863SOL     OW27487   1.988   4.545   3.844
 8863SOL    HW127488   1.961   4.526   3.750
 8863SOL    HW227489   1.935   4.487   3.907
 8864SOL     OW27490   5.307   2.591   6.683
 8864SOL    HW127491   5.212   2.567   6.665
 8864SOL    HW227492   5.359   2.590   6.598
 8865SOL     OW27493   2.852   1.398   6.544
 8865SOL    HW127494   2.825   1.467   6.611
 8865SOL    HW227495   2.890   1.444   6.464
 8866SOL     OW27496   5.703   6.187   2.219
 8866SOL    HW127497   5.660   6.192   2.129
 8866SOL    HW227498   5.669   6.262   2.276
 8867SOL     OW27499   6.442   3.405   2.489
 8867SOL    HW127500   6.370   3.428   2.555
 8867SOL    HW227501   6.489   3.489   2.461
 8868SOL     OW27502   0.144   3.480   3.253
 8868SOL    HW127503   0.053   3.521   3.243
 8868SOL    HW227504   0.213   3.546   3.222
 8869SOL     OW27505   3.500   5.757   3.818
 8869SOL    HW127506   3.505   5.723   3.911
 8869SOL    HW227507   3.487   5.856   3.819
 8870SOL     OW27508   1.806   0.085   1.696
 8870SOL    HW127509   1.809   0.116   1.791
 8870SOL    HW227510   1.786   0.162   1.636
 8871SOL     OW27511   1.449   0.639   2.643
 8871SOL    HW127512   1.417   0.717   2.589
 8871SOL    HW227513   1.457   0.666   2.739
 8872SOL     OW27514   0.432   4.616   5.588
 8872SOL    HW127515   0.444   4.530   5.538
 8872SOL    HW227516   0.349   4.661   5.558
 8873SOL     OW27517   1.528   0.330   1.833
 8873SOL    HW127518   1.619   0.353   1.797
 8873SOL    HW227519   1.538   0.265   1.909
 8874SOL     OW27520   2.167   5.460   0.400
 8874SOL    HW127521   2.185   5.367   0.434
 8874SOL    HW227522   2.194   5.466   0.304
 8875SOL     OW27523   0.163   2.785   3.449
 8875SOL    HW127524   0.149   2.873   3.495
 8875SOL    HW227525   0.209   2.722   3.512
 8876SOL     OW27526   3.718   0.488   5.959
 8876SOL    HW127527   3.818   0.493   5.950
 8876SOL    HW227528   3.687   0.556   6.025
 8877SOL     OW27529   1.952   3.906   1.355
 8877SOL    HW127530   2.047   3.933   1.368
 8877SOL    HW227531   1.942   3.860   1.267
 8878SOL     OW27532   3.957   5.080   0.857
 8878SOL    HW127533   3.918   5.020   0.788
 8878SOL    HW227534   3.899   5.161   0.868
 8879SOL     OW27535   6.208   4.738   3.043
 8879SOL    HW127536   6.193   4.799   2.965
 8879SOL    HW227537   6.305   4.713   3.048
 8880SOL     OW27538   4.851   6.638   3.653
 8880SOL    HW127539   4.942   6.678   3.665
 8880SOL    HW227540   4.783   6.697   3.697
 8881SOL     OW27541   3.838   4.912   3.770
 8881SOL    HW127542   3.770   4.931   3.841
 8881SOL    HW227543   3.899   4.991   3.761
 8882SOL     OW27544   3.693   0.376   1.095
 8882SOL    HW127545   3.761   0.443   1.067
 8882SOL    HW227546   3.607   0.393   1.048
 8883SOL     OW27547   0.167   6.322   5.878
 8883SOL    HW127548   0.075   6.287   5.860
 8883SOL    HW227549   0.198   6.375   5.800
 8884SOL     OW27550   5.645   3.795   4.762
 8884SOL    HW127551   5.554   3.809   4.802
 8884SOL    HW227552   5.636   3.750   4.674
 8885SOL     OW27553   5.688   5.327   0.454
 8885SOL    HW127554   5.730   5.236   0.450
 8885SOL    HW227555   5.722   5.382   0.377
 8886SOL     OW27556   2.866   5.744   0.032
 8886SOL    HW127557   2.927   5.667   0.053
 8886SOL    HW227558   2.783   5.736   0.086
 8887SOL     OW27559   4.591   1.515   1.194
 8887SOL    HW127560   4.581   1.614   1.206
 8887SOL    HW227561   4.501   1.475   1.179
 8888SOL     OW27562   1.863   1.616   3.623
 8888SOL    HW127563   1.894   1.553   3.552
 8888SOL    HW227564   1.925   1.611   3.702
 8889SOL     OW27565   6.813   6.762   6.554
 8889SOL    HW127566   6.901   6.773   6.508
 8889SOL    HW227567   6.779   6.669   6.539
 8890SOL     OW27568   0.132   0.130   6.896
 8890SOL    HW127569   0.136   0.061   6.824
 8890SOL    HW227570   0.192   0.104   6.971
 8891SOL     OW27571   5.811   4.579   6.562
 8891SOL    HW127572   5.752   4.504   6.532
 8891SOL    HW227573   5.890   4.587   6.501
 8892SOL     OW27574   3.230   4.892   3.510
 8892SOL    HW127575   3.141   4.869   3.550
 8892SOL    HW227576   3.225   4.882   3.411
 8893SOL     OW27577   1.238   5.430   4.378
 8893SOL    HW127578   1.171   5.362   4.407
 8893SOL    HW227579   1.260   5.416   4.282
 8894SOL     OW27580   4.032   2.770   0.355
 8894SOL    HW127581   4.060   2.763   0.259
 8894SOL    HW227582   4.066   2.691   0.406
 8895SOL     OW27583   0.673   3.852   0.935
 8895SOL    HW127584   0.662   3.779   1.002
 8895SOL    HW227585   0.596   3.851   0.871
 8896SOL     OW27586   0.319   2.313   4.092
 8896SOL    HW127587   0.374   2.276   4.167
 8896SOL    HW227588   0.370   2.387   4.048
 8897SOL     OW27589   1.632   3.969   3.662
 8897SOL    HW127590   1.581   3.884   3.646
 8897SOL    HW227591   1.593   4.042   3.607
 8898SOL     OW27592   4.924   3.420   2.582
 8898SOL    HW127593   4.907   3.447   2.487
 8898SOL    HW227594   5.013   3.456   2.611
 8899SOL     OW27595   0.308   3.973   6.196
 8899SOL    HW127596   0.328   4.054   6.251
 8899SOL    HW227597   0.310   3.892   6.254
 8900SOL     OW27598   5.717   2.200   3.700
 8900SOL    HW127599   5.678   2.269   3.761
 8900SOL    HW227600   5.778   2.140   3.751
 8901SOL     OW27601   0.802   2.451   4.167
 8901SOL    HW127602   0.780   2.540   4.126
 8901SOL    HW227603   0.850   2.395   4.100
 8902SOL     OW27604   1.219   4.505   6.722
 8902SOL    HW127605   1.223   4.428   6.659
 8902SOL    HW227606   1.143   4.564   6.698
 8903SOL     OW27607   1.540   0.777   4.572
 8903SOL    HW127608   1.508   0.770   4.667
 8903SOL    HW227609   1.536   0.872   4.542
 8904SOL     OW27610   0.853   1.106   2.866
 8904SOL    HW127611   0.778   1.049   2.832
 8904SOL    HW227612   0.940   1.074   2.828
 8905SOL     OW27613   1.468   3.234   2.028
 8905SOL    HW127614   1.448   3.164   2.097
 8905SOL    HW227615   1.567   3.253   2.028
 8906SOL     OW27616   7.010   0.179   0.556
 8906SOL    HW127617   0.002   0.115   0.481
 8906SOL    HW227618   6.940   0.246   0.530
 8907SOL     OW27619   3.333   2.815   5.111
 8907SOL    HW127620   3.365   2.764   5.031
 8907SOL    HW227621   3.271   2.888   5.081
 8908SOL     OW27622   1.202   5.800   0.609
 8908SOL    HW127623   1.216   5.703   0.629
 8908SOL    HW227624   1.139   5.809   0.532
 8909SOL     OW27625   2.476   1.371   6.511
 8909SOL    HW127626   2.487   1.419   6.598
 8909SOL    HW227627   2.407   1.299   6.522
 8910SOL     OW27628   1.333   2.903   4.937
 8910SOL    HW127629   1.384   2.961   5.000
 8910SOL    HW227630   1.235   2.918   4.950
 8911SOL     OW27631   4.921   2.080   4.036
 8911SOL    HW127632   4.876   2.103   4.122
 8911SOL    HW227633   4.870   2.006   3.990
 8912SOL     OW27634   3.865   3.730   5.336
 8912SOL    HW127635   3.939   3.746   5.270
 8912SOL    HW227636   3.801   3.663   5.299
 8913SOL     OW27637   5.189   5.569   6.866
 8913SOL    HW127638   5.156   5.648   6.917
 8913SOL    HW227639   5.196   5.490   6.927
 8914SOL     OW27640   5.259   6.312   5.277
 8914SOL    HW127641   5.170   6.278   5.309
 8914SOL    HW227642   5.332   6.255   5.314
 8915SOL     OW27643   0.501   1.336   3.724
 8915SOL    HW127644   0.519   1.427   3.763
 8915SOL    HW227645   0.409   1.334   3.686
 8916SOL     OW27646   5.389   1.428   6.821
 8916SOL    HW127647   5.477   1.420   6.868
 8916SOL    HW227648   5.399   1.398   6.726
 8917SOL     OW27649   5.693   1.609   0.691
 8917SOL    HW127650   5.650   1.636   0.777
 8917SOL    HW227651   5.728   1.515   0.699
 8918SOL     OW27652   1.681   5.149   1.481
 8918SOL    HW127653   1.695   5.174   1.576
 8918SOL    HW227654   1.641   5.057   1.476
 8919SOL     OW27655   5.947   4.175   6.485
 8919SOL    HW127656   6.009   4.155   6.562
 8919SOL    HW227657   5.975   4.260   6.441
 8920SOL     OW27658   0.101   1.263   6.620
 8920SOL    HW127659   0.077   1.358   6.600
 8920SOL    HW227660   0.195   1.258   6.653
 8921SOL     OW27661   1.801   2.870   1.174
 8921SOL    HW127662   1.873   2.933   1.147
 8921SOL    HW227663   1.839   2.778   1.183
 8922SOL     OW27664   3.793   0.341   3.464
 8922SOL    HW127665   3.738   0.307   3.388
 8922SOL    HW227666   3.888   0.351   3.434
 8923SOL     OW27667   1.905   1.991   5.692
 8923SOL    HW127668   1.903   2.058   5.618
 8923SOL    HW227669   1.826   1.931   5.686
 8924SOL     OW27670   5.205   4.814   4.767
 8924SOL    HW127671   5.265   4.876   4.715
 8924SOL    HW227672   5.261   4.757   4.827
 8925SOL     OW27673   1.082   0.959   2.696
 8925SOL    HW127674   1.146   0.964   2.773
 8925SOL    HW227675   1.104   0.879   2.640
 8926SOL     OW27676   6.729   3.805   5.634
 8926SOL    HW127677   6.740   3.833   5.538
 8926SOL    HW227678   6.745   3.884   5.693
 8927SOL     OW27679   6.368   2.149   5.806
 8927SOL    HW127680   6.441   2.083   5.823
 8927SOL    HW227681   6.405   2.230   5.761
 8928SOL     OW27682   2.291   0.052   5.347
 8928SOL    HW127683   2.234   0.115   5.294
 8928SOL    HW227684   2.234   0.006   5.415
 8929SOL     OW27685   6.602   2.333   5.078
 8929SOL    HW127686   6.514   2.286   5.074
 8929SOL    HW227687   6.629   2.364   4.987
 8930SOL     OW27688   1.181   3.996   3.162
 8930SOL    HW127689   1.108   3.978   3.228
 8930SOL    HW227690   1.167   3.940   3.080
 8931SOL     OW27691   3.593   3.169   1.709
 8931SOL    HW127692   3.606   3.103   1.784
 8931SOL    HW227693   3.496   3.185   1.696
 8932SOL     OW27694   0.395   2.255   2.874
 8932SOL    HW127695   0.462   2.329   2.875
 8932SOL    HW227696   0.388   2.215   2.966
 8933SOL     OW27697   3.381   2.384   5.847
 8933SOL    HW127698   3.466   2.417   5.807
 8933SOL    HW227699   3.401   2.339   5.934
 8934SOL     OW27700   3.672   5.309   3.865
 8934SOL    HW127701   3.577   5.339   3.860
 8934SOL    HW227702   3.703   5.284   3.773
 8935SOL     OW27703   6.987   5.263   0.875
 8935SOL    HW127704   7.013   5.235   0.783
 8935SOL    HW227705   6.889   5.283   0.878
 8936SOL     OW27706   2.059   3.656   0.183
 8936SOL    HW127707   2.106   3.734   0.141
 8936SOL    HW227708   2.127   3.588   0.210
 8937SOL     OW27709   7.008   6.806   5.517
 8937SOL    HW127710   6.971   6.898   5.500
 8937SOL    HW227711   0.067   6.813   5.575
 8938SOL     OW27712   6.549   4.946   1.732
 8938SOL    HW127713   6.576   4.863   1.781
 8938SOL    HW227714   6.570   5.026   1.788
 8939SOL     OW27715   4.932   1.905   4.629
 8939SOL    HW127716   4.951   1.807   4.633
 8939SOL    HW227717   4.835   1.921   4.646
 8940SOL     OW27718   6.475   0.619   3.679
 8940SOL    HW127719   6.548   0.687   3.686
 8940SOL    HW227720   6.513   0.533   3.645
 8941SOL     OW27721   5.491   2.089   5.244
 8941SOL    HW127722   5.580   2.108   5.202
 8941SOL    HW227723   5.432   2.169   5.236
 8942SOL     OW27724   0.367   2.880   5.424
 8942SOL    HW127725   0.335   2.877   5.518
 8942SOL    HW227726   0.310   2.943   5.371
 8943SOL     OW27727   5.052   3.617   1.311
 8943SOL    HW127728   4.971   3.651   1.263
 8943SOL    HW227729   5.070   3.523   1.284
 8944SOL     OW27730   5.437   5.778   0.022
 8944SOL    HW127731   5.459   5.705   0.086
 8944SOL    HW227732   5.448   5.867   0.066
 8945SOL     OW27733   2.886   0.534   5.134
 8945SOL    HW127734   2.885   0.562   5.230
 8945SOL    HW227735   2.906   0.436   5.128
 8946SOL     OW27736   3.261   1.712   5.045
 8946SOL    HW127737   3.284   1.634   4.988
 8946SOL    HW227738   3.270   1.688   5.142
 8947SOL     OW27739   3.340   3.656   5.784
 8947SOL    HW127740   3.355   3.615   5.694
 8947SOL    HW227741   3.246   3.639   5.813
 8948SOL     OW27742   5.375   5.034   3.307
 8948SOL    HW127743   5.453   4.979   3.338
 8948SOL    HW227744   5.304   5.033   3.377
 8949SOL     OW27745   1.872   6.793   6.854
 8949SOL    HW127746   1.955   6.752   6.893
 8949SOL    HW227747   1.835   6.860   6.918
 8950SOL     OW27748   5.027   2.848   5.521
 8950SOL    HW127749   5.097   2.830   5.590
 8950SOL    HW227750   4.944   2.883   5.565
 8951SOL     OW27751   1.735   2.742   5.655
 8951SOL    HW127752   1.700   2.659   5.700
 8951SOL    HW227753   1.805   2.783   5.713
 8952SOL     OW27754   1.330   1.057   3.085
 8952SOL    HW127755   1.397   0.990   3.054
 8952SOL    HW227756   1.288   1.101   3.006
 8953SOL     OW27757   1.548   3.402   6.794
 8953SOL    HW127758   1.613   3.460   6.745
 8953SOL    HW227759   1.596   3.347   6.861
 8954SOL     OW27760   0.832   5.997   6.203
 8954SOL    HW127761   0.931   6.003   6.213
 8954SOL    HW227762   0.808   6.002   6.106
 8955SOL     OW27763   0.104   4.327   3.330
 8955SOL    HW127764   0.197   4.299   3.308
 8955SOL    HW227765   0.106   4.396   3.402
 8956SOL     OW27766   0.701   1.056   6.081
 8956SOL    HW127767   0.684   1.154   6.087
 8956SOL    HW227768   0.645   1.009   6.150
 8957SOL     OW27769   2.865   4.688   1.685
 8957SOL    HW127770   2.877   4.625   1.762
 8957SOL    HW227771   2.863   4.782   1.718
 8958SOL     OW27772   0.871   0.123   4.293
 8958SOL    HW127773   0.945   0.174   4.250
 8958SOL    HW227774   0.815   0.079   4.223
 8959SOL     OW27775   1.028   4.966   0.722
 8959SOL    HW127776   1.039   4.894   0.790
 8959SOL    HW227777   0.951   5.024   0.748
 8960SOL     OW27778   4.498   5.729   2.327
 8960SOL    HW127779   4.526   5.815   2.369
 8960SOL    HW227780   4.486   5.742   2.229
 8961SOL     OW27781   1.449   1.464   4.497
 8961SOL    HW127782   1.438   1.550   4.447
 8961SOL    HW227783   1.405   1.472   4.587
 8962SOL     OW27784   5.737   0.052   2.689
 8962SOL    HW127785   5.703   0.052   2.783
 8962SOL    HW227786   5.808   0.121   2.679
 8963SOL     OW27787   5.100   0.160   4.541
 8963SOL    HW127788   5.105   0.068   4.580
 8963SOL    HW227789   5.086   0.154   4.442
 8964SOL     OW27790   5.223   5.168   2.070
 8964SOL    HW127791   5.313   5.146   2.108
 8964SOL    HW227792   5.160   5.189   2.145
 8965SOL     OW27793   1.432   5.407   1.187
 8965SOL    HW127794   1.513   5.435   1.238
 8965SOL    HW227795   1.414   5.310   1.203
 8966SOL     OW27796   1.618   2.814   5.946
 8966SOL    HW127797   1.660   2.821   6.036
 8966SOL    HW227798   1.547   2.744   5.948
 8967SOL     OW27799   3.789   6.946   1.633
 8967SOL    HW127800   3.708   6.995   1.601
 8967SOL    HW227801   3.767   6.850   1.648
 8968SOL     OW27802   5.353   5.882   1.706
 8968SOL    HW127803   5.347   5.921   1.615
 8968SOL    HW227804   5.448   5.857   1.726
 8969SOL     OW27805   5.966   0.658   3.187
 8969SOL    HW127806   6.027   0.734   3.207
 8969SOL    HW227807   5.882   0.692   3.144
 8970SOL     OW27808   2.979   2.346   1.097
 8970SOL    HW127809   2.914   2.418   1.122
 8970SOL    HW227810   3.066   2.362   1.144
 8971SOL     OW27811   3.700   6.244   2.328
 8971SOL    HW127812   3.773   6.311   2.336
 8971SOL    HW227813   3.739   6.152   2.330
 8972SOL     OW27814   4.925   6.460   6.558
 8972SOL    HW127815   4.923   6.361   6.559
 8972SOL    HW227816   5.019   6.493   6.551
 8973SOL     OW27817   1.250   4.345   1.121
 8973SOL    HW127818   1.344   4.317   1.141
 8973SOL    HW227819   1.202   4.363   1.206
 8974SOL     OW27820   1.212   4.277   6.542
 8974SOL    HW127821   1.286   4.212   6.559
 8974SOL    HW227822   1.188   4.276   6.445
 8975SOL     OW27823   2.713   0.114   0.371
 8975SOL    HW127824   2.673   0.198   0.334
 8975SOL    HW227825   2.807   0.104   0.338
 8976SOL     OW27826   1.470   5.490   4.588
 8976SOL    HW127827   1.433   5.448   4.505
 8976SOL    HW227828   1.557   5.534   4.567
 8977SOL     OW27829   6.276   1.210   6.105
 8977SOL    HW127830   6.202   1.263   6.062
 8977SOL    HW227831   6.361   1.225   6.054
 8978SOL     OW27832   5.804   6.021   0.212
 8978SOL    HW127833   5.883   6.038   0.271
 8978SOL    HW227834   5.825   5.944   0.151
 8979SOL     OW27835   1.846   3.976   4.990
 8979SOL    HW127836   1.845   3.876   4.986
 8979SOL    HW227837   1.925   4.006   5.043
 8980SOL     OW27838   3.049   3.686   5.414
 8980SOL    HW127839   3.035   3.785   5.410
 8980SOL    HW227840   3.097   3.656   5.332
 8981SOL     OW27841   3.763   1.630   5.513
 8981SOL    HW127842   3.863   1.622   5.516
 8981SOL    HW227843   3.737   1.676   5.428
 8982SOL     OW27844   1.840   3.411   6.958
 8982SOL    HW127845   1.838   3.503   6.919
 8982SOL    HW227846   1.817   3.416   0.033
 8983SOL     OW27847   3.597   6.044   0.094
 8983SOL    HW127848   3.514   6.055   0.038
 8983SOL    HW227849   3.669   6.002   0.039
 8984SOL     OW27850   2.011   6.210   3.025
 8984SOL    HW127851   2.095   6.176   2.984
 8984SOL    HW227852   1.942   6.138   3.027
 8985SOL     OW27853   3.259   2.418   0.601
 8985SOL    HW127854   3.273   2.442   0.697
 8985SOL    HW227855   3.164   2.391   0.587
 8986SOL     OW27856   3.246   5.029   2.803
 8986SOL    HW127857   3.203   4.957   2.748
 8986SOL    HW227858   3.343   5.008   2.815
 8987SOL     OW27859   4.830   6.342   3.053
 8987SOL    HW127860   4.922   6.330   3.017
 8987SOL    HW227861   4.828   6.422   3.114
 8988SOL     OW27862   0.532   6.069   3.450
 8988SOL    HW127863   0.517   6.085   3.547
 8988SOL    HW227864   0.604   6.000   3.439
 8989SOL     OW27865   4.613   3.205   6.311
 8989SOL    HW127866   4.683   3.264   6.352
 8989SOL    HW227867   4.630   3.196   6.213
 8990SOL     OW27868   0.721   5.091   3.521
 8990SOL    HW127869   0.711   5.190   3.524
 8990SOL    HW227870   0.653   5.048   3.580
 8991SOL     OW27871   1.680   3.165   4.599
 8991SOL    HW127872   1.724   3.075   4.599
 8991SOL    HW227873   1.722   3.222   4.528
 8992SOL     OW27874   4.954   1.451   0.682
 8992SOL    HW127875   4.930   1.367   0.732
 8992SOL    HW227876   4.951   1.432   0.583
 8993SOL     OW27877   4.172   3.306   6.602
 8993SOL    HW127878   4.080   3.280   6.573
 8993SOL    HW227879   4.238   3.285   6.530
 8994SOL     OW27880   1.887   4.591   4.509
 8994SOL    HW127881   1.839   4.546   4.434
 8994SOL    HW227882   1.895   4.529   4.587
 8995SOL     OW27883   6.091   1.632   1.360
 8995SOL    HW127884   6.059   1.700   1.425
 8995SOL    HW227885   6.048   1.649   1.271
 8996SOL     OW27886   5.655   3.813   6.236
 8996SOL    HW127887   5.640   3.854   6.146
 8996SOL    HW227888   5.734   3.857   6.279
 8997SOL     OW27889   4.589   0.921   6.092
 8997SOL    HW127890   4.629   0.996   6.144
 8997SOL    HW227891   4.662   0.867   6.050
 8998SOL     OW27892   6.086   3.614   3.773
 8998SOL    HW127893   6.122   3.689   3.829
 8998SOL    HW227894   6.009   3.572   3.822
 8999SOL     OW27895   4.698   6.990   6.316
 8999SOL    HW127896   4.671   6.938   6.235
 8999SOL    HW227897   4.637   0.047   6.325
 9000SOL     OW27898   1.747   3.293   1.800
 9000SOL    HW127899   1.829   3.348   1.784
 9000SOL    HW227900   1.666   3.348   1.784
 9001SOL     OW27901   7.016   4.958   1.640
 9001SOL    HW127902   6.972   5.031   1.693
 9001SOL    HW227903   0.009   4.879   1.699
 9002SOL     OW27904   1.324   4.854   5.216
 9002SOL    HW127905   1.243   4.853   5.274
 9002SOL    HW227906   1.314   4.786   5.143
 9003SOL     OW27907   5.016   3.350   1.290
 9003SOL    HW127908   4.966   3.366   1.375
 9003SOL    HW227909   5.095   3.291   1.307
 9004SOL     OW27910   4.468   4.887   1.048
 9004SOL    HW127911   4.378   4.885   1.004
 9004SOL    HW227912   4.497   4.794   1.070
 9005SOL     OW27913   5.750   1.565   6.020
 9005SOL    HW127914   5.813   1.576   5.943
 9005SOL    HW227915   5.791   1.605   6.102
 9006SOL     OW27916   2.586   6.284   1.279
 9006SOL    HW127917   2.523   6.281   1.200
 9006SOL    HW227918   2.675   6.248   1.252
 9007SOL     OW27919   2.546   1.046   2.013
 9007SOL    HW127920   2.460   1.022   2.058
 9007SOL    HW227921   2.527   1.108   1.937
 9008SOL     OW27922   0.485   4.774   2.983
 9008SOL    HW127923   0.400   4.815   3.016
 9008SOL    HW227924   0.562   4.828   3.016
 9009SOL     OW27925   3.493   5.252   1.085
 9009SOL    HW127926   3.546   5.197   1.150
 9009SOL    HW227927   3.530   5.239   0.993
 9010SOL     OW27928   2.565   6.392   4.378
 9010SOL    HW127929   2.598   6.486   4.365
 9010SOL    HW227930   2.557   6.347   4.290
 9011SOL     OW27931   3.654   1.172   1.780
 9011SOL    HW127932   3.623   1.167   1.875
 9011SOL    HW227933   3.608   1.248   1.733
 9012SOL     OW27934   2.303   5.807   0.258
 9012SOL    HW127935   2.326   5.866   0.181
 9012SOL    HW227936   2.371   5.819   0.330
 9013SOL     OW27937   0.993   0.390   4.809
 9013SOL    HW127938   1.032   0.379   4.718
 9013SOL    HW227939   0.961   0.302   4.843
 9014SOL     OW27940   6.068   2.787   1.407
 9014SOL    HW127941   6.002   2.849   1.366
 9014SOL    HW227942   6.155   2.835   1.419
 9015SOL     OW27943   4.861   2.556   1.402
 9015SOL    HW127944   4.845   2.654   1.416
 9015SOL    HW227945   4.781   2.515   1.359
 9016SOL     OW27946   5.690   4.936   6.811
 9016SOL    HW127947   5.717   4.870   6.881
 9016SOL    HW227948   5.720   5.028   6.839
 9017SOL     OW27949   4.011   0.948   4.543
 9017SOL    HW127950   3.969   1.039   4.536
 9017SOL    HW227951   4.072   0.934   4.464
 9018SOL     OW27952   3.966   3.892   6.476
 9018SOL    HW127953   3.946   3.982   6.436
 9018SOL    HW227954   3.895   3.869   6.543
 9019SOL     OW27955   1.006   4.128   2.616
 9019SOL    HW127956   0.950   4.084   2.685
 9019SOL    HW227957   1.081   4.067   2.589
 9020SOL     OW27958   6.828   4.323   0.858
 9020SOL    HW127959   6.779   4.407   0.880
 9020SOL    HW227960   6.827   4.262   0.937
 9021SOL     OW27961   6.712   0.821   3.684
 9021SOL    HW127962   6.778   0.793   3.753
 9021SOL    HW227963   6.699   0.920   3.687
 9022SOL     OW27964   3.478   2.006   7.020
 9022SOL    HW127965   3.458   2.057   6.937
 9022SOL    HW227966   3.571   1.971   7.016
 9023SOL     OW27967   4.246   3.446   1.552
 9023SOL    HW127968   4.307   3.372   1.580
 9023SOL    HW227969   4.276   3.532   1.595
 9024SOL     OW27970   1.180   4.455   5.224
 9024SOL    HW127971   1.097   4.443   5.170
 9024SOL    HW227972   1.251   4.498   5.168
 9025SOL     OW27973   6.540   5.794   0.687
 9025SOL    HW127974   6.535   5.850   0.770
 9025SOL    HW227975   6.542   5.854   0.607
 9026SOL     OW27976   3.008   2.256   0.594
 9026SOL    HW127977   3.033   2.287   0.686
 9026SOL    HW227978   2.952   2.326   0.549
 9027SOL     OW27979   0.859   3.824   3.745
 9027SOL    HW127980   0.784   3.763   3.772
 9027SOL    HW227981   0.946   3.776   3.756
 9028SOL     OW27982   4.191   2.581   5.457
 9028SOL    HW127983   4.171   2.595   5.360
 9028SOL    HW227984   4.106   2.566   5.507
 9029SOL     OW27985   4.095   0.448   4.839
 9029SOL    HW127986   4.035   0.527   4.828
 9029SOL    HW227987   4.041   0.365   4.843
 9030SOL     OW27988   2.059   2.483   4.313
 9030SOL    HW127989   2.045   2.429   4.230
 9030SOL    HW227990   1.984   2.550   4.322
 9031SOL     OW27991   3.948   0.229   4.758
 9031SOL    HW127992   3.923   0.242   4.662
 9031SOL    HW227993   3.973   0.134   4.773
 9032SOL     OW27994   4.566   4.020   0.943
 9032SOL    HW127995   4.616   3.935   0.955
 9032SOL    HW227996   4.600   4.088   1.008
 9033SOL     OW27997   0.686   4.531   2.920
 9033SOL    HW127998   0.593   4.543   2.886
 9033SOL    HW227999   0.703   4.596   2.994
 9034SOL     OW28000   3.459   6.158   4.350
 9034SOL    HW128001   3.459   6.065   4.387
 9034SOL    HW228002   3.364   6.188   4.335
 9035SOL     OW28003   1.648   6.034   6.913
 9035SOL    HW128004   1.597   5.975   6.850
 9035SOL    HW228005   1.586   6.077   6.978
 9036SOL     OW28006   1.645   3.901   5.518
 9036SOL    HW128007   1.605   3.817   5.481
 9036SOL    HW228008   1.738   3.883   5.549
 9037SOL     OW28009   1.150   3.036   4.484
 9037SOL    HW128010   1.122   3.090   4.564
 9037SOL    HW228011   1.249   3.025   4.484
 9038SOL     OW28012   4.424   3.320   6.748
 9038SOL    HW128013   4.415   3.296   6.844
 9038SOL    HW228014   4.334   3.323   6.705
 9039SOL     OW28015   3.032   4.704   0.344
 9039SOL    HW128016   3.083   4.622   0.369
 9039SOL    HW228017   3.030   4.712   0.244
 9040SOL     OW28018   2.834   2.177   2.362
 9040SOL    HW128019   2.875   2.268   2.368
 9040SOL    HW228020   2.886   2.121   2.297
 9041SOL     OW28021   0.970   2.444   1.145
 9041SOL    HW128022   0.907   2.498   1.089
 9041SOL    HW228023   0.926   2.421   1.231
 9042SOL     OW28024   3.691   6.310   5.014
 9042SOL    HW128025   3.615   6.337   5.074
 9042SOL    HW228026   3.660   6.238   4.952
 9043SOL     OW28027   2.145   1.541   6.302
 9043SOL    HW128028   2.207   1.493   6.240
 9043SOL    HW228029   2.167   1.518   6.397
 9044SOL     OW28030   0.677   0.905   6.534
 9044SOL    HW128031   0.750   0.838   6.525
 9044SOL    HW228032   0.685   0.951   6.623
 9045SOL     OW28033   4.193   0.502   3.035
 9045SOL    HW128034   4.173   0.409   3.067
 9045SOL    HW228035   4.127   0.566   3.073
 9046SOL     OW28036   3.930   3.889   2.661
 9046SOL    HW128037   3.904   3.986   2.659
 9046SOL    HW228038   3.966   3.866   2.751
 9047SOL     OW28039   1.362   4.231   5.128
 9047SOL    HW128040   1.315   4.288   5.197
 9047SOL    HW228041   1.435   4.179   5.172
 9048SOL     OW28042   6.248   2.636   6.190
 9048SOL    HW128043   6.172   2.605   6.246
 9048SOL    HW228044   6.311   2.691   6.246
 9049SOL     OW28045   3.420   6.502   5.395
 9049SOL    HW128046   3.324   6.529   5.394
 9049SOL    HW228047   3.477   6.581   5.420
 9050SOL     OW28048   0.749   3.943   1.477
 9050SOL    HW128049   0.782   3.875   1.412
 9050SOL    HW228050   0.682   3.900   1.538
 9051SOL     OW28051   2.441   0.409   1.581
 9051SOL    HW128052   2.476   0.316   1.589
 9051SOL    HW228053   2.345   0.406   1.555
 9052SOL     OW28054   2.149   3.325   3.987
 9052SOL    HW128055   2.178   3.273   4.068
 9052SOL    HW228056   2.098   3.265   3.926
 9053SOL     OW28057   2.351   1.191   0.706
 9053SOL    HW128058   2.256   1.203   0.734
 9053SOL    HW228059   2.376   1.264   0.642
 9054SOL     OW28060   2.323   5.663   4.253
 9054SOL    HW128061   2.307   5.565   4.262
 9054SOL    HW228062   2.411   5.686   4.295
 9055SOL     OW28063   6.483   4.358   4.767
 9055SOL    HW128064   6.508   4.266   4.739
 9055SOL    HW228065   6.394   4.381   4.729
 9056SOL     OW28066   6.938   2.020   2.341
 9056SOL    HW128067   7.022   2.067   2.369
 9056SOL    HW228068   6.878   2.011   2.421
 9057SOL     OW28069   4.317   1.988   4.256
 9057SOL    HW128070   4.395   2.050   4.247
 9057SOL    HW228071   4.270   2.007   4.343
 9058SOL     OW28072   1.521   0.719   6.840
 9058SOL    HW128073   1.518   0.777   6.922
 9058SOL    HW228074   1.456   0.644   6.851
 9059SOL     OW28075   0.870   2.666   2.751
 9059SOL    HW128076   0.841   2.589   2.694
 9059SOL    HW228077   0.836   2.751   2.712
 9060SOL     OW28078   5.702   3.197   5.025
 9060SOL    HW128079   5.718   3.296   5.019
 9060SOL    HW228080   5.782   3.154   5.067
 9061SOL     OW28081   4.054   5.387   2.637
 9061SOL    HW128082   4.100   5.378   2.549
 9061SOL    HW228083   3.967   5.435   2.624
 9062SOL     OW28084   1.150   5.178   1.579
 9062SOL    HW128085   1.172   5.112   1.650
 9062SOL    HW228086   1.081   5.140   1.518
 9063SOL     OW28087   3.060   1.395   3.551
 9063SOL    HW128088   2.985   1.359   3.606
 9063SOL    HW228089   3.025   1.429   3.464
 9064SOL     OW28090   6.522   3.387   6.583
 9064SOL    HW128091   6.447   3.391   6.517
 9064SOL    HW228092   6.487   3.354   6.671
 9065SOL     OW28093   3.510   0.204   0.285
 9065SOL    HW128094   3.516   0.108   0.257
 9065SOL    HW228095   3.456   0.255   0.217
 9066SOL     OW28096   5.886   0.339   0.199
 9066SOL    HW128097   5.882   0.439   0.205
 9066SOL    HW228098   5.976   0.307   0.228
 9067SOL     OW28099   1.628   0.295   3.241
 9067SOL    HW128100   1.720   0.298   3.200
 9067SOL    HW228101   1.636   0.271   3.338
 9068SOL     OW28102   1.023   6.328   5.158
 9068SOL    HW128103   1.031   6.258   5.228
 9068SOL    HW228104   0.996   6.286   5.071
 9069SOL     OW28105   1.448   2.914   6.419
 9069SOL    HW128106   1.500   2.997   6.439
 9069SOL    HW228107   1.365   2.938   6.367
 9070SOL     OW28108   1.814   3.861   4.321
 9070SOL    HW128109   1.827   3.946   4.271
 9070SOL    HW228110   1.895   3.842   4.376
 9071SOL     OW28111   6.583   6.589   0.577
 9071SOL    HW128112   6.612   6.543   0.493
 9071SOL    HW228113   6.615   6.684   0.576
 9072SOL     OW28114   0.261   3.657   0.611
 9072SOL    HW128115   0.199   3.617   0.544
 9072SOL    HW228116   0.268   3.756   0.595
 9073SOL     OW28117   2.183   1.020   1.499
 9073SOL    HW128118   2.121   1.097   1.484
 9073SOL    HW228119   2.275   1.054   1.519
 9074SOL     OW28120   1.700   6.997   2.608
 9074SOL    HW128121   1.665   6.907   2.635
 9074SOL    HW228122   1.713   0.031   2.690
 9075SOL     OW28123   6.843   0.640   2.276
 9075SOL    HW128124   6.751   0.612   2.304
 9075SOL    HW228125   6.837   0.718   2.214
 9076SOL     OW28126   6.887   1.386   6.169
 9076SOL    HW128127   6.834   1.417   6.247
 9076SOL    HW228128   6.934   1.300   6.193
 9077SOL     OW28129   4.361   6.807   2.584
 9077SOL    HW128130   4.446   6.832   2.629
 9077SOL    HW228131   4.377   6.798   2.485
 9078SOL     OW28132   3.811   3.521   4.818
 9078SOL    HW128133   3.850   3.440   4.775
 9078SOL    HW228134   3.762   3.495   4.901
 9079SOL     OW28135   3.007   6.649   4.564
 9079SOL    HW128136   2.982   6.744   4.551
 9079SOL    HW228137   2.939   6.590   4.521
 9080SOL     OW28138   5.413   2.783   0.066
 9080SOL    HW128139   5.437   2.820   0.156
 9080SOL    HW228140   5.390   2.858   0.004
 9081SOL     OW28141   5.274   6.379   2.633
 9081SOL    HW128142   5.215   6.316   2.582
 9081SOL    HW228143   5.328   6.327   2.700
 9082SOL     OW28144   2.477   0.521   3.522
 9082SOL    HW128145   2.406   0.474   3.470
 9082SOL    HW228146   2.447   0.613   3.545
 9083SOL     OW28147   4.956   4.556   5.322
 9083SOL    HW128148   4.878   4.619   5.317
 9083SOL    HW228149   5.008   4.574   5.405
 9084SOL     OW28150   3.260   3.825   3.134
 9084SOL    HW128151   3.173   3.783   3.108
 9084SOL    HW228152   3.309   3.764   3.197
 9085SOL     OW28153   2.352   1.456   1.065
 9085SOL    HW128154   2.438   1.459   1.014
 9085SOL    HW228155   2.286   1.399   1.017
 9086SOL     OW28156   0.479   3.839   1.238
 9086SOL    HW128157   0.520   3.786   1.313
 9086SOL    HW228158   0.547   3.902   1.201
 9087SOL     OW28159   4.939   3.457   2.058
 9087SOL    HW128160   4.927   3.499   1.968
 9087SOL    HW228161   4.929   3.358   2.049
 9088SOL     OW28162   6.700   0.735   6.705
 9088SOL    HW128163   6.743   0.651   6.672
 9088SOL    HW228164   6.770   0.801   6.730
 9089SOL     OW28165   4.811   0.063   5.564
 9089SOL    HW128166   4.904   0.098   5.571
 9089SOL    HW228167   4.799   7.009   5.627
 9090SOL     OW28168   5.549   0.242   4.640
 9090SOL    HW128169   5.610   0.321   4.648
 9090SOL    HW228170   5.454   0.274   4.639
 9091SOL     OW28171   3.592   4.004   0.015
 9091SOL    HW128172   3.584   3.906   0.031
 9091SOL    HW228173   3.678   4.038   0.055
 9092SOL     OW28174   0.175   2.025   6.984
 9092SOL    HW128175   0.102   2.000   6.921
 9092SOL    HW228176   0.149   2.106   0.013
 9093SOL     OW28177   1.373   7.000   5.378
 9093SOL    HW128178   1.386   0.016   5.470
 9093SOL    HW228179   1.293   0.020   5.335
 9094SOL     OW28180   0.294   2.909   2.147
 9094SOL    HW128181   0.345   2.823   2.149
 9094SOL    HW228182   0.356   2.985   2.167
 9095SOL     OW28183   5.270   5.732   5.568
 9095SOL    HW128184   5.250   5.734   5.470
 9095SOL    HW228185   5.185   5.729   5.619
 9096SOL     OW28186   6.852   5.336   2.981
 9096SOL    HW128187   6.889   5.246   2.957
 9096SOL    HW228188   6.763   5.325   3.026
 9097SOL     OW28189   0.468   2.694   5.745
 9097SOL    HW128190   0.564   2.719   5.756
 9097SOL    HW228191   0.414   2.776   5.725
 9098SOL     OW28192   1.754   2.526   4.552
 9098SOL    HW128193   1.807   2.600   4.593
 9098SOL    HW228194   1.720   2.465   4.624
 9099SOL     OW28195   2.205   3.269   6.120
 9099SOL    HW128196   2.258   3.311   6.046
 9099SOL    HW228197   2.232   3.309   6.207
 9100SOL     OW28198   1.332   4.408   2.334
 9100SOL    HW128199   1.288   4.479   2.279
 9100SOL    HW228200   1.317   4.426   2.431
 9101SOL     OW28201   2.277   1.552   1.969
 9101SOL    HW128202   2.230   1.536   2.056
 9101SOL    HW228203   2.351   1.618   1.983
 9102SOL     OW28204   4.323   6.057   2.750
 9102SOL    HW128205   4.373   6.134   2.710
 9102SOL    HW228206   4.376   6.019   2.826
 9103SOL     OW28207   6.386   1.668   0.184
 9103SOL    HW128208   6.345   1.717   0.261
 9103SOL    HW228209   6.414   1.577   0.213
 9104SOL     OW28210   6.941   0.847   0.102
 9104SOL    HW128211   6.981   0.918   0.160
 9104SOL    HW228212   6.973   0.757   0.132
 9105SOL     OW28213   1.902   6.975   6.168
 9105SOL    HW128214   1.967   0.027   6.187
 9105SOL    HW228215   1.951   6.897   6.129
 9106SOL     OW28216   0.821   5.074   6.481
 9106SOL    HW128217   0.785   4.988   6.518
 9106SOL    HW228218   0.893   5.054   6.415
 9107SOL     OW28219   2.502   0.742   7.005
 9107SOL    HW128220   2.516   0.783   0.072
 9107SOL    HW228221   2.406   0.754   6.978
 9108SOL     OW28222   5.423   5.374   5.746
 9108SOL    HW128223   5.368   5.441   5.795
 9108SOL    HW228224   5.485   5.420   5.683
 9109SOL     OW28225   5.419   2.448   2.169
 9109SOL    HW128226   5.457   2.457   2.261
 9109SOL    HW228227   5.346   2.515   2.157
 9110SOL     OW28228   1.748   5.807   4.854
 9110SOL    HW128229   1.702   5.721   4.876
 9110SOL    HW228230   1.844   5.789   4.831
 9111SOL     OW28231   4.629   2.778   4.945
 9111SOL    HW128232   4.590   2.846   5.007
 9111SOL    HW228233   4.684   2.823   4.876
 9112SOL     OW28234   2.381   5.188   2.370
 9112SOL    HW128235   2.366   5.198   2.272
 9112SOL    HW228236   2.335   5.263   2.419
 9113SOL     OW28237   4.634   2.044   3.453
 9113SOL    HW128238   4.610   2.066   3.548
 9113SOL    HW228239   4.702   1.970   3.452
 9114SOL     OW28240   1.205   6.426   4.973
 9114SOL    HW128241   1.141   6.384   5.038
 9114SOL    HW228242   1.190   6.388   4.882
 9115SOL     OW28243   5.608   4.750   3.904
 9115SOL    HW128244   5.629   4.763   4.001
 9115SOL    HW228245   5.682   4.698   3.861
 9116SOL     OW28246   0.492   6.966   3.421
 9116SOL    HW128247   0.486   0.030   3.469
 9116SOL    HW228248   0.587   6.949   3.394
 9117SOL     OW28249   3.697   1.039   6.987
 9117SOL    HW128250   3.702   0.947   6.947
 9117SOL    HW228251   3.760   1.100   6.938
 9118SOL     OW28252   5.807   4.136   0.488
 9118SOL    HW128253   5.903   4.120   0.465
 9118SOL    HW228254   5.778   4.072   0.560
 9119SOL     OW28255   3.429   6.820   0.938
 9119SOL    HW128256   3.507   6.759   0.921
 9119SOL    HW228257   3.446   6.908   0.894
 9120SOL     OW28258   5.474   2.573   5.796
 9120SOL    HW128259   5.529   2.563   5.879
 9120SOL    HW228260   5.527   2.544   5.717
 9121SOL     OW28261   3.362   0.373   5.587
 9121SOL    HW128262   3.374   0.379   5.487
 9121SOL    HW228263   3.447   0.341   5.629
 9122SOL     OW28264   2.378   4.556   2.095
 9122SOL    HW128265   2.355   4.464   2.126
 9122SOL    HW228266   2.463   4.585   2.137
 9123SOL     OW28267   0.840   0.760   3.573
 9123SOL    HW128268   0.849   0.661   3.573
 9123SOL    HW228269   0.930   0.801   3.590
 9124SOL     OW28270   3.405   5.460   1.423
 9124SOL    HW128271   3.363   5.470   1.513
 9124SOL    HW228272   3.463   5.379   1.422
 9125SOL     OW28273   4.446   6.202   0.450
 9125SOL    HW128274   4.542   6.222   0.469
 9125SOL    HW228275   4.398   6.186   0.536
 9126SOL     OW28276   3.789   4.964   0.354
 9126SOL    HW128277   3.776   4.874   0.396
 9126SOL    HW228278   3.744   5.034   0.411
 9127SOL     OW28279   0.259   3.971   5.351
 9127SOL    HW128280   0.295   3.956   5.443
 9127SOL    HW228281   0.335   3.980   5.286
 9128SOL     OW28282   5.830   3.676   4.979
 9128SOL    HW128283   5.772   3.706   4.903
 9128SOL    HW228284   5.799   3.719   5.064
 9129SOL     OW28285   1.529   1.533   0.795
 9129SOL    HW128286   1.577   1.616   0.823
 9129SOL    HW228287   1.448   1.520   0.852
 9130SOL     OW28288   2.702   4.048   5.289
 9130SOL    HW128289   2.609   4.022   5.261
 9130SOL    HW228290   2.768   3.986   5.247
 9131SOL     OW28291   5.917   2.333   0.994
 9131SOL    HW128292   5.819   2.350   1.002
 9131SOL    HW228293   5.936   2.238   1.014
 9132SOL     OW28294   0.618   4.128   3.690
 9132SOL    HW128295   0.671   4.174   3.762
 9132SOL    HW228296   0.598   4.194   3.617
 9133SOL     OW28297   4.345   0.725   0.971
 9133SOL    HW128298   4.292   0.640   0.976
 9133SOL    HW228299   4.286   0.803   0.992
 9134SOL     OW28300   4.538   5.357   0.642
 9134SOL    HW128301   4.533   5.456   0.625
 9134SOL    HW228302   4.599   5.340   0.720
 9135SOL     OW28303   0.491   6.164   2.583
 9135SOL    HW128304   0.521   6.259   2.588
 9135SOL    HW228305   0.392   6.161   2.571
 9136SOL     OW28306   6.528   4.743   6.374
 9136SOL    HW128307   6.570   4.682   6.307
 9136SOL    HW228308   6.560   4.837   6.357
 9137SOL     OW28309   4.704   6.455   6.733
 9137SOL    HW128310   4.785   6.472   6.677
 9137SOL    HW228311   4.718   6.494   6.824
 9138SOL     OW28312   2.926   3.385   1.119
 9138SOL    HW128313   2.858   3.449   1.081
 9138SOL    HW228314   2.995   3.365   1.049
 9139SOL     OW28315   0.115   0.389   1.465
 9139SOL    HW128316   0.060   0.390   1.549
 9139SOL    HW228317   0.054   0.375   1.387
 9140SOL     OW28318   0.633   4.062   2.649
 9140SOL    HW128319   0.696   4.137   2.671
 9140SOL    HW228320   0.663   3.979   2.695
 9141SOL     OW28321   6.621   5.539   5.890
 9141SOL    HW128322   6.620   5.514   5.793
 9141SOL    HW228323   6.584   5.631   5.900
 9142SOL     OW28324   0.812   3.971   3.515
 9142SOL    HW128325   0.822   3.936   3.608
 9142SOL    HW228326   0.893   3.949   3.461
 9143SOL     OW28327   6.698   3.354   2.263
 9143SOL    HW128328   6.637   3.330   2.339
 9143SOL    HW228329   6.667   3.306   2.181
 9144SOL     OW28330   2.620   4.322   5.327
 9144SOL    HW128331   2.533   4.275   5.338
 9144SOL    HW228332   2.687   4.260   5.286
 9145SOL     OW28333   1.118   6.274   6.005
 9145SOL    HW128334   1.187   6.203   6.015
 9145SOL    HW228335   1.029   6.231   5.986
 9146SOL     OW28336   6.195   3.084   2.972
 9146SOL    HW128337   6.278   3.028   2.977
 9146SOL    HW228338   6.127   3.040   2.915
 9147SOL     OW28339   4.608   0.329   4.504
 9147SOL    HW128340   4.695   0.340   4.552
 9147SOL    HW228341   4.607   0.240   4.458
 9148SOL     OW28342   6.398   6.762   1.724
 9148SOL    HW128343   6.427   6.766   1.628
 9148SOL    HW228344   6.417   6.671   1.760
 9149SOL     OW28345   0.068   3.469   1.256
 9149SOL    HW128346   0.052   3.568   1.262
 9149SOL    HW228347   7.020   3.428   1.198
 9150SOL     OW28348   2.654   2.842   0.807
 9150SOL    HW128349   2.754   2.842   0.800
 9150SOL    HW228350   2.613   2.824   0.717
 9151SOL     OW28351   1.924   3.280   3.781
 9151SOL    HW128352   1.909   3.357   3.719
 9151SOL    HW228353   1.993   3.219   3.742
 9152SOL     OW28354   2.574   4.535   3.782
 9152SOL    HW128355   2.538   4.547   3.690
 9152SOL    HW228356   2.636   4.456   3.783
 9153SOL     OW28357   6.614   3.302   0.151
 9153SOL    HW128358   6.690   3.330   0.092
 9153SOL    HW228359   6.560   3.383   0.175
 9154SOL     OW28360   5.751   4.590   3.201
 9154SOL    HW128361   5.725   4.685   3.220
 9154SOL    HW228362   5.824   4.588   3.134
 9155SOL     OW28363   0.596   6.286   2.915
 9155SOL    HW128364   0.561   6.309   2.824
 9155SOL    HW228365   0.570   6.358   2.980
 9156SOL     OW28366   6.668   3.571   6.954
 9156SOL    HW128367   6.708   3.662   6.944
 9156SOL    HW228368   6.575   3.579   6.991
 9157SOL     OW28369   2.270   5.026   6.207
 9157SOL    HW128370   2.302   4.949   6.151
 9157SOL    HW228371   2.294   5.010   6.303
 9158SOL     OW28372   6.645   3.489   4.631
 9158SOL    HW128373   6.616   3.576   4.670
 9158SOL    HW228374   6.567   3.427   4.624
 9159SOL     OW28375   3.828   1.185   3.730
 9159SOL    HW128376   3.785   1.256   3.786
 9159SOL    HW228377   3.817   1.096   3.775
 9160SOL     OW28378   6.935   4.431   0.603
 9160SOL    HW128379   6.911   4.387   0.690
 9160SOL    HW228380   7.018   4.389   0.567
 9161SOL     OW28381   6.157   3.967   1.599
 9161SOL    HW128382   6.214   4.041   1.563
 9161SOL    HW228383   6.200   3.879   1.580
 9162SOL     OW28384   4.701   2.097   1.641
 9162SOL    HW128385   4.680   2.127   1.547
 9162SOL    HW228386   4.634   2.135   1.704
 9163SOL     OW28387   1.567   2.524   3.213
 9163SOL    HW128388   1.472   2.492   3.207
 9163SOL    HW228389   1.590   2.575   3.130
 9164SOL     OW28390   2.239   0.769   6.902
 9164SOL    HW128391   2.256   0.699   6.832
 9164SOL    HW228392   2.141   0.785   6.909
 9165SOL     OW28393   5.056   1.466   6.173
 9165SOL    HW128394   5.088   1.556   6.202
 9165SOL    HW228395   4.961   1.453   6.202
 9166SOL     OW28396   5.149   5.660   1.738
 9166SOL    HW128397   5.204   5.743   1.747
 9166SOL    HW228398   5.203   5.588   1.694
 9167SOL     OW28399   1.644   1.060   4.551
 9167SOL    HW128400   1.734   1.102   4.566
 9167SOL    HW228401   1.603   1.038   4.640
 9168SOL     OW28402   6.205   6.117   4.261
 9168SOL    HW128403   6.265   6.195   4.243
 9168SOL    HW228404   6.124   6.147   4.311
 9169SOL     OW28405   6.649   5.997   0.530
 9169SOL    HW128406   6.724   5.998   0.596
 9169SOL    HW228407   6.674   6.056   0.452
 9170SOL     OW28408   1.327   1.298   5.585
 9170SOL    HW128409   1.425   1.313   5.577
 9170SOL    HW228410   1.283   1.318   5.497
 9171SOL     OW28411   3.406   5.020   0.405
 9171SOL    HW128412   3.489   5.016   0.460
 9171SOL    HW228413   3.352   4.937   0.418
 9172SOL     OW28414   4.615   1.558   4.586
 9172SOL    HW128415   4.617   1.647   4.539
 9172SOL    HW228416   4.521   1.528   4.598
 9173SOL     OW28417   5.512   3.170   4.137
 9173SOL    HW128418   5.594   3.143   4.087
 9173SOL    HW228419   5.449   3.216   4.075
 9174SOL     OW28420   6.950   4.456   0.161
 9174SOL    HW128421   6.882   4.386   0.185
 9174SOL    HW228422   7.013   4.419   0.093
 9175SOL     OW28423   1.757   6.705   6.630
 9175SOL    HW128424   1.727   6.635   6.696
 9175SOL    HW228425   1.820   6.768   6.675
 9176SOL     OW28426   2.169   1.417   2.498
 9176SOL    HW128427   2.169   1.437   2.596
 9176SOL    HW228428   2.230   1.481   2.451
 9177SOL     OW28429   0.735   3.808   4.090
 9177SOL    HW128430   0.665   3.771   4.029
 9177SOL    HW228431   0.821   3.759   4.075
 9178SOL     OW28432   1.914   5.951   0.540
 9178SOL    HW128433   1.966   5.991   0.616
 9178SOL    HW228434   1.969   5.882   0.495
 9179SOL     OW28435   3.714   5.716   5.420
 9179SOL    HW128436   3.807   5.682   5.412
 9179SOL    HW228437   3.708   5.779   5.497
 9180SOL     OW28438   0.176   0.816   4.575
 9180SOL    HW128439   0.257   0.785   4.526
 9180SOL    HW228440   0.182   0.788   4.671
 9181SOL     OW28441   3.800   2.018   3.897
 9181SOL    HW128442   3.799   2.021   3.997
 9181SOL    HW228443   3.707   2.008   3.863
 9182SOL     OW28444   1.820   1.122   2.860
 9182SOL    HW128445   1.810   1.217   2.888
 9182SOL    HW228446   1.754   1.101   2.788
 9183SOL     OW28447   6.886   2.751   5.689
 9183SOL    HW128448   6.855   2.661   5.719
 9183SOL    HW228449   6.976   2.742   5.645
 9184SOL     OW28450   3.124   3.091   0.914
 9184SOL    HW128451   3.222   3.070   0.914
 9184SOL    HW228452   3.088   3.075   1.006
 9185SOL     OW28453   1.094   0.854   6.800
 9185SOL    HW128454   1.158   0.849   6.723
 9185SOL    HW228455   1.135   0.908   6.873
 9186SOL     OW28456   5.500   1.172   6.503
 9186SOL    HW128457   5.435   1.108   6.544
 9186SOL    HW228458   5.456   1.221   6.427
 9187SOL     OW28459   4.791   2.116   0.863
 9187SOL    HW128460   4.710   2.110   0.804
 9187SOL    HW228461   4.765   2.153   0.952
 9188SOL     OW28462   1.177   0.556   1.599
 9188SOL    HW128463   1.131   0.511   1.676
 9188SOL    HW228464   1.189   0.490   1.525
 9189SOL     OW28465   4.007   1.214   4.086
 9189SOL    HW128466   3.911   1.206   4.062
 9189SOL    HW228467   4.058   1.137   4.048
 9190SOL     OW28468   6.142   3.305   5.393
 9190SOL    HW128469   6.174   3.312   5.298
 9190SOL    HW228470   6.219   3.321   5.455
 9191SOL     OW28471   5.530   6.346   0.291
 9191SOL    HW128472   5.627   6.323   0.288
 9191SOL    HW228473   5.511   6.400   0.374
 9192SOL     OW28474   6.139   4.950   4.794
 9192SOL    HW128475   6.189   5.015   4.852
 9192SOL    HW228476   6.183   4.861   4.799
 9193SOL     OW28477   3.692   3.209   3.672
 9193SOL    HW128478   3.641   3.217   3.757
 9193SOL    HW228479   3.697   3.113   3.645
 9194SOL     OW28480   2.890   5.779   2.381
 9194SOL    HW128481   2.828   5.851   2.411
 9194SOL    HW228482   2.838   5.699   2.353
 9195SOL     OW28483   6.543   3.508   2.793
 9195SOL    HW128484   6.592   3.435   2.745
 9195SOL    HW228485   6.493   3.468   2.870
 9196SOL     OW28486   4.638   0.122   3.421
 9196SOL    HW128487   4.581   0.043   3.443
 9196SOL    HW228488   4.583   0.206   3.427
 9197SOL     OW28489   3.352   3.435   6.164
 9197SOL    HW128490   3.373   3.397   6.254
 9197SOL    HW228491   3.430   3.488   6.132
 9198SOL     OW28492   5.487   2.795   5.147
 9198SOL    HW128493   5.524   2.887   5.164
 9198SOL    HW228494   5.403   2.783   5.198
 9199SOL     OW28495   1.324   4.025   6.640
 9199SOL    HW128496   1.367   4.047   6.727
 9199SOL    HW228497   1.245   3.966   6.656
 9200SOL     OW28498   6.104   0.602   6.968
 9200SOL    HW128499   6.172   0.575   0.015
 9200SOL    HW228500   6.063   0.520   6.928
 9201SOL     OW28501   1.427   3.945   3.302
 9201SOL    HW128502   1.349   3.955   3.240
 9201SOL    HW228503   1.461   4.036   3.327
 9202SOL     OW28504   3.189   5.126   4.616
 9202SOL    HW128505   3.105   5.178   4.601
 9202SOL    HW228506   3.169   5.028   4.607
 9203SOL     OW28507   5.316   0.170   5.905
 9203SOL    HW128508   5.225   0.207   5.885
 9203SOL    HW228509   5.383   0.211   5.843
 9204SOL     OW28510   4.797   4.284   2.200
 9204SOL    HW128511   4.760   4.260   2.290
 9204SOL    HW228512   4.723   4.290   2.134
 9205SOL     OW28513   5.185   2.899   2.858
 9205SOL    HW128514   5.107   2.954   2.886
 9205SOL    HW228515   5.225   2.937   2.774
 9206SOL     OW28516   0.610   0.220   3.614
 9206SOL    HW128517   0.629   0.268   3.700
 9206SOL    HW228518   0.681   0.243   3.547
 9207SOL     OW28519   4.103   6.991   0.319
 9207SOL    HW128520   4.100   6.900   0.361
 9207SOL    HW228521   4.052   6.990   0.233
 9208SOL     OW28522   5.098   4.571   2.452
 9208SOL    HW128523   5.035   4.518   2.509
 9208SOL    HW228524   5.084   4.547   2.356
 9209SOL     OW28525   4.241   1.231   2.522
 9209SOL    HW128526   4.328   1.246   2.570
 9209SOL    HW228527   4.183   1.171   2.578
 9210SOL     OW28528   1.289   0.274   1.212
 9210SOL    HW128529   1.189   0.272   1.213
 9210SOL    HW228530   1.323   0.220   1.136
 9211SOL     OW28531   5.016   1.050   6.996
 9211SOL    HW128532   5.081   0.979   0.001
 9211SOL    HW228533   4.964   1.080   0.054
 9212SOL     OW28534   6.024   3.855   4.828
 9212SOL    HW128535   5.975   3.832   4.912
 9212SOL    HW228536   6.036   3.954   4.822
 9213SOL     OW28537   6.240   6.989   2.913
 9213SOL    HW128538   6.230   0.066   2.918
 9213SOL    HW228539   6.327   6.962   2.953
 9214SOL     OW28540   2.053   2.238   5.248
 9214SOL    HW128541   2.086   2.326   5.282
 9214SOL    HW228542   2.126   2.193   5.196
 9215SOL     OW28543   1.041   3.146   2.958
 9215SOL    HW128544   0.994   3.173   2.874
 9215SOL    HW228545   1.077   3.227   3.003
 9216SOL     OW28546   2.171   5.889   4.942
 9216SOL    HW128547   2.270   5.874   4.951
 9216SOL    HW228548   2.127   5.802   4.916
 9217SOL     OW28549   4.676   0.853   6.473
 9217SOL    HW128550   4.715   0.779   6.528
 9217SOL    HW228551   4.739   0.930   6.472
 9218SOL     OW28552   5.905   5.312   6.541
 9218SOL    HW128553   5.943   5.385   6.485
 9218SOL    HW228554   5.899   5.342   6.636
 9219SOL     OW28555   3.516   2.881   5.589
 9219SOL    HW128556   3.525   2.968   5.539
 9219SOL    HW228557   3.512   2.806   5.524
 9220SOL     OW28558   1.118   6.493   3.385
 9220SOL    HW128559   1.199   6.494   3.327
 9220SOL    HW228560   1.145   6.492   3.481
 9221SOL     OW28561   2.553   0.725   0.571
 9221SOL    HW128562   2.472   0.785   0.566
 9221SOL    HW228563   2.628   0.767   0.520
 9222SOL     OW28564   1.258   3.551   3.242
 9222SOL    HW128565   1.292   3.472   3.293
 9222SOL    HW228566   1.336   3.604   3.208
 9223SOL     OW28567   0.819   3.710   4.915
 9223SOL    HW128568   0.852   3.804   4.912
 9223SOL    HW228569   0.772   3.688   4.830
 9224SOL     OW28570   1.860   4.353   3.978
 9224SOL    HW128571   1.904   4.328   4.064
 9224SOL    HW228572   1.819   4.272   3.937
 9225SOL     OW28573   4.926   6.843   6.978
 9225SOL    HW128574   4.863   6.815   6.906
 9225SOL    HW228575   5.014   6.867   6.937
 9226SOL     OW28576   0.826   0.910   1.161
 9226SOL    HW128577   0.899   0.850   1.192
 9226SOL    HW228578   0.767   0.861   1.096
 9227SOL     OW28579   2.405   5.606   0.701
 9227SOL    HW128580   2.500   5.576   0.709
 9227SOL    HW228581   2.378   5.654   0.785
 9228SOL     OW28582   2.893   3.027   5.565
 9228SOL    HW128583   2.977   2.973   5.564
 9228SOL    HW228584   2.836   2.997   5.641
 9229SOL     OW28585   0.347   4.537   0.137
 9229SOL    HW128586   0.359   4.633   0.113
 9229SOL    HW228587   0.394   4.479   0.070
 9230SOL     OW28588   4.660   1.850   4.721
 9230SOL    HW128589   4.586   1.855   4.654
 9230SOL    HW228590   4.622   1.825   4.810
 9231SOL     OW28591   6.686   5.773   3.690
 9231SOL    HW128592   6.778   5.789   3.653
 9231SOL    HW228593   6.656   5.680   3.667
 9232SOL     OW28594   1.535   4.989   1.806
 9232SOL    HW128595   1.552   4.964   1.901
 9232SOL    HW228596   1.587   5.071   1.784
 9233SOL     OW28597   0.556   6.827   0.276
 9233SOL    HW128598   0.581   6.753   0.339
 9233SOL    HW228599   0.492   6.888   0.321
 9234SOL     OW28600   2.365   4.527   0.303
 9234SOL    HW128601   2.398   4.619   0.280
 9234SOL    HW228602   2.404   4.499   0.391
 9235SOL     OW28603   1.976   2.061   3.886
 9235SOL    HW128604   2.042   1.993   3.857
 9235SOL    HW228605   1.956   2.049   3.983
 9236SOL     OW28606   2.569   3.229   6.631
 9236SOL    HW128607   2.511   3.242   6.711
 9236SOL    HW228608   2.574   3.314   6.579
 9237SOL     OW28609   5.641   4.878   3.160
 9237SOL    HW128610   5.667   4.868   3.256
 9237SOL    HW228611   5.700   4.947   3.118
 9238SOL     OW28612   1.999   2.601   5.274
 9238SOL    HW128613   2.049   2.567   5.195
 9238SOL    HW228614   2.063   2.639   5.341
 9239SOL     OW28615   0.731   4.821   6.777
 9239SOL    HW128616   0.680   4.736   6.788
 9239SOL    HW228617   0.761   4.854   6.866
 9240SOL     OW28618   4.539   2.406   2.751
 9240SOL    HW128619   4.595   2.378   2.829
 9240SOL    HW228620   4.578   2.490   2.711
 9241SOL     OW28621   5.752   0.048   1.132
 9241SOL    HW128622   5.798   0.070   1.047
 9241SOL    HW228623   5.796   6.991   1.175
 9242SOL     OW28624   1.735   2.439   0.603
 9242SOL    HW128625   1.675   2.423   0.681
 9242SOL    HW228626   1.685   2.419   0.518
 9243SOL     OW28627   0.977   0.436   0.082
 9243SOL    HW128628   0.921   0.381   0.020
 9243SOL    HW228629   0.962   0.533   0.063
 9244SOL     OW28630   3.881   6.254   5.438
 9244SOL    HW128631   3.928   6.307   5.367
 9244SOL    HW228632   3.947   6.227   5.508
 9245SOL     OW28633   1.191   4.271   3.038
 9245SOL    HW128634   1.189   4.174   3.062
 9245SOL    HW228635   1.195   4.280   2.938
 9246SOL     OW28636   6.332   0.360   5.448
 9246SOL    HW128637   6.378   0.438   5.406
 9246SOL    HW228638   6.237   0.385   5.469
 9247SOL     OW28639   3.875   6.675   3.305
 9247SOL    HW128640   3.778   6.688   3.287
 9247SOL    HW228641   3.892   6.579   3.328
 9248SOL     OW28642   2.342   1.056   5.923
 9248SOL    HW128643   2.285   1.131   5.957
 9248SOL    HW228644   2.311   0.970   5.962
 9249SOL     OW28645   3.645   5.325   1.546
 9249SOL    HW128646   3.650   5.324   1.646
 9249SOL    HW228647   3.715   5.265   1.509
 9250SOL     OW28648   0.450   2.968   4.054
 9250SOL    HW128649   0.540   2.995   4.090
 9250SOL    HW228650   0.427   2.876   4.086
 9251SOL     OW28651   3.363   2.872   1.255
 9251SOL    HW128652   3.316   2.809   1.317
 9251SOL    HW228653   3.334   2.854   1.161
 9252SOL     OW28654   4.931   1.964   5.913
 9252SOL    HW128655   4.942   1.893   5.983
 9252SOL    HW228656   4.995   2.038   5.930
 9253SOL     OW28657   0.964   5.220   5.396
 9253SOL    HW128658   0.902   5.141   5.397
 9253SOL    HW228659   1.056   5.190   5.419
 9254SOL     OW28660   0.097   5.253   2.735
 9254SOL    HW128661   0.156   5.272   2.657
 9254SOL    HW228662   0.068   5.157   2.732
 9255SOL     OW28663   6.957   4.044   0.743
 9255SOL    HW128664   6.980   4.113   0.812
 9255SOL    HW228665   6.869   4.002   0.767
 9256SOL     OW28666   1.754   6.328   1.967
 9256SOL    HW128667   1.735   6.411   2.020
 9256SOL    HW228668   1.840   6.288   1.999
 9257SOL     OW28669   6.259   5.878   4.164
 9257SOL    HW128670   6.213   5.890   4.076
 9257SOL    HW228671   6.286   5.968   4.200
 9258SOL     OW28672   3.638   5.081   1.251
 9258SOL    HW128673   3.607   5.015   1.319
 9258SOL    HW228674   3.731   5.110   1.274
 9259SOL     OW28675   1.989   1.357   6.521
 9259SOL    HW128676   1.938   1.440   6.500
 9259SOL    HW228677   1.926   1.280   6.532
 9260SOL     OW28678   6.312   4.026   4.962
 9260SOL    HW128679   6.222   4.062   4.939
 9260SOL    HW228680   6.377   4.049   4.890
 9261SOL     OW28681   3.590   2.553   1.748
 9261SOL    HW128682   3.672   2.609   1.757
 9261SOL    HW228683   3.607   2.462   1.787
 9262SOL     OW28684   6.071   5.907   4.380
 9262SOL    HW128685   6.144   5.905   4.311
 9262SOL    HW228686   6.110   5.885   4.470
 9263SOL     OW28687   1.439   3.708   3.844
 9263SOL    HW128688   1.378   3.774   3.800
 9263SOL    HW228689   1.453   3.631   3.782
 9264SOL     OW28690   4.448   3.712   0.336
 9264SOL    HW128691   4.503   3.779   0.286
 9264SOL    HW228692   4.444   3.627   0.284
 9265SOL     OW28693   5.610   1.532   0.177
 9265SOL    HW128694   5.700   1.506   0.213
 9265SOL    HW228695   5.539   1.510   0.244
 9266SOL     OW28696   0.642   4.401   1.298
 9266SOL    HW128697   0.587   4.438   1.373
 9266SOL    HW228698   0.696   4.474   1.257
 9267SOL     OW28699   6.876   1.021   4.823
 9267SOL    HW128700   6.870   1.079   4.904
 9267SOL    HW228701   6.790   0.972   4.810
 9268SOL     OW28702   0.887   6.894   2.125
 9268SOL    HW128703   0.984   6.870   2.116
 9268SOL    HW228704   0.873   6.989   2.098
 9269SOL     OW28705   4.220   0.964   0.988
 9269SOL    HW128706   4.255   1.058   0.985
 9269SOL    HW228707   4.146   0.954   0.923
 9270SOL     OW28708   1.606   0.653   5.919
 9270SOL    HW128709   1.584   0.607   6.005
 9270SOL    HW228710   1.705   0.657   5.907
 9271SOL     OW28711   1.453   0.090   4.693
 9271SOL    HW128712   1.527   0.077   4.626
 9271SOL    HW228713   1.447   0.010   4.752
 9272SOL     OW28714   6.673   6.808   6.285
 9272SOL    HW128715   6.632   6.899   6.279
 9272SOL    HW228716   6.704   6.792   6.379
 9273SOL     OW28717   4.732   5.051   4.564
 9273SOL    HW128718   4.781   5.022   4.482
 9273SOL    HW228719   4.709   4.970   4.619
 9274SOL     OW28720   1.343   2.772   6.839
 9274SOL    HW128721   1.352   2.761   6.938
 9274SOL    HW228722   1.417   2.722   6.793
 9275SOL     OW28723   0.144   0.666   0.092
 9275SOL    HW128724   0.232   0.639   0.130
 9275SOL    HW228725   0.149   0.760   0.059
 9276SOL     OW28726   2.942   5.039   6.983
 9276SOL    HW128727   2.996   5.108   6.933
 9276SOL    HW228728   2.997   4.956   6.994
 9277SOL     OW28729   5.199   5.941   1.947
 9277SOL    HW128730   5.275   5.908   1.890
 9277SOL    HW228731   5.127   5.977   1.888
 9278SOL     OW28732   0.516   0.939   4.768
 9278SOL    HW128733   0.491   1.014   4.706
 9278SOL    HW228734   0.493   0.852   4.726
 9279SOL     OW28735   4.958   6.327   1.315
 9279SOL    HW128736   4.918   6.310   1.405
 9279SOL    HW228737   4.885   6.333   1.247
 9280SOL     OW28738   1.580   0.078   3.088
 9280SOL    HW128739   1.493   0.031   3.106
 9280SOL    HW228740   1.586   0.158   3.147
 9281SOL     OW28741   2.644   5.116   6.852
 9281SOL    HW128742   2.606   5.171   6.778
 9281SOL    HW228743   2.742   5.130   6.857
 9282SOL     OW28744   2.817   6.721   4.998
 9282SOL    HW128745   2.872   6.769   5.066
 9282SOL    HW228746   2.837   6.757   4.907
 9283SOL     OW28747   4.719   6.149   0.006
 9283SOL    HW128748   4.714   6.239   0.050
 9283SOL    HW228749   4.639   6.095   0.032
 9284SOL     OW28750   3.500   3.899   4.982
 9284SOL    HW128751   3.462   3.991   4.979
 9284SOL    HW228752   3.576   3.897   5.047
 9285SOL     OW28753   0.070   4.690   2.726
 9285SOL    HW128754   0.057   4.667   2.629
 9285SOL    HW228755   0.168   4.696   2.745
 9286SOL     OW28756   4.769   5.817   1.066
 9286SOL    HW128757   4.767   5.831   0.967
 9286SOL    HW228758   4.765   5.719   1.086
 9287SOL     OW28759   3.645   4.719   6.159
 9287SOL    HW128760   3.608   4.722   6.252
 9287SOL    HW228761   3.654   4.812   6.123
 9288SOL     OW28762   4.252   2.303   2.749
 9288SOL    HW128763   4.210   2.289   2.659
 9288SOL    HW228764   4.350   2.323   2.737
 9289SOL     OW28765   4.749   6.423   0.014
 9289SOL    HW128766   4.792   6.505   0.051
 9289SOL    HW228767   4.651   6.425   0.034
 9290SOL     OW28768   5.064   0.512   4.149
 9290SOL    HW128769   5.064   0.487   4.052
 9290SOL    HW228770   5.154   0.547   4.175
 9291SOL     OW28771   1.040   5.160   5.831
 9291SOL    HW128772   1.054   5.168   5.930
 9291SOL    HW228773   0.997   5.072   5.811
 9292SOL     OW28774   2.080   1.790   6.132
 9292SOL    HW128775   1.988   1.763   6.103
 9292SOL    HW228776   2.126   1.711   6.172
 9293SOL     OW28777   5.195   3.026   4.693
 9293SOL    HW128778   5.174   3.112   4.739
 9293SOL    HW228779   5.146   2.951   4.737
 9294SOL     OW28780   4.368   1.131   0.039
 9294SOL    HW128781   4.332   1.106   6.971
 9294SOL    HW228782   4.403   1.049   0.085
 9295SOL     OW28783   0.378   1.150   5.101
 9295SOL    HW128784   0.371   1.167   5.003
 9295SOL    HW228785   0.350   1.232   5.151
 9296SOL     OW28786   1.538   4.781   0.356
 9296SOL    HW128787   1.566   4.687   0.339
 9296SOL    HW228788   1.615   4.843   0.342
 9297SOL     OW28789   5.892   5.922   2.586
 9297SOL    HW128790   5.816   5.982   2.560
 9297SOL    HW228791   5.943   5.963   2.662
 9298SOL     OW28792   1.303   5.494   6.204
 9298SOL    HW128793   1.328   5.457   6.294
 9298SOL    HW228794   1.211   5.464   6.180
 9299SOL     OW28795   2.058   2.201   4.879
 9299SOL    HW128796   2.021   2.140   4.809
 9299SOL    HW228797   2.121   2.149   4.938
 9300SOL     OW28798   1.370   5.461   5.752
 9300SOL    HW128799   1.410   5.414   5.831
 9300SOL    HW228800   1.377   5.559   5.764
 9301SOL     OW28801   0.043   4.086   4.932
 9301SOL    HW128802   0.063   4.044   5.021
 9301SOL    HW228803   0.110   4.158   4.913
 9302SOL     OW28804   2.066   3.674   5.186
 9302SOL    HW128805   2.115   3.742   5.240
 9302SOL    HW228806   2.131   3.613   5.141
 9303SOL     OW28807   2.146   4.787   0.706
 9303SOL    HW128808   2.071   4.791   0.772
 9303SOL    HW228809   2.231   4.817   0.750
 9304SOL     OW28810   4.783   5.250   0.403
 9304SOL    HW128811   4.782   5.221   0.498
 9304SOL    HW228812   4.698   5.297   0.381
 9305SOL     OW28813   1.959   1.928   1.475
 9305SOL    HW128814   1.898   2.003   1.447
 9305SOL    HW228815   2.053   1.951   1.449
 9306SOL     OW28816   6.714   5.325   4.691
 9306SOL    HW128817   6.658   5.249   4.723
 9306SOL    HW228818   6.804   5.320   4.735
 9307SOL     OW28819   2.556   3.071   1.587
 9307SOL    HW128820   2.650   3.087   1.556
 9307SOL    HW228821   2.554   2.990   1.645
 9308SOL     OW28822   2.124   3.726   2.128
 9308SOL    HW128823   2.170   3.805   2.089
 9308SOL    HW228824   2.153   3.643   2.080
 9309SOL     OW28825   5.302   5.481   6.205
 9309SOL    HW128826   5.366   5.537   6.152
 9309SOL    HW228827   5.251   5.539   6.268
 9310SOL     OW28828   5.604   6.203   6.946
 9310SOL    HW128829   5.521   6.258   6.934
 9310SOL    HW228830   5.667   6.220   6.870
 9311SOL     OW28831   4.382   3.608   1.341
 9311SOL    HW128832   4.425   3.539   1.283
 9311SOL    HW228833   4.415   3.598   1.434
 9312SOL     OW28834   0.714   2.521   2.177
 9312SOL    HW128835   0.690   2.425   2.194
 9312SOL    HW228836   0.703   2.541   2.080
 9313SOL     OW28837   0.550   6.427   2.633
 9313SOL    HW128838   0.633   6.471   2.600
 9313SOL    HW228839   0.491   6.494   2.677
 9314SOL     OW28840   5.007   3.121   0.249
 9314SOL    HW128841   4.954   3.176   0.185
 9314SOL    HW228842   4.991   3.024   0.231
 9315SOL     OW28843   5.681   1.136   6.146
 9315SOL    HW128844   5.590   1.176   6.158
 9315SOL    HW228845   5.690   1.057   6.208
 9316SOL     OW28846   4.237   0.730   5.401
 9316SOL    HW128847   4.314   0.710   5.462
 9316SOL    HW228848   4.270   0.734   5.306
 9317SOL     OW28849   3.980   6.433   3.392
 9317SOL    HW128850   4.023   6.432   3.483
 9317SOL    HW228851   4.040   6.387   3.327
 9318SOL     OW28852   4.615   6.784   1.092
 9318SOL    HW128853   4.691   6.744   1.041
 9318SOL    HW228854   4.546   6.817   1.027
 9319SOL     OW28855   2.485   3.797   6.806
 9319SOL    HW128856   2.432   3.778   6.889
 9319SOL    HW228857   2.475   3.894   6.782
 9320SOL     OW28858   6.392   6.283   6.650
 9320SOL    HW128859   6.340   6.288   6.736
 9320SOL    HW228860   6.469   6.221   6.663
 9321SOL     OW28861   0.675   3.670   4.707
 9321SOL    HW128862   0.636   3.602   4.646
 9321SOL    HW228863   0.680   3.759   4.661
 9322SOL     OW28864   6.069   3.578   5.832
 9322SOL    HW128865   6.035   3.514   5.902
 9322SOL    HW228866   5.995   3.601   5.770
 9323SOL     OW28867   1.430   2.380   4.905
 9323SOL    HW128868   1.495   2.363   4.831
 9323SOL    HW228869   1.403   2.476   4.904
 9324SOL     OW28870   0.596   4.511   1.655
 9324SOL    HW128871   0.526   4.463   1.603
 9324SOL    HW228872   0.561   4.600   1.684
 9325SOL     OW28873   1.031   5.062   2.785
 9325SOL    HW128874   1.089   5.010   2.848
 9325SOL    HW228875   1.074   5.150   2.766
 9326SOL     OW28876   4.214   4.704   1.210
 9326SOL    HW128877   4.126   4.682   1.168
 9326SOL    HW228878   4.201   4.775   1.279
 9327SOL     OW28879   4.368   0.262   4.182
 9327SOL    HW128880   4.270   0.247   4.194
 9327SOL    HW228881   4.399   0.214   4.100
 9328SOL     OW28882   2.685   0.012   4.771
 9328SOL    HW128883   2.776   6.997   4.790
 9328SOL    HW228884   2.655   7.003   4.681
 9329SOL     OW28885   0.200   5.544   6.395
 9329SOL    HW128886   0.285   5.592   6.417
 9329SOL    HW228887   0.216   5.445   6.400
 9330SOL     OW28888   5.898   5.423   6.782
 9330SOL    HW128889   5.817   5.480   6.796
 9330SOL    HW228890   5.967   5.446   6.850
 9331SOL     OW28891   1.491   2.942   4.717
 9331SOL    HW128892   1.427   2.929   4.793
 9331SOL    HW228893   1.517   3.039   4.713
 9332SOL     OW28894   4.770   5.392   0.834
 9332SOL    HW128895   4.847   5.331   0.854
 9332SOL    HW228896   4.794   5.451   0.756
 9333SOL     OW28897   3.814   4.901   0.713
 9333SOL    HW128898   3.729   4.946   0.687
 9333SOL    HW228899   3.847   4.844   0.638
 9334SOL     OW28900   5.693   6.035   5.580
 9334SOL    HW128901   5.675   5.986   5.495
 9334SOL    HW228902   5.609   6.041   5.633
 9335SOL     OW28903   1.900   2.976   1.484
 9335SOL    HW128904   1.852   3.047   1.433
 9335SOL    HW228905   1.879   2.984   1.582
 9336SOL     OW28906   6.427   6.666   5.392
 9336SOL    HW128907   6.379   6.596   5.445
 9336SOL    HW228908   6.525   6.656   5.406
 9337SOL     OW28909   2.624   0.351   6.702
 9337SOL    HW128910   2.644   0.283   6.773
 9337SOL    HW228911   2.629   0.443   6.741
 9338SOL     OW28912   5.897   0.049   7.020
 9338SOL    HW128913   5.993   0.074   7.006
 9338SOL    HW228914   5.838   0.127   7.001
 9339SOL     OW28915   6.414   4.291   5.485
 9339SOL    HW128916   6.443   4.380   5.451
 9339SOL    HW228917   6.478   4.220   5.454
 9340SOL     OW28918   4.204   5.688   1.922
 9340SOL    HW128919   4.213   5.747   1.842
 9340SOL    HW228920   4.286   5.696   1.979
 9341SOL     OW28921   5.076   3.633   6.780
 9341SOL    HW128922   5.159   3.649   6.833
 9341SOL    HW228923   5.051   3.716   6.730
 9342SOL     OW28924   2.938   0.484   4.164
 9342SOL    HW128925   3.023   0.512   4.210
 9342SOL    HW228926   2.885   0.565   4.140
 9343SOL     OW28927   4.735   4.660   1.682
 9343SOL    HW128928   4.649   4.710   1.686
 9343SOL    HW228929   4.719   4.564   1.707
 9344SOL     OW28930   5.594   5.579   4.964
 9344SOL    HW128931   5.684   5.622   4.965
 9344SOL    HW228932   5.595   5.500   4.902
 9345SOL     OW28933   0.219   6.417   1.533
 9345SOL    HW128934   0.297   6.479   1.530
 9345SOL    HW228935   0.229   6.348   1.462
 9346SOL     OW28936   6.009   6.304   0.990
 9346SOL    HW128937   5.992   6.400   1.007
 9346SOL    HW228938   6.057   6.263   1.068
 9347SOL     OW28939   3.591   5.259   0.822
 9347SOL    HW128940   3.555   5.311   0.745
 9347SOL    HW228941   3.601   5.163   0.796
 9348SOL     OW28942   1.755   5.801   1.599
 9348SOL    HW128943   1.672   5.752   1.572
 9348SOL    HW228944   1.730   5.892   1.633
 9349SOL     OW28945   6.249   5.582   1.708
 9349SOL    HW128946   6.198   5.639   1.645
 9349SOL    HW228947   6.213   5.488   1.705
 9350SOL     OW28948   6.978   0.513   5.415
 9350SOL    HW128949   0.014   0.566   5.477
 9350SOL    HW228950   6.885   0.550   5.417
 9351SOL     OW28951   3.174   1.512   6.476
 9351SOL    HW128952   3.109   1.517   6.401
 9351SOL    HW228953   3.150   1.580   6.545
 9352SOL     OW28954   3.681   2.113   6.455
 9352SOL    HW128955   3.602   2.084   6.509
 9352SOL    HW228956   3.738   2.033   6.434
 9353SOL     OW28957   1.588   3.336   1.048
 9353SOL    HW128958   1.667   3.319   0.989
 9353SOL    HW228959   1.601   3.288   1.135
 9354SOL     OW28960   4.952   2.209   1.209
 9354SOL    HW128961   4.910   2.256   1.287
 9354SOL    HW228962   4.960   2.273   1.132
 9355SOL     OW28963   6.634   0.053   3.476
 9355SOL    HW128964   6.566   0.094   3.536
 9355SOL    HW228965   6.588   7.018   3.408
 9356SOL     OW28966   4.190   4.709   2.388
 9356SOL    HW128967   4.257   4.635   2.397
 9356SOL    HW228968   4.159   4.715   2.293
 9357SOL     OW28969   2.872   2.545   1.267
 9357SOL    HW128970   2.946   2.525   1.331
 9357SOL    HW228971   2.786   2.554   1.318
 9358SOL     OW28972   6.525   4.624   2.153
 9358SOL    HW128973   6.519   4.610   2.252
 9358SOL    HW228974   6.433   4.642   2.117
 9359SOL     OW28975   6.827   4.007   5.801
 9359SOL    HW128976   6.915   4.050   5.782
 9359SOL    HW228977   6.754   4.075   5.792
 9360SOL     OW28978   2.382   1.003   6.611
 9360SOL    HW128979   2.310   1.072   6.603
 9360SOL    HW228980   2.471   1.048   6.603
 9361SOL     OW28981   2.693   6.326   2.524
 9361SOL    HW128982   2.641   6.242   2.510
 9361SOL    HW228983   2.666   6.394   2.456
 9362SOL     OW28984   2.375   1.236   2.701
 9362SOL    HW128985   2.311   1.312   2.707
 9362SOL    HW228986   2.440   1.253   2.627
 9363SOL     OW28987   3.479   6.240   2.643
 9363SOL    HW128988   3.424   6.315   2.606
 9363SOL    HW228989   3.477   6.163   2.579
 9364SOL     OW28990   4.465   3.042   0.210
 9364SOL    HW128991   4.461   2.972   0.281
 9364SOL    HW228992   4.536   3.109   0.233
 9365SOL     OW28993   2.225   2.074   5.084
 9365SOL    HW128994   2.263   2.039   5.170
 9365SOL    HW228995   2.297   2.078   5.015
 9366SOL     OW28996   2.980   1.726   0.439
 9366SOL    HW128997   2.986   1.825   0.431
 9366SOL    HW228998   2.910   1.701   0.505
 9367SOL     OW28999   6.489   5.767   2.854
 9367SOL    HW129000   6.549   5.843   2.877
 9367SOL    HW229001   6.531   5.681   2.883
 9368SOL     OW29002   2.888   1.881   1.714
 9368SOL    HW129003   2.957   1.943   1.678
 9368SOL    HW229004   2.918   1.848   1.804
 9369SOL     OW29005   0.242   2.324   4.765
 9369SOL    HW129006   0.252   2.233   4.805
 9369SOL    HW229007   0.153   2.331   4.720
 9370SOL     OW29008   6.323   0.568   2.404
 9370SOL    HW129009   6.283   0.624   2.476
 9370SOL    HW229010   6.280   0.477   2.405
 9371SOL     OW29011   0.659   6.329   0.505
 9371SOL    HW129012   0.730   6.263   0.531
 9371SOL    HW229013   0.607   6.356   0.586
 9372SOL     OW29014   5.732   6.711   3.941
 9372SOL    HW129015   5.656   6.650   3.922
 9372SOL    HW229016   5.732   6.786   3.874
 9373SOL     OW29017   4.209   1.823   3.013
 9373SOL    HW129018   4.129   1.833   2.954
 9373SOL    HW229019   4.268   1.903   3.003
 9374SOL     OW29020   5.283   2.793   0.494
 9374SOL    HW129021   5.311   2.704   0.530
 9374SOL    HW229022   5.184   2.805   0.507
 9375SOL     OW29023   0.317   1.234   2.983
 9375SOL    HW129024   0.318   1.320   2.933
 9375SOL    HW229025   0.265   1.245   3.068
 9376SOL     OW29026   2.605   3.970   0.292
 9376SOL    HW129027   2.565   4.027   0.219
 9376SOL    HW229028   2.533   3.915   0.334
 9377SOL     OW29029   6.426   5.799   3.583
 9377SOL    HW129030   6.523   5.794   3.559
 9377SOL    HW229031   6.403   5.892   3.612
 9378SOL     OW29032   2.053   0.168   6.821
 9378SOL    HW129033   1.955   0.148   6.828
 9378SOL    HW229034   2.078   0.176   6.724
 9379SOL     OW29035   4.891   5.218   3.667
 9379SOL    HW129036   4.936   5.298   3.628
 9379SOL    HW229037   4.809   5.247   3.716
 9380SOL     OW29038   6.316   6.640   5.947
 9380SOL    HW129039   6.316   6.712   5.878
 9380SOL    HW229040   6.400   6.647   6.002
 9381SOL     OW29041   2.752   2.238   5.624
 9381SOL    HW129042   2.709   2.322   5.592
 9381SOL    HW229043   2.784   2.184   5.546
 9382SOL     OW29044   3.922   1.270   2.233
 9382SOL    HW129045   3.912   1.236   2.327
 9382SOL    HW229046   3.905   1.369   2.232
 9383SOL     OW29047   3.797   6.514   4.183
 9383SOL    HW129048   3.705   6.551   4.176
 9383SOL    HW229049   3.792   6.418   4.211
 9384SOL     OW29050   5.081   6.576   2.520
 9384SOL    HW129051   5.162   6.530   2.555
 9384SOL    HW229052   5.063   6.546   2.427
 9385SOL     OW29053   4.210   0.925   3.692
 9385SOL    HW129054   4.138   0.976   3.645
 9385SOL    HW229055   4.294   0.927   3.637
 9386SOL     OW29056   3.121   6.810   5.743
 9386SOL    HW129057   3.058   6.877   5.782
 9386SOL    HW229058   3.145   6.837   5.650
 9387SOL     OW29059   3.086   6.513   1.665
 9387SOL    HW129060   3.147   6.439   1.692
 9387SOL    HW229061   3.007   6.475   1.616
 9388SOL     OW29062   0.274   0.404   2.707
 9388SOL    HW129063   0.207   0.476   2.721
 9388SOL    HW229064   0.318   0.381   2.794
 9389SOL     OW29065   2.377   1.069   5.623
 9389SOL    HW129066   2.326   1.009   5.562
 9389SOL    HW229067   2.354   1.049   5.718
 9390SOL     OW29068   3.158   5.570   2.440
 9390SOL    HW129069   3.156   5.620   2.527
 9390SOL    HW229070   3.218   5.618   2.376
 9391SOL     OW29071   1.069   1.660   5.786
 9391SOL    HW129072   0.994   1.696   5.731
 9391SOL    HW229073   1.079   1.562   5.767
 9392SOL     OW29074   1.748   6.812   4.633
 9392SOL    HW129075   1.723   6.755   4.554
 9392SOL    HW229076   1.776   6.903   4.601
 9393SOL     OW29077   3.678   2.160   5.241
 9393SOL    HW129078   3.636   2.183   5.329
 9393SOL    HW229079   3.612   2.177   5.168
 9394SOL     OW29080   6.383   2.897   2.978
 9394SOL    HW129081   6.449   2.932   2.911
 9394SOL    HW229082   6.351   2.807   2.948
 9395SOL     OW29083   2.553   3.405   0.558
 9395SOL    HW129084   2.609   3.336   0.605
 9395SOL    HW229085   2.485   3.359   0.500
 9396SOL     OW29086   6.225   6.876   5.781
 9396SOL    HW129087   6.310   6.927   5.767
 9396SOL    HW229088   6.151   6.918   5.729
 9397SOL     OW29089   2.026   0.450   0.015
 9397SOL    HW129090   1.976   0.395   6.970
 9397SOL    HW229091   2.124   0.429   0.009
 9398SOL     OW29092   2.946   1.361   6.937
 9398SOL    HW129093   2.959   1.374   0.012
 9398SOL    HW229094   2.985   1.439   6.887
 9399SOL     OW29095   6.490   1.592   6.075
 9399SOL    HW129096   6.546   1.556   6.150
 9399SOL    HW229097   6.393   1.586   6.100
 9400SOL     OW29098   5.136   3.491   1.742
 9400SOL    HW129099   5.142   3.397   1.775
 9400SOL    HW229100   5.188   3.551   1.803
 9401SOL     OW29101   2.938   6.046   3.774
 9401SOL    HW129102   2.952   5.966   3.834
 9401SOL    HW229103   3.024   6.096   3.765
 9402SOL     OW29104   2.596   5.111   6.533
 9402SOL    HW129105   2.676   5.091   6.475
 9402SOL    HW229106   2.518   5.057   6.500
 9403SOL     OW29107   5.485   1.467   3.563
 9403SOL    HW129108   5.475   1.488   3.466
 9403SOL    HW229109   5.412   1.512   3.615
 9404SOL     OW29110   0.772   5.194   6.973
 9404SOL    HW129111   0.838   5.186   0.025
 9404SOL    HW229112   0.770   5.289   6.940
 9405SOL     OW29113   6.022   6.665   1.828
 9405SOL    HW129114   5.965   6.584   1.816
 9405SOL    HW229115   5.974   6.745   1.791
 9406SOL     OW29116   0.132   2.287   5.292
 9406SOL    HW129117   0.198   2.319   5.224
 9406SOL    HW229118   0.057   2.353   5.299
 9407SOL     OW29119   3.430   5.890   3.541
 9407SOL    HW129120   3.398   5.822   3.607
 9407SOL    HW229121   3.515   5.931   3.574
 9408SOL     OW29122   3.731   1.903   7.006
 9408SOL    HW129123   3.795   1.834   0.017
 9408SOL    HW229124   3.754   1.927   6.911
 9409SOL     OW29125   5.564   3.602   3.883
 9409SOL    HW129126   5.469   3.579   3.905
 9409SOL    HW229127   5.594   3.549   3.805
 9410SOL     OW29128   4.350   6.188   2.304
 9410SOL    HW129129   4.373   6.165   2.210
 9410SOL    HW229130   4.251   6.185   2.317
 9411SOL     OW29131   4.580   5.633   0.655
 9411SOL    HW129132   4.637   5.681   0.722
 9411SOL    HW229133   4.575   5.687   0.571
 9412SOL     OW29134   0.480   2.911   1.084
 9412SOL    HW129135   0.488   2.962   0.999
 9412SOL    HW229136   0.548   2.837   1.085
 9413SOL     OW29137   4.472   5.822   5.249
 9413SOL    HW129138   4.540   5.888   5.216
 9413SOL    HW229139   4.513   5.764   5.319
 9414SOL     OW29140   3.087   1.594   2.518
 9414SOL    HW129141   3.179   1.620   2.488
 9414SOL    HW229142   3.074   1.496   2.506
 9415SOL     OW29143   1.973   6.317   2.436
 9415SOL    HW129144   2.000   6.413   2.430
 9415SOL    HW229145   1.874   6.310   2.434
 9416SOL     OW29146   1.334   1.850   1.985
 9416SOL    HW129147   1.311   1.902   2.068
 9416SOL    HW229148   1.295   1.758   1.993
 9417SOL     OW29149   2.501   5.871   5.396
 9417SOL    HW129150   2.482   5.950   5.455
 9417SOL    HW229151   2.419   5.816   5.386
 9418SOL     OW29152   2.094   5.506   1.819
 9418SOL    HW129153   2.181   5.528   1.776
 9418SOL    HW229154   2.110   5.458   1.905
 9419SOL     OW29155   2.678   6.461   4.983
 9419SOL    HW129156   2.729   6.547   4.985
 9419SOL    HW229157   2.581   6.481   4.971
 9420SOL     OW29158   6.415   1.467   4.889
 9420SOL    HW129159   6.479   1.513   4.950
 9420SOL    HW229160   6.465   1.423   4.815
 9421SOL     OW29161   1.478   4.431   5.375
 9421SOL    HW129162   1.510   4.354   5.430
 9421SOL    HW229163   1.458   4.508   5.435
 9422SOL     OW29164   5.686   0.202   2.222
 9422SOL    HW129165   5.778   0.163   2.213
 9422SOL    HW229166   5.639   0.158   2.299
 9423SOL     OW29167   4.106   1.148   3.552
 9423SOL    HW129168   4.091   1.101   3.465
 9423SOL    HW229169   4.024   1.140   3.609
 9424SOL     OW29170   4.335   0.414   5.578
 9424SOL    HW129171   4.359   0.352   5.504
 9424SOL    HW229172   4.252   0.465   5.554
 9425SOL     OW29173   0.700   3.908   5.320
 9425SOL    HW129174   0.699   3.810   5.297
 9425SOL    HW229175   0.786   3.929   5.367
 9426SOL     OW29176   2.918   0.458   6.865
 9426SOL    HW129177   2.918   0.398   6.786
 9426SOL    HW229178   2.839   0.519   6.861
 9427SOL     OW29179   2.729   5.246   5.263
 9427SOL    HW129180   2.744   5.236   5.164
 9427SOL    HW229181   2.815   5.229   5.312
 9428SOL     OW29182   5.788   0.336   2.872
 9428SOL    HW129183   5.789   0.436   2.862
 9428SOL    HW229184   5.766   0.313   2.966
 9429SOL     OW29185   1.295   4.274   1.824
 9429SOL    HW129186   1.357   4.216   1.876
 9429SOL    HW229187   1.284   4.237   1.731
 9430SOL     OW29188   6.826   6.518   1.762
 9430SOL    HW129189   6.850   6.603   1.714
 9430SOL    HW229190   6.837   6.532   1.861
 9431SOL     OW29191   6.391   3.633   6.718
 9431SOL    HW129192   6.484   3.633   6.680
 9431SOL    HW229193   6.391   3.683   6.804
 9432SOL     OW29194   5.883   0.106   3.326
 9432SOL    HW129195   5.969   0.059   3.344
 9432SOL    HW229196   5.882   0.194   3.373
 9433SOL     OW29197   3.270   4.901   5.178
 9433SOL    HW129198   3.297   4.977   5.237
 9433SOL    HW229199   3.202   4.845   5.224
 9434SOL     OW29200   5.707   3.751   2.825
 9434SOL    HW129201   5.655   3.684   2.877
 9434SOL    HW229202   5.757   3.811   2.887
 9435SOL     OW29203   1.824   1.601   4.073
 9435SOL    HW129204   1.765   1.670   4.116
 9435SOL    HW229205   1.860   1.540   4.144
 9436SOL     OW29206   2.158   4.007   0.631
 9436SOL    HW129207   2.058   4.011   0.630
 9436SOL    HW229208   2.194   4.035   0.542
 9437SOL     OW29209   1.228   5.110   3.012
 9437SOL    HW129210   1.236   5.191   2.954
 9437SOL    HW229211   1.150   5.121   3.074
 9438SOL     OW29212   0.364   6.597   2.386
 9438SOL    HW129213   0.355   6.534   2.309
 9438SOL    HW229214   0.388   6.545   2.468
 9439SOL     OW29215   0.065   3.669   1.753
 9439SOL    HW129216   0.107   3.623   1.831
 9439SOL    HW229217   0.060   3.767   1.771
 9440SOL     OW29218   4.989   6.355   4.796
 9440SOL    HW129219   5.009   6.316   4.886
 9440SOL    HW229220   4.891   6.363   4.784
 9441SOL     OW29221   1.604   5.266   4.878
 9441SOL    HW129222   1.676   5.200   4.897
 9441SOL    HW229223   1.520   5.237   4.923
 9442SOL     OW29224   6.916   2.391   6.987
 9442SOL    HW129225   6.967   2.316   0.007
 9442SOL    HW229226   6.818   2.374   6.995
 9443SOL     OW29227   1.789   4.768   1.292
 9443SOL    HW129228   1.707   4.793   1.345
 9443SOL    HW229229   1.843   4.702   1.344
 9444SOL     OW29230   0.763   2.909   0.182
 9444SOL    HW129231   0.736   2.969   0.258
 9444SOL    HW229232   0.835   2.847   0.213
 9445SOL     OW29233   5.380   3.825   2.250
 9445SOL    HW129234   5.287   3.856   2.227
 9445SOL    HW229235   5.426   3.793   2.167
 9446SOL     OW29236   6.435   6.134   2.590
 9446SOL    HW129237   6.401   6.107   2.500
 9446SOL    HW229238   6.518   6.083   2.611
 9447SOL     OW29239   5.126   3.939   2.234
 9447SOL    HW129240   5.053   3.975   2.177
 9447SOL    HW229241   5.160   4.012   2.294
 9448SOL     OW29242   5.558   6.176   6.135
 9448SOL    HW129243   5.654   6.155   6.152
 9448SOL    HW229244   5.505   6.155   6.217
 9449SOL     OW29245   6.398   5.573   5.235
 9449SOL    HW129246   6.496   5.587   5.247
 9449SOL    HW229247   6.382   5.513   5.157
 9450SOL     OW29248   2.182   5.127   4.625
 9450SOL    HW129249   2.263   5.137   4.568
 9450SOL    HW229250   2.204   5.074   4.707
 9451SOL     OW29251   5.125   5.383   6.568
 9451SOL    HW129252   5.209   5.330   6.556
 9451SOL    HW229253   5.050   5.337   6.519
 9452SOL     OW29254   2.511   3.781   0.739
 9452SOL    HW129255   2.523   3.879   0.729
 9452SOL    HW229256   2.420   3.755   0.706
 9453SOL     OW29257   2.045   4.771   3.154
 9453SOL    HW129258   2.113   4.701   3.180
 9453SOL    HW229259   1.975   4.729   3.097
 9454SOL     OW29260   1.548   4.414   6.364
 9454SOL    HW129261   1.521   4.318   6.374
 9454SOL    HW229262   1.588   4.446   6.450
 9455SOL     OW29263   3.408   1.282   2.977
 9455SOL    HW129264   3.477   1.287   3.050
 9455SOL    HW229265   3.437   1.338   2.900
 9456SOL     OW29266   0.943   3.934   0.776
 9456SOL    HW129267   0.872   3.919   0.846
 9456SOL    HW229268   0.913   3.893   0.690
 9457SOL     OW29269   1.931   3.260   6.747
 9457SOL    HW129270   1.883   3.296   6.666
 9457SOL    HW229271   1.911   3.318   6.826
 9458SOL     OW29272   6.856   4.962   6.080
 9458SOL    HW129273   6.829   5.036   6.018
 9458SOL    HW229274   6.950   4.975   6.109
 9459SOL     OW29275   6.023   5.158   1.986
 9459SOL    HW129276   6.032   5.231   2.054
 9459SOL    HW229277   6.015   5.199   1.894
 9460SOL     OW29278   0.515   2.613   4.870
 9460SOL    HW129279   0.553   2.592   4.780
 9460SOL    HW229280   0.423   2.573   4.877
 9461SOL     OW29281   0.508   1.092   3.301
 9461SOL    HW129282   0.604   1.108   3.276
 9461SOL    HW229283   0.460   1.051   3.224
 9462SOL     OW29284   1.538   2.871   2.745
 9462SOL    HW129285   1.584   2.855   2.658
 9462SOL    HW229286   1.568   2.958   2.784
 9463SOL     OW29287   6.893   1.007   1.084
 9463SOL    HW129288   6.968   1.073   1.077
 9463SOL    HW229289   6.906   0.935   1.016
 9464SOL     OW29290   5.756   6.630   6.333
 9464SOL    HW129291   5.787   6.695   6.403
 9464SOL    HW229292   5.834   6.602   6.277
 9465SOL     OW29293   6.680   0.856   3.298
 9465SOL    HW129294   6.755   0.834   3.236
 9465SOL    HW229295   6.630   0.772   3.321
 9466SOL     OW29296   2.441   3.317   5.546
 9466SOL    HW129297   2.503   3.274   5.481
 9466SOL    HW229298   2.442   3.265   5.632
 9467SOL     OW29299   1.953   2.392   2.059
 9467SOL    HW129300   1.875   2.334   2.034
 9467SOL    HW229301   2.020   2.337   2.109
 9468SOL     OW29302   6.449   3.053   6.091
 9468SOL    HW129303   6.497   3.119   6.032
 9468SOL    HW229304   6.358   3.036   6.054
 9469SOL     OW29305   6.432   5.908   1.871
 9469SOL    HW129306   6.436   5.914   1.771
 9469SOL    HW229307   6.411   5.998   1.908
 9470SOL     OW29308   4.871   3.219   0.035
 9470SOL    HW129309   4.917   3.282   6.996
 9470SOL    HW229310   4.798   3.171   7.008
 9471SOL     OW29311   6.629   2.827   5.668
 9471SOL    HW129312   6.566   2.896   5.634
 9471SOL    HW229313   6.723   2.856   5.651
 9472SOL     OW29314   6.441   4.603   4.353
 9472SOL    HW129315   6.528   4.579   4.395
 9472SOL    HW229316   6.447   4.586   4.254
 9473SOL     OW29317   3.246   6.268   6.316
 9473SOL    HW129318   3.336   6.301   6.342
 9473SOL    HW229319   3.192   6.249   6.398
 9474SOL     OW29320   5.561   4.386   2.147
 9474SOL    HW129321   5.552   4.366   2.049
 9474SOL    HW229322   5.483   4.347   2.196
 9475SOL     OW29323   3.174   3.521   1.096
 9475SOL    HW129324   3.200   3.437   1.143
 9475SOL    HW229325   3.081   3.547   1.125
 9476SOL     OW29326   4.041   3.184   5.508
 9476SOL    HW129327   4.060   3.130   5.426
 9476SOL    HW229328   4.126   3.225   5.542
 9477SOL     OW29329   1.368   2.475   0.938
 9477SOL    HW129330   1.347   2.445   1.031
 9477SOL    HW229331   1.290   2.457   0.878
 9478SOL     OW29332   5.235   4.178   5.453
 9478SOL    HW129333   5.163   4.207   5.390
 9478SOL    HW229334   5.305   4.250   5.459
 9479SOL     OW29335   5.656   5.193   6.558
 9479SOL    HW129336   5.742   5.239   6.535
 9479SOL    HW229337   5.630   5.218   6.651
 9480SOL     OW29338   4.612   4.273   6.868
 9480SOL    HW129339   4.641   4.303   6.777
 9480SOL    HW229340   4.595   4.175   6.867
 9481SOL     OW29341   0.048   3.967   1.777
 9481SOL    HW129342   0.129   3.986   1.831
 9481SOL    HW229343   0.062   3.999   1.683
 9482SOL     OW29344   5.135   0.919   3.140
 9482SOL    HW129345   5.115   1.000   3.084
 9482SOL    HW229346   5.229   0.890   3.123
 9483SOL     OW29347   1.606   1.806   0.840
 9483SOL    HW129348   1.515   1.845   0.822
 9483SOL    HW229349   1.676   1.874   0.818
 9484SOL     OW29350   5.971   1.122   3.640
 9484SOL    HW129351   6.042   1.132   3.710
 9484SOL    HW229352   5.951   1.211   3.600
 9485SOL     OW29353   1.113   0.818   1.947
 9485SOL    HW129354   1.187   0.804   1.882
 9485SOL    HW229355   1.132   0.768   2.031
 9486SOL     OW29356   2.187   5.709   0.567
 9486SOL    HW129357   2.161   5.635   0.505
 9486SOL    HW229358   2.269   5.683   0.618
 9487SOL     OW29359   3.563   4.151   3.505
 9487SOL    HW129360   3.584   4.249   3.511
 9487SOL    HW229361   3.542   4.116   3.596
 9488SOL     OW29362   1.888   5.958   1.291
 9488SOL    HW129363   1.898   5.917   1.381
 9488SOL    HW229364   1.952   6.034   1.282
 9489SOL     OW29365   3.920   4.353   1.338
 9489SOL    HW129366   3.825   4.322   1.343
 9489SOL    HW229367   3.979   4.274   1.318
 9490SOL     OW29368   5.160   0.469   0.894
 9490SOL    HW129369   5.248   0.424   0.913
 9490SOL    HW229370   5.097   0.451   0.969
 9491SOL     OW29371   6.555   4.994   4.186
 9491SOL    HW129372   6.648   4.966   4.207
 9491SOL    HW229373   6.490   4.939   4.239
 9492SOL     OW29374   3.205   3.753   2.151
 9492SOL    HW129375   3.140   3.795   2.215
 9492SOL    HW229376   3.165   3.751   2.060
 9493SOL     OW29377   4.908   5.413   3.429
 9493SOL    HW129378   4.990   5.364   3.400
 9493SOL    HW229379   4.934   5.496   3.478
 9494SOL     OW29380   4.685   3.334   0.213
 9494SOL    HW129381   4.652   3.273   0.284
 9494SOL    HW229382   4.757   3.288   0.161
 9495SOL     OW29383   6.259   2.299   3.853
 9495SOL    HW129384   6.282   2.203   3.834
 9495SOL    HW229385   6.167   2.304   3.891
 9496SOL     OW29386   5.434   3.802   6.354
 9496SOL    HW129387   5.529   3.809   6.322
 9496SOL    HW229388   5.404   3.891   6.388
 9497SOL     OW29389   5.114   4.641   1.106
 9497SOL    HW129390   5.065   4.591   1.035
 9497SOL    HW229391   5.060   4.721   1.134
 9498SOL     OW29392   3.756   6.670   5.217
 9498SOL    HW129393   3.690   6.691   5.290
 9498SOL    HW229394   3.848   6.697   5.246
 9499SOL     OW29395   2.916   3.872   5.658
 9499SOL    HW129396   2.836   3.932   5.651
 9499SOL    HW229397   2.999   3.927   5.645
 9500SOL     OW29398   4.561   6.312   1.511
 9500SOL    HW129399   4.607   6.386   1.462
 9500SOL    HW229400   4.509   6.257   1.447
 9501SOL     OW29401   3.576   1.600   4.373
 9501SOL    HW129402   3.532   1.688   4.356
 9501SOL    HW229403   3.618   1.601   4.464
 9502SOL     OW29404   6.588   2.633   4.795
 9502SOL    HW129405   6.530   2.690   4.737
 9502SOL    HW229406   6.535   2.557   4.832
 9503SOL     OW29407   0.503   0.840   1.956
 9503SOL    HW129408   0.443   0.792   2.019
 9503SOL    HW229409   0.537   0.776   1.886
 9504SOL     OW29410   0.251   2.833   0.601
 9504SOL    HW129411   0.206   2.851   0.689
 9504SOL    HW229412   0.200   2.763   0.551
 9505SOL     OW29413   6.128   3.514   3.112
 9505SOL    HW129414   6.170   3.437   3.065
 9505SOL    HW229415   6.191   3.591   3.114
 9506SOL     OW29416   0.308   3.203   6.911
 9506SOL    HW129417   0.261   3.124   6.950
 9506SOL    HW229418   0.380   3.172   6.848
 9507SOL     OW29419   1.584   0.968   4.261
 9507SOL    HW129420   1.664   0.996   4.207
 9507SOL    HW229421   1.577   1.026   4.341
 9508SOL     OW29422   5.429   1.901   0.414
 9508SOL    HW129423   5.362   1.826   0.416
 9508SOL    HW229424   5.394   1.978   0.467
 9509SOL     OW29425   1.590   6.684   5.387
 9509SOL    HW129426   1.546   6.633   5.313
 9509SOL    HW229427   1.545   6.663   5.474
 9510SOL     OW29428   6.782   4.295   2.256
 9510SOL    HW129429   6.869   4.278   2.208
 9510SOL    HW229430   6.747   4.209   2.292
 9511SOL     OW29431   0.735   2.510   0.233
 9511SOL    HW129432   0.658   2.525   0.170
 9511SOL    HW229433   0.728   2.419   0.274
 9512SOL     OW29434   6.953   2.247   3.797
 9512SOL    HW129435   0.004   2.234   3.864
 9512SOL    HW229436   6.902   2.330   3.819
 9513SOL     OW29437   2.031   4.042   4.656
 9513SOL    HW129438   1.943   4.075   4.692
 9513SOL    HW229439   2.067   4.108   4.590
 9514SOL     OW29440   1.760   3.766   6.446
 9514SOL    HW129441   1.859   3.771   6.435
 9514SOL    HW229442   1.720   3.708   6.375
 9515SOL     OW29443   1.402   6.273   6.872
 9515SOL    HW129444   1.496   6.272   6.907
 9515SOL    HW229445   1.383   6.363   6.832
 9516SOL     OW29446   5.014   3.470   4.203
 9516SOL    HW129447   5.028   3.375   4.174
 9516SOL    HW229448   4.971   3.471   4.293
 9517SOL     OW29449   0.967   5.334   1.315
 9517SOL    HW129450   0.934   5.311   1.223
 9517SOL    HW229451   1.054   5.384   1.307
 9518SOL     OW29452   0.951   2.912   5.626
 9518SOL    HW129453   0.925   2.817   5.611
 9518SOL    HW229454   1.040   2.915   5.672
 9519SOL     OW29455   2.870   3.464   3.037
 9519SOL    HW129456   2.893   3.456   2.940
 9519SOL    HW229457   2.775   3.438   3.051
 9520SOL     OW29458   6.702   1.267   4.966
 9520SOL    HW129459   6.798   1.250   4.945
 9520SOL    HW229460   6.657   1.305   4.885
 9521SOL     OW29461   3.261   5.916   1.658
 9521SOL    HW129462   3.171   5.874   1.644
 9521SOL    HW229463   3.331   5.860   1.614
 9522SOL     OW29464   4.181   5.095   2.133
 9522SOL    HW129465   4.226   5.183   2.151
 9522SOL    HW229466   4.246   5.021   2.150
 9523SOL     OW29467   2.541   5.288   4.791
 9523SOL    HW129468   2.535   5.231   4.873
 9523SOL    HW229469   2.637   5.314   4.777
 9524SOL     OW29470   1.254   3.745   1.211
 9524SOL    HW129471   1.352   3.761   1.201
 9524SOL    HW229472   1.208   3.765   1.124
 9525SOL     OW29473   1.672   2.458   5.715
 9525SOL    HW129474   1.579   2.432   5.741
 9525SOL    HW229475   1.683   2.448   5.616
 9526SOL     OW29476   5.582   5.168   0.091
 9526SOL    HW129477   5.658   5.130   0.038
 9526SOL    HW229478   5.519   5.095   0.116
 9527SOL     OW29479   2.620   6.870   4.011
 9527SOL    HW129480   2.666   6.824   3.934
 9527SOL    HW229481   2.669   6.850   4.095
 9528SOL     OW29482   6.362   0.677   0.810
 9528SOL    HW129483   6.357   0.696   0.712
 9528SOL    HW229484   6.271   0.683   0.850
 9529SOL     OW29485   5.994   3.152   1.489
 9529SOL    HW129486   5.998   3.243   1.448
 9529SOL    HW229487   6.087   3.117   1.501
 9530SOL     OW29488   1.292   5.805   4.612
 9530SOL    HW129489   1.232   5.873   4.655
 9530SOL    HW229490   1.249   5.769   4.530
 9531SOL     OW29491   4.494   4.722   3.264
 9531SOL    HW129492   4.415   4.708   3.204
 9531SOL    HW229493   4.464   4.765   3.349
 9532SOL     OW29494   6.269   4.891   1.869
 9532SOL    HW129495   6.343   4.935   1.818
 9532SOL    HW229496   6.253   4.940   1.955
 9533SOL     OW29497   1.197   5.701   4.384
 9533SOL    HW129498   1.186   5.602   4.388
 9533SOL    HW229499   1.112   5.743   4.352
 9534SOL     OW29500   6.339   4.852   4.331
 9534SOL    HW129501   6.383   4.764   4.352
 9534SOL    HW229502   6.331   4.905   4.415
 9535SOL     OW29503   1.928   1.514   5.840
 9535SOL    HW129504   1.857   1.464   5.791
 9535SOL    HW229505   2.017   1.472   5.823
 9536SOL     OW29506   3.559   2.942   5.021
 9536SOL    HW129507   3.477   2.924   5.076
 9536SOL    HW229508   3.531   2.974   4.931
 9537SOL     OW29509   2.121   1.942   4.267
 9537SOL    HW129510   2.206   1.994   4.271
 9537SOL    HW229511   2.131   1.858   4.321
 9538SOL     OW29512   3.750   1.111   4.092
 9538SOL    HW129513   3.690   1.132   4.170
 9538SOL    HW229514   3.694   1.094   4.011
 9539SOL     OW29515   3.250   2.972   3.919
 9539SOL    HW129516   3.155   2.997   3.940
 9539SOL    HW229517   3.309   3.001   3.995
 9540SOL     OW29518   5.087   5.050   4.039
 9540SOL    HW129519   4.991   5.030   4.016
 9540SOL    HW229520   5.128   4.969   4.082
 9541SOL     OW29521   1.125   0.602   5.396
 9541SOL    HW129522   1.151   0.685   5.346
 9541SOL    HW229523   1.051   0.624   5.459
 9542SOL     OW29524   5.614   4.767   4.175
 9542SOL    HW129525   5.592   4.864   4.188
 9542SOL    HW229526   5.634   4.726   4.264
 9543SOL     OW29527   3.468   6.998   6.138
 9543SOL    HW129528   3.543   6.946   6.097
 9543SOL    HW229529   3.484   7.006   6.237
 9544SOL     OW29530   4.798   3.930   3.987
 9544SOL    HW129531   4.759   4.021   3.973
 9544SOL    HW229532   4.870   3.914   3.920
 9545SOL     OW29533   0.915   4.944   1.803
 9545SOL    HW129534   1.013   4.957   1.814
 9545SOL    HW229535   0.869   5.033   1.804
 9546SOL     OW29536   3.120   1.633   5.961
 9546SOL    HW129537   3.199   1.658   6.018
 9546SOL    HW229538   3.052   1.707   5.964
 9547SOL     OW29539   3.501   5.637   4.362
 9547SOL    HW129540   3.579   5.601   4.311
 9547SOL    HW229541   3.469   5.569   4.428
 9548SOL     OW29542   0.832   5.450   5.494
 9548SOL    HW129543   0.858   5.443   5.591
 9548SOL    HW229544   0.889   5.388   5.440
 9549SOL     OW29545   3.827   1.061   2.412
 9549SOL    HW129546   3.752   0.995   2.407
 9549SOL    HW229547   3.797   1.141   2.465
 9550SOL     OW29548   6.144   2.437   1.269
 9550SOL    HW129549   6.220   2.485   1.226
 9550SOL    HW229550   6.061   2.491   1.262
 9551SOL     OW29551   5.986   2.783   6.092
 9551SOL    HW129552   5.971   2.743   6.183
 9551SOL    HW229553   5.981   2.711   6.023
 9552SOL     OW29554   2.437   0.725   6.640
 9552SOL    HW129555   2.479   0.692   6.555
 9552SOL    HW229556   2.456   0.822   6.652
 9553SOL     OW29557   5.147   1.643   0.668
 9553SOL    HW129558   5.186   1.654   0.759
 9553SOL    HW229559   5.088   1.563   0.666
 9554SOL     OW29560   2.415   6.581   3.755
 9554SOL    HW129561   2.425   6.585   3.854
 9554SOL    HW229562   2.426   6.487   3.724
 9555SOL     OW29563   6.722   1.693   3.687
 9555SOL    HW129564   6.817   1.686   3.657
 9555SOL    HW229565   6.713   1.653   3.778
 9556SOL     OW29566   1.354   4.525   1.386
 9556SOL    HW129567   1.278   4.460   1.391
 9556SOL    HW229568   1.427   4.486   1.330
 9557SOL     OW29569   4.772   0.152   1.941
 9557SOL    HW129570   4.756   0.089   2.017
 9557SOL    HW229571   4.863   0.134   1.902
 9558SOL     OW29572   5.664   6.354   5.418
 9558SOL    HW129573   5.577   6.394   5.388
 9558SOL    HW229574   5.701   6.408   5.494
 9559SOL     OW29575   1.482   3.700   6.832
 9559SOL    HW129576   1.526   3.621   6.876
 9559SOL    HW229577   1.480   3.687   6.733
 9560SOL     OW29578   3.391   0.909   2.413
 9560SOL    HW129579   3.400   1.004   2.382
 9560SOL    HW229580   3.306   0.898   2.463
 9561SOL     OW29581   0.507   0.322   1.660
 9561SOL    HW129582   0.547   0.408   1.629
 9561SOL    HW229583   0.452   0.338   1.741
 9562SOL     OW29584   3.429   5.906   4.384
 9562SOL    HW129585   3.335   5.914   4.350
 9562SOL    HW229586   3.451   5.809   4.397
 9563SOL     OW29587   0.343   6.560   0.657
 9563SOL    HW129588   0.386   6.626   0.596
 9563SOL    HW229589   0.411   6.523   0.720
 9564SOL     OW29590   1.813   1.021   1.216
 9564SOL    HW129591   1.895   0.983   1.260
 9564SOL    HW229592   1.834   1.112   1.179
 9565SOL     OW29593   2.961   1.338   4.338
 9565SOL    HW129594   2.885   1.389   4.298
 9565SOL    HW229595   2.940   1.240   4.336
 9566SOL     OW29596   2.531   6.227   0.757
 9566SOL    HW129597   2.534   6.127   0.757
 9566SOL    HW229598   2.591   6.262   0.685
 9567SOL     OW29599   6.059   4.131   0.321
 9567SOL    HW129600   6.145   4.086   0.295
 9567SOL    HW229601   6.037   4.202   0.254
 9568SOL     OW29602   3.805   1.267   0.816
 9568SOL    HW129603   3.893   1.267   0.769
 9568SOL    HW229604   3.733   1.240   0.752
 9569SOL     OW29605   0.092   0.885   2.422
 9569SOL    HW129606   0.014   0.822   2.419
 9569SOL    HW229607   0.167   0.843   2.472
 9570SOL     OW29608   0.710   2.722   1.076
 9570SOL    HW129609   0.722   2.637   1.025
 9570SOL    HW229610   0.770   2.792   1.038
 9571SOL     OW29611   2.183   2.536   5.957
 9571SOL    HW129612   2.210   2.542   5.861
 9571SOL    HW229613   2.085   2.514   5.962
 9572SOL     OW29614   2.264   4.198   2.889
 9572SOL    HW129615   2.232   4.107   2.865
 9572SOL    HW229616   2.276   4.253   2.806
 9573SOL     OW29617   6.118   1.000   5.551
 9573SOL    HW129618   6.132   1.088   5.597
 9573SOL    HW229619   6.025   0.995   5.516
 9574SOL     OW29620   3.898   3.006   2.021
 9574SOL    HW129621   3.942   3.054   2.098
 9574SOL    HW229622   3.849   2.926   2.056
 9575SOL     OW29623   6.154   0.409   2.657
 9575SOL    HW129624   6.097   0.452   2.587
 9575SOL    HW229625   6.122   0.435   2.748
 9576SOL     OW29626   1.899   1.849   0.235
 9576SOL    HW129627   1.799   1.842   0.232
 9576SOL    HW229628   1.933   1.814   0.322
 9577SOL     OW29629   0.078   5.574   6.884
 9577SOL    HW129630   0.097   5.522   6.967
 9577SOL    HW229631   0.164   5.593   6.837
 9578SOL     OW29632   1.300   2.473   3.188
 9578SOL    HW129633   1.236   2.404   3.153
 9578SOL    HW229634   1.253   2.561   3.196
 9579SOL     OW29635   6.240   6.386   2.300
 9579SOL    HW129636   6.185   6.313   2.341
 9579SOL    HW229637   6.324   6.399   2.354
 9580SOL     OW29638   4.845   4.022   1.559
 9580SOL    HW129639   4.869   4.113   1.592
 9580SOL    HW229640   4.867   3.955   1.630
 9581SOL     OW29641   0.420   0.533   6.366
 9581SOL    HW129642   0.458   0.537   6.458
 9581SOL    HW229643   0.476   0.474   6.309
 9582SOL     OW29644   3.728   5.575   4.661
 9582SOL    HW129645   3.666   5.499   4.677
 9582SOL    HW229646   3.731   5.634   4.741
 9583SOL     OW29647   3.266   4.614   1.338
 9583SOL    HW129648   3.205   4.658   1.405
 9583SOL    HW229649   3.213   4.553   1.279
 9584SOL     OW29650   1.857   5.133   5.898
 9584SOL    HW129651   1.806   5.122   5.984
 9584SOL    HW229652   1.802   5.185   5.833
 9585SOL     OW29653   5.405   6.530   1.974
 9585SOL    HW129654   5.370   6.622   1.994
 9585SOL    HW229655   5.376   6.502   1.883
 9586SOL     OW29656   4.502   5.368   2.014
 9586SOL    HW129657   4.533   5.273   2.012
 9586SOL    HW229658   4.541   5.418   1.937
 9587SOL     OW29659   1.659   5.963   2.581
 9587SOL    HW129660   1.634   6.021   2.503
 9587SOL    HW229661   1.618   5.999   2.664
 9588SOL     OW29662   6.139   5.965   0.604
 9588SOL    HW129663   6.158   5.869   0.623
 9588SOL    HW229664   6.042   5.984   0.619
 9589SOL     OW29665   1.873   4.075   7.008
 9589SOL    HW129666   1.920   4.153   0.027
 9589SOL    HW229667   1.826   4.104   6.925
 9590SOL     OW29668   6.159   2.444   2.045
 9590SOL    HW129669   6.187   2.349   2.036
 9590SOL    HW229670   6.220   2.502   1.990
 9591SOL     OW29671   3.736   6.024   6.440
 9591SOL    HW129672   3.672   6.015   6.516
 9591SOL    HW229673   3.817   6.074   6.470
 9592SOL     OW29674   3.241   5.223   0.453
 9592SOL    HW129675   3.199   5.224   0.362
 9592SOL    HW229676   3.296   5.140   0.464
 9593SOL     OW29677   1.170   2.088   5.544
 9593SOL    HW129678   1.131   2.099   5.635
 9593SOL    HW229679   1.103   2.117   5.475
 9594SOL     OW29680   2.742   6.119   4.642
 9594SOL    HW129681   2.773   6.089   4.732
 9594SOL    HW229682   2.719   6.216   4.646
 9595SOL     OW29683   0.482   3.038   3.614
 9595SOL    HW129684   0.577   3.005   3.617
 9595SOL    HW229685   0.482   3.138   3.614
 9596SOL     OW29686   0.422   5.449   0.565
 9596SOL    HW129687   0.493   5.383   0.540
 9596SOL    HW229688   0.416   5.454   0.665
 9597SOL     OW29689   0.228   4.423   1.323
 9597SOL    HW129690   0.137   4.460   1.345
 9597SOL    HW229691   0.251   4.446   1.228
 9598SOL     OW29692   2.229   4.112   3.144
 9598SOL    HW129693   2.262   4.128   3.052
 9598SOL    HW229694   2.203   4.015   3.154
 9599SOL     OW29695   2.844   6.826   4.266
 9599SOL    HW129696   2.850   6.922   4.292
 9599SOL    HW229697   2.936   6.791   4.245
 9600SOL     OW29698   2.793   0.218   0.622
 9600SOL    HW129699   2.858   0.157   0.667
 9600SOL    HW229700   2.763   0.176   0.536
 9601SOL     OW29701   5.622   4.198   0.306
 9601SOL    HW129702   5.687   4.153   0.367
 9601SOL    HW229703   5.611   4.142   0.223
 9602SOL     OW29704   5.040   3.768   5.565
 9602SOL    HW129705   5.001   3.859   5.552
 9602SOL    HW229706   5.105   3.749   5.490
 9603SOL     OW29707   5.309   6.918   6.327
 9603SOL    HW129708   5.296   6.989   6.258
 9603SOL    HW229709   5.406   6.895   6.334
 9604SOL     OW29710   4.979   0.058   1.465
 9604SOL    HW129711   4.915   0.040   1.391
 9604SOL    HW229712   5.065   0.093   1.428
 9605SOL     OW29713   0.721   5.363   2.705
 9605SOL    HW129714   0.802   5.382   2.762
 9605SOL    HW229715   0.697   5.444   2.653
 9606SOL     OW29716   1.516   0.213   6.399
 9606SOL    HW129717   1.594   0.161   6.433
 9606SOL    HW229718   1.548   0.293   6.349
 9607SOL     OW29719   2.871   1.166   0.211
 9607SOL    HW129720   2.797   1.200   0.269
 9607SOL    HW229721   2.843   1.079   0.170
 9608SOL     OW29722   0.435   4.621   2.088
 9608SOL    HW129723   0.524   4.629   2.044
 9608SOL    HW229724   0.368   4.678   2.040
 9609SOL     OW29725   3.757   3.397   0.346
 9609SOL    HW129726   3.768   3.306   0.308
 9609SOL    HW229727   3.660   3.413   0.368
 9610SOL     OW29728   1.686   4.570   3.043
 9610SOL    HW129729   1.694   4.657   3.092
 9610SOL    HW229730   1.645   4.501   3.103
 9611SOL     OW29731   1.392   6.300   0.293
 9611SOL    HW129732   1.409   6.213   0.340
 9611SOL    HW229733   1.455   6.369   0.328
 9612SOL     OW29734   0.489   3.445   1.717
 9612SOL    HW129735   0.486   3.433   1.617
 9612SOL    HW229736   0.493   3.355   1.761
 9613SOL     OW29737   5.244   6.788   3.468
 9613SOL    HW129738   5.247   6.825   3.375
 9613SOL    HW229739   5.253   6.689   3.465
 9614SOL     OW29740   3.470   2.052   1.825
 9614SOL    HW129741   3.505   2.093   1.910
 9614SOL    HW229742   3.488   2.114   1.749
 9615SOL     OW29743   2.603   1.389   1.312
 9615SOL    HW129744   2.581   1.356   1.220
 9615SOL    HW229745   2.601   1.313   1.377
 9616SOL     OW29746   3.711   3.787   1.170
 9616SOL    HW129747   3.692   3.803   1.267
 9616SOL    HW229748   3.680   3.696   1.144
 9617SOL     OW29749   1.969   2.874   3.278
 9617SOL    HW129750   1.973   2.853   3.376
 9617SOL    HW229751   1.891   2.935   3.260
 9618SOL     OW29752   2.760   0.060   1.074
 9618SOL    HW129753   2.665   0.066   1.104
 9618SOL    HW229754   2.807   7.012   1.126
 9619SOL     OW29755   2.134   0.580   5.685
 9619SOL    HW129756   2.206   0.599   5.752
 9619SOL    HW229757   2.069   0.655   5.685
 9620SOL     OW29758   4.265   0.401   5.060
 9620SOL    HW129759   4.325   0.331   5.098
 9620SOL    HW229760   4.180   0.358   5.029
 9621SOL     OW29761   1.808   3.002   1.753
 9621SOL    HW129762   1.741   3.075   1.766
 9621SOL    HW229763   1.879   3.008   1.823
 9622SOL     OW29764   6.086   1.748   0.567
 9622SOL    HW129765   6.086   1.719   0.663
 9622SOL    HW229766   6.114   1.843   0.560
 9623SOL     OW29767   2.377   3.315   5.901
 9623SOL    HW129768   2.422   3.404   5.893
 9623SOL    HW229769   2.444   3.242   5.886
 9624SOL     OW29770   5.876   3.913   3.004
 9624SOL    HW129771   5.967   3.881   2.977
 9624SOL    HW229772   5.867   4.010   2.982
 9625SOL     OW29773   5.426   5.214   0.322
 9625SOL    HW129774   5.501   5.249   0.266
 9625SOL    HW229775   5.378   5.291   0.365
 9626SOL     OW29776   4.232   5.280   0.397
 9626SOL    HW129777   4.211   5.211   0.327
 9626SOL    HW229778   4.195   5.368   0.369
 9627SOL     OW29779   0.908   6.396   6.346
 9627SOL    HW129780   0.942   6.303   6.332
 9627SOL    HW229781   0.963   6.459   6.291
 9628SOL     OW29782   5.379   4.818   1.097
 9628SOL    HW129783   5.462   4.846   1.049
 9628SOL    HW229784   5.385   4.720   1.119
 9629SOL     OW29785   2.006   0.560   1.195
 9629SOL    HW129786   2.047   0.646   1.164
 9629SOL    HW229787   1.917   0.579   1.236
 9630SOL     OW29788   6.086   6.709   4.691
 9630SOL    HW129789   6.029   6.757   4.624
 9630SOL    HW229790   6.033   6.636   4.734
 9631SOL     OW29791   6.873   6.665   6.122
 9631SOL    HW129792   6.912   6.575   6.101
 9631SOL    HW229793   6.821   6.660   6.207
 9632SOL     OW29794   1.606   6.752   2.696
 9632SOL    HW129795   1.590   6.654   2.690
 9632SOL    HW229796   1.585   6.784   2.788
 9633SOL     OW29797   5.370   5.054   6.855
 9633SOL    HW129798   5.419   5.016   6.934
 9633SOL    HW229799   5.286   5.098   6.886
 9634SOL     OW29800   1.239   6.426   3.606
 9634SOL    HW129801   1.275   6.337   3.576
 9634SOL    HW229802   1.199   6.416   3.697
 9635SOL     OW29803   1.866   6.615   5.042
 9635SOL    HW129804   1.886   6.520   5.066
 9635SOL    HW229805   1.790   6.618   4.977
 9636SOL     OW29806   4.170   1.487   5.656
 9636SOL    HW129807   4.107   1.501   5.579
 9636SOL    HW229808   4.121   1.443   5.731
 9637SOL     OW29809   2.529   2.534   6.619
 9637SOL    HW129810   2.442   2.583   6.625
 9637SOL    HW229811   2.542   2.502   6.525
 9638SOL     OW29812   0.236   3.503   6.029
 9638SOL    HW129813   0.319   3.524   6.081
 9638SOL    HW229814   0.157   3.507   6.090
 9639SOL     OW29815   4.055   1.744   1.907
 9639SOL    HW129816   4.065   1.773   2.002
 9639SOL    HW229817   4.131   1.781   1.852
 9640SOL     OW29818   2.246   2.934   3.785
 9640SOL    HW129819   2.157   2.895   3.808
 9640SOL    HW229820   2.236   3.031   3.765
 9641SOL     OW29821   4.616   0.279   0.302
 9641SOL    HW129822   4.527   0.321   0.320
 9641SOL    HW229823   4.605   0.203   0.238
 9642SOL     OW29824   2.451   0.048   4.911
 9642SOL    HW129825   2.454   0.046   5.011
 9642SOL    HW229826   2.543   0.034   4.874
 9643SOL     OW29827   5.627   4.197   3.524
 9643SOL    HW129828   5.569   4.157   3.596
 9643SOL    HW229829   5.608   4.294   3.517
 9644SOL     OW29830   1.097   3.275   6.378
 9644SOL    HW129831   1.089   3.359   6.325
 9644SOL    HW229832   1.117   3.298   6.474
 9645SOL     OW29833   2.505   5.089   4.981
 9645SOL    HW129834   2.445   5.132   5.048
 9645SOL    HW229835   2.487   4.991   4.978
 9646SOL     OW29836   3.659   4.945   2.765
 9646SOL    HW129837   3.750   4.905   2.768
 9646SOL    HW229838   3.613   4.930   2.853
 9647SOL     OW29839   6.025   3.943   1.162
 9647SOL    HW129840   5.974   3.961   1.078
 9647SOL    HW229841   5.969   3.968   1.241
 9648SOL     OW29842   4.005   1.524   1.131
 9648SOL    HW129843   4.064   1.447   1.109
 9648SOL    HW229844   3.910   1.496   1.125
 9649SOL     OW29845   2.687   6.760   0.158
 9649SOL    HW129846   2.676   6.815   0.240
 9649SOL    HW229847   2.653   6.811   0.079
 9650SOL     OW29848   0.196   5.164   2.421
 9650SOL    HW129849   0.193   5.201   2.328
 9650SOL    HW229850   0.155   5.072   2.421
 9651SOL     OW29851   0.070   2.006   5.727
 9651SOL    HW129852   0.113   1.924   5.765
 9651SOL    HW229853   0.123   2.087   5.754
 9652SOL     OW29854   0.910   4.846   1.032
 9652SOL    HW129855   0.887   4.762   0.981
 9652SOL    HW229856   0.918   4.824   1.129
 9653SOL     OW29857   4.138   4.810   5.132
 9653SOL    HW129858   4.066   4.860   5.084
 9653SOL    HW229859   4.100   4.727   5.173
 9654SOL     OW29860   2.943   2.180   1.453
 9654SOL    HW129861   3.000   2.124   1.514
 9654SOL    HW229862   2.990   2.192   1.365
 9655SOL     OW29863   6.926   1.977   5.978
 9655SOL    HW129864   6.840   1.938   5.946
 9655SOL    HW229865   6.984   1.999   5.900
 9656SOL     OW29866   2.799   0.512   2.502
 9656SOL    HW129867   2.756   0.504   2.412
 9656SOL    HW229868   2.894   0.480   2.496
 9657SOL     OW29869   5.237   0.875   4.456
 9657SOL    HW129870   5.146   0.918   4.457
 9657SOL    HW229871   5.282   0.890   4.543
 9658SOL     OW29872   0.325   2.225   2.195
 9658SOL    HW129873   0.297   2.317   2.222
 9658SOL    HW229874   0.377   2.183   2.269
 9659SOL     OW29875   6.998   3.760   0.660
 9659SOL    HW129876   0.002   3.690   0.726
 9659SOL    HW229877   6.979   3.846   0.707
 9660SOL     OW29878   0.356   6.149   1.485
 9660SOL    HW129879   0.275   6.090   1.491
 9660SOL    HW229880   0.366   6.183   1.392
 9661SOL     OW29881   4.779   6.297   1.051
 9661SOL    HW129882   4.713   6.347   0.995
 9661SOL    HW229883   4.868   6.299   1.007
 9662SOL     OW29884   6.104   2.879   4.955
 9662SOL    HW129885   6.152   2.954   4.910
 9662SOL    HW229886   6.169   2.805   4.976
 9663SOL     OW29887   1.536   5.456   3.520
 9663SOL    HW129888   1.446   5.426   3.552
 9663SOL    HW229889   1.594   5.477   3.599
 9664SOL     OW29890   4.441   6.604   2.845
 9664SOL    HW129891   4.385   6.669   2.897
 9664SOL    HW229892   4.485   6.652   2.769
 9665SOL     OW29893   5.934   4.733   5.232
 9665SOL    HW129894   5.868   4.709   5.303
 9665SOL    HW229895   5.998   4.657   5.218
 9666SOL     OW29896   6.025   3.982   1.854
 9666SOL    HW129897   6.070   3.996   1.766
 9666SOL    HW229898   5.969   4.061   1.876
 9667SOL     OW29899   3.936   3.895   4.036
 9667SOL    HW129900   3.890   3.807   4.035
 9667SOL    HW229901   3.871   3.967   4.060
 9668SOL     OW29902   6.788   1.197   5.648
 9668SOL    HW129903   6.882   1.164   5.643
 9668SOL    HW229904   6.753   1.185   5.741
 9669SOL     OW29905   0.493   0.515   0.535
 9669SOL    HW129906   0.409   0.487   0.581
 9669SOL    HW229907   0.541   0.583   0.592
 9670SOL     OW29908   4.675   4.749   6.019
 9670SOL    HW129909   4.614   4.677   6.053
 9670SOL    HW229910   4.673   4.826   6.082
 9671SOL     OW29911   6.874   5.456   5.910
 9671SOL    HW129912   6.856   5.360   5.935
 9671SOL    HW229913   6.788   5.507   5.910
 9672SOL     OW29914   1.434   6.555   5.009
 9672SOL    HW129915   1.414   6.649   5.036
 9672SOL    HW229916   1.349   6.506   4.992
 9673SOL     OW29917   3.931   4.571   6.753
 9673SOL    HW129918   4.026   4.568   6.723
 9673SOL    HW229919   3.885   4.649   6.713
 9674SOL     OW29920   2.814   6.028   1.631
 9674SOL    HW129921   2.791   6.027   1.729
 9674SOL    HW229922   2.738   5.991   1.579
 9675SOL     OW29923   6.059   1.021   2.190
 9675SOL    HW129924   6.105   0.936   2.165
 9675SOL    HW229925   6.099   1.096   2.136
 9676SOL     OW29926   1.117   3.478   5.255
 9676SOL    HW129927   1.216   3.485   5.243
 9676SOL    HW229928   1.093   3.505   5.348
 9677SOL     OW29929   2.683   4.151   6.054
 9677SOL    HW129930   2.642   4.067   6.017
 9677SOL    HW229931   2.691   4.219   5.981
 9678SOL     OW29932   4.091   3.539   2.728
 9678SOL    HW129933   4.121   3.524   2.634
 9678SOL    HW229934   4.117   3.460   2.784
 9679SOL     OW29935   1.173   2.989   1.979
 9679SOL    HW129936   1.106   3.056   1.948
 9679SOL    HW229937   1.178   2.991   2.079
 9680SOL     OW29938   5.689   6.321   3.397
 9680SOL    HW129939   5.772   6.268   3.415
 9680SOL    HW229940   5.616   6.261   3.366
 9681SOL     OW29941   2.012   0.858   1.336
 9681SOL    HW129942   2.051   0.837   1.246
 9681SOL    HW229943   2.086   0.884   1.399
 9682SOL     OW29944   5.274   4.984   3.010
 9682SOL    HW129945   5.315   5.007   3.098
 9682SOL    HW229946   5.332   5.018   2.936
 9683SOL     OW29947   3.853   5.385   0.306
 9683SOL    HW129948   3.781   5.323   0.275
 9683SOL    HW229949   3.865   5.375   0.405
 9684SOL     OW29950   0.197   3.807   4.966
 9684SOL    HW129951   0.287   3.778   4.935
 9684SOL    HW229952   0.144   3.842   4.888
 9685SOL     OW29953   2.392   3.102   1.063
 9685SOL    HW129954   2.394   3.125   0.966
 9685SOL    HW229955   2.351   3.012   1.075
 9686SOL     OW29956   0.009   1.231   1.481
 9686SOL    HW129957   0.066   1.245   1.400
 9686SOL    HW229958   6.938   1.261   1.461
 9687SOL     OW29959   2.638   0.536   3.136
 9687SOL    HW129960   2.610   0.627   3.166
 9687SOL    HW229961   2.702   0.544   3.060
 9688SOL     OW29962   0.363   2.126   3.143
 9688SOL    HW129963   0.280   2.077   3.168
 9688SOL    HW229964   0.356   2.221   3.173
 9689SOL     OW29965   2.053   6.398   6.787
 9689SOL    HW129966   2.071   6.357   6.698
 9689SOL    HW229967   2.128   6.460   6.811
 9690SOL     OW29968   6.262   4.967   0.121
 9690SOL    HW129969   6.196   4.943   0.192
 9690SOL    HW229970   6.341   5.013   0.163
 9691SOL     OW29971   1.957   5.153   1.839
 9691SOL    HW129972   1.948   5.202   1.925
 9691SOL    HW229973   2.052   5.152   1.810
 9692SOL     OW29974   2.854   5.032   2.216
 9692SOL    HW129975   2.932   5.034   2.278
 9692SOL    HW229976   2.867   4.960   2.148
 9693SOL     OW29977   6.458   5.375   1.822
 9693SOL    HW129978   6.382   5.411   1.767
 9693SOL    HW229979   6.544   5.412   1.788
 9694SOL     OW29980   2.064   1.767   0.036
 9694SOL    HW129981   2.004   1.786   0.114
 9694SOL    HW229982   2.150   1.816   0.048
 9695SOL     OW29983   5.949   4.378   0.568
 9695SOL    HW129984   5.943   4.284   0.534
 9695SOL    HW229985   5.902   4.384   0.656
 9696SOL     OW29986   3.830   2.700   1.684
 9696SOL    HW129987   3.925   2.721   1.662
 9696SOL    HW229988   3.781   2.786   1.702
 9697SOL     OW29989   0.869   4.890   7.004
 9697SOL    HW129990   0.832   4.936   0.063
 9697SOL    HW229991   0.961   4.923   6.986
 9698SOL     OW29992   5.841   0.717   4.928
 9698SOL    HW129993   5.923   0.663   4.946
 9698SOL    HW229994   5.862   0.815   4.939
 9699SOL     OW29995   0.841   3.619   6.598
 9699SOL    HW129996   0.866   3.696   6.657
 9699SOL    HW229997   0.909   3.609   6.526
 9700SOL     OW29998   3.642   4.764   5.393
 9700SOL    HW129999   3.700   4.817   5.331
 9700SOL    HW230000   3.676   4.671   5.398
 9701SOL     OW30001   3.608   5.866   4.963
 9701SOL    HW130002   3.591   5.802   4.888
 9701SOL    HW230003   3.557   5.838   5.044
 9702SOL     OW30004   5.161   1.065   0.548
 9702SOL    HW130005   5.081   1.077   0.488
 9702SOL    HW230006   5.209   1.152   0.557
 9703SOL     OW30007   3.041   5.651   4.360
 9703SOL    HW130008   3.052   5.583   4.288
 9703SOL    HW230009   3.086   5.619   4.444
 9704SOL     OW30010   3.238   6.918   2.904
 9704SOL    HW130011   3.224   6.936   3.001
 9704SOL    HW230012   3.312   6.852   2.892
 9705SOL     OW30013   4.060   4.973   0.417
 9705SOL    HW130014   3.976   4.977   0.363
 9705SOL    HW230015   4.133   4.933   0.362
 9706SOL     OW30016   6.596   2.686   1.003
 9706SOL    HW130017   6.688   2.707   1.034
 9706SOL    HW230018   6.531   2.699   1.078
 9707SOL     OW30019   0.805   4.078   2.216
 9707SOL    HW130020   0.796   4.067   2.117
 9707SOL    HW230021   0.747   4.011   2.262
 9708SOL     OW30022   1.761   2.597   3.801
 9708SOL    HW130023   1.718   2.546   3.875
 9708SOL    HW230024   1.859   2.574   3.797
 9709SOL     OW30025   0.847   6.343   3.591
 9709SOL    HW130026   0.944   6.366   3.595
 9709SOL    HW230027   0.836   6.244   3.601
 9710SOL     OW30028   0.188   1.074   2.784
 9710SOL    HW130029   0.238   1.056   2.699
 9710SOL    HW230030   0.243   1.135   2.842
 9711SOL     OW30031   1.561   3.065   5.875
 9711SOL    HW130032   1.488   3.066   5.944
 9711SOL    HW230033   1.605   2.975   5.876
 9712SOL     OW30034   5.605   2.249   4.840
 9712SOL    HW130035   5.507   2.251   4.856
 9712SOL    HW230036   5.635   2.337   4.804
 9713SOL     OW30037   0.480   4.548   3.178
 9713SOL    HW130038   0.502   4.632   3.128
 9713SOL    HW230039   0.557   4.523   3.237
 9714SOL     OW30040   2.260   1.409   1.516
 9714SOL    HW130041   2.309   1.447   1.594
 9714SOL    HW230042   2.229   1.483   1.457
 9715SOL     OW30043   5.902   5.515   4.847
 9715SOL    HW130044   5.866   5.503   4.754
 9715SOL    HW230045   5.909   5.426   4.892
 9716SOL     OW30046   4.009   2.101   6.443
 9716SOL    HW130047   3.917   2.130   6.471
 9716SOL    HW230048   4.022   2.119   6.346
 9717SOL     OW30049   5.179   5.674   4.297
 9717SOL    HW130050   5.233   5.657   4.215
 9717SOL    HW230051   5.240   5.709   4.369
 9718SOL     OW30052   4.030   3.205   1.143
 9718SOL    HW130053   4.034   3.130   1.208
 9718SOL    HW230054   4.093   3.278   1.171
 9719SOL     OW30055   0.804   2.254   0.521
 9719SOL    HW130056   0.883   2.285   0.468
 9719SOL    HW230057   0.726   2.239   0.460
 9720SOL     OW30058   0.337   6.108   2.230
 9720SOL    HW130059   0.343   6.065   2.140
 9720SOL    HW230060   0.241   6.129   2.250
 9721SOL     OW30061   0.747   3.292   2.034
 9721SOL    HW130062   0.724   3.371   1.977
 9721SOL    HW230063   0.729   3.208   1.983
 9722SOL     OW30064   0.039   0.744   3.367
 9722SOL    HW130065   0.008   0.658   3.408
 9722SOL    HW230066   0.023   0.819   3.430
 9723SOL     OW30067   0.669   6.714   2.942
 9723SOL    HW130068   0.693   6.801   2.899
 9723SOL    HW230069   0.731   6.696   3.018
 9724SOL     OW30070   2.895   2.544   1.661
 9724SOL    HW130071   2.857   2.632   1.688
 9724SOL    HW230072   2.918   2.491   1.743
 9725SOL     OW30073   4.389   3.304   6.418
 9725SOL    HW130074   4.395   3.402   6.399
 9725SOL    HW230075   4.467   3.258   6.377
 9726SOL     OW30076   5.477   7.021   4.865
 9726SOL    HW130077   5.476   0.097   4.844
 9726SOL    HW230078   5.423   6.972   4.796
 9727SOL     OW30079   1.205   3.527   5.559
 9727SOL    HW130080   1.142   3.485   5.625
 9727SOL    HW230081   1.274   3.460   5.531
 9728SOL     OW30082   1.560   6.388   6.114
 9728SOL    HW130083   1.498   6.455   6.154
 9728SOL    HW230084   1.511   6.335   6.044
 9729SOL     OW30085   1.394   4.465   2.886
 9729SOL    HW130086   1.344   4.484   2.970
 9729SOL    HW230087   1.440   4.377   2.893
 9730SOL     OW30088   6.855   3.473   2.477
 9730SOL    HW130089   6.938   3.514   2.438
 9730SOL    HW230090   6.802   3.432   2.403
 9731SOL     OW30091   4.131   5.119   0.649
 9731SOL    HW130092   4.105   5.053   0.579
 9731SOL    HW230093   4.087   5.097   0.735
 9732SOL     OW30094   0.047   5.894   2.659
 9732SOL    HW130095   0.083   5.820   2.716
 9732SOL    HW230096   7.017   5.855   2.583
 9733SOL     OW30097   5.831   4.883   4.854
 9733SOL    HW130098   5.771   4.809   4.825
 9733SOL    HW230099   5.924   4.865   4.822
 9734SOL     OW30100   5.644   1.820   4.192
 9734SOL    HW130101   5.545   1.813   4.199
 9734SOL    HW230102   5.677   1.758   4.121
 9735SOL     OW30103   2.287   5.341   2.865
 9735SOL    HW130104   2.271   5.280   2.787
 9735SOL    HW230105   2.200   5.360   2.911
 9736SOL     OW30106   5.466   0.889   0.012
 9736SOL    HW130107   5.445   0.864   6.940
 9736SOL    HW230108   5.459   0.988   0.023
 9737SOL     OW30109   4.136   2.221   4.827
 9737SOL    HW130110   4.178   2.290   4.887
 9737SOL    HW230111   4.204   2.152   4.803
 9738SOL     OW30112   1.421   0.725   3.463
 9738SOL    HW130113   1.351   0.674   3.513
 9738SOL    HW230114   1.380   0.772   3.386
 9739SOL     OW30115   6.896   4.702   1.558
 9739SOL    HW130116   6.919   4.799   1.554
 9739SOL    HW230117   6.973   4.650   1.595
 9740SOL     OW30118   6.080   3.755   2.856
 9740SOL    HW130119   6.053   3.708   2.772
 9740SOL    HW230120   6.081   3.691   2.933
 9741SOL     OW30121   4.599   1.453   2.565
 9741SOL    HW130122   4.593   1.547   2.599
 9741SOL    HW230123   4.631   1.393   2.638
 9742SOL     OW30124   5.423   0.715   2.924
 9742SOL    HW130125   5.511   0.730   2.970
 9742SOL    HW230126   5.396   0.798   2.876
 9743SOL     OW30127   1.969   2.845   5.786
 9743SOL    HW130128   1.937   2.806   5.872
 9743SOL    HW230129   2.037   2.784   5.745
 9744SOL     OW30130   1.663   0.576   1.960
 9744SOL    HW130131   1.595   0.638   1.921
 9744SOL    HW230132   1.640   0.557   2.056
 9745SOL     OW30133   0.695   2.189   4.854
 9745SOL    HW130134   0.741   2.275   4.833
 9745SOL    HW230135   0.640   2.161   4.775
 9746SOL     OW30136   5.218   1.061   5.512
 9746SOL    HW130137   5.283   1.127   5.474
 9746SOL    HW230138   5.262   0.971   5.518
 9747SOL     OW30139   1.231   0.865   1.253
 9747SOL    HW130140   1.175   0.802   1.199
 9747SOL    HW230141   1.279   0.814   1.324
 9748SOL     OW30142   1.388   6.156   4.451
 9748SOL    HW130143   1.336   6.172   4.367
 9748SOL    HW230144   1.328   6.116   4.520
 9749SOL     OW30145   1.277   3.044   5.315
 9749SOL    HW130146   1.352   3.027   5.250
 9749SOL    HW230147   1.314   3.049   5.407
 9750SOL     OW30148   5.384   4.647   3.815
 9750SOL    HW130149   5.471   4.684   3.849
 9750SOL    HW230150   5.401   4.592   3.733
 9751SOL     OW30151   1.422   2.006   1.105
 9751SOL    HW130152   1.365   2.018   1.024
 9751SOL    HW230153   1.437   2.094   1.150
 9752SOL     OW30154   4.352   0.368   6.090
 9752SOL    HW130155   4.325   0.450   6.141
 9752SOL    HW230156   4.409   0.395   6.012
 9753SOL     OW30157   6.662   5.915   5.099
 9753SOL    HW130158   6.742   5.915   5.159
 9753SOL    HW230159   6.611   6.000   5.110
 9754SOL     OW30160   1.404   1.482   0.006
 9754SOL    HW130161   1.400   1.392   6.984
 9754SOL    HW230162   1.316   1.504   0.046
 9755SOL     OW30163   4.185   3.411   4.812
 9755SOL    HW130164   4.103   3.356   4.800
 9755SOL    HW230165   4.256   3.379   4.749
 9756SOL     OW30166   6.021   3.044   6.921
 9756SOL    HW130167   5.926   3.050   6.952
 9756SOL    HW230168   6.083   3.060   6.998
 9757SOL     OW30169   5.063   2.737   3.462
 9757SOL    HW130170   5.118   2.797   3.405
 9757SOL    HW230171   4.991   2.790   3.507
 9758SOL     OW30172   2.085   0.161   6.164
 9758SOL    HW130173   2.183   0.168   6.180
 9758SOL    HW230174   2.037   0.227   6.221
 9759SOL     OW30175   1.699   6.252   1.708
 9759SOL    HW130176   1.722   6.303   1.790
 9759SOL    HW230177   1.668   6.314   1.636
 9760SOL     OW30178   5.489   4.629   4.613
 9760SOL    HW130179   5.446   4.539   4.614
 9760SOL    HW230180   5.534   4.643   4.525
 9761SOL     OW30181   5.378   4.666   1.662
 9761SOL    HW130182   5.374   4.599   1.736
 9761SOL    HW230183   5.289   4.711   1.653
 9762SOL     OW30184   2.135   1.704   4.797
 9762SOL    HW130185   2.116   1.613   4.834
 9762SOL    HW230186   2.085   1.773   4.850
 9763SOL     OW30187   4.135   1.109   1.774
 9763SOL    HW130188   4.223   1.153   1.794
 9763SOL    HW230189   4.062   1.155   1.825
 9764SOL     OW30190   1.463   2.496   3.659
 9764SOL    HW130191   1.410   2.449   3.589
 9764SOL    HW230192   1.539   2.546   3.617
 9765SOL     OW30193   6.478   2.218   5.451
 9765SOL    HW130194   6.413   2.148   5.478
 9765SOL    HW230195   6.561   2.174   5.415
 9766SOL     OW30196   3.342   0.649   3.318
 9766SOL    HW130197   3.354   0.748   3.319
 9766SOL    HW230198   3.430   0.604   3.330
 9767SOL     OW30199   5.484   0.827   5.324
 9767SOL    HW130200   5.461   0.844   5.420
 9767SOL    HW230201   5.423   0.880   5.265
 9768SOL     OW30202   4.569   2.161   2.607
 9768SOL    HW130203   4.518   2.095   2.662
 9768SOL    HW230204   4.560   2.252   2.647
 9769SOL     OW30205   1.261   2.362   1.165
 9769SOL    HW130206   1.264   2.352   1.264
 9769SOL    HW230207   1.172   2.401   1.138
 9770SOL     OW30208   5.709   5.403   5.551
 9770SOL    HW130209   5.763   5.362   5.478
 9770SOL    HW230210   5.676   5.493   5.523
 9771SOL     OW30211   4.649   4.938   0.583
 9771SOL    HW130212   4.647   4.938   0.683
 9771SOL    HW230213   4.722   4.998   0.551
 9772SOL     OW30214   0.120   6.921   2.068
 9772SOL    HW130215   0.153   6.955   1.980
 9772SOL    HW230216   0.188   6.942   2.139
 9773SOL     OW30217   5.567   5.744   3.781
 9773SOL    HW130218   5.584   5.823   3.840
 9773SOL    HW230219   5.583   5.660   3.833
 9774SOL     OW30220   5.772   5.114   3.637
 9774SOL    HW130221   5.701   5.065   3.687
 9774SOL    HW230222   5.773   5.210   3.665
 9775SOL     OW30223   2.084   2.723   4.892
 9775SOL    HW130224   2.069   2.627   4.912
 9775SOL    HW230225   2.085   2.775   4.977
 9776SOL     OW30226   6.946   5.654   4.290
 9776SOL    HW130227   6.847   5.670   4.296
 9776SOL    HW230228   6.993   5.742   4.289
 9777SOL     OW30229   5.960   4.362   5.822
 9777SOL    HW130230   6.027   4.291   5.841
 9777SOL    HW230231   5.989   4.448   5.865
 9778SOL     OW30232   4.668   6.759   3.069
 9778SOL    HW130233   4.574   6.740   3.097
 9778SOL    HW230234   4.687   6.857   3.078
 9779SOL     OW30235   2.806   1.678   4.992
 9779SOL    HW130236   2.734   1.638   5.048
 9779SOL    HW230237   2.890   1.624   5.002
 9780SOL     OW30238   2.264   3.082   0.105
 9780SOL    HW130239   2.245   3.175   0.138
 9780SOL    HW230240   2.204   3.017   0.152
 9781SOL     OW30241   2.429   4.442   4.818
 9781SOL    HW130242   2.399   4.349   4.837
 9781SOL    HW230243   2.395   4.503   4.890
 9782SOL     OW30244   6.781   0.365   1.492
 9782SOL    HW130245   6.791   0.418   1.577
 9782SOL    HW230246   6.687   0.369   1.460
 9783SOL     OW30247   6.108   1.517   2.154
 9783SOL    HW130248   6.096   1.598   2.211
 9783SOL    HW230249   6.029   1.456   2.165
 9784SOL     OW30250   4.431   1.287   3.088
 9784SOL    HW130251   4.366   1.263   3.016
 9784SOL    HW230252   4.392   1.358   3.147
 9785SOL     OW30253   0.260   2.839   2.691
 9785SOL    HW130254   0.284   2.805   2.782
 9785SOL    HW230255   0.337   2.888   2.652
 9786SOL     OW30256   2.487   5.064   5.846
 9786SOL    HW130257   2.410   5.126   5.859
 9786SOL    HW230258   2.556   5.081   5.916
 9787SOL     OW30259   5.142   4.123   1.531
 9787SOL    HW130260   5.223   4.127   1.590
 9787SOL    HW230261   5.094   4.036   1.547
 9788SOL     OW30262   0.035   0.179   4.359
 9788SOL    HW130263   0.096   0.228   4.297
 9788SOL    HW230264   0.085   0.157   4.443
 9789SOL     OW30265   2.216   5.969   5.237
 9789SOL    HW130266   2.148   5.931   5.175
 9789SOL    HW230267   2.284   6.021   5.185
 9790SOL     OW30268   5.742   2.079   4.154
 9790SOL    HW130269   5.708   1.989   4.180
 9790SOL    HW230270   5.798   2.116   4.228
 9791SOL     OW30271   1.550   1.031   1.182
 9791SOL    HW130272   1.649   1.038   1.200
 9791SOL    HW230273   1.513   0.951   1.229
 9792SOL     OW30274   4.485   4.638   1.107
 9792SOL    HW130275   4.386   4.628   1.113
 9792SOL    HW230276   4.529   4.571   1.167
 9793SOL     OW30277   5.631   6.017   2.507
 9793SOL    HW130278   5.621   6.040   2.604
 9793SOL    HW230279   5.652   6.100   2.455
 9794SOL     OW30280   5.168   3.059   5.738
 9794SOL    HW130281   5.232   3.072   5.662
 9794SOL    HW230282   5.114   3.142   5.751
 9795SOL     OW30283   1.514   3.463   4.509
 9795SOL    HW130284   1.610   3.459   4.536
 9795SOL    HW230285   1.475   3.551   4.536
 9796SOL     OW30286   2.772   5.041   0.554
 9796SOL    HW130287   2.850   5.028   0.492
 9796SOL    HW230288   2.752   4.954   0.600
 9797SOL     OW30289   4.702   3.521   6.447
 9797SOL    HW130290   4.714   3.519   6.348
 9797SOL    HW230291   4.768   3.458   6.489
 9798SOL     OW30292   2.855   0.420   1.234
 9798SOL    HW130293   2.832   0.374   1.320
 9798SOL    HW230294   2.876   0.352   1.164
 9799SOL     OW30295   2.964   3.204   2.513
 9799SOL    HW130296   2.980   3.134   2.444
 9799SOL    HW230297   2.975   3.165   2.604
 9800SOL     OW30298   4.440   5.483   6.952
 9800SOL    HW130299   4.484   5.400   6.985
 9800SOL    HW230300   4.505   5.558   6.954
 9801SOL     OW30301   4.513   5.959   0.044
 9801SOL    HW130302   4.546   5.870   0.076
 9801SOL    HW230303   4.470   6.008   0.119
 9802SOL     OW30304   1.038   3.248   0.938
 9802SOL    HW130305   1.110   3.179   0.941
 9802SOL    HW230306   1.078   3.339   0.939
 9803SOL     OW30307   6.444   0.450   6.865
 9803SOL    HW130308   6.427   0.382   6.937
 9803SOL    HW230309   6.427   0.542   6.901
 9804SOL     OW30310   6.738   5.597   3.992
 9804SOL    HW130311   6.736   5.510   3.942
 9804SOL    HW230312   6.689   5.587   4.079
 9805SOL     OW30313   1.448   5.512   6.905
 9805SOL    HW130314   1.520   5.507   6.837
 9805SOL    HW230315   1.478   5.570   6.981
 9806SOL     OW30316   0.241   2.807   1.734
 9806SOL    HW130317   0.195   2.816   1.646
 9806SOL    HW230318   0.184   2.846   1.806
 9807SOL     OW30319   4.105   2.130   0.124
 9807SOL    HW130320   4.039   2.091   0.188
 9807SOL    HW230321   4.198   2.114   0.158
 9808SOL     OW30322   6.845   1.742   4.902
 9808SOL    HW130323   6.852   1.685   4.985
 9808SOL    HW230324   6.825   1.684   4.823
 9809SOL     OW30325   0.257   1.368   4.223
 9809SOL    HW130326   0.227   1.273   4.220
 9809SOL    HW230327   0.192   1.422   4.277
 9810SOL     OW30328   2.786   1.535   3.107
 9810SOL    HW130329   2.879   1.558   3.078
 9810SOL    HW230330   2.749   1.611   3.162
 9811SOL     OW30331   6.641   5.988   2.647
 9811SOL    HW130332   6.648   5.975   2.746
 9811SOL    HW230333   6.700   6.064   2.620
 9812SOL     OW30334   4.749   2.459   6.211
 9812SOL    HW130335   4.773   2.542   6.262
 9812SOL    HW230336   4.680   2.408   6.262
 9813SOL     OW30337   6.534   4.898   6.746
 9813SOL    HW130338   6.459   4.882   6.810
 9813SOL    HW230339   6.583   4.981   6.772
 9814SOL     OW30340   6.692   6.864   5.841
 9814SOL    HW130341   6.623   6.822   5.899
 9814SOL    HW230342   6.684   6.964   5.847
 9815SOL     OW30343   6.324   3.138   1.523
 9815SOL    HW130344   6.268   3.180   1.595
 9815SOL    HW230345   6.380   3.208   1.479
 9816SOL     OW30346   0.031   0.379   6.688
 9816SOL    HW130347   0.109   0.333   6.644
 9816SOL    HW230348   0.065   0.438   6.761
 9817SOL     OW30349   3.568   5.927   1.334
 9817SOL    HW130350   3.660   5.897   1.308
 9817SOL    HW230351   3.539   5.880   1.417
 9818SOL     OW30352   1.257   0.059   3.581
 9818SOL    HW130353   1.355   0.042   3.577
 9818SOL    HW230354   1.240   0.157   3.596
 9819SOL     OW30355   6.262   4.350   5.115
 9819SOL    HW130356   6.192   4.279   5.114
 9819SOL    HW230357   6.349   4.312   5.086
 9820SOL     OW30358   3.279   2.025   6.170
 9820SOL    HW130359   3.281   1.999   6.073
 9820SOL    HW230360   3.188   2.057   6.193
 9821SOL     OW30361   5.108   2.529   1.648
 9821SOL    HW130362   5.160   2.572   1.574
 9821SOL    HW230363   5.013   2.558   1.644
 9822SOL     OW30364   3.932   5.952   4.865
 9822SOL    HW130365   3.893   5.924   4.952
 9822SOL    HW230366   3.858   5.968   4.799
 9823SOL     OW30367   1.775   0.739   2.989
 9823SOL    HW130368   1.739   0.653   3.026
 9823SOL    HW230369   1.847   0.773   3.049
 9824SOL     OW30370   1.502   5.720   5.613
 9824SOL    HW130371   1.576   5.737   5.679
 9824SOL    HW230372   1.530   5.647   5.551
 9825SOL     OW30373   5.069   6.258   6.277
 9825SOL    HW130374   5.052   6.237   6.181
 9825SOL    HW230375   4.991   6.230   6.332
 9826SOL     OW30376   2.857   6.449   5.680
 9826SOL    HW130377   2.770   6.404   5.700
 9826SOL    HW230378   2.865   6.464   5.581
 9827SOL     OW30379   1.602   5.227   2.125
 9827SOL    HW130380   1.564   5.170   2.198
 9827SOL    HW230381   1.622   5.318   2.162
 9828SOL     OW30382   3.505   1.876   5.092
 9828SOL    HW130383   3.416   1.829   5.084
 9828SOL    HW230384   3.522   1.898   5.188
 9829SOL     OW30385   4.454   5.647   5.723
 9829SOL    HW130386   4.471   5.657   5.625
 9829SOL    HW230387   4.431   5.552   5.743
 9830SOL     OW30388   5.749   1.951   2.950
 9830SOL    HW130389   5.737   1.876   2.886
 9830SOL    HW230390   5.839   1.993   2.937
 9831SOL     OW30391   0.761   3.810   1.866
 9831SOL    HW130392   0.792   3.898   1.901
 9831SOL    HW230393   0.825   3.739   1.894
 9832SOL     OW30394   4.397   4.689   4.347
 9832SOL    HW130395   4.418   4.699   4.250
 9832SOL    HW230396   4.433   4.602   4.380
 9833SOL     OW30397   3.690   4.125   4.447
 9833SOL    HW130398   3.647   4.145   4.535
 9833SOL    HW230399   3.767   4.063   4.460
 9834SOL     OW30400   2.450   5.474   5.395
 9834SOL    HW130401   2.464   5.376   5.387
 9834SOL    HW230402   2.538   5.521   5.397
 9835SOL     OW30403   3.842   4.253   5.210
 9835SOL    HW130404   3.891   4.281   5.128
 9835SOL    HW230405   3.762   4.200   5.184
 9836SOL     OW30406   0.683   3.671   5.564
 9836SOL    HW130407   0.725   3.650   5.475
 9836SOL    HW230408   0.604   3.731   5.550
 9837SOL     OW30409   5.077   2.239   1.708
 9837SOL    HW130410   5.032   2.238   1.797
 9837SOL    HW230411   5.096   2.334   1.681
 9838SOL     OW30412   0.759   6.415   1.851
 9838SOL    HW130413   0.761   6.340   1.785
 9838SOL    HW230414   0.710   6.493   1.811
 9839SOL     OW30415   4.468   0.558   2.622
 9839SOL    HW130416   4.485   0.515   2.533
 9839SOL    HW230417   4.520   0.643   2.628
 9840SOL     OW30418   6.359   1.406   6.829
 9840SOL    HW130419   6.288   1.345   6.863
 9840SOL    HW230420   6.353   1.494   6.876
 9841SOL     OW30421   6.838   6.369   3.730
 9841SOL    HW130422   6.866   6.287   3.681
 9841SOL    HW230423   6.887   6.448   3.693
 9842SOL     OW30424   2.792   2.441   6.525
 9842SOL    HW130425   2.751   2.525   6.489
 9842SOL    HW230426   2.752   2.363   6.478
 9843SOL     OW30427   6.932   6.769   1.137
 9843SOL    HW130428   6.895   6.679   1.115
 9843SOL    HW230429   6.974   6.808   1.055
 9844SOL     OW30430   4.935   0.064   4.196
 9844SOL    HW130431   5.002   0.135   4.217
 9844SOL    HW230432   4.957   7.003   4.247
 9845SOL     OW30433   1.793   3.259   1.526
 9845SOL    HW130434   1.733   3.309   1.465
 9845SOL    HW230435   1.756   3.262   1.619
 9846SOL     OW30436   5.284   1.260   1.334
 9846SOL    HW130437   5.291   1.162   1.351
 9846SOL    HW230438   5.191   1.291   1.354
 9847SOL     OW30439   4.290   4.170   0.486
 9847SOL    HW130440   4.339   4.196   0.403
 9847SOL    HW230441   4.356   4.148   0.558
 9848SOL     OW30442   3.604   3.648   5.294
 9848SOL    HW130443   3.539   3.675   5.223
 9848SOL    HW230444   3.595   3.709   5.373
 9849SOL     OW30445   0.804   1.968   5.010
 9849SOL    HW130446   0.799   2.063   4.978
 9849SOL    HW230447   0.718   1.943   5.053
 9850SOL     OW30448   0.692   0.703   4.604
 9850SOL    HW130449   0.733   0.778   4.656
 9850SOL    HW230450   0.734   0.617   4.633
 9851SOL     OW30451   3.857   4.942   4.414
 9851SOL    HW130452   3.785   4.908   4.475
 9851SOL    HW230453   3.945   4.903   4.442
 9852SOL     OW30454   2.171   1.500   6.970
 9852SOL    HW130455   2.120   1.583   6.991
 9852SOL    HW230456   2.266   1.512   6.998
 9853SOL     OW30457   6.900   4.414   3.578
 9853SOL    HW130458   6.909   4.411   3.678
 9853SOL    HW230459   6.978   4.465   3.540
 9854SOL     OW30460   1.053   5.430   6.202
 9854SOL    HW130461   0.959   5.438   6.170
 9854SOL    HW230462   1.055   5.447   6.301
 9855SOL     OW30463   2.126   4.019   1.653
 9855SOL    HW130464   2.111   4.116   1.672
 9855SOL    HW230465   2.056   3.964   1.698
 9856SOL     OW30466   5.704   3.992   3.222
 9856SOL    HW130467   5.661   3.907   3.252
 9856SOL    HW230468   5.761   3.974   3.141
 9857SOL     OW30469   3.960   1.462   4.259
 9857SOL    HW130470   4.055   1.474   4.230
 9857SOL    HW230471   3.922   1.379   4.218
 9858SOL     OW30472   6.433   6.383   2.463
 9858SOL    HW130473   6.517   6.434   2.447
 9858SOL    HW230474   6.455   6.289   2.490
 9859SOL     OW30475   0.133   5.656   3.685
 9859SOL    HW130476   0.154   5.658   3.782
 9859SOL    HW230477   0.203   5.604   3.637
 9860SOL     OW30478   1.742   3.361   4.804
 9860SOL    HW130479   1.706   3.300   4.734
 9860SOL    HW230480   1.730   3.320   4.894
 9861SOL     OW30481   3.565   1.211   4.384
 9861SOL    HW130482   3.506   1.282   4.345
 9861SOL    HW230483   3.554   1.127   4.331
 9862SOL     OW30484   1.060   5.406   0.634
 9862SOL    HW130485   1.087   5.311   0.647
 9862SOL    HW230486   1.138   5.466   0.652
 9863SOL     OW30487   4.005   6.276   0.684
 9863SOL    HW130488   3.960   6.187   0.695
 9863SOL    HW230489   3.969   6.339   0.753
 9864SOL     OW30490   2.511   6.080   5.091
 9864SOL    HW130491   2.437   6.139   5.059
 9864SOL    HW230492   2.531   6.011   5.022
 9865SOL     OW30493   0.443   6.407   5.256
 9865SOL    HW130494   0.344   6.408   5.274
 9865SOL    HW230495   0.492   6.421   5.341
 9866SOL     OW30496   6.214   5.224   4.335
 9866SOL    HW130497   6.166   5.267   4.259
 9866SOL    HW230498   6.313   5.236   4.324
 9867SOL     OW30499   4.871   2.293   1.474
 9867SOL    HW130500   4.844   2.388   1.461
 9867SOL    HW230501   4.913   2.282   1.565
 9868SOL     OW30502   1.594   4.472   3.280
 9868SOL    HW130503   1.551   4.383   3.267
 9868SOL    HW230504   1.541   4.525   3.347
 9869SOL     OW30505   6.825   2.433   0.752
 9869SOL    HW130506   6.854   2.419   0.657
 9869SOL    HW230507   6.762   2.511   0.757
 9870SOL     OW30508   3.047   1.449   2.154
 9870SOL    HW130509   3.073   1.439   2.058
 9870SOL    HW230510   2.977   1.382   2.177
 9871SOL     OW30511   0.288   4.166   4.451
 9871SOL    HW130512   0.328   4.215   4.374
 9871SOL    HW230513   0.218   4.222   4.494
 9872SOL     OW30514   1.693   5.167   5.662
 9872SOL    HW130515   1.610   5.210   5.626
 9872SOL    HW230516   1.704   5.077   5.619
 9873SOL     OW30517   1.852   1.453   5.439
 9873SOL    HW130518   1.864   1.361   5.476
 9873SOL    HW230519   1.841   1.518   5.514
 9874SOL     OW30520   0.409   3.038   4.849
 9874SOL    HW130521   0.348   3.042   4.928
 9874SOL    HW230522   0.490   2.984   4.872
 9875SOL     OW30523   6.849   5.499   0.555
 9875SOL    HW130524   6.777   5.430   0.566
 9875SOL    HW230525   6.937   5.460   0.582
 9876SOL     OW30526   2.201   6.778   3.434
 9876SOL    HW130527   2.194   6.742   3.341
 9876SOL    HW230528   2.292   6.817   3.448
 9877SOL     OW30529   0.612   5.433   5.302
 9877SOL    HW130530   0.648   5.422   5.394
 9877SOL    HW230531   0.682   5.476   5.244
 9878SOL     OW30532   2.143   2.712   6.980
 9878SOL    HW130533   2.137   2.640   6.911
 9878SOL    HW230534   2.139   2.670   0.049
 9879SOL     OW30535   0.386   5.167   6.340
 9879SOL    HW130536   0.416   5.113   6.418
 9879SOL    HW230537   0.379   5.109   6.259
 9880SOL     OW30538   2.749   1.564   0.314
 9880SOL    HW130539   2.757   1.650   0.365
 9880SOL    HW230540   2.717   1.492   0.376
 9881SOL     OW30541   5.430   0.366   4.333
 9881SOL    HW130542   5.515   0.398   4.374
 9881SOL    HW230543   5.447   0.337   4.239
 9882SOL     OW30544   3.827   3.260   4.441
 9882SOL    HW130545   3.804   3.356   4.427
 9882SOL    HW230546   3.855   3.219   4.353
 9883SOL     OW30547   2.135   6.770   1.595
 9883SOL    HW130548   2.114   6.861   1.630
 9883SOL    HW230549   2.221   6.738   1.634
 9884SOL     OW30550   2.146   3.657   6.099
 9884SOL    HW130551   2.144   3.756   6.118
 9884SOL    HW230552   2.181   3.642   6.007
 9885SOL     OW30553   6.337   3.536   4.391
 9885SOL    HW130554   6.365   3.609   4.454
 9885SOL    HW230555   6.415   3.476   4.373
 9886SOL     OW30556   4.735   6.037   1.188
 9886SOL    HW130557   4.760   6.119   1.137
 9886SOL    HW230558   4.754   5.956   1.132
 9887SOL     OW30559   3.702   0.297   0.084
 9887SOL    HW130560   3.753   0.343   0.011
 9887SOL    HW230561   3.739   0.206   0.099
 9888SOL     OW30562   5.856   5.164   2.777
 9888SOL    HW130563   5.936   5.107   2.797
 9888SOL    HW230564   5.840   5.226   2.854
 9889SOL     OW30565   0.181   5.066   3.383
 9889SOL    HW130566   0.099   5.008   3.387
 9889SOL    HW230567   0.167   5.138   3.315
 9890SOL     OW30568   6.867   4.061   1.946
 9890SOL    HW130569   6.893   4.156   1.964
 9890SOL    HW230570   6.918   4.027   1.867
 9891SOL     OW30571   6.053   4.565   0.949
 9891SOL    HW130572   6.068   4.466   0.957
 9891SOL    HW230573   6.134   4.607   0.908
 9892SOL     OW30574   2.303   5.341   4.327
 9892SOL    HW130575   2.267   5.261   4.376
 9892SOL    HW230576   2.376   5.382   4.381
 9893SOL     OW30577   5.130   5.046   3.498
 9893SOL    HW130578   5.101   4.995   3.579
 9893SOL    HW230579   5.136   5.143   3.520
 9894SOL     OW30580   3.980   3.224   6.016
 9894SOL    HW130581   3.895   3.200   5.969
 9894SOL    HW230582   3.960   3.289   6.089
 9895SOL     OW30583   5.121   2.298   0.098
 9895SOL    HW130584   5.148   2.372   0.036
 9895SOL    HW230585   5.022   2.298   0.109
 9896SOL     OW30586   4.361   4.387   0.764
 9896SOL    HW130587   4.270   4.400   0.804
 9896SOL    HW230588   4.380   4.462   0.701
 9897SOL     OW30589   6.032   2.258   3.077
 9897SOL    HW130590   5.984   2.331   3.028
 9897SOL    HW230591   6.077   2.198   3.011
 9898SOL     OW30592   1.483   5.297   5.542
 9898SOL    HW130593   1.442   5.369   5.598
 9898SOL    HW230594   1.571   5.328   5.506
 9899SOL     OW30595   4.848   5.279   1.854
 9899SOL    HW130596   4.786   5.355   1.835
 9899SOL    HW230597   4.943   5.309   1.842
 9900SOL     OW30598   1.217   2.740   4.219
 9900SOL    HW130599   1.195   2.712   4.312
 9900SOL    HW230600   1.310   2.712   4.197
 9901SOL     OW30601   2.829   2.873   5.796
 9901SOL    HW130602   2.897   2.800   5.803
 9901SOL    HW230603   2.850   2.945   5.862
 9902SOL     OW30604   4.020   3.511   0.218
 9902SOL    HW130605   4.070   3.479   0.298
 9902SOL    HW230606   3.922   3.508   0.237
 9903SOL     OW30607   4.413   2.314   1.530
 9903SOL    HW130608   4.484   2.249   1.502
 9903SOL    HW230609   4.450   2.376   1.600
 9904SOL     OW30610   6.780   1.533   1.246
 9904SOL    HW130611   6.837   1.564   1.321
 9904SOL    HW230612   6.684   1.549   1.268
 9905SOL     OW30613   1.419   0.267   5.517
 9905SOL    HW130614   1.499   0.209   5.531
 9905SOL    HW230615   1.446   0.363   5.526
 9906SOL     OW30616   2.458   3.053   6.459
 9906SOL    HW130617   2.528   2.988   6.485
 9906SOL    HW230618   2.451   3.125   6.528
 9907SOL     OW30619   2.837   6.454   2.728
 9907SOL    HW130620   2.787   6.398   2.662
 9907SOL    HW230621   2.931   6.421   2.734
 9908SOL     OW30622   1.368   3.667   5.967
 9908SOL    HW130623   1.290   3.703   5.916
 9908SOL    HW230624   1.448   3.661   5.906
 9909SOL     OW30625   3.312   0.666   2.869
 9909SOL    HW130626   3.242   0.599   2.844
 9909SOL    HW230627   3.355   0.703   2.786
 9910SOL     OW30628   6.706   3.911   0.816
 9910SOL    HW130629   6.642   3.977   0.776
 9910SOL    HW230630   6.688   3.820   0.778
 9911SOL     OW30631   3.419   5.091   3.430
 9911SOL    HW130632   3.465   5.159   3.488
 9911SOL    HW230633   3.381   5.018   3.488
 9912SOL     OW30634   4.751   0.469   1.026
 9912SOL    HW130635   4.702   0.551   1.055
 9912SOL    HW230636   4.687   0.392   1.020
 9913SOL     OW30637   4.741   1.922   2.826
 9913SOL    HW130638   4.779   1.868   2.901
 9913SOL    HW230639   4.809   1.930   2.753
 9914SOL     OW30640   1.222   0.212   4.897
 9914SOL    HW130641   1.212   0.147   4.822
 9914SOL    HW230642   1.151   0.196   4.966
 9915SOL     OW30643   5.307   3.404   4.224
 9915SOL    HW130644   5.277   3.344   4.150
 9915SOL    HW230645   5.267   3.373   4.311
 9916SOL     OW30646   2.332   2.786   2.412
 9916SOL    HW130647   2.354   2.752   2.320
 9916SOL    HW230648   2.391   2.741   2.479
 9917SOL     OW30649   2.474   3.620   5.875
 9917SOL    HW130650   2.417   3.603   5.794
 9917SOL    HW230651   2.557   3.669   5.847
 9918SOL     OW30652   2.202   1.436   5.792
 9918SOL    HW130653   2.232   1.380   5.715
 9918SOL    HW230654   2.280   1.483   5.833
 9919SOL     OW30655   0.750   5.695   2.662
 9919SOL    HW130656   0.803   5.757   2.720
 9919SOL    HW230657   0.733   5.738   2.574
 9920SOL     OW30658   4.244   6.347   1.365
 9920SOL    HW130659   4.272   6.401   1.444
 9920SOL    HW230660   4.306   6.363   1.289
 9921SOL     OW30661   5.606   0.505   3.254
 9921SOL    HW130662   5.676   0.544   3.314
 9921SOL    HW230663   5.642   0.421   3.212
 9922SOL     OW30664   4.224   4.735   0.743
 9922SOL    HW130665   4.222   4.820   0.795
 9922SOL    HW230666   4.315   4.722   0.704
 9923SOL     OW30667   6.538   2.109   6.206
 9923SOL    HW130668   6.456   2.164   6.188
 9923SOL    HW230669   6.563   2.117   6.303
 9924SOL     OW30670   6.788   1.100   3.026
 9924SOL    HW130671   6.825   1.029   3.085
 9924SOL    HW230672   6.804   1.076   2.930
 9925SOL     OW30673   2.763   2.812   5.381
 9925SOL    HW130674   2.817   2.729   5.371
 9925SOL    HW230675   2.667   2.791   5.367
 9926SOL     OW30676   1.182   0.839   0.271
 9926SOL    HW130677   1.136   0.918   0.311
 9926SOL    HW230678   1.277   0.836   0.303
 9927SOL     OW30679   0.729   1.996   1.994
 9927SOL    HW130680   0.733   1.919   1.931
 9927SOL    HW230681   0.821   2.029   2.013
 9928SOL     OW30682   0.209   3.990   2.448
 9928SOL    HW130683   0.170   3.902   2.475
 9928SOL    HW230684   0.281   4.015   2.513
 9929SOL     OW30685   2.709   3.954   0.000
 9929SOL    HW130686   2.793   3.986   6.978
 9929SOL    HW230687   2.644   4.030   0.006
 9930SOL     OW30688   0.056   6.827   6.185
 9930SOL    HW130689   0.138   6.775   6.159
 9930SOL    HW230690   6.997   6.782   6.149
 9931SOL     OW30691   1.719   5.748   5.829
 9931SOL    HW130692   1.750   5.656   5.803
 9931SOL    HW230693   1.736   5.762   5.927
 9932SOL     OW30694   1.358   1.370   0.466
 9932SOL    HW130695   1.444   1.420   0.460
 9932SOL    HW230696   1.282   1.433   0.452
 9933SOL     OW30697   1.742   1.281   3.644
 9933SOL    HW130698   1.669   1.349   3.635
 9933SOL    HW230699   1.829   1.321   3.616
 9934SOL     OW30700   4.100   1.297   5.871
 9934SOL    HW130701   4.016   1.248   5.896
 9934SOL    HW230702   4.176   1.233   5.867
 9935SOL     OW30703   2.799   1.932   0.737
 9935SOL    HW130704   2.768   2.027   0.736
 9935SOL    HW230705   2.885   1.925   0.788
 9936SOL     OW30706   5.875   5.789   5.639
 9936SOL    HW130707   5.810   5.839   5.582
 9936SOL    HW230708   5.911   5.711   5.588
 9937SOL     OW30709   0.351   0.039   3.190
 9937SOL    HW130710   0.399   7.009   3.260
 9937SOL    HW230711   0.340   7.005   3.108
 9938SOL     OW30712   6.519   1.616   4.292
 9938SOL    HW130713   6.514   1.670   4.208
 9938SOL    HW230714   6.432   1.569   4.307
 9939SOL     OW30715   2.660   4.294   1.418
 9939SOL    HW130716   2.620   4.208   1.387
 9939SOL    HW230717   2.644   4.306   1.516
 9940SOL     OW30718   0.360   0.914   3.136
 9940SOL    HW130719   0.398   0.903   3.044
 9940SOL    HW230720   0.351   0.824   3.179
 9941SOL     OW30721   5.190   4.908   6.447
 9941SOL    HW130722   5.195   4.932   6.350
 9941SOL    HW230723   5.278   4.928   6.491
 9942SOL     OW30724   4.831   5.146   3.123
 9942SOL    HW130725   4.833   5.174   3.026
 9942SOL    HW230726   4.786   5.218   3.176
 9943SOL     OW30727   2.234   3.647   6.650
 9943SOL    HW130728   2.210   3.701   6.731
 9943SOL    HW230729   2.331   3.660   6.629
 9944SOL     OW30730   1.284   4.756   0.199
 9944SOL    HW130731   1.366   4.768   0.254
 9944SOL    HW230732   1.307   4.710   0.113
 9945SOL     OW30733   5.628   3.690   6.591
 9945SOL    HW130734   5.668   3.619   6.649
 9945SOL    HW230735   5.696   3.722   6.525
 9946SOL     OW30736   5.298   1.662   2.425
 9946SOL    HW130737   5.278   1.565   2.423
 9946SOL    HW230738   5.364   1.684   2.352
 9947SOL     OW30739   1.444   1.680   4.036
 9947SOL    HW130740   1.517   1.738   4.073
 9947SOL    HW230741   1.428   1.704   3.940
 9948SOL     OW30742   6.062   0.004   4.127
 9948SOL    HW130743   5.989   0.071   4.109
 9948SOL    HW230744   6.115   0.034   4.206
 9949SOL     OW30745   6.167   4.960   4.140
 9949SOL    HW130746   6.136   4.876   4.095
 9949SOL    HW230747   6.241   4.939   4.203
 9950SOL     OW30748   6.262   4.732   5.579
 9950SOL    HW130749   6.345   4.784   5.560
 9950SOL    HW230750   6.182   4.788   5.555
 9951SOL     OW30751   0.993   2.071   2.037
 9951SOL    HW130752   1.081   2.071   2.084
 9951SOL    HW230753   1.002   2.117   1.949
 9952SOL     OW30754   0.830   4.433   1.785
 9952SOL    HW130755   0.886   4.351   1.774
 9952SOL    HW230756   0.749   4.425   1.728
 9953SOL     OW30757   6.119   2.404   3.551
 9953SOL    HW130758   6.078   2.459   3.624
 9953SOL    HW230759   6.218   2.416   3.551
 9954SOL     OW30760   3.277   1.983   5.865
 9954SOL    HW130761   3.297   2.067   5.814
 9954SOL    HW230762   3.328   1.907   5.825
 9955SOL     OW30763   5.908   3.067   0.187
 9955SOL    HW130764   5.849   3.075   0.267
 9955SOL    HW230765   5.873   2.996   0.126
 9956SOL     OW30766   1.957   3.925   3.287
 9956SOL    HW130767   1.909   3.978   3.357
 9956SOL    HW230768   2.011   3.853   3.331
 9957SOL     OW30769   5.013   6.941   1.172
 9957SOL    HW130770   5.049   6.853   1.141
 9957SOL    HW230771   4.921   6.927   1.209
 9958SOL     OW30772   4.994   4.748   0.317
 9958SOL    HW130773   4.983   4.713   0.224
 9958SOL    HW230774   4.911   4.730   0.370
 9959SOL     OW30775   4.751   4.719   0.452
 9959SOL    HW130776   4.745   4.625   0.485
 9959SOL    HW230777   4.708   4.780   0.518
 9960SOL     OW30778   0.574   0.272   6.522
 9960SOL    HW130779   0.562   0.371   6.521
 9960SOL    HW230780   0.534   0.232   6.440
 9961SOL     OW30781   2.756   5.087   1.716
 9961SOL    HW130782   2.830   5.058   1.655
 9961SOL    HW230783   2.670   5.046   1.685
 9962SOL     OW30784   3.262   6.176   1.665
 9962SOL    HW130785   3.265   6.077   1.650
 9962SOL    HW230786   3.355   6.212   1.668
 9963SOL     OW30787   1.458   1.272   6.297
 9963SOL    HW130788   1.481   1.339   6.368
 9963SOL    HW230789   1.470   1.313   6.207
 9964SOL     OW30790   4.662   3.917   5.531
 9964SOL    HW130791   4.718   3.929   5.449
 9964SOL    HW230792   4.722   3.909   5.611
 9965SOL     OW30793   3.141   5.588   4.601
 9965SOL    HW130794   3.187   5.661   4.651
 9965SOL    HW230795   3.162   5.500   4.643
 9966SOL     OW30796   3.841   4.841   2.347
 9966SOL    HW130797   3.908   4.912   2.371
 9966SOL    HW230798   3.873   4.753   2.381
 9967SOL     OW30799   6.401   0.061   3.272
 9967SOL    HW130800   6.440   0.112   3.196
 9967SOL    HW230801   6.439   6.991   3.274
 9968SOL     OW30802   3.671   6.679   0.885
 9968SOL    HW130803   3.713   6.693   0.795
 9968SOL    HW230804   3.683   6.584   0.913
 9969SOL     OW30805   1.571   5.189   3.693
 9969SOL    HW130806   1.645   5.199   3.759
 9969SOL    HW230807   1.495   5.248   3.719
 9970SOL     OW30808   6.479   3.907   1.440
 9970SOL    HW130809   6.494   3.997   1.397
 9970SOL    HW230810   6.510   3.910   1.535
 9971SOL     OW30811   0.722   4.364   2.124
 9971SOL    HW130812   0.780   4.291   2.088
 9971SOL    HW230813   0.759   4.453   2.098
 9972SOL     OW30814   3.314   4.065   0.395
 9972SOL    HW130815   3.327   3.973   0.356
 9972SOL    HW230816   3.225   4.101   0.367
 9973SOL     OW30817   3.730   1.683   3.339
 9973SOL    HW130818   3.658   1.634   3.388
 9973SOL    HW230819   3.818   1.639   3.356
 9974SOL     OW30820   0.555   2.606   3.136
 9974SOL    HW130821   0.490   2.652   3.197
 9974SOL    HW230822   0.625   2.672   3.108
 9975SOL     OW30823   1.303   5.194   6.805
 9975SOL    HW130824   1.256   5.118   6.760
 9975SOL    HW230825   1.384   5.220   6.752
 9976SOL     OW30826   2.888   4.402   6.595
 9976SOL    HW130827   2.957   4.474   6.594
 9976SOL    HW230828   2.931   4.314   6.572
 9977SOL     OW30829   5.016   6.162   4.976
 9977SOL    HW130830   5.067   6.137   5.058
 9977SOL    HW230831   4.955   6.088   4.950
 9978SOL     OW30832   0.916   2.646   6.285
 9978SOL    HW130833   0.910   2.595   6.370
 9978SOL    HW230834   0.850   2.721   6.286
 9979SOL     OW30835   4.524   3.288   5.499
 9979SOL    HW130836   4.437   3.287   5.548
 9979SOL    HW230837   4.509   3.315   5.404
 9980SOL     OW30838   1.358   0.799   0.484
 9980SOL    HW130839   1.443   0.801   0.537
 9980SOL    HW230840   1.294   0.734   0.524
 9981SOL     OW30841   0.571   2.491   1.445
 9981SOL    HW130842   0.651   2.435   1.419
 9981SOL    HW230843   0.598   2.587   1.448
 9982SOL     OW30844   2.110   1.828   5.425
 9982SOL    HW130845   2.014   1.831   5.399
 9982SOL    HW230846   2.119   1.780   5.512
 9983SOL     OW30847   0.153   3.221   2.185
 9983SOL    HW130848   0.084   3.251   2.120
 9983SOL    HW230849   0.244   3.247   2.153
 9984SOL     OW30850   6.910   5.904   0.335
 9984SOL    HW130851   6.871   5.813   0.351
 9984SOL    HW230852   6.945   5.909   0.241
 9985SOL     OW30853   4.231   5.518   0.642
 9985SOL    HW130854   4.256   5.551   0.733
 9985SOL    HW230855   4.247   5.590   0.575
 9986SOL     OW30856   5.145   4.466   0.311
 9986SOL    HW130857   5.218   4.476   0.379
 9986SOL    HW230858   5.156   4.534   0.239
 9987SOL     OW30859   5.754   2.957   1.802
 9987SOL    HW130860   5.850   2.971   1.825
 9987SOL    HW230861   5.731   2.860   1.813
 9988SOL     OW30862   5.157   6.014   4.494
 9988SOL    HW130863   5.175   6.029   4.592
 9988SOL    HW230864   5.225   6.064   4.440
 9989SOL     OW30865   6.201   5.397   2.073
 9989SOL    HW130866   6.278   5.341   2.102
 9989SOL    HW230867   6.224   5.445   1.989
 9990SOL     OW30868   0.378   0.159   3.741
 9990SOL    HW130869   0.453   0.180   3.678
 9990SOL    HW230870   0.307   0.108   3.692
 9991SOL     OW30871   1.508   4.449   4.398
 9991SOL    HW130872   1.595   4.446   4.347
 9991SOL    HW230873   1.526   4.444   4.496
 9992SOL     OW30874   3.495   4.292   1.166
 9992SOL    HW130875   3.463   4.317   1.074
 9992SOL    HW230876   3.580   4.341   1.186
 9993SOL     OW30877   3.684   0.010   4.020
 9993SOL    HW130878   3.723   0.092   3.979
 9993SOL    HW230879   3.594   0.031   4.059
 9994SOL     OW30880   6.794   4.867   4.213
 9994SOL    HW130881   6.775   4.769   4.210
 9994SOL    HW230882   6.828   4.892   4.304
 9995SOL     OW30883   2.860   0.626   4.899
 9995SOL    HW130884   2.848   0.590   4.992
 9995SOL    HW230885   2.907   0.715   4.904
 9996SOL     OW30886   1.862   4.226   1.147
 9996SOL    HW130887   1.887   4.267   1.235
 9996SOL    HW230888   1.904   4.279   1.073
 9997SOL     OW30889   6.232   2.610   4.320
 9997SOL    HW130890   6.274   2.542   4.261
 9997SOL    HW230891   6.284   2.696   4.314
 9998SOL     OW30892   4.840   3.669   2.688
 9998SOL    HW130893   4.820   3.635   2.780
 9998SOL    HW230894   4.808   3.603   2.621
 9999SOL     OW30895   6.824   6.797   4.223
 9999SOL    HW130896   6.734   6.818   4.261
 9999SOL    HW230897   6.892   6.798   4.296
10000SOL     OW30898   4.947   2.009   1.595
10000SOL    HW130899   4.866   2.025   1.651
10000SOL    HW230900   4.985   2.097   1.565
10001SOL     OW30901   3.226   6.035   2.181
10001SOL    HW130902   3.280   6.011   2.101
10001SOL    HW230903   3.277   6.011   2.264
10002SOL     OW30904   2.471   1.019   1.403
10002SOL    HW130905   2.462   0.932   1.450
10002SOL    HW230906   2.509   1.003   1.311
10003SOL     OW30907   1.665   1.478   3.352
10003SOL    HW130908   1.683   1.517   3.442
10003SOL    HW230909   1.673   1.378   3.356
10004SOL     OW30910   5.985   4.624   4.926
10004SOL    HW130911   5.923   4.641   5.003
10004SOL    HW230912   6.079   4.627   4.957
10005SOL     OW30913   2.232   5.851   3.504
10005SOL    HW130914   2.219   5.917   3.431
10005SOL    HW230915   2.166   5.776   3.494
10006SOL     OW30916   5.427   0.512   5.592
10006SOL    HW130917   5.376   0.497   5.507
10006SOL    HW230918   5.448   0.609   5.601
10007SOL     OW30919   1.164   4.501   4.864
10007SOL    HW130920   1.081   4.554   4.880
10007SOL    HW230921   1.240   4.540   4.916
10008SOL     OW30922   3.827   1.847   4.696
10008SOL    HW130923   3.880   1.808   4.620
10008SOL    HW230924   3.767   1.919   4.661
10009SOL     OW30925   1.444   4.467   1.649
10009SOL    HW130926   1.382   4.482   1.726
10009SOL    HW230927   1.408   4.512   1.568
10010SOL     OW30928   2.452   5.000   6.993
10010SOL    HW130929   2.535   5.029   6.944
10010SOL    HW230930   2.409   4.925   6.943
10011SOL     OW30931   0.878   3.623   0.201
10011SOL    HW130932   0.855   3.526   0.186
10011SOL    HW230933   0.958   3.629   0.260
10012SOL     OW30934   5.178   1.336   1.807
10012SOL    HW130935   5.228   1.255   1.837
10012SOL    HW230936   5.211   1.364   1.717
10013SOL     OW30937   1.151   5.938   4.890
10013SOL    HW130938   1.185   5.873   4.958
10013SOL    HW230939   1.222   6.005   4.869
10014SOL     OW30940   0.440   6.684   3.366
10014SOL    HW130941   0.520   6.647   3.413
10014SOL    HW230942   0.431   6.781   3.387
10015SOL     OW30943   3.595   4.918   5.912
10015SOL    HW130944   3.603   4.941   5.815
10015SOL    HW230945   3.608   4.820   5.924
10016SOL     OW30946   2.049   0.099   3.659
10016SOL    HW130947   2.000   0.174   3.704
10016SOL    HW230948   2.146   0.105   3.681
10017SOL     OW30949   2.688   1.779   3.240
10017SOL    HW130950   2.689   1.816   3.147
10017SOL    HW230951   2.729   1.845   3.303
10018SOL     OW30952   6.344   3.576   5.818
10018SOL    HW130953   6.247   3.574   5.796
10018SOL    HW230954   6.394   3.624   5.746
10019SOL     OW30955   0.905   1.625   2.825
10019SOL    HW130956   0.936   1.531   2.839
10019SOL    HW230957   0.861   1.658   2.908
10020SOL     OW30958   0.171   0.942   1.997
10020SOL    HW130959   0.102   1.000   1.954
10020SOL    HW230960   0.209   0.879   1.929
10021SOL     OW30961   1.682   3.888   1.723
10021SOL    HW130962   1.723   3.814   1.669
10021SOL    HW230963   1.750   3.959   1.738
10022SOL     OW30964   2.698   6.371   0.540
10022SOL    HW130965   2.650   6.382   0.453
10022SOL    HW230966   2.792   6.404   0.532
10023SOL     OW30967   2.651   6.892   6.052
10023SOL    HW130968   2.655   6.829   5.974
10023SOL    HW230969   2.570   6.872   6.107
10024SOL     OW30970   1.645   4.842   3.138
10024SOL    HW130971   1.740   4.866   3.160
10024SOL    HW230972   1.585   4.918   3.165
10025SOL     OW30973   1.539   4.020   1.516
10025SOL    HW130974   1.561   3.943   1.576
10025SOL    HW230975   1.620   4.077   1.503
10026SOL     OW30976   5.052   1.336   2.703
10026SOL    HW130977   4.978   1.309   2.764
10026SOL    HW230978   5.014   1.365   2.615
10027SOL     OW30979   1.682   2.327   5.450
10027SOL    HW130980   1.622   2.252   5.477
10027SOL    HW230981   1.670   2.346   5.353
10028SOL     OW30982   3.446   0.083   1.963
10028SOL    HW130983   3.512   0.142   1.916
10028SOL    HW230984   3.487   0.047   2.047
10029SOL     OW30985   0.103   3.010   4.405
10029SOL    HW130986   0.140   3.036   4.494
10029SOL    HW230987   0.003   3.020   4.407
10030SOL     OW30988   2.390   6.519   4.978
10030SOL    HW130989   2.371   6.617   4.987
10030SOL    HW230990   2.371   6.491   4.883
10031SOL     OW30991   3.925   5.208   4.339
10031SOL    HW130992   4.012   5.209   4.389
10031SOL    HW230993   3.870   5.131   4.370
10032SOL     OW30994   3.180   6.214   5.391
10032SOL    HW130995   3.126   6.251   5.316
10032SOL    HW230996   3.218   6.125   5.365
10033SOL     OW30997   4.522   1.426   3.592
10033SOL    HW130998   4.435   1.377   3.599
10033SOL    HW230999   4.512   1.502   3.528
10034SOL     OW31000   1.954   0.793   3.165
10034SOL    HW131001   1.959   0.780   3.264
10034SOL    HW231002   2.044   0.773   3.124
10035SOL     OW31003   6.497   3.181   0.365
10035SOL    HW131004   6.536   3.205   0.276
10035SOL    HW231005   6.568   3.145   0.425
10036SOL     OW31006   6.544   0.775   6.471
10036SOL    HW131007   6.568   0.861   6.426
10036SOL    HW231008   6.572   0.779   6.567
10037SOL     OW31009   6.408   0.187   6.038
10037SOL    HW131010   6.443   0.109   6.089
10037SOL    HW231011   6.363   0.251   6.100
10038SOL     OW31012   4.526   0.098   0.128
10038SOL    HW131013   4.517   0.114   0.030
10038SOL    HW231014   4.436   0.082   0.168
10039SOL     OW31015   5.150   4.894   4.447
10039SOL    HW131016   5.241   4.897   4.406
10039SOL    HW231017   5.141   4.812   4.503
10040SOL     OW31018   4.227   0.200   0.425
10040SOL    HW131019   4.189   0.118   0.384
10040SOL    HW231020   4.273   0.176   0.511
10041SOL     OW31021   6.587   4.621   5.807
10041SOL    HW131022   6.619   4.693   5.868
10041SOL    HW231023   6.490   4.636   5.786
10042SOL     OW31024   0.475   1.313   5.384
10042SOL    HW131025   0.435   1.231   5.426
10042SOL    HW231026   0.426   1.335   5.300
10043SOL     OW31027   1.408   0.705   2.906
10043SOL    HW131028   1.494   0.673   2.946
10043SOL    HW231029   1.342   0.723   2.978
10044SOL     OW31030   2.029   1.129   4.907
10044SOL    HW131031   2.118   1.083   4.914
10044SOL    HW231032   1.958   1.061   4.891
10045SOL     OW31033   4.794   0.019   4.586
10045SOL    HW131034   4.840   0.105   4.608
10045SOL    HW231035   4.747   0.028   4.498
10046SOL     OW31036   0.219   2.148   1.945
10046SOL    HW131037   0.255   2.158   2.037
10046SOL    HW231038   0.125   2.116   1.949
10047SOL     OW31039   6.203   2.599   5.014
10047SOL    HW131040   6.274   2.602   4.945
10047SOL    HW231041   6.222   2.525   5.079
10048SOL     OW31042   3.207   1.485   1.505
10048SOL    HW131043   3.247   1.494   1.597
10048SOL    HW231044   3.208   1.388   1.478
10049SOL     OW31045   1.731   0.311   6.953
10049SOL    HW131046   1.670   0.358   7.016
10049SOL    HW231047   1.808   0.273   7.004
10050SOL     OW31048   5.170   3.261   4.884
10050SOL    HW131049   5.093   3.283   4.944
10050SOL    HW231050   5.255   3.262   4.938
10051SOL     OW31051   6.686   3.056   4.398
10051SOL    HW131052   6.765   3.071   4.339
10051SOL    HW231053   6.605   3.039   4.342
10052SOL     OW31054   2.041   3.240   1.632
10052SOL    HW131055   2.116   3.209   1.573
10052SOL    HW231056   1.955   3.235   1.581
10053SOL     OW31057   3.797   4.923   3.389
10053SOL    HW131058   3.736   4.919   3.468
10053SOL    HW231059   3.744   4.948   3.308
10054SOL     OW31060   4.598   5.788   6.199
10054SOL    HW131061   4.502   5.796   6.224
10054SOL    HW231062   4.606   5.778   6.099
10055SOL     OW31063   6.410   2.427   4.868
10055SOL    HW131064   6.315   2.397   4.871
10055SOL    HW231065   6.449   2.407   4.778
10056SOL     OW31066   5.855   5.047   1.164
10056SOL    HW131067   5.816   5.133   1.132
10056SOL    HW231068   5.951   5.040   1.135
10057SOL     OW31069   4.011   1.822   4.267
10057SOL    HW131070   3.998   1.838   4.170
10057SOL    HW231071   3.959   1.889   4.320
10058SOL     OW31072   6.360   5.131   4.066
10058SOL    HW131073   6.278   5.081   4.094
10058SOL    HW231074   6.440   5.093   4.112
10059SOL     OW31075   5.184   6.720   0.948
10059SOL    HW131076   5.262   6.661   0.971
10059SOL    HW231077   5.216   6.798   0.895
10060SOL     OW31078   2.735   2.232   1.810
10060SOL    HW131079   2.797   2.307   1.832
10060SOL    HW231080   2.784   2.145   1.812
10061SOL     OW31081   5.999   1.155   4.343
10061SOL    HW131082   5.951   1.187   4.425
10061SOL    HW231083   5.949   1.183   4.261
10062SOL     OW31084   6.125   6.631   4.267
10062SOL    HW131085   6.183   6.552   4.284
10062SOL    HW231086   6.047   6.603   4.210
10063SOL     OW31087   1.331   2.181   3.366
10063SOL    HW131088   1.429   2.161   3.369
10063SOL    HW231089   1.315   2.271   3.408
10064SOL     OW31090   5.184   5.220   4.743
10064SOL    HW131091   5.262   5.227   4.806
10064SOL    HW231092   5.212   5.169   4.662
10065SOL     OW31093   1.580   0.159   2.046
10065SOL    HW131094   1.580   0.091   2.119
10065SOL    HW231095   1.673   0.170   2.011
10066SOL     OW31096   0.835   1.030   3.981
10066SOL    HW131097   0.851   0.955   4.046
10066SOL    HW231098   0.805   0.991   3.893
10067SOL     OW31099   5.731   4.681   4.468
10067SOL    HW131100   5.799   4.740   4.513
10067SOL    HW231101   5.743   4.587   4.500
10068SOL     OW31102   5.307   2.528   4.804
10068SOL    HW131103   5.374   2.595   4.775
10068SOL    HW231104   5.228   2.531   4.744
10069SOL     OW31105   2.128   0.194   3.321
10069SOL    HW131106   2.079   0.166   3.403
10069SOL    HW231107   2.226   0.196   3.340
10070SOL     OW31108   0.320   6.383   4.820
10070SOL    HW131109   0.397   6.346   4.768
10070SOL    HW231110   0.235   6.343   4.787
10071SOL     OW31111   4.848   4.965   3.951
10071SOL    HW131112   4.782   5.010   4.011
10071SOL    HW231113   4.805   4.888   3.905
10072SOL     OW31114   0.282   6.575   3.847
10072SOL    HW131115   0.231   6.659   3.867
10072SOL    HW231116   0.231   6.520   3.781
10073SOL     OW31117   6.264   4.520   4.708
10073SOL    HW131118   6.224   4.527   4.799
10073SOL    HW231119   6.240   4.601   4.654
10074SOL     OW31120   1.198   6.689   5.696
10074SOL    HW131121   1.192   6.789   5.700
10074SOL    HW231122   1.178   6.652   5.787
10075SOL     OW31123   1.308   2.248   2.864
10075SOL    HW131124   1.311   2.155   2.826
10075SOL    HW231125   1.287   2.243   2.962
10076SOL     OW31126   5.132   6.986   4.802
10076SOL    HW131127   5.218   7.002   4.753
10076SOL    HW231128   5.103   0.049   4.846
10077SOL     OW31129   3.800   2.366   6.408
10077SOL    HW131130   3.735   2.291   6.423
10077SOL    HW231131   3.788   2.403   6.316
10078SOL     OW31132   6.503   6.244   4.671
10078SOL    HW131133   6.580   6.305   4.653
10078SOL    HW231134   6.447   6.281   4.745
10079SOL     OW31135   1.621   2.938   2.136
10079SOL    HW131136   1.700   2.882   2.109
10079SOL    HW231137   1.542   2.910   2.082
10080SOL     OW31138   3.079   2.407   6.874
10080SOL    HW131139   3.145   2.481   6.877
10080SOL    HW231140   3.126   2.320   6.857
10081SOL     OW31141   0.847   0.331   6.244
10081SOL    HW131142   0.823   0.277   6.164
10081SOL    HW231143   0.847   0.273   6.325
10082SOL     OW31144   6.947   2.411   2.182
10082SOL    HW131145   6.951   2.405   2.282
10082SOL    HW231146   6.963   2.505   2.153
10083SOL     OW31147   4.687   1.236   3.865
10083SOL    HW131148   4.624   1.265   3.793
10083SOL    HW231149   4.654   1.150   3.905
10084SOL     OW31150   3.423   0.738   6.166
10084SOL    HW131151   3.417   0.824   6.115
10084SOL    HW231152   3.334   0.718   6.206
10085SOL     OW31153   0.612   4.983   3.179
10085SOL    HW131154   0.674   5.052   3.140
10085SOL    HW231155   0.627   4.978   3.278
10086SOL     OW31156   5.725   5.429   2.394
10086SOL    HW131157   5.719   5.373   2.477
10086SOL    HW231158   5.775   5.513   2.414
10087SOL     OW31159   0.986   0.982   4.279
10087SOL    HW131160   1.035   0.897   4.262
10087SOL    HW231161   0.899   0.962   4.325
10088SOL     OW31162   0.313   6.950   5.397
10088SOL    HW131163   0.325   7.012   5.319
10088SOL    HW231164   0.276   6.863   5.365
10089SOL     OW31165   2.673   1.500   3.435
10089SOL    HW131166   2.719   1.438   3.498
10089SOL    HW231167   2.650   1.451   3.351
10090SOL     OW31168   0.990   4.209   0.855
10090SOL    HW131169   0.964   4.113   0.841
10090SOL    HW231170   1.038   4.218   0.942
10091SOL     OW31171   1.198   3.798   4.573
10091SOL    HW131172   1.201   3.699   4.590
10091SOL    HW231173   1.177   3.815   4.477
10092SOL     OW31174   1.765   4.123   5.279
10092SOL    HW131175   1.819   4.045   5.249
10092SOL    HW231176   1.696   4.093   5.344
10093SOL     OW31177   0.653   5.161   5.147
10093SOL    HW131178   0.702   5.196   5.067
10093SOL    HW231179   0.562   5.202   5.151
10094SOL     OW31180   2.694   0.208   2.519
10094SOL    HW131181   2.636   0.230   2.440
10094SOL    HW231182   2.738   0.292   2.551
10095SOL     OW31183   6.015   1.505   4.989
10095SOL    HW131184   5.951   1.495   5.066
10095SOL    HW231185   5.971   1.555   4.915
10096SOL     OW31186   6.815   5.125   2.598
10096SOL    HW131187   6.803   5.103   2.695
10096SOL    HW231188   6.884   5.064   2.559
10097SOL     OW31189   1.026   1.047   0.446
10097SOL    HW131190   1.091   1.084   0.380
10097SOL    HW231191   0.934   1.083   0.428
10098SOL     OW31192   1.697   6.327   5.749
10098SOL    HW131193   1.706   6.250   5.685
10098SOL    HW231194   1.786   6.370   5.762
10099SOL     OW31195   0.577   4.146   6.206
10099SOL    HW131196   0.503   4.137   6.273
10099SOL    HW231197   0.573   4.070   6.141
10100SOL     OW31198   5.001   0.101   5.121
10100SOL    HW131199   4.904   0.080   5.133
10100SOL    HW231200   5.015   0.142   5.031
10101SOL     OW31201   6.685   4.292   1.763
10101SOL    HW131202   6.771   4.247   1.739
10101SOL    HW231203   6.692   4.332   1.854
10102SOL     OW31204   2.703   1.046   3.177
10102SOL    HW131205   2.673   1.103   3.101
10102SOL    HW231206   2.680   1.091   3.264
10103SOL     OW31207   3.359   1.062   4.819
10103SOL    HW131208   3.346   1.155   4.784
10103SOL    HW231209   3.284   1.039   4.880
10104SOL     OW31210   0.359   4.487   5.043
10104SOL    HW131211   0.357   4.582   5.010
10104SOL    HW231212   0.414   4.483   5.127
10105SOL     OW31213   1.046   1.000   5.750
10105SOL    HW131214   1.041   1.014   5.651
10105SOL    HW231215   0.954   1.000   5.789
10106SOL     OW31216   5.490   4.584   1.159
10106SOL    HW131217   5.515   4.616   1.250
10106SOL    HW231218   5.561   4.523   1.123
10107SOL     OW31219   6.605   1.875   6.079
10107SOL    HW131220   6.575   1.951   6.136
10107SOL    HW231221   6.547   1.795   6.096
10108SOL     OW31222   6.536   6.119   7.013
10108SOL    HW131223   6.508   6.071   0.074
10108SOL    HW231224   6.483   6.203   7.004
10109SOL     OW31225   4.402   6.480   2.547
10109SOL    HW131226   4.409   6.426   2.631
10109SOL    HW231227   4.365   6.570   2.569
10110SOL     OW31228   3.984   6.677   5.627
10110SOL    HW131229   3.940   6.765   5.610
10110SOL    HW231230   3.927   6.622   5.688
10111SOL     OW31231   6.682   3.468   3.250
10111SOL    HW131232   6.638   3.438   3.165
10111SOL    HW231233   6.654   3.407   3.325
10112SOL     OW31234   6.076   4.128   5.231
10112SOL    HW131235   6.110   4.129   5.325
10112SOL    HW231236   6.020   4.210   5.216
10113SOL     OW31237   3.863   1.203   6.873
10113SOL    HW131238   3.828   1.276   6.932
10113SOL    HW231239   3.963   1.207   6.872
10114SOL     OW31240   5.871   0.820   0.934
10114SOL    HW131241   5.788   0.778   0.970
10114SOL    HW231242   5.878   0.914   0.968
10115SOL     OW31243   2.524   2.218   3.317
10115SOL    HW131244   2.569   2.292   3.268
10115SOL    HW231245   2.504   2.248   3.411
10116SOL     OW31246   1.031   6.725   1.330
10116SOL    HW131247   1.071   6.813   1.359
10116SOL    HW231248   0.941   6.741   1.290
10117SOL     OW31249   6.764   0.620   4.431
10117SOL    HW131250   6.856   0.648   4.403
10117SOL    HW231251   6.752   0.522   4.411
10118SOL     OW31252   0.033   4.942   2.580
10118SOL    HW131253   0.055   4.920   2.675
10118SOL    HW231254   0.058   4.865   2.521
10119SOL     OW31255   2.426   6.882   4.331
10119SOL    HW131256   2.427   6.975   4.367
10119SOL    HW231257   2.345   6.869   4.275
10120SOL     OW31258   0.725   3.035   4.182
10120SOL    HW131259   0.809   3.029   4.236
10120SOL    HW231260   0.697   3.130   4.174
10121SOL     OW31261   6.556   4.862   4.971
10121SOL    HW131262   6.556   4.768   4.935
10121SOL    HW231263   6.649   4.900   4.964
10122SOL     OW31264   6.031   2.710   0.017
10122SOL    HW131265   6.076   2.714   0.106
10122SOL    HW231266   5.936   2.738   0.027
10123SOL     OW31267   6.170   6.016   0.108
10123SOL    HW131268   6.152   5.941   0.044
10123SOL    HW231269   6.268   6.018   0.129
10124SOL     OW31270   2.192   3.720   6.905
10124SOL    HW131271   2.223   3.627   6.927
10124SOL    HW231272   2.205   3.779   6.984
10125SOL     OW31273   1.985   0.524   2.430
10125SOL    HW131274   1.930   0.601   2.396
10125SOL    HW231275   1.955   0.440   2.385
10126SOL     OW31276   6.479   5.589   6.240
10126SOL    HW131277   6.476   5.491   6.219
10126SOL    HW231278   6.505   5.640   6.158
10127SOL     OW31279   2.908   5.414   5.984
10127SOL    HW131280   2.936   5.426   5.889
10127SOL    HW231281   2.848   5.490   6.011
10128SOL     OW31282   0.732   1.230   1.488
10128SOL    HW131283   0.715   1.306   1.551
10128SOL    HW231284   0.785   1.263   1.410
10129SOL     OW31285   4.659   2.713   3.945
10129SOL    HW131286   4.622   2.686   4.034
10129SOL    HW231287   4.614   2.661   3.872
10130SOL     OW31288   1.830   4.907   2.367
10130SOL    HW131289   1.887   4.901   2.285
10130SOL    HW231290   1.848   4.994   2.413
10131SOL     OW31291   0.584   1.959   3.133
10131SOL    HW131292   0.545   2.050   3.137
10131SOL    HW231293   0.595   1.923   3.226
10132SOL     OW31294   3.316   6.115   3.014
10132SOL    HW131295   3.346   6.052   3.085
10132SOL    HW231296   3.386   6.122   2.943
10133SOL     OW31297   4.567   6.348   2.369
10133SOL    HW131298   4.534   6.418   2.431
10133SOL    HW231299   4.491   6.290   2.339
10134SOL     OW31300   6.452   0.350   4.080
10134SOL    HW131301   6.482   0.254   4.078
10134SOL    HW231302   6.402   0.371   3.996
10135SOL     OW31303   5.179   3.488   2.675
10135SOL    HW131304   5.278   3.477   2.668
10135SOL    HW231305   5.155   3.585   2.675
10136SOL     OW31306   5.368   0.135   2.824
10136SOL    HW131307   5.365   0.208   2.892
10136SOL    HW231308   5.436   0.067   2.851
10137SOL     OW31309   6.948   5.435   3.586
10137SOL    HW131310   6.985   5.444   3.493
10137SOL    HW231311   7.000   5.494   3.648
10138SOL     OW31312   4.695   2.400   0.982
10138SOL    HW131313   4.644   2.316   0.964
10138SOL    HW231314   4.667   2.471   0.918
10139SOL     OW31315   3.893   3.225   2.667
10139SOL    HW131316   3.860   3.220   2.761
10139SOL    HW231317   3.885   3.136   2.623
10140SOL     OW31318   6.044   6.083   5.839
10140SOL    HW131319   6.063   6.096   5.742
10140SOL    HW231320   5.965   6.023   5.850
10141SOL     OW31321   3.448   2.055   4.517
10141SOL    HW131322   3.363   2.090   4.478
10141SOL    HW231323   3.427   1.994   4.593
10142SOL     OW31324   5.608   5.997   5.022
10142SOL    HW131325   5.610   6.055   5.104
10142SOL    HW231326   5.697   5.999   4.977
10143SOL     OW31327   4.436   0.111   1.256
10143SOL    HW131328   4.431   0.077   1.351
10143SOL    HW231329   4.445   0.210   1.257
10144SOL     OW31330   4.512   6.410   6.049
10144SOL    HW131331   4.423   6.365   6.044
10144SOL    HW231332   4.511   6.477   6.123
10145SOL     OW31333   3.310   6.640   5.856
10145SOL    HW131334   3.306   6.540   5.853
10145SOL    HW231335   3.227   6.678   5.815
10146SOL     OW31336   3.550   5.052   5.426
10146SOL    HW131337   3.549   4.993   5.506
10146SOL    HW231338   3.614   5.015   5.358
10147SOL     OW31339   5.688   4.425   4.617
10147SOL    HW131340   5.590   4.415   4.636
10147SOL    HW231341   5.741   4.374   4.685
10148SOL     OW31342   6.280   5.227   6.994
10148SOL    HW131343   6.242   5.166   6.924
10148SOL    HW231344   6.372   5.255   6.967
10149SOL     OW31345   5.020   2.068   0.549
10149SOL    HW131346   5.046   2.104   0.639
10149SOL    HW231347   5.097   2.076   0.486
10150SOL     OW31348   4.794   4.182   0.466
10150SOL    HW131349   4.892   4.199   0.458
10150SOL    HW231350   4.756   4.162   0.376
10151SOL     OW31351   1.072   0.296   6.120
10151SOL    HW131352   0.994   0.326   6.176
10151SOL    HW231353   1.154   0.292   6.176
10152SOL     OW31354   2.026   5.743   4.276
10152SOL    HW131355   1.938   5.700   4.293
10152SOL    HW231356   2.095   5.674   4.256
10153SOL     OW31357   4.308   6.014   4.051
10153SOL    HW131358   4.249   5.938   4.022
10153SOL    HW231359   4.372   5.981   4.120
10154SOL     OW31360   6.097   7.002   5.437
10154SOL    HW131361   6.064   6.908   5.441
10154SOL    HW231362   6.064   0.030   5.516
10155SOL     OW31363   4.304   1.694   5.781
10155SOL    HW131364   4.273   1.604   5.748
10155SOL    HW231365   4.239   1.728   5.849
10156SOL     OW31366   6.409   0.368   2.182
10156SOL    HW131367   6.387   0.403   2.091
10156SOL    HW231368   6.467   0.435   2.230
10157SOL     OW31369   5.772   2.421   5.936
10157SOL    HW131370   5.768   2.349   5.866
10157SOL    HW231371   5.787   2.509   5.891
10158SOL     OW31372   4.581   3.516   0.013
10158SOL    HW131373   4.618   3.468   0.092
10158SOL    HW231374   4.597   3.461   6.953
10159SOL     OW31375   2.622   3.471   6.057
10159SOL    HW131376   2.690   3.530   6.101
10159SOL    HW231377   2.553   3.527   6.012
10160SOL     OW31378   1.131   3.992   2.296
10160SOL    HW131379   1.194   3.991   2.374
10160SOL    HW231380   1.084   4.080   2.292
10161SOL     OW31381   3.411   4.542   0.720
10161SOL    HW131382   3.334   4.556   0.783
10161SOL    HW231383   3.418   4.621   0.659
10162SOL     OW31384   2.574   4.264   0.536
10162SOL    HW131385   2.560   4.167   0.557
10162SOL    HW231386   2.529   4.320   0.606
10163SOL     OW31387   5.459   4.464   6.687
10163SOL    HW131388   5.512   4.462   6.602
10163SOL    HW231389   5.373   4.512   6.672
10164SOL     OW31390   6.121   3.287   4.955
10164SOL    HW131391   6.178   3.226   4.901
10164SOL    HW231392   6.169   3.314   5.038
10165SOL     OW31393   1.361   2.648   3.882
10165SOL    HW131394   1.379   2.611   3.791
10165SOL    HW231395   1.443   2.639   3.939
10166SOL     OW31396   3.360   1.039   1.853
10166SOL    HW131397   3.376   1.012   1.947
10166SOL    HW231398   3.407   0.976   1.791
10167SOL     OW31399   4.256   1.938   6.114
10167SOL    HW131400   4.197   1.887   6.051
10167SOL    HW231401   4.351   1.927   6.086
10168SOL     OW31402   6.807   4.198   4.911
10168SOL    HW131403   6.904   4.198   4.888
10168SOL    HW231404   6.765   4.113   4.880
10169SOL     OW31405   6.515   3.909   3.160
10169SOL    HW131406   6.587   3.911   3.091
10169SOL    HW231407   6.540   3.845   3.232
10170SOL     OW31408   1.039   4.288   5.757
10170SOL    HW131409   1.027   4.260   5.662
10170SOL    HW231410   1.092   4.218   5.805
10171SOL     OW31411   6.565   4.007   6.163
10171SOL    HW131412   6.479   4.055   6.147
10171SOL    HW231413   6.589   3.954   6.081
10172SOL     OW31414   6.079   6.819   3.511
10172SOL    HW131415   6.042   6.853   3.598
10172SOL    HW231416   6.107   6.724   3.523
10173SOL     OW31417   1.627   2.450   0.886
10173SOL    HW131418   1.652   2.362   0.925
10173SOL    HW231419   1.530   2.468   0.902
10174SOL     OW31420   5.554   5.319   1.840
10174SOL    HW131421   5.621   5.290   1.908
10174SOL    HW231422   5.526   5.240   1.786
10175SOL     OW31423   6.804   2.490   3.847
10175SOL    HW131424   6.707   2.480   3.827
10175SOL    HW231425   6.818   2.566   3.910
10176SOL     OW31426   1.402   3.336   5.557
10176SOL    HW131427   1.464   3.373   5.626
10176SOL    HW231428   1.455   3.303   5.479
10177SOL     OW31429   1.930   0.722   0.430
10177SOL    HW131430   1.996   0.721   0.354
10177SOL    HW231431   1.867   0.645   0.421
10178SOL     OW31432   6.579   3.108   4.866
10178SOL    HW131433   6.639   3.093   4.944
10178SOL    HW231434   6.599   3.040   4.795
10179SOL     OW31435   0.769   1.680   6.014
10179SOL    HW131436   0.808   1.772   6.004
10179SOL    HW231437   0.721   1.655   5.930
10180SOL     OW31438   4.146   6.648   6.757
10180SOL    HW131439   4.204   6.659   6.839
10180SOL    HW231440   4.061   6.601   6.783
10181SOL     OW31441   4.894   3.567   1.798
10181SOL    HW131442   4.985   3.535   1.770
10181SOL    HW231443   4.827   3.494   1.786
10182SOL     OW31444   5.627   1.455   2.394
10182SOL    HW131445   5.626   1.543   2.440
10182SOL    HW231446   5.707   1.450   2.334
10183SOL     OW31447   1.018   1.821   6.318
10183SOL    HW131448   0.965   1.746   6.357
10183SOL    HW231449   0.956   1.887   6.276
10184SOL     OW31450   4.156   1.196   6.243
10184SOL    HW131451   4.142   1.137   6.164
10184SOL    HW231452   4.073   1.247   6.262
10185SOL     OW31453   5.388   5.931   1.428
10185SOL    HW131454   5.470   5.983   1.404
10185SOL    HW231455   5.330   5.920   1.347
10186SOL     OW31456   5.755   3.082   2.921
10186SOL    HW131457   5.773   3.064   3.017
10186SOL    HW231458   5.738   3.180   2.908
10187SOL     OW31459   0.351   2.300   1.306
10187SOL    HW131460   0.318   2.394   1.310
10187SOL    HW231461   0.387   2.273   1.395
10188SOL     OW31462   3.660   6.249   0.633
10188SOL    HW131463   3.629   6.235   0.727
10188SOL    HW231464   3.672   6.346   0.616
10189SOL     OW31465   2.069   0.612   5.385
10189SOL    HW131466   2.162   0.636   5.357
10189SOL    HW231467   2.069   0.522   5.428
10190SOL     OW31468   4.815   2.873   1.413
10190SOL    HW131469   4.879   2.937   1.456
10190SOL    HW231470   4.771   2.918   1.336
10191SOL     OW31471   4.843   3.950   6.821
10191SOL    HW131472   4.864   3.914   6.912
10191SOL    HW231473   4.745   3.969   6.815
10192SOL     OW31474   4.459   0.675   5.569
10192SOL    HW131475   4.439   0.708   5.662
10192SOL    HW231476   4.440   0.577   5.564
10193SOL     OW31477   4.137   3.598   1.900
10193SOL    HW131478   4.199   3.522   1.881
10193SOL    HW231479   4.143   3.623   1.996
10194SOL     OW31480   6.062   4.487   5.273
10194SOL    HW131481   6.054   4.478   5.373
10194SOL    HW231482   6.137   4.430   5.240
10195SOL     OW31483   6.325   4.419   1.041
10195SOL    HW131484   6.346   4.481   1.117
10195SOL    HW231485   6.363   4.329   1.060
10196SOL     OW31486   5.251   1.607   4.854
10196SOL    HW131487   5.236   1.702   4.825
10196SOL    HW231488   5.166   1.571   4.892
10197SOL     OW31489   6.742   2.328   4.848
10197SOL    HW131490   6.763   2.232   4.866
10197SOL    HW231491   6.692   2.336   4.762
10198SOL     OW31492   3.841   0.758   1.873
10198SOL    HW131493   3.752   0.717   1.851
10198SOL    HW231494   3.829   0.856   1.890
10199SOL     OW31495   2.243   3.036   5.997
10199SOL    HW131496   2.206   2.961   6.052
10199SOL    HW231497   2.233   3.123   6.046
10200SOL     OW31498   5.057   2.151   0.869
10200SOL    HW131499   5.106   2.064   0.874
10200SOL    HW231500   4.959   2.134   0.858
10201SOL     OW31501   0.712   4.831   0.672
10201SOL    HW131502   0.797   4.793   0.635
10201SOL    HW231503   0.663   4.759   0.721
10202SOL     OW31504   3.493   2.631   6.150
10202SOL    HW131505   3.417   2.626   6.085
10202SOL    HW231506   3.573   2.670   6.106
10203SOL     OW31507   5.679   2.997   3.940
10203SOL    HW131508   5.647   3.009   3.846
10203SOL    HW231509   5.765   3.046   3.953
10204SOL     OW31510   5.703   0.273   6.993
10204SOL    HW131511   5.767   0.313   0.037
10204SOL    HW231512   5.710   0.324   6.907
10205SOL     OW31513   0.593   1.595   0.571
10205SOL    HW131514   0.573   1.595   0.669
10205SOL    HW231515   0.580   1.687   0.534
10206SOL     OW31516   0.650   0.498   5.939
10206SOL    HW131517   0.739   0.453   5.927
10206SOL    HW231518   0.636   0.564   5.864
10207SOL     OW31519   1.187   1.770   6.588
10207SOL    HW131520   1.163   1.687   6.638
10207SOL    HW231521   1.190   1.750   6.490
10208SOL     OW31522   5.723   5.035   3.934
10208SOL    HW131523   5.638   5.088   3.935
10208SOL    HW231524   5.763   5.034   4.026
10209SOL     OW31525   6.826   7.019   6.193
10209SOL    HW131526   6.821   7.018   6.093
10209SOL    HW231527   6.808   6.927   6.228
10210SOL     OW31528   4.688   6.525   1.351
10210SOL    HW131529   4.610   6.588   1.344
10210SOL    HW231530   4.770   6.576   1.377
10211SOL     OW31531   3.704   6.933   4.388
10211SOL    HW131532   3.795   6.965   4.361
10211SOL    HW231533   3.684   6.847   4.341
10212SOL     OW31534   1.279   0.496   4.887
10212SOL    HW131535   1.206   0.561   4.867
10212SOL    HW231536   1.242   0.403   4.886
10213SOL     OW31537   4.435   3.090   1.093
10213SOL    HW131538   4.413   3.103   1.189
10213SOL    HW231539   4.393   3.005   1.060
10214SOL     OW31540   1.317   2.419   1.669
10214SOL    HW131541   1.281   2.374   1.751
10214SOL    HW231542   1.411   2.449   1.686
10215SOL     OW31543   3.958   3.182   3.194
10215SOL    HW131544   4.054   3.209   3.198
10215SOL    HW231545   3.917   3.194   3.285
10216SOL     OW31546   6.937   0.976   1.569
10216SOL    HW131547   6.954   1.063   1.523
10216SOL    HW231548   6.995   0.905   1.530
10217SOL     OW31549   3.066   1.096   3.306
10217SOL    HW131550   3.156   1.113   3.266
10217SOL    HW231551   3.011   1.179   3.300
10218SOL     OW31552   1.287   3.315   1.846
10218SOL    HW131553   1.345   3.270   1.914
10218SOL    HW231554   1.344   3.361   1.778
10219SOL     OW31555   0.160   1.939   2.587
10219SOL    HW131556   0.162   2.029   2.543
10219SOL    HW231557   0.170   1.868   2.517
10220SOL     OW31558   3.799   3.342   1.281
10220SOL    HW131559   3.801   3.344   1.381
10220SOL    HW231560   3.875   3.286   1.247
10221SOL     OW31561   0.945   5.439   2.846
10221SOL    HW131562   0.956   5.497   2.927
10221SOL    HW231563   1.029   5.388   2.830
10222SOL     OW31564   3.081   3.430   4.956
10222SOL    HW131565   3.170   3.389   4.938
10222SOL    HW231566   3.018   3.359   4.989
10223SOL     OW31567   0.233   4.984   0.973
10223SOL    HW131568   0.183   5.056   1.022
10223SOL    HW231569   0.169   4.928   0.922
10224SOL     OW31570   5.859   3.101   3.443
10224SOL    HW131571   5.890   3.013   3.479
10224SOL    HW231572   5.918   3.129   3.368
10225SOL     OW31573   1.932   4.427   5.906
10225SOL    HW131574   1.867   4.495   5.940
10225SOL    HW231575   1.883   4.355   5.858
10226SOL     OW31576   3.739   0.991   0.422
10226SOL    HW131577   3.715   0.925   0.351
10226SOL    HW231578   3.662   1.052   0.437
10227SOL     OW31579   5.277   3.826   0.619
10227SOL    HW131580   5.274   3.802   0.522
10227SOL    HW231581   5.222   3.908   0.635
10228SOL     OW31582   6.422   0.091   0.710
10228SOL    HW131583   6.499   0.134   0.662
10228SOL    HW231584   6.429   0.109   0.808
10229SOL     OW31585   0.421   3.599   5.123
10229SOL    HW131586   0.438   3.692   5.090
10229SOL    HW231587   0.501   3.542   5.105
10230SOL     OW31588   6.442   5.447   2.696
10230SOL    HW131589   6.351   5.415   2.721
10230SOL    HW231590   6.496   5.463   2.779
10231SOL     OW31591   1.530   6.275   4.031
10231SOL    HW131592   1.531   6.336   3.952
10231SOL    HW231593   1.577   6.190   4.008
10232SOL     OW31594   3.331   0.907   3.467
10232SOL    HW131595   3.332   0.916   3.567
10232SOL    HW231596   3.237   0.907   3.434
10233SOL     OW31597   3.748   3.995   5.710
10233SOL    HW131598   3.742   3.989   5.809
10233SOL    HW231599   3.841   3.973   5.680
10234SOL     OW31600   6.185   0.298   1.166
10234SOL    HW131601   6.208   0.202   1.180
10234SOL    HW231602   6.135   0.332   1.246
10235SOL     OW31603   1.495   1.275   2.919
10235SOL    HW131604   1.480   1.322   3.006
10235SOL    HW231605   1.555   1.331   2.861
10236SOL     OW31606   2.307   6.460   0.122
10236SOL    HW131607   2.251   6.515   0.185
10236SOL    HW231608   2.395   6.440   0.166
10237SOL     OW31609   0.315   3.271   0.179
10237SOL    HW131610   0.274   3.297   0.092
10237SOL    HW231611   0.301   3.173   0.195
10238SOL     OW31612   4.287   5.215   1.285
10238SOL    HW131613   4.234   5.209   1.369
10238SOL    HW231614   4.297   5.311   1.258
10239SOL     OW31615   1.408   2.652   4.988
10239SOL    HW131616   1.347   2.615   5.059
10239SOL    HW231617   1.375   2.741   4.959
10240SOL     OW31618   2.720   6.769   2.036
10240SOL    HW131619   2.769   6.682   2.033
10240SOL    HW231620   2.623   6.754   2.016
10241SOL     OW31621   5.265   1.980   1.984
10241SOL    HW131622   5.336   2.018   1.924
10241SOL    HW231623   5.235   2.051   2.048
10242SOL     OW31624   0.236   2.422   0.968
10242SOL    HW131625   0.154   2.473   0.943
10242SOL    HW231626   0.279   2.464   1.048
10243SOL     OW31627   2.649   4.807   1.309
10243SOL    HW131628   2.571   4.868   1.322
10243SOL    HW231629   2.631   4.747   1.231
10244SOL     OW31630   2.422   3.911   1.255
10244SOL    HW131631   2.460   3.819   1.241
10244SOL    HW231632   2.345   3.906   1.318
10245SOL     OW31633   3.575   3.930   1.411
10245SOL    HW131634   3.624   3.917   1.497
10245SOL    HW231635   3.493   3.874   1.411
10246SOL     OW31636   3.149   3.132   4.475
10246SOL    HW131637   3.120   3.135   4.379
10246SOL    HW231638   3.203   3.049   4.490
10247SOL     OW31639   0.711   4.642   5.004
10247SOL    HW131640   0.650   4.721   4.995
10247SOL    HW231641   0.767   4.652   5.086
10248SOL     OW31642   1.120   0.019   3.848
10248SOL    HW131643   1.152   0.102   3.804
10248SOL    HW231644   1.054   6.995   3.788
10249SOL     OW31645   1.699   4.630   0.050
10249SOL    HW131646   1.707   4.563   6.999
10249SOL    HW231647   1.629   4.601   0.115
10250SOL     OW31648   6.140   2.936   0.606
10250SOL    HW131649   6.155   2.985   0.692
10250SOL    HW231650   6.079   2.858   0.622
10251SOL     OW31651   1.619   0.533   3.755
10251SOL    HW131652   1.594   0.591   3.833
10251SOL    HW231653   1.613   0.587   3.671
10252SOL     OW31654   4.931   3.503   5.311
10252SOL    HW131655   4.842   3.504   5.265
10252SOL    HW231656   4.966   3.597   5.317
10253SOL     OW31657   4.086   6.666   0.400
10253SOL    HW131658   4.014   6.720   0.444
10253SOL    HW231659   4.130   6.607   0.468
10254SOL     OW31660   4.750   1.690   5.421
10254SOL    HW131661   4.678   1.697   5.491
10254SOL    HW231662   4.822   1.756   5.442
10255SOL     OW31663   2.230   5.963   1.331
10255SOL    HW131664   2.324   5.962   1.297
10255SOL    HW231665   2.219   5.893   1.401
10256SOL     OW31666   5.347   1.095   1.918
10256SOL    HW131667   5.323   0.997   1.920
10256SOL    HW231668   5.371   1.124   2.011
10257SOL     OW31669   2.578   4.854   3.436
10257SOL    HW131670   2.581   4.906   3.351
10257SOL    HW231671   2.671   4.832   3.465
10258SOL     OW31672   3.627   2.106   3.045
10258SOL    HW131673   3.604   2.029   2.986
10258SOL    HW231674   3.640   2.074   3.139
10259SOL     OW31675   1.103   4.165   3.863
10259SOL    HW131676   1.135   4.093   3.924
10259SOL    HW231677   1.006   4.181   3.877
10260SOL     OW31678   1.354   1.455   3.843
10260SOL    HW131679   1.285   1.485   3.909
10260SOL    HW231680   1.365   1.356   3.848
10261SOL     OW31681   0.387   3.957   0.823
10261SOL    HW131682   0.375   3.868   0.867
10261SOL    HW231683   0.330   3.962   0.740
10262SOL     OW31684   4.121   0.475   6.590
10262SOL    HW131685   4.072   0.557   6.620
10262SOL    HW231686   4.055   0.409   6.553
10263SOL     OW31687   6.102   0.426   0.670
10263SOL    HW131688   6.088   0.524   0.680
10263SOL    HW231689   6.097   0.383   0.760
10264SOL     OW31690   5.713   4.835   6.565
10264SOL    HW131691   5.750   4.744   6.584
10264SOL    HW231692   5.709   4.888   6.650
10265SOL     OW31693   2.245   2.625   0.580
10265SOL    HW131694   2.167   2.574   0.616
10265SOL    HW231695   2.247   2.618   0.480
10266SOL     OW31696   3.247   2.937   2.684
10266SOL    HW131697   3.327   2.881   2.663
10266SOL    HW231698   3.242   2.953   2.782
10267SOL     OW31699   5.141   0.897   0.958
10267SOL    HW131700   5.152   0.996   0.969
10267SOL    HW231701   5.178   0.869   0.869
10268SOL     OW31702   5.652   6.493   1.760
10268SOL    HW131703   5.655   6.563   1.688
10268SOL    HW231704   5.668   6.403   1.718
10269SOL     OW31705   1.448   2.617   6.539
10269SOL    HW131706   1.512   2.605   6.464
10269SOL    HW231707   1.369   2.670   6.508
10270SOL     OW31708   3.421   5.962   2.338
10270SOL    HW131709   3.406   5.975   2.436
10270SOL    HW231710   3.518   5.972   2.317
10271SOL     OW31711   3.048   2.528   0.821
10271SOL    HW131712   3.068   2.618   0.783
10271SOL    HW231713   3.037   2.534   0.920
10272SOL     OW31714   6.890   1.357   3.768
10272SOL    HW131715   6.803   1.348   3.818
10272SOL    HW231716   6.966   1.359   3.833
10273SOL     OW31717   3.108   4.869   4.671
10273SOL    HW131718   3.044   4.805   4.628
10273SOL    HW231719   3.067   4.908   4.753
10274SOL     OW31720   0.680   5.183   5.606
10274SOL    HW131721   0.648   5.108   5.663
10274SOL    HW231722   0.739   5.244   5.659
10275SOL     OW31723   0.085   0.589   2.730
10275SOL    HW131724   0.019   0.585   2.655
10275SOL    HW231725   0.051   0.651   2.801
10276SOL     OW31726   4.601   5.699   5.470
10276SOL    HW131727   4.691   5.677   5.430
10276SOL    HW231728   4.603   5.791   5.508
10277SOL     OW31729   0.818   0.312   4.516
10277SOL    HW131730   0.805   0.261   4.602
10277SOL    HW231731   0.759   0.273   4.445
10278SOL     OW31732   0.226   0.742   4.822
10278SOL    HW131733   0.283   0.759   4.903
10278SOL    HW231734   0.153   0.678   4.845
10279SOL     OW31735   2.740   5.610   4.100
10279SOL    HW131736   2.751   5.512   4.117
10279SOL    HW231737   2.750   5.660   4.186
10280SOL     OW31738   5.367   3.529   0.213
10280SOL    HW131739   5.333   3.512   0.305
10280SOL    HW231740   5.290   3.542   0.150
10281SOL     OW31741   0.252   2.391   3.201
10281SOL    HW131742   0.285   2.435   3.285
10281SOL    HW231743   0.215   2.460   3.139
10282SOL     OW31744   5.023   3.232   3.215
10282SOL    HW131745   4.942   3.177   3.192
10282SOL    HW231746   5.073   3.254   3.131
10283SOL     OW31747   0.804   3.154   0.821
10283SOL    HW131748   0.880   3.184   0.878
10283SOL    HW231749   0.824   3.174   0.725
10284SOL     OW31750   6.619   2.221   3.993
10284SOL    HW131751   6.608   2.240   3.895
10284SOL    HW231752   6.709   2.254   4.022
10285SOL     OW31753   3.996   0.070   3.176
10285SOL    HW131754   3.992   0.011   3.096
10285SOL    HW231755   3.944   0.029   3.251
10286SOL     OW31756   3.482   0.764   3.727
10286SOL    HW131757   3.401   0.822   3.724
10286SOL    HW231758   3.459   0.672   3.695
10287SOL     OW31759   1.624   5.764   2.019
10287SOL    HW131760   1.561   5.712   1.962
10287SOL    HW231761   1.713   5.769   1.974
10288SOL     OW31762   3.276   6.811   4.727
10288SOL    HW131763   3.358   6.755   4.712
10288SOL    HW231764   3.224   6.775   4.804
10289SOL     OW31765   3.210   5.485   0.836
10289SOL    HW131766   3.223   5.575   0.796
10289SOL    HW231767   3.276   5.471   0.910
10290SOL     OW31768   2.866   3.435   2.430
10290SOL    HW131769   2.887   3.341   2.457
10290SOL    HW231770   2.768   3.444   2.415
10291SOL     OW31771   3.586   1.278   3.211
10291SOL    HW131772   3.662   1.343   3.202
10291SOL    HW231773   3.596   1.228   3.298
10292SOL     OW31774   0.200   1.330   6.284
10292SOL    HW131775   0.271   1.275   6.327
10292SOL    HW231776   0.137   1.271   6.234
10293SOL     OW31777   0.507   3.317   3.624
10293SOL    HW131778   0.426   3.360   3.663
10293SOL    HW231779   0.589   3.363   3.657
10294SOL     OW31780   4.050   1.852   2.783
10294SOL    HW131781   3.950   1.858   2.784
10294SOL    HW231782   4.086   1.903   2.705
10295SOL     OW31783   0.922   2.277   6.240
10295SOL    HW131784   0.834   2.281   6.193
10295SOL    HW231785   0.995   2.266   6.172
10296SOL     OW31786   5.832   1.297   5.987
10296SOL    HW131787   5.779   1.376   5.960
10296SOL    HW231788   5.793   1.257   6.071
10297SOL     OW31789   2.448   1.589   0.036
10297SOL    HW131790   2.547   1.591   0.051
10297SOL    HW231791   2.406   1.662   0.089
10298SOL     OW31792   1.705   4.591   2.028
10298SOL    HW131793   1.696   4.503   1.981
10298SOL    HW231794   1.738   4.576   2.121
10299SOL     OW31795   4.471   6.541   2.132
10299SOL    HW131796   4.529   6.571   2.057
10299SOL    HW231797   4.445   6.446   2.118
10300SOL     OW31798   1.263   4.187   1.553
10300SOL    HW131799   1.226   4.100   1.521
10300SOL    HW231800   1.361   4.190   1.534
10301SOL     OW31801   4.359   1.558   5.097
10301SOL    HW131802   4.333   1.484   5.035
10301SOL    HW231803   4.386   1.520   5.185
10302SOL     OW31804   2.451   6.324   3.680
10302SOL    HW131805   2.392   6.292   3.606
10302SOL    HW231806   2.473   6.248   3.741
10303SOL     OW31807   0.854   5.778   3.792
10303SOL    HW131808   0.792   5.856   3.793
10303SOL    HW231809   0.946   5.808   3.769
10304SOL     OW31810   6.235   0.032   1.276
10304SOL    HW131811   6.259   7.020   1.185
10304SOL    HW231812   6.147   7.015   1.303
10305SOL     OW31813   3.018   4.301   6.026
10305SOL    HW131814   2.984   4.215   5.987
10305SOL    HW231815   3.051   4.360   5.952
10306SOL     OW31816   5.084   6.242   0.609
10306SOL    HW131817   5.178   6.229   0.639
10306SOL    HW231818   5.046   6.324   0.650
10307SOL     OW31819   2.961   1.897   5.081
10307SOL    HW131820   2.899   1.824   5.052
10307SOL    HW231821   2.927   1.985   5.048
10308SOL     OW31822   2.218   4.124   2.483
10308SOL    HW131823   2.218   4.039   2.536
10308SOL    HW231824   2.184   4.105   2.391
10309SOL     OW31825   6.440   1.170   6.329
10309SOL    HW131826   6.387   1.158   6.412
10309SOL    HW231827   6.380   1.203   6.256
10310SOL     OW31828   3.307   3.788   6.672
10310SOL    HW131829   3.221   3.758   6.715
10310SOL    HW231830   3.356   3.848   6.735
10311SOL     OW31831   6.490   5.387   0.193
10311SOL    HW131832   6.548   5.311   0.164
10311SOL    HW231833   6.400   5.352   0.219
10312SOL     OW31834   4.954   0.550   2.364
10312SOL    HW131835   4.966   0.521   2.458
10312SOL    HW231836   4.913   0.476   2.310
10313SOL     OW31837   3.756   5.869   2.813
10313SOL    HW131838   3.761   5.815   2.898
10313SOL    HW231839   3.831   5.842   2.752
10314SOL     OW31840   0.179   0.395   0.284
10314SOL    HW131841   0.119   0.377   0.206
10314SOL    HW231842   0.258   0.448   0.254
10315SOL     OW31843   5.340   0.029   4.181
10315SOL    HW131844   5.333   6.972   4.242
10315SOL    HW231845   5.297   0.108   4.225
10316SOL     OW31846   6.438   2.615   5.986
10316SOL    HW131847   6.390   2.665   6.058
10316SOL    HW231848   6.537   2.625   5.999
10317SOL     OW31849   3.804   5.790   6.313
10317SOL    HW131850   3.884   5.825   6.263
10317SOL    HW231851   3.772   5.859   6.377
10318SOL     OW31852   5.054   0.866   6.222
10318SOL    HW131853   5.068   0.896   6.317
10318SOL    HW231854   4.968   0.814   6.216
10319SOL     OW31855   0.803   4.580   5.260
10319SOL    HW131856   0.831   4.675   5.274
10319SOL    HW231857   0.832   4.525   5.339
10320SOL     OW31858   0.356   5.970   2.843
10320SOL    HW131859   0.318   6.038   2.780
10320SOL    HW231860   0.325   5.990   2.936
10321SOL     OW31861   5.854   2.035   2.294
10321SOL    HW131862   5.881   2.041   2.390
10321SOL    HW231863   5.781   1.967   2.284
10322SOL     OW31864   4.060   5.174   5.235
10322SOL    HW131865   4.158   5.167   5.221
10322SOL    HW231866   4.034   5.127   5.320
10323SOL     OW31867   6.592   5.109   4.788
10323SOL    HW131868   6.510   5.053   4.776
10323SOL    HW231869   6.672   5.050   4.800
10324SOL     OW31870   3.258   3.284   2.900
10324SOL    HW131871   3.289   3.250   2.812
10324SOL    HW231872   3.160   3.266   2.910
10325SOL     OW31873   0.420   4.870   2.543
10325SOL    HW131874   0.419   4.970   2.552
10325SOL    HW231875   0.468   4.844   2.460
10326SOL     OW31876   5.813   3.895   6.521
10326SOL    HW131877   5.902   3.886   6.477
10326SOL    HW231878   5.825   3.904   6.620
10327SOL     OW31879   2.472   3.331   1.657
10327SOL    HW131880   2.430   3.361   1.743
10327SOL    HW231881   2.508   3.238   1.667
10328SOL     OW31882   6.306   2.610   1.861
10328SOL    HW131883   6.273   2.557   1.783
10328SOL    HW231884   6.253   2.695   1.868
10329SOL     OW31885   3.022   0.836   2.922
10329SOL    HW131886   3.105   0.805   2.875
10329SOL    HW231887   3.012   0.935   2.909
10330SOL     OW31888   4.286   0.367   1.870
10330SOL    HW131889   4.346   0.364   1.790
10330SOL    HW231890   4.302   0.287   1.927
10331SOL     OW31891   6.317   6.057   6.437
10331SOL    HW131892   6.255   6.004   6.496
10331SOL    HW231893   6.341   6.142   6.484
10332SOL     OW31894   0.820   0.177   6.464
10332SOL    HW131895   0.735   0.222   6.489
10332SOL    HW231896   0.870   0.151   6.547
10333SOL     OW31897   0.216   5.965   4.827
10333SOL    HW131898   0.162   5.882   4.814
10333SOL    HW231899   0.304   5.942   4.868
10334SOL     OW31900   3.240   0.342   4.157
10334SOL    HW131901   3.210   0.247   4.150
10334SOL    HW231902   3.318   0.357   4.096
10335SOL     OW31903   1.651   4.503   6.616
10335SOL    HW131904   1.584   4.528   6.687
10335SOL    HW231905   1.725   4.450   6.658
10336SOL     OW31906   6.396   0.080   2.144
10336SOL    HW131907   6.411   0.178   2.146
10336SOL    HW231908   6.421   0.044   2.053
10337SOL     OW31909   0.427   5.679   6.484
10337SOL    HW131910   0.465   5.699   6.575
10337SOL    HW231911   0.482   5.608   6.440
10338SOL     OW31912   1.467   6.379   2.189
10338SOL    HW131913   1.409   6.375   2.107
10338SOL    HW231914   1.415   6.421   2.264
10339SOL     OW31915   6.153   3.603   6.160
10339SOL    HW131916   6.153   3.572   6.065
10339SOL    HW231917   6.060   3.599   6.197
10340SOL     OW31918   1.887   2.635   6.661
10340SOL    HW131919   1.817   2.641   6.590
10340SOL    HW231920   1.881   2.714   6.721
10341SOL     OW31921   2.056   3.433   2.235
10341SOL    HW131922   1.976   3.491   2.221
10341SOL    HW231923   2.126   3.456   2.166
10342SOL     OW31924   1.442   0.366   3.500
10342SOL    HW131925   1.379   0.408   3.566
10342SOL    HW231926   1.532   0.408   3.509
10343SOL     OW31927   2.554   5.310   0.930
10343SOL    HW131928   2.583   5.215   0.939
10343SOL    HW231929   2.616   5.369   0.983
10344SOL     OW31930   3.799   4.008   0.260
10344SOL    HW131931   3.714   4.041   0.300
10344SOL    HW231932   3.874   4.021   0.325
10345SOL     OW31933   1.793   3.196   5.595
10345SOL    HW131934   1.767   3.197   5.692
10345SOL    HW231935   1.798   3.101   5.563
10346SOL     OW31936   6.925   5.498   1.221
10346SOL    HW131937   6.969   5.584   1.195
10346SOL    HW231938   6.987   5.422   1.202
10347SOL     OW31939   4.607   1.092   3.236
10347SOL    HW131940   4.572   1.162   3.173
10347SOL    HW231941   4.658   1.023   3.184
10348SOL     OW31942   5.991   2.484   0.315
10348SOL    HW131943   6.025   2.437   0.234
10348SOL    HW231944   5.998   2.583   0.301
10349SOL     OW31945   0.468   0.596   6.849
10349SOL    HW131946   0.458   0.524   6.918
10349SOL    HW231947   0.516   0.674   6.889
10350SOL     OW31948   2.726   5.505   5.285
10350SOL    HW131949   2.743   5.408   5.268
10350SOL    HW231950   2.760   5.530   5.376
10351SOL     OW31951   4.797   5.274   6.972
10351SOL    HW131952   4.831   5.304   6.883
10351SOL    HW231953   4.872   5.235   0.003
10352SOL     OW31954   3.425   0.809   6.661
10352SOL    HW131955   3.515   0.838   6.627
10352SOL    HW231956   3.401   0.721   6.619
10353SOL     OW31957   6.634   2.967   4.647
10353SOL    HW131958   6.574   2.889   4.628
10353SOL    HW231959   6.644   3.023   4.565
10354SOL     OW31960   5.808   0.653   1.355
10354SOL    HW131961   5.755   0.599   1.289
10354SOL    HW231962   5.763   0.740   1.370
10355SOL     OW31963   2.437   6.174   1.838
10355SOL    HW131964   2.398   6.202   1.925
10355SOL    HW231965   2.377   6.108   1.794
10356SOL     OW31966   0.183   4.413   6.442
10356SOL    HW131967   0.151   4.452   6.356
10356SOL    HW231968   0.106   4.398   6.504
10357SOL     OW31969   2.565   2.361   6.351
10357SOL    HW131970   2.479   2.371   6.301
10357SOL    HW231971   2.589   2.264   6.356
10358SOL     OW31972   6.773   2.713   2.897
10358SOL    HW131973   6.755   2.615   2.887
10358SOL    HW231974   6.794   2.732   2.993
10359SOL     OW31975   0.573   1.639   0.906
10359SOL    HW131976   0.558   1.640   1.005
10359SOL    HW231977   0.643   1.571   0.884
10360SOL     OW31978   4.485   5.129   2.892
10360SOL    HW131979   4.498   5.090   2.983
10360SOL    HW231980   4.439   5.063   2.833
10361SOL     OW31981   2.473   5.879   2.506
10361SOL    HW131982   2.402   5.901   2.573
10361SOL    HW231983   2.505   5.785   2.522
10362SOL     OW31984   1.776   4.861   4.858
10362SOL    HW131985   1.785   4.942   4.916
10362SOL    HW231986   1.865   4.815   4.852
10363SOL     OW31987   4.342   1.055   3.361
10363SOL    HW131988   4.313   1.142   3.400
10363SOL    HW231989   4.425   1.069   3.307
10364SOL     OW31990   2.955   3.684   1.430
10364SOL    HW131991   2.886   3.697   1.501
10364SOL    HW231992   2.920   3.717   1.343
10365SOL     OW31993   4.322   5.669   0.128
10365SOL    HW131994   4.385   5.634   0.197
10365SOL    HW231995   4.310   5.599   0.057
10366SOL     OW31996   2.874   0.085   3.900
10366SOL    HW131997   2.863   0.136   3.814
10366SOL    HW231998   2.819   0.001   3.896
10367SOL     OW31999   5.634   1.717   2.771
10367SOL    HW132000   5.715   1.672   2.734
10367SOL    HW232001   5.597   1.661   2.846
10368SOL     OW32002   2.884   0.936   1.760
10368SOL    HW132003   2.967   0.964   1.809
10368SOL    HW232004   2.905   0.856   1.704
10369SOL     OW32005   4.005   1.202   0.656
10369SOL    HW132006   4.012   1.116   0.706
10369SOL    HW232007   3.997   1.184   0.558
10370SOL     OW32008   4.352   0.672   5.162
10370SOL    HW132009   4.376   0.722   5.079
10370SOL    HW232010   4.325   0.578   5.138
10371SOL     OW32011   3.328   5.554   5.893
10371SOL    HW132012   3.270   5.616   5.945
10371SOL    HW232013   3.376   5.605   5.822
10372SOL     OW32014   2.718   0.775   4.648
10372SOL    HW132015   2.770   0.725   4.718
10372SOL    HW232016   2.720   0.873   4.668
10373SOL     OW32017   1.461   6.856   4.818
10373SOL    HW132018   1.449   6.802   4.734
10373SOL    HW232019   1.534   6.816   4.873
10374SOL     OW32020   2.773   1.970   3.452
10374SOL    HW132021   2.746   2.009   3.540
10374SOL    HW232022   2.777   2.042   3.383
10375SOL     OW32023   5.189   2.112   0.340
10375SOL    HW132024   5.262   2.131   0.405
10375SOL    HW232025   5.176   2.191   0.279
10376SOL     OW32026   0.636   1.205   4.039
10376SOL    HW132027   0.667   1.299   4.025
10376SOL    HW232028   0.714   1.143   4.031
10377SOL     OW32029   0.504   0.266   3.353
10377SOL    HW132030   0.510   0.315   3.440
10377SOL    HW232031   0.418   0.289   3.308
10378SOL     OW32032   6.855   0.550   5.937
10378SOL    HW132033   6.797   0.603   5.876
10378SOL    HW232034   6.862   0.456   5.903
10379SOL     OW32035   5.662   0.161   5.536
10379SOL    HW132036   5.605   0.203   5.608
10379SOL    HW232037   5.739   0.222   5.515
10380SOL     OW32038   5.944   0.786   2.662
10380SOL    HW132039   5.866   0.841   2.691
10380SOL    HW232040   5.945   0.778   2.562
10381SOL     OW32041   4.870   5.649   5.969
10381SOL    HW132042   4.778   5.680   5.944
10381SOL    HW232043   4.871   5.621   6.065
10382SOL     OW32044   2.630   5.428   5.796
10382SOL    HW132045   2.722   5.390   5.800
10382SOL    HW232046   2.563   5.354   5.804
10383SOL     OW32047   1.320   3.336   0.599
10383SOL    HW132048   1.319   3.245   0.558
10383SOL    HW232049   1.263   3.398   0.544
10384SOL     OW32050   6.789   6.990   1.199
10384SOL    HW132051   6.854   6.918   1.173
10384SOL    HW232052   6.804   7.016   1.294
10385SOL     OW32053   6.100   0.201   6.405
10385SOL    HW132054   6.002   0.204   6.386
10385SOL    HW232055   6.133   0.107   6.402
10386SOL     OW32056   6.459   3.444   4.970
10386SOL    HW132057   6.435   3.436   4.873
10386SOL    HW232058   6.378   3.423   5.025
10387SOL     OW32059   2.122   2.212   3.073
10387SOL    HW132060   2.078   2.186   3.160
10387SOL    HW232061   2.060   2.268   3.019
10388SOL     OW32062   1.197   4.870   3.197
10388SOL    HW132063   1.284   4.857   3.247
10388SOL    HW232064   1.210   4.939   3.126
10389SOL     OW32065   1.470   5.000   3.524
10389SOL    HW132066   1.394   4.952   3.568
10389SOL    HW232067   1.511   5.063   3.590
10390SOL     OW32068   1.610   3.513   3.311
10390SOL    HW132069   1.639   3.553   3.224
10390SOL    HW232070   1.673   3.440   3.337
10391SOL     OW32071   1.370   6.105   6.657
10391SOL    HW132072   1.448   6.042   6.660
10391SOL    HW232073   1.375   6.167   6.735
10392SOL     OW32074   5.919   4.884   0.294
10392SOL    HW132075   5.981   4.841   0.359
10392SOL    HW232076   5.833   4.833   0.290
10393SOL     OW32077   0.760   1.429   3.959
10393SOL    HW132078   0.681   1.487   3.976
10393SOL    HW232079   0.783   1.431   3.862
10394SOL     OW32080   2.290   6.533   6.884
10394SOL    HW132081   2.300   6.473   6.963
10394SOL    HW232082   2.370   6.591   6.875
10395SOL     OW32083   6.885   1.218   4.124
10395SOL    HW132084   6.819   1.151   4.158
10395SOL    HW232085   6.846   1.267   4.046
10396SOL     OW32086   0.627   0.283   4.112
10396SOL    HW132087   0.571   0.201   4.126
10396SOL    HW232088   0.569   0.360   4.087
10397SOL     OW32089   3.992   0.775   3.342
10397SOL    HW132090   4.000   0.734   3.432
10397SOL    HW232091   4.022   0.870   3.346
10398SOL     OW32092   6.369   2.711   1.186
10398SOL    HW132093   6.321   2.739   1.103
10398SOL    HW232094   6.341   2.770   1.262
10399SOL     OW32095   4.790   2.449   5.407
10399SOL    HW132096   4.779   2.547   5.425
10399SOL    HW232097   4.719   2.419   5.343
10400SOL     OW32098   2.577   5.619   2.725
10400SOL    HW132099   2.583   5.544   2.659
10400SOL    HW232100   2.492   5.612   2.776
10401SOL     OW32101   6.774   6.082   2.225
10401SOL    HW132102   6.822   6.112   2.308
10401SOL    HW232103   6.821   6.002   2.187
10402SOL     OW32104   1.064   3.685   5.093
10402SOL    HW132105   1.016   3.687   5.005
10402SOL    HW232106   1.067   3.591   5.127
10403SOL     OW32107   5.554   1.745   1.979
10403SOL    HW132108   5.515   1.661   1.944
10403SOL    HW232109   5.578   1.805   1.903
10404SOL     OW32110   0.690   6.466   4.351
10404SOL    HW132111   0.744   6.415   4.285
10404SOL    HW232112   0.721   6.561   4.352
10405SOL     OW32113   1.856   6.645   5.603
10405SOL    HW132114   1.861   6.587   5.685
10405SOL    HW232115   1.938   6.632   5.548
10406SOL     OW32116   2.807   4.569   6.117
10406SOL    HW132117   2.816   4.487   6.172
10406SOL    HW232118   2.786   4.544   6.023
10407SOL     OW32119   0.881   1.944   6.088
10407SOL    HW132120   0.966   1.900   6.061
10407SOL    HW232121   0.896   2.041   6.103
10408SOL     OW32122   4.707   4.658   3.412
10408SOL    HW132123   4.634   4.675   3.345
10408SOL    HW232124   4.782   4.722   3.396
10409SOL     OW32125   0.503   3.737   1.928
10409SOL    HW132126   0.596   3.760   1.899
10409SOL    HW232127   0.464   3.814   1.978
10410SOL     OW32128   4.834   0.963   0.958
10410SOL    HW132129   4.820   0.964   1.057
10410SOL    HW232130   4.932   0.965   0.938
10411SOL     OW32131   2.055   4.596   2.745
10411SOL    HW132132   1.986   4.625   2.679
10411SOL    HW232133   2.136   4.564   2.695
10412SOL     OW32134   1.769   2.221   0.290
10412SOL    HW132135   1.769   2.163   0.208
10412SOL    HW232136   1.863   2.246   0.313
10413SOL     OW32137   0.134   2.292   6.762
10413SOL    HW132138   0.123   2.298   6.862
10413SOL    HW232139   0.084   2.367   6.719
10414SOL     OW32140   5.439   6.552   6.672
10414SOL    HW132141   5.498   6.473   6.653
10414SOL    HW232142   5.389   6.576   6.588
10415SOL     OW32143   0.226   5.940   3.548
10415SOL    HW132144   0.250   5.928   3.644
10415SOL    HW232145   0.310   5.954   3.494
10416SOL     OW32146   5.914   1.986   4.613
10416SOL    HW132147   5.825   1.941   4.608
10416SOL    HW232148   5.985   1.918   4.635
10417SOL     OW32149   4.020   5.053   3.508
10417SOL    HW132150   3.950   4.994   3.467
10417SOL    HW232151   3.988   5.085   3.597
10418SOL     OW32152   0.051   4.173   6.794
10418SOL    HW132153   0.129   4.113   6.778
10418SOL    HW232154   6.991   4.118   6.804
10419SOL     OW32155   3.481   1.028   5.074
10419SOL    HW132156   3.481   1.052   4.977
10419SOL    HW232157   3.421   1.091   5.123
10420SOL     OW32158   6.954   3.084   3.403
10420SOL    HW132159   0.019   3.068   3.448
10420SOL    HW232160   6.964   3.071   3.305
10421SOL     OW32161   1.061   4.773   4.008
10421SOL    HW132162   1.026   4.727   3.926
10421SOL    HW232163   1.070   4.707   4.082
10422SOL     OW32164   6.416   3.690   4.645
10422SOL    HW132165   6.343   3.686   4.714
10422SOL    HW232166   6.443   3.786   4.632
10423SOL     OW32167   3.513   4.894   4.027
10423SOL    HW132168   3.479   4.922   3.938
10423SOL    HW232169   3.436   4.874   4.088
10424SOL     OW32170   3.574   0.740   6.999
10424SOL    HW132171   3.667   0.762   6.971
10424SOL    HW232172   3.553   0.646   6.972
10425SOL     OW32173   1.968   1.012   0.908
10425SOL    HW132174   2.045   1.058   0.953
10425SOL    HW232175   1.957   1.049   0.815
10426SOL     OW32176   5.479   2.277   5.953
10426SOL    HW132177   5.395   2.292   5.901
10426SOL    HW232178   5.557   2.279   5.891
10427SOL     OW32179   5.882   6.596   4.824
10427SOL    HW132180   5.902   6.627   4.916
10427SOL    HW232181   5.841   6.671   4.771
10428SOL     OW32182   1.761   0.737   3.563
10428SOL    HW132183   1.765   0.804   3.488
10428SOL    HW232184   1.761   0.785   3.651
10429SOL     OW32185   1.093   2.982   2.574
10429SOL    HW132186   1.000   2.956   2.602
10429SOL    HW232187   1.152   2.902   2.577
10430SOL     OW32188   3.265   0.384   3.795
10430SOL    HW132189   3.318   0.317   3.847
10430SOL    HW232190   3.326   0.442   3.742
10431SOL     OW32191   2.983   1.721   3.831
10431SOL    HW132192   2.896   1.753   3.794
10431SOL    HW232193   2.983   1.731   3.930
10432SOL     OW32194   0.670   6.313   5.780
10432SOL    HW132195   0.642   6.401   5.743
10432SOL    HW232196   0.656   6.312   5.879
10433SOL     OW32197   1.614   6.913   2.171
10433SOL    HW132198   1.556   6.839   2.202
10433SOL    HW232199   1.654   6.889   2.082
10434SOL     OW32200   4.228   6.590   5.565
10434SOL    HW132201   4.130   6.600   5.584
10434SOL    HW232202   4.257   6.497   5.586
10435SOL     OW32203   1.576   2.418   6.672
10435SOL    HW132204   1.515   2.477   6.620
10435SOL    HW232205   1.563   2.435   6.770
10436SOL     OW32206   0.155   4.783   5.108
10436SOL    HW132207   0.124   4.697   5.150
10436SOL    HW232208   0.243   4.770   5.064
10437SOL     OW32209   5.388   5.430   5.313
10437SOL    HW132210   5.464   5.422   5.249
10437SOL    HW232211   5.343   5.342   5.323
10438SOL     OW32212   6.567   5.798   6.354
10438SOL    HW132213   6.659   5.816   6.319
10438SOL    HW232214   6.539   5.705   6.329
10439SOL     OW32215   6.496   6.754   4.593
10439SOL    HW132216   6.592   6.727   4.602
10439SOL    HW232217   6.489   6.853   4.590
10440SOL     OW32218   0.180   2.129   6.176
10440SOL    HW132219   0.086   2.106   6.200
10440SOL    HW232220   0.221   2.182   6.250
10441SOL     OW32221   3.668   2.073   1.086
10441SOL    HW132222   3.612   2.023   1.020
10441SOL    HW232223   3.680   2.167   1.055
10442SOL     OW32224   2.333   1.614   5.436
10442SOL    HW132225   2.289   1.556   5.504
10442SOL    HW232226   2.274   1.621   5.355
10443SOL     OW32227   0.627   1.473   3.034
10443SOL    HW132228   0.582   1.549   2.987
10443SOL    HW232229   0.560   1.424   3.089
10444SOL     OW32230   4.040   5.529   4.575
10444SOL    HW132231   4.029   5.572   4.664
10444SOL    HW232232   4.118   5.569   4.528
10445SOL     OW32233   1.660   3.843   2.846
10445SOL    HW132234   1.702   3.762   2.803
10445SOL    HW232235   1.694   3.851   2.940
10446SOL     OW32236   1.725   4.627   5.721
10446SOL    HW132237   1.811   4.673   5.700
10446SOL    HW232238   1.653   4.661   5.661
10447SOL     OW32239   0.163   1.894   2.883
10447SOL    HW132240   0.121   1.888   2.792
10447SOL    HW232241   0.256   1.930   2.874
10448SOL     OW32242   2.818   6.093   2.916
10448SOL    HW132243   2.786   6.042   2.996
10448SOL    HW232244   2.747   6.092   2.845
10449SOL     OW32245   4.014   5.629   6.116
10449SOL    HW132246   4.084   5.581   6.064
10449SOL    HW232247   4.053   5.713   6.154
10450SOL     OW32248   0.028   0.512   6.423
10450SOL    HW132249   0.074   0.568   6.492
10450SOL    HW232250   6.961   0.552   6.402
10451SOL     OW32251   2.472   0.737   3.247
10451SOL    HW132252   2.432   0.648   3.270
10451SOL    HW232253   2.509   0.780   3.330
10452SOL     OW32254   6.930   3.697   4.355
10452SOL    HW132255   6.935   3.611   4.305
10452SOL    HW232256   7.018   3.715   4.400
10453SOL     OW32257   4.272   5.552   3.159
10453SOL    HW132258   4.282   5.553   3.060
10453SOL    HW232259   4.229   5.466   3.187
10454SOL     OW32260   6.492   0.702   5.718
10454SOL    HW132261   6.414   0.744   5.671
10454SOL    HW232262   6.475   0.603   5.727
10455SOL     OW32263   5.865   6.600   4.155
10455SOL    HW132264   5.828   6.625   4.066
10455SOL    HW232265   5.794   6.609   4.225
10456SOL     OW32266   0.479   5.375   6.948
10456SOL    HW132267   0.566   5.425   6.951
10456SOL    HW232268   0.482   5.301   7.015
10457SOL     OW32269   3.508   2.685   6.925
10457SOL    HW132270   3.511   2.762   6.862
10457SOL    HW232271   3.436   2.621   6.896
10458SOL     OW32272   0.015   5.940   6.722
10458SOL    HW132273   0.049   6.026   6.761
10458SOL    HW232274   7.001   5.883   6.796
10459SOL     OW32275   0.209   5.389   0.768
10459SOL    HW132276   0.216   5.290   0.767
10459SOL    HW232277   0.186   5.422   0.676
10460SOL     OW32278   0.731   2.715   0.416
10460SOL    HW132279   0.740   2.634   0.358
10460SOL    HW232280   0.635   2.735   0.432
10461SOL     OW32281   0.271   5.883   5.165
10461SOL    HW132282   0.337   5.887   5.240
10461SOL    HW232283   0.298   5.811   5.101
10462SOL     OW32284   4.043   1.779   0.552
10462SOL    HW132285   4.020   1.693   0.506
10462SOL    HW232286   3.963   1.838   0.553
10463SOL     OW32287   4.799   2.817   6.116
10463SOL    HW132288   4.832   2.847   6.026
10463SOL    HW232289   4.720   2.757   6.104
10464SOL     OW32290   6.436   5.077   3.042
10464SOL    HW132291   6.465   4.981   3.048
10464SOL    HW232292   6.343   5.086   3.077
10465SOL     OW32293   5.895   4.052   2.422
10465SOL    HW132294   5.840   3.968   2.428
10465SOL    HW232295   5.910   4.076   2.326
10466SOL     OW32296   6.008   4.654   6.410
10466SOL    HW132297   5.936   4.710   6.367
10466SOL    HW232298   6.097   4.694   6.391
10467SOL     OW32299   1.545   2.940   0.321
10467SOL    HW132300   1.566   2.993   0.239
10467SOL    HW232301   1.575   2.991   0.402
10468SOL     OW32302   2.874   5.015   4.112
10468SOL    HW132303   2.800   5.076   4.085
10468SOL    HW232304   2.848   4.921   4.092
10469SOL     OW32305   6.250   1.483   5.125
10469SOL    HW132306   6.303   1.445   5.049
10469SOL    HW232307   6.164   1.520   5.090
10470SOL     OW32308   2.473   2.306   3.832
10470SOL    HW132309   2.408   2.263   3.770
10470SOL    HW232310   2.532   2.368   3.779
10471SOL     OW32311   2.779   6.862   0.633
10471SOL    HW132312   2.792   6.772   0.674
10471SOL    HW232313   2.848   6.925   0.669
10472SOL     OW32314   3.070   5.138   0.224
10472SOL    HW132315   2.971   5.144   0.212
10472SOL    HW232316   3.116   5.191   0.153
10473SOL     OW32317   5.323   4.287   6.962
10473SOL    HW132318   5.383   4.310   0.016
10473SOL    HW232319   5.377   4.284   6.878
10474SOL     OW32320   5.202   1.180   4.028
10474SOL    HW132321   5.113   1.218   4.054
10474SOL    HW232322   5.190   1.117   3.952
10475SOL     OW32323   0.771   6.717   1.560
10475SOL    HW132324   0.835   6.647   1.527
10475SOL    HW232325   0.791   6.804   1.515
10476SOL     OW32326   3.784   6.238   0.223
10476SOL    HW132327   3.730   6.185   0.158
10476SOL    HW232328   3.846   6.177   0.273
10477SOL     OW32329   6.125   6.638   3.823
10477SOL    HW132330   6.085   6.695   3.894
10477SOL    HW232331   6.212   6.677   3.794
10478SOL     OW32332   6.395   0.340   0.137
10478SOL    HW132333   6.467   0.283   0.097
10478SOL    HW232334   6.311   0.288   0.145
10479SOL     OW32335   0.267   1.780   2.343
10479SOL    HW132336   0.191   1.721   2.316
10479SOL    HW232337   0.291   1.841   2.267
10480SOL     OW32338   1.722   0.075   2.347
10480SOL    HW132339   1.717   0.000   2.281
10480SOL    HW232340   1.711   0.039   2.440
10481SOL     OW32341   0.509   0.673   2.758
10481SOL    HW132342   0.608   0.684   2.750
10481SOL    HW232343   0.484   0.660   2.854
10482SOL     OW32344   5.296   3.573   3.890
10482SOL    HW132345   5.329   3.647   3.831
10482SOL    HW232346   5.218   3.605   3.943
10483SOL     OW32347   6.472   5.120   0.633
10483SOL    HW132348   6.394   5.180   0.612
10483SOL    HW232349   6.549   5.142   0.573
10484SOL     OW32350   6.450   1.344   1.393
10484SOL    HW132351   6.501   1.318   1.475
10484SOL    HW232352   6.489   1.298   1.313
10485SOL     OW32353   5.371   3.573   5.740
10485SOL    HW132354   5.454   3.533   5.778
10485SOL    HW232355   5.293   3.548   5.797
10486SOL     OW32356   5.903   2.579   1.248
10486SOL    HW132357   5.890   2.645   1.174
10486SOL    HW232358   5.898   2.625   1.336
10487SOL     OW32359   6.206   6.571   1.573
10487SOL    HW132360   6.274   6.641   1.550
10487SOL    HW232361   6.150   6.603   1.650
10488SOL     OW32362   3.054   3.013   6.697
10488SOL    HW132363   3.049   3.015   6.797
10488SOL    HW232364   2.962   3.029   6.660
10489SOL     OW32365   7.018   5.684   6.556
10489SOL    HW132366   0.010   5.775   6.595
10489SOL    HW232367   0.083   5.645   6.530
10490SOL     OW32368   6.594   1.094   3.418
10490SOL    HW132369   6.630   1.007   3.386
10490SOL    HW232370   6.559   1.083   3.511
10491SOL     OW32371   2.181   4.629   6.203
10491SOL    HW132372   2.113   4.668   6.140
10491SOL    HW232373   2.234   4.558   6.155
10492SOL     OW32374   4.723   3.303   5.250
10492SOL    HW132375   4.685   3.385   5.207
10492SOL    HW232376   4.770   3.328   5.335
10493SOL     OW32377   3.366   1.199   1.634
10493SOL    HW132378   3.362   1.153   1.723
10493SOL    HW232379   3.410   1.288   1.645
10494SOL     OW32380   5.652   2.282   3.971
10494SOL    HW132381   5.671   2.212   4.040
10494SOL    HW232382   5.622   2.366   4.017
10495SOL     OW32383   1.929   6.522   0.746
10495SOL    HW132384   2.018   6.488   0.714
10495SOL    HW232385   1.857   6.490   0.685
10496SOL     OW32386   0.367   6.517   6.905
10496SOL    HW132387   0.323   6.509   6.994
10496SOL    HW232388   0.352   6.433   6.852
10497SOL     OW32389   1.469   0.821   0.936
10497SOL    HW132390   1.374   0.822   0.903
10497SOL    HW232391   1.525   0.876   0.874
10498SOL     OW32392   1.736   6.643   5.940
10498SOL    HW132393   1.727   6.560   5.996
10498SOL    HW232394   1.819   6.692   5.967
10499SOL     OW32395   2.776   5.571   3.335
10499SOL    HW132396   2.813   5.625   3.411
10499SOL    HW232397   2.828   5.485   3.328
10500SOL     OW32398   1.165   2.257   6.072
10500SOL    HW132399   1.243   2.197   6.093
10500SOL    HW232400   1.193   2.352   6.079
10501SOL     OW32401   2.122   3.670   2.699
10501SOL    HW132402   2.135   3.663   2.600
10501SOL    HW232403   2.132   3.766   2.727
10502SOL     OW32404   2.977   6.459   0.482
10502SOL    HW132405   3.049   6.389   0.487
10502SOL    HW232406   3.013   6.546   0.516
10503SOL     OW32407   3.263   3.035   0.471
10503SOL    HW132408   3.348   3.080   0.445
10503SOL    HW232409   3.230   3.072   0.558
10504SOL     OW32410   2.860   3.022   0.402
10504SOL    HW132411   2.888   3.099   0.460
10504SOL    HW232412   2.845   3.056   0.309
10505SOL     OW32413   6.256   6.194   1.153
10505SOL    HW132414   6.237   6.188   1.251
10505SOL    HW232415   6.348   6.228   1.139
10506SOL     OW32416   0.758   3.856   6.336
10506SOL    HW132417   0.796   3.803   6.260
10506SOL    HW232418   0.793   3.950   6.332
10507SOL     OW32419   1.006   0.731   6.338
10507SOL    HW132420   0.946   0.678   6.277
10507SOL    HW232421   1.075   0.778   6.283
10508SOL     OW32422   5.528   4.923   3.707
10508SOL    HW132423   5.567   4.883   3.789
10508SOL    HW232424   5.445   4.973   3.731
10509SOL     OW32425   0.826   6.563   6.763
10509SOL    HW132426   0.906   6.512   6.729
10509SOL    HW232427   0.764   6.500   6.810
10510SOL     OW32428   5.792   5.165   6.912
10510SOL    HW132429   5.803   5.264   6.906
10510SOL    HW232430   5.866   5.126   6.967
10511SOL     OW32431   4.192   3.143   0.488
10511SOL    HW132432   4.121   3.076   0.511
10511SOL    HW232433   4.149   3.230   0.465
10512SOL     OW32434   4.461   0.440   5.859
10512SOL    HW132435   4.462   0.540   5.857
10512SOL    HW232436   4.409   0.405   5.782
10513SOL     OW32437   0.842   2.187   5.855
10513SOL    HW132438   0.792   2.262   5.813
10513SOL    HW232439   0.820   2.182   5.952
10514SOL     OW32440   6.739   4.272   0.209
10514SOL    HW132441   6.642   4.253   0.194
10514SOL    HW232442   6.792   4.188   0.195
10515SOL     OW32443   6.573   1.923   3.100
10515SOL    HW132444   6.506   1.864   3.055
10515SOL    HW232445   6.616   1.982   3.033
10516SOL     OW32446   4.324   0.824   6.139
10516SOL    HW132447   4.417   0.855   6.122
10516SOL    HW232448   4.260   0.884   6.090
10517SOL     OW32449   6.825   1.544   2.678
10517SOL    HW132450   6.853   1.490   2.599
10517SOL    HW232451   6.729   1.525   2.700
10518SOL     OW32452   0.962   6.459   0.295
10518SOL    HW132453   1.051   6.433   0.258
10518SOL    HW232454   0.898   6.383   0.282
10519SOL     OW32455   3.445   3.202   5.669
10519SOL    HW132456   3.373   3.150   5.715
10519SOL    HW232457   3.461   3.164   5.578
10520SOL     OW32458   3.219   2.801   6.624
10520SOL    HW132459   3.308   2.845   6.617
10520SOL    HW232460   3.148   2.870   6.635
10521SOL     OW32461   6.477   6.180   1.727
10521SOL    HW132462   6.451   6.253   1.664
10521SOL    HW232463   6.435   6.094   1.697
10522SOL     OW32464   6.472   1.002   0.731
10522SOL    HW132465   6.473   1.070   0.804
10522SOL    HW232466   6.380   0.963   0.724
10523SOL     OW32467   6.902   5.329   6.171
10523SOL    HW132468   6.973   5.265   6.201
10523SOL    HW232469   6.872   5.385   6.248
10524SOL     OW32470   1.949   0.291   4.247
10524SOL    HW132471   2.036   0.276   4.200
10524SOL    HW232472   1.875   0.245   4.198
10525SOL     OW32473   1.760   6.831   5.178
10525SOL    HW132474   1.739   6.886   5.097
10525SOL    HW232475   1.791   6.740   5.150
10526SOL     OW32476   0.924   0.989   2.494
10526SOL    HW132477   0.992   0.994   2.567
10526SOL    HW232478   0.852   0.924   2.520
10527SOL     OW32479   0.960   2.695   4.722
10527SOL    HW132480   0.927   2.789   4.726
10527SOL    HW232481   0.974   2.661   4.815
10528SOL     OW32482   0.473   5.374   4.806
10528SOL    HW132483   0.386   5.404   4.767
10528SOL    HW232484   0.475   5.396   4.903
10529SOL     OW32485   0.418   6.397   3.663
10529SOL    HW132486   0.387   6.448   3.743
10529SOL    HW232487   0.346   6.397   3.594
10530SOL     OW32488   2.665   2.129   6.430
10530SOL    HW132489   2.734   2.082   6.374
10530SOL    HW232490   2.685   2.112   6.527
10531SOL     OW32491   1.476   3.136   5.020
10531SOL    HW132492   1.496   3.216   5.078
10531SOL    HW232493   1.559   3.081   5.010
10532SOL     OW32494   3.502   2.489   6.595
10532SOL    HW132495   3.491   2.462   6.690
10532SOL    HW232496   3.422   2.460   6.542
10533SOL     OW32497   2.967   1.477   5.051
10533SOL    HW132498   3.054   1.470   5.003
10533SOL    HW232499   2.983   1.500   5.147
10534SOL     OW32500   6.973   6.361   0.643
10534SOL    HW132501   6.939   6.426   0.710
10534SOL    HW232502   0.047   6.341   0.662
10535SOL     OW32503   0.633   1.404   2.534
10535SOL    HW132504   0.620   1.483   2.474
10535SOL    HW232505   0.557   1.340   2.522
10536SOL     OW32506   4.939   0.351   3.047
10536SOL    HW132507   5.008   0.299   2.996
10536SOL    HW232508   4.946   0.448   3.022
10537SOL     OW32509   2.985   5.429   2.946
10537SOL    HW132510   3.058   5.381   2.994
10537SOL    HW232511   2.926   5.474   3.013
10538SOL     OW32512   4.404   3.722   7.011
10538SOL    HW132513   4.335   3.693   0.054
10538SOL    HW232514   4.477   3.654   7.006
10539SOL     OW32515   0.847   3.152   6.238
10539SOL    HW132516   0.870   3.130   6.143
10539SOL    HW232517   0.927   3.188   6.285
10540SOL     OW32518   1.783   0.970   5.665
10540SOL    HW132519   1.691   0.945   5.694
10540SOL    HW232520   1.820   0.897   5.606
10541SOL     OW32521   3.956   3.526   1.069
10541SOL    HW132522   3.926   3.454   1.131
10541SOL    HW232523   4.008   3.595   1.119
10542SOL     OW32524   0.405   2.532   0.356
10542SOL    HW132525   0.388   2.455   0.419
10542SOL    HW232526   0.447   2.607   0.406
10543SOL     OW32527   0.399   2.175   5.801
10543SOL    HW132528   0.347   2.108   5.855
10543SOL    HW232529   0.494   2.145   5.793
10544SOL     OW32530   2.314   2.155   2.563
10544SOL    HW132531   2.278   2.211   2.639
10544SOL    HW232532   2.353   2.071   2.599
10545SOL     OW32533   6.858   0.155   2.531
10545SOL    HW132534   6.930   0.111   2.478
10545SOL    HW232535   6.899   0.213   2.601
10546SOL     OW32536   2.259   7.014   4.610
10546SOL    HW132537   2.308   6.927   4.614
10546SOL    HW232538   2.323   0.067   4.620
10547SOL     OW32539   4.364   1.282   1.810
10547SOL    HW132540   4.362   1.345   1.888
10547SOL    HW232541   4.295   1.309   1.743
10548SOL     OW32542   5.227   3.705   4.543
10548SOL    HW132543   5.142   3.757   4.542
10548SOL    HW232544   5.223   3.636   4.615
10549SOL     OW32545   1.162   0.461   2.439
10549SOL    HW132546   1.213   0.416   2.513
10549SOL    HW232547   1.135   0.393   2.371
10550SOL     OW32548   5.482   0.272   4.088
10550SOL    HW132549   5.525   0.362   4.086
10550SOL    HW232550   5.403   0.272   4.026
10551SOL     OW32551   1.315   1.936   5.369
10551SOL    HW132552   1.267   1.918   5.283
10551SOL    HW232553   1.253   1.983   5.432
10552SOL     OW32554   3.589   2.217   5.497
10552SOL    HW132555   3.500   2.174   5.516
10552SOL    HW232556   3.621   2.264   5.579
10553SOL     OW32557   0.322   5.693   0.580
10553SOL    HW132558   0.366   5.604   0.570
10553SOL    HW232559   0.368   5.746   0.650
10554SOL     OW32560   6.383   4.624   0.450
10554SOL    HW132561   6.382   4.665   0.359
10554SOL    HW232562   6.376   4.696   0.519
10555SOL     OW32563   3.275   1.829   2.283
10555SOL    HW132564   3.186   1.796   2.252
10555SOL    HW232565   3.303   1.906   2.227
10556SOL     OW32566   2.191   3.431   5.078
10556SOL    HW132567   2.165   3.491   5.003
10556SOL    HW232568   2.255   3.479   5.138
10557SOL     OW32569   0.166   2.644   3.104
10557SOL    HW132570   0.220   2.681   3.179
10557SOL    HW232571   0.110   2.717   3.064
10558SOL     OW32572   4.254   6.757   5.348
10558SOL    HW132573   4.253   6.690   5.422
10558SOL    HW232574   4.302   6.718   5.269
10559SOL     OW32575   4.192   2.000   0.848
10559SOL    HW132576   4.139   2.062   0.906
10559SOL    HW232577   4.155   1.908   0.854
10560SOL     OW32578   1.592   4.778   5.260
10560SOL    HW132579   1.503   4.820   5.246
10560SOL    HW232580   1.591   4.684   5.226
10561SOL     OW32581   1.784   5.153   6.874
10561SOL    HW132582   1.824   5.125   6.962
10561SOL    HW232583   1.741   5.073   6.831
10562SOL     OW32584   4.388   0.468   0.670
10562SOL    HW132585   4.479   0.473   0.628
10562SOL    HW232586   4.319   0.487   0.600
10563SOL     OW32587   1.691   2.061   5.137
10563SOL    HW132588   1.654   1.980   5.183
10563SOL    HW232589   1.684   2.140   5.198
10564SOL     OW32590   6.057   1.027   1.844
10564SOL    HW132591   6.101   0.997   1.759
10564SOL    HW232592   6.125   1.029   1.917
10565SOL     OW32593   6.390   0.848   5.524
10565SOL    HW132594   6.370   0.808   5.434
10565SOL    HW232595   6.320   0.916   5.547
10566SOL     OW32596   3.711   3.995   6.268
10566SOL    HW132597   3.638   3.947   6.314
10566SOL    HW232598   3.767   4.044   6.335
10567SOL     OW32599   1.784   3.468   4.518
10567SOL    HW132600   1.849   3.528   4.472
10567SOL    HW232601   1.816   3.449   4.611
10568SOL     OW32602   5.854   1.367   2.230
10568SOL    HW132603   5.888   1.280   2.265
10568SOL    HW232604   5.811   1.352   2.141
10569SOL     OW32605   6.037   2.911   2.803
10569SOL    HW132606   6.063   2.882   2.711
10569SOL    HW232607   5.949   2.957   2.799
10570SOL     OW32608   1.744   4.339   2.542
10570SOL    HW132609   1.783   4.247   2.545
10570SOL    HW232610   1.646   4.334   2.561
10571SOL     OW32611   6.610   5.511   2.911
10571SOL    HW132612   6.566   5.471   2.992
10571SOL    HW232613   6.709   5.498   2.917
10572SOL     OW32614   5.413   3.329   2.500
10572SOL    HW132615   5.394   3.422   2.467
10572SOL    HW232616   5.509   3.307   2.486
10573SOL     OW32617   6.075   5.939   3.660
10573SOL    HW132618   6.024   5.853   3.658
10573SOL    HW232619   6.143   5.939   3.587
10574SOL     OW32620   1.358   1.748   3.783
10574SOL    HW132621   1.450   1.740   3.745
10574SOL    HW232622   1.296   1.684   3.737
10575SOL     OW32623   0.919   0.865   4.663
10575SOL    HW132624   0.950   0.933   4.730
10575SOL    HW232625   0.906   0.909   4.574
10576SOL     OW32626   1.613   5.949   5.298
10576SOL    HW132627   1.706   5.962   5.333
10576SOL    HW232628   1.602   5.853   5.270
10577SOL     OW32629   1.911   2.961   6.230
10577SOL    HW132630   1.814   2.938   6.232
10577SOL    HW232631   1.927   3.044   6.282
10578SOL     OW32632   5.882   0.255   5.215
10578SOL    HW132633   5.946   0.180   5.198
10578SOL    HW232634   5.848   0.291   5.128
10579SOL     OW32635   4.079   1.754   0.868
10579SOL    HW132636   3.991   1.800   0.874
10579SOL    HW232637   4.100   1.734   0.772
10580SOL     OW32638   6.774   6.146   6.599
10580SOL    HW132639   6.690   6.116   6.645
10580SOL    HW232640   6.852   6.099   6.640
10581SOL     OW32641   5.784   0.605   3.462
10581SOL    HW132642   5.767   0.518   3.507
10581SOL    HW232643   5.870   0.644   3.495
10582SOL     OW32644   3.597   5.147   6.815
10582SOL    HW132645   3.525   5.129   6.748
10582SOL    HW232646   3.679   5.180   6.768
10583SOL     OW32647   3.823   0.800   6.906
10583SOL    HW132648   3.913   0.837   6.927
10583SOL    HW232649   3.833   0.710   6.862
10584SOL     OW32650   5.603   6.334   1.423
10584SOL    HW132651   5.630   6.370   1.333
10584SOL    HW232652   5.516   6.375   1.450
10585SOL     OW32653   1.167   3.183   5.659
10585SOL    HW132654   1.192   3.086   5.649
10585SOL    HW232655   1.241   3.240   5.625
10586SOL     OW32656   2.853   6.158   5.890
10586SOL    HW132657   2.789   6.103   5.944
10586SOL    HW232658   2.808   6.191   5.808
10587SOL     OW32659   5.602   3.797   0.403
10587SOL    HW132660   5.697   3.823   0.382
10587SOL    HW232661   5.602   3.720   0.467
10588SOL     OW32662   0.723   4.640   2.474
10588SOL    HW132663   0.699   4.591   2.557
10588SOL    HW232664   0.800   4.595   2.429
10589SOL     OW32665   5.671   2.946   4.450
10589SOL    HW132666   5.611   2.882   4.402
10589SOL    HW232667   5.624   2.980   4.532
10590SOL     OW32668   0.798   0.049   3.169
10590SOL    HW132669   0.889   0.088   3.159
10590SOL    HW232670   0.773   0.001   3.085
10591SOL     OW32671   1.517   1.361   6.017
10591SOL    HW132672   1.422   1.348   5.991
10591SOL    HW232673   1.575   1.354   5.936
10592SOL     OW32674   6.874   1.425   0.140
10592SOL    HW132675   6.868   1.350   0.074
10592SOL    HW232676   6.844   1.393   0.230
10593SOL     OW32677   2.433   5.227   1.855
10593SOL    HW132678   2.445   5.280   1.771
10593SOL    HW232679   2.521   5.214   1.899
10594SOL     OW32680   6.361   1.720   4.082
10594SOL    HW132681   6.320   1.726   3.991
10594SOL    HW232682   6.291   1.739   4.151
10595SOL     OW32683   3.698   6.812   6.107
10595SOL    HW132684   3.790   6.843   6.082
10595SOL    HW232685   3.679   6.724   6.064
10596SOL     OW32686   4.244   6.680   2.068
10596SOL    HW132687   4.267   6.767   2.112
10596SOL    HW232688   4.323   6.619   2.072
10597SOL     OW32689   2.429   1.331   4.722
10597SOL    HW132690   2.345   1.326   4.668
10597SOL    HW232691   2.497   1.385   4.672
10598SOL     OW32692   2.371   2.396   6.874
10598SOL    HW132693   2.440   2.468   6.867
10598SOL    HW232694   2.391   2.324   6.808
10599SOL     OW32695   6.266   1.134   0.443
10599SOL    HW132696   6.209   1.175   0.371
10599SOL    HW232697   6.283   1.202   0.515
10600SOL     OW32698   2.830   2.839   6.232
10600SOL    HW132699   2.825   2.878   6.140
10600SOL    HW232700   2.919   2.860   6.273
10601SOL     OW32701   3.023   6.487   6.617
10601SOL    HW132702   3.046   6.391   6.601
10601SOL    HW232703   2.941   6.511   6.565
10602SOL     OW32704   4.691   1.154   1.597
10602SOL    HW132705   4.666   1.058   1.602
10602SOL    HW232706   4.693   1.193   1.689
10603SOL     OW32707   1.697   5.490   3.737
10603SOL    HW132708   1.717   5.392   3.730
10603SOL    HW232709   1.709   5.520   3.831
10604SOL     OW32710   6.718   4.523   4.468
10604SOL    HW132711   6.694   4.435   4.509
10604SOL    HW232712   6.766   4.579   4.536
10605SOL     OW32713   0.860   5.379   0.377
10605SOL    HW132714   0.916   5.402   0.456
10605SOL    HW232715   0.769   5.349   0.407
10606SOL     OW32716   0.187   0.831   1.756
10606SOL    HW132717   0.183   0.919   1.708
10606SOL    HW232718   0.190   0.757   1.689
10607SOL     OW32719   4.645   4.334   6.609
10607SOL    HW132720   4.598   4.285   6.536
10607SOL    HW232721   4.683   4.419   6.573
10608SOL     OW32722   5.851   1.545   4.219
10608SOL    HW132723   5.857   1.619   4.287
10608SOL    HW232724   5.767   1.493   4.234
10609SOL     OW32725   3.884   6.170   1.222
10609SOL    HW132726   3.918   6.210   1.306
10609SOL    HW232727   3.960   6.154   1.159
10610SOL     OW32728   1.435   3.333   6.219
10610SOL    HW132729   1.377   3.330   6.137
10610SOL    HW232730   1.531   3.331   6.192
10611SOL     OW32731   5.373   2.660   6.344
10611SOL    HW132732   5.324   2.700   6.266
10611SOL    HW232733   5.421   2.732   6.394
10612SOL     OW32734   2.388   6.537   6.229
10612SOL    HW132735   2.362   6.605   6.297
10612SOL    HW232736   2.482   6.554   6.198
10613SOL     OW32737   0.622   6.841   5.066
10613SOL    HW132738   0.523   6.851   5.057
10613SOL    HW232739   0.660   6.922   5.110
10614SOL     OW32740   6.464   0.981   4.328
10614SOL    HW132741   6.547   1.010   4.281
10614SOL    HW232742   6.413   1.061   4.359
10615SOL     OW32743   4.772   5.393   4.962
10615SOL    HW132744   4.698   5.363   5.022
10615SOL    HW232745   4.765   5.346   4.874
10616SOL     OW32746   3.270   5.819   0.825
10616SOL    HW132747   3.253   5.893   0.890
10616SOL    HW232748   3.242   5.847   0.734
10617SOL     OW32749   2.381   2.728   0.296
10617SOL    HW132750   2.469   2.750   0.255
10617SOL    HW232751   2.362   2.630   0.283
10618SOL     OW32752   5.802   2.468   0.060
10618SOL    HW132753   5.878   2.515   0.016
10618SOL    HW232754   5.752   2.532   0.119
10619SOL     OW32755   0.734   4.143   3.150
10619SOL    HW132756   0.738   4.184   3.059
10619SOL    HW232757   0.713   4.046   3.142
10620SOL     OW32758   1.457   6.342   4.694
10620SOL    HW132759   1.482   6.298   4.608
10620SOL    HW232760   1.515   6.423   4.708
10621SOL     OW32761   1.394   5.764   6.547
10621SOL    HW132762   1.295   5.750   6.547
10621SOL    HW232763   1.424   5.792   6.455
10622SOL     OW32764   3.995   7.017   1.775
10622SOL    HW132765   3.919   6.991   1.716
10622SOL    HW232766   3.963   0.007   1.869
10623SOL     OW32767   5.723   2.607   3.672
10623SOL    HW132768   5.810   2.590   3.719
10623SOL    HW232769   5.648   2.599   3.737
10624SOL     OW32770   1.742   1.249   5.123
10624SOL    HW132771   1.727   1.253   5.024
10624SOL    HW232772   1.816   1.185   5.143
10625SOL     OW32773   0.605   3.358   0.197
10625SOL    HW132774   0.529   3.348   0.132
10625SOL    HW232775   0.687   3.386   0.148
10626SOL     OW32776   1.240   1.957   1.559
10626SOL    HW132777   1.246   2.057   1.553
10626SOL    HW232778   1.154   1.931   1.602
10627SOL     OW32779   6.581   6.649   2.452
10627SOL    HW132780   6.620   6.657   2.360
10627SOL    HW232781   6.648   6.681   2.519
10628SOL     OW32782   6.565   5.474   5.635
10628SOL    HW132783   6.482   5.418   5.638
10628SOL    HW232784   6.629   5.437   5.568
10629SOL     OW32785   2.509   4.816   5.736
10629SOL    HW132786   2.519   4.723   5.772
10629SOL    HW232787   2.480   4.878   5.808
10630SOL     OW32788   6.135   0.885   3.162
10630SOL    HW132789   6.205   0.941   3.118
10630SOL    HW232790   6.059   0.943   3.191
10631SOL     OW32791   0.139   6.831   3.891
10631SOL    HW132792   0.211   6.878   3.840
10631SOL    HW232793   0.052   6.877   3.874
10632SOL     OW32794   6.434   2.760   4.611
10632SOL    HW132795   6.452   2.779   4.514
10632SOL    HW232796   6.342   2.723   4.621
10633SOL     OW32797   2.684   5.163   1.222
10633SOL    HW132798   2.600   5.206   1.253
10633SOL    HW232799   2.748   5.155   1.299
10634SOL     OW32800   2.914   5.692   1.279
10634SOL    HW132801   3.005   5.731   1.293
10634SOL    HW232802   2.920   5.617   1.214
10635SOL     OW32803   2.727   0.992   0.682
10635SOL    HW132804   2.778   0.953   0.759
10635SOL    HW232805   2.781   1.065   0.640
10636SOL     OW32806   1.010   2.124   1.299
10636SOL    HW132807   1.093   2.072   1.277
10636SOL    HW232808   0.934   2.060   1.312
10637SOL     OW32809   3.582   4.060   5.299
10637SOL    HW132810   3.533   4.128   5.245
10637SOL    HW232811   3.582   4.087   5.395
10638SOL     OW32812   6.628   6.524   4.716
10638SOL    HW132813   6.544   6.569   4.747
10638SOL    HW232814   6.703   6.591   4.715
10639SOL     OW32815   0.732   0.877   5.012
10639SOL    HW132816   0.812   0.932   5.036
10639SOL    HW232817   0.690   0.914   4.928
10640SOL     OW32818   4.796   0.911   0.151
10640SOL    HW132819   4.775   0.817   0.125
10640SOL    HW232820   4.852   0.911   0.234
10641SOL     OW32821   5.641   1.367   6.982
10641SOL    HW132822   5.620   1.414   0.045
10641SOL    HW232823   5.720   1.410   6.939
10642SOL     OW32824   0.580   2.188   1.737
10642SOL    HW132825   0.514   2.118   1.765
10642SOL    HW232826   0.637   2.152   1.663
10643SOL     OW32827   2.207   3.871   5.322
10643SOL    HW132828   2.295   3.868   5.275
10643SOL    HW232829   2.222   3.882   5.421
10644SOL     OW32830   4.643   1.572   4.094
10644SOL    HW132831   4.603   1.565   4.002
10644SOL    HW232832   4.609   1.655   4.138
10645SOL     OW32833   2.035   0.450   4.507
10645SOL    HW132834   2.017   0.405   4.420
10645SOL    HW232835   2.057   0.381   4.577
10646SOL     OW32836   1.175   2.891   5.773
10646SOL    HW132837   1.200   2.822   5.841
10646SOL    HW232838   1.257   2.926   5.729
10647SOL     OW32839   6.629   5.039   0.851
10647SOL    HW132840   6.567   5.072   0.780
10647SOL    HW232841   6.664   5.117   0.903
10648SOL     OW32842   4.823   3.004   6.663
10648SOL    HW132843   4.873   2.971   6.583
10648SOL    HW232844   4.882   3.000   6.743
10649SOL     OW32845   6.958   4.784   5.748
10649SOL    HW132846   6.995   4.753   5.836
10649SOL    HW232847   6.907   4.709   5.706
10650SOL     OW32848   2.524   6.463   4.035
10650SOL    HW132849   2.568   6.471   4.124
10650SOL    HW232850   2.542   6.372   3.997
10651SOL     OW32851   4.969   6.302   5.248
10651SOL    HW132852   4.895   6.370   5.253
10651SOL    HW232853   5.051   6.344   5.211
10652SOL     OW32854   3.479   0.415   6.494
10652SOL    HW132855   3.414   0.489   6.477
10652SOL    HW232856   3.548   0.446   6.559
10653SOL     OW32857   5.336   4.317   4.367
10653SOL    HW132858   5.275   4.282   4.438
10653SOL    HW232859   5.320   4.267   4.282
10654SOL     OW32860   3.067   0.553   1.460
10654SOL    HW132861   3.077   0.592   1.369
10654SOL    HW232862   3.091   0.456   1.457
10655SOL     OW32863   3.050   6.508   1.250
10655SOL    HW132864   3.126   6.451   1.284
10655SOL    HW232865   2.974   6.449   1.223
10656SOL     OW32866   6.302   2.122   0.157
10656SOL    HW132867   6.309   2.042   0.216
10656SOL    HW232868   6.314   2.205   0.212
10657SOL     OW32869   5.293   0.450   1.189
10657SOL    HW132870   5.365   0.400   1.141
10657SOL    HW232871   5.206   0.435   1.142
10658SOL     OW32872   0.975   5.445   3.843
10658SOL    HW132873   1.033   5.383   3.897
10658SOL    HW232874   0.888   5.459   3.891
10659SOL     OW32875   5.894   0.114   0.914
10659SOL    HW132876   5.952   0.034   0.902
10659SOL    HW232877   5.950   0.192   0.942
10660SOL     OW32878   4.257   4.271   5.547
10660SOL    HW132879   4.279   4.364   5.576
10660SOL    HW232880   4.291   4.256   5.454
10661SOL     OW32881   0.332   6.408   2.194
10661SOL    HW132882   0.360   6.317   2.225
10661SOL    HW232883   0.368   6.425   2.102
10662SOL     OW32884   6.937   1.679   0.673
10662SOL    HW132885   6.890   1.591   0.663
10662SOL    HW232886   0.011   1.663   0.693
10663SOL     OW32887   0.285   0.175   0.571
10663SOL    HW132888   0.307   0.230   0.651
10663SOL    HW232889   0.189   0.188   0.547
10664SOL     OW32890   2.043   5.127   6.995
10664SOL    HW132891   2.037   5.224   6.974
10664SOL    HW232892   2.065   5.076   6.912
10665SOL     OW32893   6.201   1.962   0.875
10665SOL    HW132894   6.202   2.027   0.951
10665SOL    HW232895   6.112   1.967   0.829
10666SOL     OW32896   2.401   5.920   0.004
10666SOL    HW132897   2.466   5.852   6.993
10666SOL    HW232898   2.348   5.956   6.950
10667SOL     OW32899   3.475   1.803   5.782
10667SOL    HW132900   3.516   1.870   5.720
10667SOL    HW232901   3.483   1.711   5.743
10668SOL     OW32902   1.732   1.498   6.490
10668SOL    HW132903   1.685   1.411   6.501
10668SOL    HW232904   1.671   1.563   6.444
10669SOL     OW32905   1.703   6.925   0.021
10669SOL    HW132906   1.640   6.979   6.988
10669SOL    HW232907   1.653   6.878   0.093
10670SOL     OW32908   5.479   4.350   5.885
10670SOL    HW132909   5.525   4.430   5.925
10670SOL    HW232910   5.423   4.306   5.955
10671SOL     OW32911   2.538   2.500   2.927
10671SOL    HW132912   2.444   2.468   2.916
10671SOL    HW232913   2.587   2.489   2.840
10672SOL     OW32914   0.377   2.593   1.163
10672SOL    HW132915   0.304   2.593   1.231
10672SOL    HW232916   0.461   2.631   1.203
10673SOL     OW32917   2.604   3.190   5.380
10673SOL    HW132918   2.684   3.230   5.336
10673SOL    HW232919   2.555   3.132   5.315
10674SOL     OW32920   4.045   3.264   1.540
10674SOL    HW132921   4.101   3.345   1.523
10674SOL    HW232922   4.078   3.188   1.483
10675SOL     OW32923   0.336   0.392   5.534
10675SOL    HW132924   0.349   0.308   5.587
10675SOL    HW232925   0.277   0.374   5.456
10676SOL     OW32926   5.971   6.593   6.180
10676SOL    HW132927   6.048   6.652   6.203
10676SOL    HW232928   5.987   6.550   6.091
10677SOL     OW32929   0.349   0.373   0.773
10677SOL    HW132930   0.323   0.465   0.800
10677SOL    HW232931   0.429   0.345   0.826
10678SOL     OW32932   2.097   5.922   2.218
10678SOL    HW132933   2.105   5.908   2.120
10678SOL    HW232934   2.029   5.859   2.256
10679SOL     OW32935   5.502   5.187   3.988
10679SOL    HW132936   5.439   5.259   4.018
10679SOL    HW232937   5.456   5.129   3.920
10680SOL     OW32938   1.504   3.609   2.711
10680SOL    HW132939   1.557   3.541   2.762
10680SOL    HW232940   1.557   3.641   2.633
10681SOL     OW32941   6.346   2.656   5.737
10681SOL    HW132942   6.308   2.574   5.695
10681SOL    HW232943   6.364   2.639   5.834
10682SOL     OW32944   6.980   1.218   2.796
10682SOL    HW132945   6.959   1.156   2.720
10682SOL    HW232946   0.052   1.203   2.826
10683SOL     OW32947   1.745   1.736   4.961
10683SOL    HW132948   1.734   1.812   4.898
10683SOL    HW232949   1.655   1.707   4.995
10684SOL     OW32950   6.389   4.495   0.085
10684SOL    HW132951   6.443   4.573   0.117
10684SOL    HW232952   6.292   4.519   0.088
10685SOL     OW32953   0.378   2.763   3.282
10685SOL    HW132954   0.301   2.766   3.346
10685SOL    HW232955   0.422   2.852   3.278
10686SOL     OW32956   3.235   5.513   0.357
10686SOL    HW132957   3.183   5.491   0.439
10686SOL    HW232958   3.184   5.578   0.301
10687SOL     OW32959   0.347   4.723   2.762
10687SOL    HW132960   0.375   4.781   2.686
10687SOL    HW232961   0.397   4.750   2.845
10688SOL     OW32962   6.824   4.871   1.912
10688SOL    HW132963   6.808   4.960   1.869
10688SOL    HW232964   6.737   4.823   1.923
10689SOL     OW32965   0.793   0.471   2.542
10689SOL    HW132966   0.812   0.378   2.572
10689SOL    HW232967   0.695   0.490   2.552
10690SOL     OW32968   4.339   4.897   2.163
10690SOL    HW132969   4.263   4.842   2.198
10690SOL    HW232970   4.407   4.836   2.121
10691SOL     OW32971   6.809   1.264   1.888
10691SOL    HW132972   6.740   1.335   1.881
10691SOL    HW232973   6.767   1.174   1.874
10692SOL     OW32974   3.664   5.596   3.628
10692SOL    HW132975   3.715   5.682   3.619
10692SOL    HW232976   3.586   5.610   3.689
10693SOL     OW32977   6.608   1.445   1.857
10693SOL    HW132978   6.650   1.496   1.782
10693SOL    HW232979   6.576   1.509   1.927
10694SOL     OW32980   4.213   6.467   0.606
10694SOL    HW132981   4.139   6.403   0.627
10694SOL    HW232982   4.192   6.556   0.646
10695SOL     OW32983   0.091   2.501   3.925
10695SOL    HW132984   0.061   2.523   3.832
10695SOL    HW232985   0.190   2.490   3.926
10696SOL     OW32986   6.735   5.811   1.417
10696SOL    HW132987   6.661   5.779   1.476
10696SOL    HW232988   6.823   5.786   1.457
10697SOL     OW32989   1.559   5.958   3.951
10697SOL    HW132990   1.468   5.916   3.951
10697SOL    HW232991   1.624   5.896   3.909
10698SOL     OW32992   2.918   6.627   3.548
10698SOL    HW132993   2.938   6.548   3.607
10698SOL    HW232994   2.825   6.619   3.512
10699SOL     OW32995   2.837   2.092   3.203
10699SOL    HW132996   2.883   2.006   3.181
10699SOL    HW232997   2.833   2.149   3.121
10700SOL     OW32998   6.815   6.500   1.079
10700SOL    HW132999   6.724   6.538   1.099
10700SOL    HW233000   6.817   6.404   1.105
10701SOL     OW33001   2.644   6.375   1.024
10701SOL    HW133002   2.569   6.312   0.999
10701SOL    HW233003   2.605   6.458   1.063
10702SOL     OW33004   6.186   2.462   0.975
10702SOL    HW133005   6.200   2.558   0.950
10702SOL    HW233006   6.090   2.448   0.999
10703SOL     OW33007   3.759   4.094   4.130
10703SOL    HW133008   3.733   4.073   4.224
10703SOL    HW233009   3.692   4.158   4.091
10704SOL     OW33010   5.185   0.265   2.214
10704SOL    HW133011   5.106   0.313   2.176
10704SOL    HW233012   5.252   0.247   2.141
10705SOL     OW33013   0.032   3.100   5.863
10705SOL    HW133014   0.084   3.179   5.895
10705SOL    HW233015   0.036   3.097   5.763
10706SOL     OW33016   3.097   1.119   2.172
10706SOL    HW133017   3.024   1.184   2.193
10706SOL    HW233018   3.088   1.087   2.078
10707SOL     OW33019   6.176   6.918   6.058
10707SOL    HW133020   6.241   6.992   6.039
10707SOL    HW233021   6.146   6.878   5.972
10708SOL     OW33022   4.447   1.172   1.003
10708SOL    HW133023   4.376   1.242   1.012
10708SOL    HW233024   4.509   1.197   0.928
10709SOL     OW33025   6.025   6.528   5.607
10709SOL    HW133026   5.947   6.583   5.579
10709SOL    HW233027   5.993   6.436   5.632
10710SOL     OW33028   5.949   5.536   3.004
10710SOL    HW133029   5.978   5.579   3.090
10710SOL    HW233030   5.972   5.595   2.927
10711SOL     OW33031   1.530   6.987   3.878
10711SOL    HW133032   1.624   7.020   3.869
10711SOL    HW233033   1.467   0.043   3.872
10712SOL     OW33034   3.915   1.582   5.141
10712SOL    HW133035   3.854   1.631   5.079
10712SOL    HW233036   3.985   1.534   5.087
10713SOL     OW33037   1.201   5.877   1.639
10713SOL    HW133038   1.204   5.821   1.721
10713SOL    HW233039   1.165   5.968   1.662
10714SOL     OW33040   6.739   5.193   5.976
10714SOL    HW133041   6.643   5.200   5.949
10714SOL    HW233042   6.757   5.254   6.053
10715SOL     OW33043   5.354   1.603   4.401
10715SOL    HW133044   5.350   1.560   4.311
10715SOL    HW233045   5.292   1.681   4.403
10716SOL     OW33046   6.353   0.142   3.872
10716SOL    HW133047   6.406   0.099   3.946
10716SOL    HW233048   6.265   0.173   3.908
10717SOL     OW33049   0.340   0.204   1.491
10717SOL    HW133050   0.409   0.255   1.542
10717SOL    HW233051   0.271   0.268   1.457
10718SOL     OW33052   6.467   4.997   0.290
10718SOL    HW133053   6.385   5.011   0.347
10718SOL    HW233054   6.523   4.924   0.330
10719SOL     OW33055   5.580   0.580   1.926
10719SOL    HW133056   5.570   0.509   1.995
10719SOL    HW233057   5.530   0.662   1.954
10720SOL     OW33058   0.449   3.315   6.558
10720SOL    HW133059   0.492   3.227   6.580
10720SOL    HW233060   0.489   3.352   6.474
10721SOL     OW33061   4.848   2.528   4.498
10721SOL    HW133062   4.801   2.459   4.552
10721SOL    HW233063   4.831   2.512   4.401
10722SOL     OW33064   0.123   3.597   6.904
10722SOL    HW133065   0.174   3.518   6.868
10722SOL    HW233066   0.101   3.659   6.829
10723SOL     OW33067   6.063   3.826   6.756
10723SOL    HW133068   6.097   3.736   6.727
10723SOL    HW233069   5.970   3.816   6.792
10724SOL     OW33070   4.288   6.290   5.903
10724SOL    HW133071   4.189   6.303   5.905
10724SOL    HW233072   4.308   6.192   5.899
10725SOL     OW33073   6.954   6.179   5.212
10725SOL    HW133074   0.029   6.160   5.227
10725SOL    HW233075   6.930   6.155   5.118
10726SOL     OW33076   4.688   1.108   4.610
10726SOL    HW133077   4.650   1.020   4.584
10726SOL    HW233078   4.761   1.133   4.546
10727SOL     OW33079   2.330   6.437   5.962
10727SOL    HW133080   2.271   6.411   5.885
10727SOL    HW233081   2.417   6.472   5.927
10728SOL     OW33082   5.070   5.914   2.950
10728SOL    HW133083   5.169   5.911   2.937
10728SOL    HW233084   5.048   5.983   3.019
10729SOL     OW33085   5.696   2.603   3.164
10729SOL    HW133086   5.767   2.664   3.199
10729SOL    HW233087   5.699   2.517   3.214
10730SOL     OW33088   1.983   6.371   2.711
10730SOL    HW133089   1.972   6.318   2.626
10730SOL    HW233090   2.006   6.466   2.688
10731SOL     OW33091   3.959   0.275   6.425
10731SOL    HW133092   3.907   0.239   6.503
10731SOL    HW233093   3.943   0.217   6.345
10732SOL     OW33094   5.896   6.421   3.188
10732SOL    HW133095   5.815   6.449   3.239
10732SOL    HW233096   5.957   6.369   3.247
10733SOL     OW33097   0.257   0.638   6.185
10733SOL    HW133098   0.158   0.624   6.187
10733SOL    HW233099   0.298   0.597   6.266
10734SOL     OW33100   0.865   1.273   5.597
10734SOL    HW133101   0.798   1.338   5.561
10734SOL    HW233102   0.896   1.212   5.524
10735SOL     OW33103   1.424   5.590   2.190
10735SOL    HW133104   1.374   5.600   2.104
10735SOL    HW233105   1.363   5.606   2.267
10736SOL     OW33106   5.831   0.307   3.534
10736SOL    HW133107   5.880   0.250   3.599
10736SOL    HW233108   5.733   0.284   3.537
10737SOL     OW33109   6.573   1.268   2.158
10737SOL    HW133110   6.509   1.342   2.181
10737SOL    HW233111   6.659   1.307   2.127
10738SOL     OW33112   3.099   0.978   1.940
10738SOL    HW133113   3.103   0.885   1.975
10738SOL    HW233114   3.191   1.008   1.914
10739SOL     OW33115   5.829   2.369   2.911
10739SOL    HW133116   5.792   2.300   2.849
10739SOL    HW233117   5.764   2.444   2.919
10740SOL     OW33118   1.560   6.651   6.232
10740SOL    HW133119   1.584   6.674   6.138
10740SOL    HW233120   1.566   6.733   6.289
10741SOL     OW33121   2.598   2.445   3.614
10741SOL    HW133122   2.662   2.463   3.539
10741SOL    HW233123   2.525   2.513   3.614
10742SOL     OW33124   6.003   6.392   2.691
10742SOL    HW133125   6.051   6.463   2.640
10742SOL    HW233126   6.002   6.414   2.788
10743SOL     OW33127   3.573   1.226   5.772
10743SOL    HW133128   3.527   1.305   5.811
10743SOL    HW233129   3.573   1.232   5.673
10744SOL     OW33130   1.817   0.264   0.241
10744SOL    HW133131   1.869   0.266   0.327
10744SOL    HW233132   1.860   0.199   0.178
10745SOL     OW33133   2.181   5.104   1.210
10745SOL    HW133134   2.166   5.058   1.298
10745SOL    HW233135   2.113   5.177   1.199
10746SOL     OW33136   1.436   6.073   6.391
10746SOL    HW133137   1.402   6.074   6.485
10746SOL    HW233138   1.472   5.982   6.369
10747SOL     OW33139   6.198   1.217   4.979
10747SOL    HW133140   6.136   1.296   4.975
10747SOL    HW233141   6.223   1.199   5.074
10748SOL     OW33142   4.308   6.289   0.986
10748SOL    HW133143   4.379   6.261   1.050
10748SOL    HW233144   4.315   6.387   0.969
10749SOL     OW33145   5.427   5.965   2.196
10749SOL    HW133146   5.369   5.898   2.148
10749SOL    HW233147   5.505   5.917   2.237
10750SOL     OW33148   4.990   2.399   4.100
10750SOL    HW133149   4.985   2.432   4.006
10750SOL    HW233150   4.925   2.450   4.156
10751SOL     OW33151   0.361   5.193   5.084
10751SOL    HW133152   0.385   5.144   5.000
10751SOL    HW233153   0.285   5.147   5.128
10752SOL     OW33154   5.999   6.390   0.727
10752SOL    HW133155   5.940   6.339   0.664
10752SOL    HW233156   5.994   6.349   0.818
10753SOL     OW33157   4.692   6.632   4.031
10753SOL    HW133158   4.678   6.731   4.025
10753SOL    HW233159   4.742   6.610   4.115
10754SOL     OW33160   1.461   3.616   1.441
10754SOL    HW133161   1.478   3.526   1.402
10754SOL    HW233162   1.465   3.685   1.369
10755SOL     OW33163   6.477   3.290   1.346
10755SOL    HW133164   6.496   3.372   1.400
10755SOL    HW233165   6.551   3.275   1.281
10756SOL     OW33166   0.337   1.850   1.066
10756SOL    HW133167   0.311   1.944   1.044
10756SOL    HW233168   0.256   1.800   1.097
10757SOL     OW33169   0.427   3.763   1.635
10757SOL    HW133170   0.462   3.735   1.725
10757SOL    HW233171   0.419   3.683   1.576
10758SOL     OW33172   0.666   0.287   6.843
10758SOL    HW133173   0.693   0.370   6.796
10758SOL    HW233174   0.588   0.245   6.796
10759SOL     OW33175   2.627   2.675   6.315
10759SOL    HW133176   2.595   2.640   6.228
10759SOL    HW233177   2.714   2.724   6.302
10760SOL     OW33178   0.654   5.265   0.546
10760SOL    HW133179   0.580   5.220   0.596
10760SOL    HW233180   0.741   5.244   0.591
10761SOL     OW33181   0.124   1.587   6.316
10761SOL    HW133182   0.079   1.619   6.233
10761SOL    HW233183   0.162   1.495   6.301
10762SOL     OW33184   3.677   6.117   6.160
10762SOL    HW133185   3.597   6.080   6.113
10762SOL    HW233186   3.678   6.086   6.255
10763SOL     OW33187   5.230   0.322   2.992
10763SOL    HW133188   5.198   0.387   2.923
10763SOL    HW233189   5.271   0.373   3.069
10764SOL     OW33190   3.864   0.720   4.594
10764SOL    HW133191   3.920   0.651   4.546
10764SOL    HW233192   3.900   0.811   4.574
10765SOL     OW33193   6.682   1.880   2.729
10765SOL    HW133194   6.603   1.865   2.788
10765SOL    HW233195   6.764   1.844   2.774
10766SOL     OW33196   1.774   5.192   6.389
10766SOL    HW133197   1.721   5.126   6.443
10766SOL    HW233198   1.757   5.176   6.292
10767SOL     OW33199   1.689   5.646   0.400
10767SOL    HW133200   1.663   5.661   0.305
10767SOL    HW233201   1.781   5.605   0.402
10768SOL     OW33202   5.537   5.963   0.551
10768SOL    HW133203   5.460   6.021   0.524
10768SOL    HW233204   5.622   6.000   0.513
10769SOL     OW33205   3.365   3.332   4.425
10769SOL    HW133206   3.289   3.281   4.466
10769SOL    HW233207   3.446   3.324   4.483
10770SOL     OW33208   5.369   6.907   3.930
10770SOL    HW133209   5.348   6.969   4.006
10770SOL    HW233210   5.324   6.940   3.847
10771SOL     OW33211   4.986   6.242   5.989
10771SOL    HW133212   4.973   6.306   5.914
10771SOL    HW233213   4.902   6.236   6.044
10772SOL     OW33214   6.016   4.912   2.855
10772SOL    HW133215   5.956   4.834   2.876
10772SOL    HW233216   6.047   4.906   2.760
10773SOL     OW33217   6.843   4.249   1.320
10773SOL    HW133218   6.884   4.181   1.259
10773SOL    HW233219   6.759   4.284   1.279
10774SOL     OW33220   1.241   3.080   0.467
10774SOL    HW133221   1.259   2.982   0.455
10774SOL    HW233222   1.183   3.093   0.547
10775SOL     OW33223   1.117   4.329   0.651
10775SOL    HW133224   1.210   4.338   0.685
10775SOL    HW233225   1.057   4.298   0.725
10776SOL     OW33226   0.944   1.713   3.500
10776SOL    HW133227   0.933   1.743   3.405
10776SOL    HW233228   0.866   1.744   3.554
10777SOL     OW33229   3.697   1.585   1.956
10777SOL    HW133230   3.623   1.643   1.924
10777SOL    HW233231   3.663   1.522   2.026
10778SOL     OW33232   6.156   6.639   3.240
10778SOL    HW133233   6.095   6.718   3.233
10778SOL    HW233234   6.147   6.598   3.331
10779SOL     OW33235   5.629   4.063   4.445
10779SOL    HW133236   5.640   4.156   4.410
10779SOL    HW233237   5.691   4.048   4.522
10780SOL     OW33238   1.684   6.162   5.101
10780SOL    HW133239   1.665   6.111   5.185
10780SOL    HW233240   1.724   6.101   5.033
10781SOL     OW33241   6.008   2.099   5.321
10781SOL    HW133242   6.007   2.079   5.223
10781SOL    HW233243   5.974   2.192   5.336
10782SOL     OW33244   1.195   2.591   5.142
10782SOL    HW133245   1.198   2.496   5.173
10782SOL    HW233246   1.193   2.652   5.221
10783SOL     OW33247   1.199   2.706   3.233
10783SOL    HW133248   1.186   2.791   3.284
10783SOL    HW233249   1.130   2.699   3.161
10784SOL     OW33250   3.899   6.438   2.393
10784SOL    HW133251   3.983   6.492   2.391
10784SOL    HW233252   3.863   6.436   2.486
10785SOL     OW33253   1.967   5.639   2.357
10785SOL    HW133254   1.939   5.543   2.364
10785SOL    HW233255   1.902   5.689   2.299
10786SOL     OW33256   3.983   1.265   1.974
10786SOL    HW133257   3.972   1.354   1.929
10786SOL    HW233258   3.950   1.273   2.069
10787SOL     OW33259   3.909   1.432   3.434
10787SOL    HW133260   3.883   1.336   3.429
10787SOL    HW233261   3.914   1.461   3.530
10788SOL     OW33262   0.762   5.071   0.783
10788SOL    HW133263   0.719   5.087   0.872
10788SOL    HW233264   0.713   4.998   0.735
10789SOL     OW33265   6.346   1.612   1.077
10789SOL    HW133266   6.410   1.585   1.150
10789SOL    HW233267   6.313   1.705   1.094
10790SOL     OW33268   0.484   2.407   4.653
10790SOL    HW133269   0.403   2.375   4.702
10790SOL    HW233270   0.542   2.329   4.628
10791SOL     OW33271   1.423   1.714   3.397
10791SOL    HW133272   1.368   1.792   3.369
10791SOL    HW233273   1.378   1.629   3.371
10792SOL     OW33274   3.879   2.164   1.304
10792SOL    HW133275   3.909   2.139   1.396
10792SOL    HW233276   3.802   2.105   1.278
10793SOL     OW33277   4.321   1.335   4.894
10793SOL    HW133278   4.392   1.317   4.826
10793SOL    HW233279   4.297   1.249   4.940
10794SOL     OW33280   4.567   2.723   0.853
10794SOL    HW133281   4.487   2.763   0.809
10794SOL    HW233282   4.645   2.726   0.790
10795SOL     OW33283   0.519   3.484   3.354
10795SOL    HW133284   0.468   3.422   3.295
10795SOL    HW233285   0.617   3.461   3.350
10796SOL     OW33286   0.017   6.732   6.789
10796SOL    HW133287   6.965   6.780   6.835
10796SOL    HW233288   7.001   6.667   6.723
10797SOL     OW33289   4.148   3.751   0.133
10797SOL    HW133290   4.106   3.665   0.161
10797SOL    HW233291   4.157   3.811   0.212
10798SOL     OW33292   2.379   6.864   6.691
10798SOL    HW133293   2.327   6.789   6.651
10798SOL    HW233294   2.318   6.942   6.706
10799SOL     OW33295   2.648   1.209   2.956
10799SOL    HW133296   2.607   1.131   2.910
10799SOL    HW233297   2.705   1.261   2.892
10800SOL     OW33298   1.821   0.559   5.666
10800SOL    HW133299   1.828   0.641   5.609
10800SOL    HW233300   1.867   0.575   5.753
10801SOL     OW33301   2.965   6.539   6.264
10801SOL    HW133302   2.881   6.519   6.213
10801SOL    HW233303   3.036   6.473   6.239
10802SOL     OW33304   0.625   4.269   4.460
10802SOL    HW133305   0.704   4.293   4.516
10802SOL    HW233306   0.583   4.352   4.424
10803SOL     OW33307   6.757   4.488   4.842
10803SOL    HW133308   6.689   4.416   4.829
10803SOL    HW233309   6.798   4.479   4.933
10804SOL     OW33310   5.120   4.773   1.639
10804SOL    HW133311   5.043   4.833   1.661
10804SOL    HW233312   5.134   4.771   1.540
10805SOL     OW33313   4.254   6.874   0.561
10805SOL    HW133314   4.329   6.828   0.515
10805SOL    HW233315   4.277   6.971   0.574
10806SOL     OW33316   4.991   3.419   6.909
10806SOL    HW133317   5.025   3.496   6.855
10806SOL    HW233318   5.056   3.344   6.906
10807SOL     OW33319   4.495   6.653   3.454
10807SOL    HW133320   4.508   6.690   3.546
10807SOL    HW233321   4.411   6.599   3.451
10808SOL     OW33322   0.157   2.868   6.037
10808SOL    HW133323   0.198   2.954   6.067
10808SOL    HW233324   0.115   2.881   5.947
10809SOL     OW33325   2.760   0.787   3.228
10809SOL    HW133326   2.735   0.881   3.204
10809SOL    HW233327   2.753   0.774   3.327
10810SOL     OW33328   0.037   1.201   5.592
10810SOL    HW133329   0.123   1.231   5.632
10810SOL    HW233330   0.044   1.105   5.565
10811SOL     OW33331   4.377   4.590   5.540
10811SOL    HW133332   4.427   4.650   5.603
10811SOL    HW233333   4.433   4.511   5.518
10812SOL     OW33334   6.799   2.410   3.186
10812SOL    HW133335   6.726   2.372   3.243
10812SOL    HW233336   6.785   2.508   3.175
10813SOL     OW33337   2.641   5.898   1.453
10813SOL    HW133338   2.571   5.888   1.383
10813SOL    HW233339   2.670   5.807   1.484
10814SOL     OW33340   1.723   0.039   5.026
10814SOL    HW133341   1.623   0.026   5.023
10814SOL    HW233342   1.757   0.053   4.933
10815SOL     OW33343   5.082   2.459   3.163
10815SOL    HW133344   5.118   2.514   3.088
10815SOL    HW233345   4.987   2.434   3.144
10816SOL     OW33346   2.330   1.820   2.037
10816SOL    HW133347   2.269   1.769   2.099
10816SOL    HW233348   2.283   1.837   1.951
10817SOL     OW33349   4.803   6.500   2.206
10817SOL    HW133350   4.754   6.447   2.137
10817SOL    HW233351   4.755   6.493   2.294
10818SOL     OW33352   4.654   3.124   6.916
10818SOL    HW133353   4.555   3.120   6.926
10818SOL    HW233354   4.680   3.208   6.869
10819SOL     OW33355   0.193   3.915   6.492
10819SOL    HW133356   0.159   3.988   6.432
10819SOL    HW233357   0.241   3.847   6.437
10820SOL     OW33358   0.628   6.995   4.411
10820SOL    HW133359   0.558   6.959   4.350
10820SOL    HW233360   0.589   0.046   4.467
10821SOL     OW33361   6.874   0.176   0.274
10821SOL    HW133362   6.890   0.160   0.177
10821SOL    HW233363   6.850   0.272   0.289
10822SOL     OW33364   1.141   4.359   1.373
10822SOL    HW133365   1.041   4.356   1.366
10822SOL    HW233366   1.172   4.292   1.440
10823SOL     OW33367   1.563   0.740   1.172
10823SOL    HW133368   1.534   0.778   1.084
10823SOL    HW233369   1.506   0.661   1.195
10824SOL     OW33370   5.615   0.392   2.624
10824SOL    HW133371   5.629   0.309   2.678
10824SOL    HW233372   5.689   0.401   2.558
10825SOL     OW33373   3.432   1.307   1.332
10825SOL    HW133374   3.498   1.282   1.261
10825SOL    HW233375   3.473   1.375   1.393
10826SOL     OW33376   6.537   3.142   1.768
10826SOL    HW133377   6.564   3.081   1.694
10826SOL    HW233378   6.451   3.111   1.807
10827SOL     OW33379   6.783   2.544   4.420
10827SOL    HW133380   6.697   2.495   4.404
10827SOL    HW233381   6.855   2.505   4.362
10828SOL     OW33382   0.758   5.810   0.409
10828SOL    HW133383   0.755   5.896   0.460
10828SOL    HW233384   0.705   5.741   0.458
10829SOL     OW33385   2.884   3.397   1.394
10829SOL    HW133386   2.916   3.389   1.300
10829SOL    HW233387   2.919   3.481   1.434
10830SOL     OW33388   4.685   2.363   3.832
10830SOL    HW133389   4.782   2.383   3.848
10830SOL    HW233390   4.638   2.448   3.807
10831SOL     OW33391   5.431   1.852   3.133
10831SOL    HW133392   5.447   1.935   3.186
10831SOL    HW233393   5.504   1.840   3.065
10832SOL     OW33394   6.794   1.944   1.040
10832SOL    HW133395   6.701   1.918   1.063
10832SOL    HW233396   6.793   2.028   0.986
10833SOL     OW33397   3.128   6.695   4.919
10833SOL    HW133398   3.111   6.601   4.891
10833SOL    HW233399   3.203   6.698   4.984
10834SOL     OW33400   0.154   1.021   5.238
10834SOL    HW133401   0.222   1.059   5.175
10834SOL    HW233402   0.199   0.991   5.322
10835SOL     OW33403   6.714   1.645   2.435
10835SOL    HW133404   6.651   1.717   2.405
10835SOL    HW233405   6.723   1.648   2.534
10836SOL     OW33406   1.983   2.342   6.536
10836SOL    HW133407   1.955   2.416   6.597
10836SOL    HW233408   1.985   2.256   6.587
10837SOL     OW33409   0.455   5.168   0.763
10837SOL    HW133410   0.440   5.203   0.856
10837SOL    HW233411   0.461   5.068   0.766
10838SOL     OW33412   6.128   0.241   0.247
10838SOL    HW133413   6.105   0.204   0.157
10838SOL    HW233414   6.134   0.166   0.313
10839SOL     OW33415   2.106   1.840   0.829
10839SOL    HW133416   2.150   1.928   0.809
10839SOL    HW233417   2.140   1.805   0.916
10840SOL     OW33418   3.749   5.722   2.119
10840SOL    HW133419   3.777   5.682   2.032
10840SOL    HW233420   3.829   5.757   2.167
10841SOL     OW33421   4.105   4.504   6.212
10841SOL    HW133422   4.065   4.487   6.122
10841SOL    HW233423   4.111   4.602   6.228
10842SOL     OW33424   6.326   2.896   1.376
10842SOL    HW133425   6.370   2.860   1.458
10842SOL    HW233426   6.328   2.996   1.377
10843SOL     OW33427   0.352   1.436   1.794
10843SOL    HW133428   0.379   1.507   1.860
10843SOL    HW233429   0.367   1.346   1.835
10844SOL     OW33430   4.281   6.889   3.762
10844SOL    HW133431   4.280   6.790   3.774
10844SOL    HW233432   4.216   6.914   3.690
10845SOL     OW33433   2.061   2.754   0.894
10845SOL    HW133434   2.094   2.661   0.874
10845SOL    HW233435   2.136   2.819   0.882
10846SOL     OW33436   3.488   1.765   1.762
10846SOL    HW133437   3.505   1.843   1.822
10846SOL    HW233438   3.528   1.781   1.672
10847SOL     OW33439   4.364   2.980   6.217
10847SOL    HW133440   4.324   3.060   6.173
10847SOL    HW233441   4.418   3.008   6.296
10848SOL     OW33442   1.642   0.831   6.316
10848SOL    HW133443   1.647   0.928   6.293
10848SOL    HW233444   1.621   0.821   6.414
10849SOL     OW33445   2.765   4.762   4.084
10849SOL    HW133446   2.801   4.743   4.176
10849SOL    HW233447   2.690   4.699   4.064
10850SOL     OW33448   5.075   6.725   0.653
10850SOL    HW133449   5.086   6.712   0.752
10850SOL    HW233450   5.164   6.715   0.608
10851SOL     OW33451   4.074   2.125   6.184
10851SOL    HW133452   4.145   2.069   6.140
10851SOL    HW233453   4.030   2.182   6.115
10852SOL     OW33454   0.508   0.338   6.224
10852SOL    HW133455   0.451   0.263   6.260
10852SOL    HW233456   0.506   0.335   6.124
10853SOL     OW33457   2.573   1.061   4.803
10853SOL    HW133458   2.499   1.128   4.806
10853SOL    HW233459   2.657   1.106   4.772
10854SOL     OW33460   6.705   6.472   0.363
10854SOL    HW133461   6.774   6.402   0.381
10854SOL    HW233462   6.700   6.489   0.265
10855SOL     OW33463   1.000   6.230   1.153
10855SOL    HW133464   0.983   6.219   1.251
10855SOL    HW233465   1.025   6.325   1.135
10856SOL     OW33466   6.241   6.973   6.506
10856SOL    HW133467   6.338   6.994   6.514
10856SOL    HW233468   6.202   6.961   6.597
10857SOL     OW33469   5.954   0.895   4.396
10857SOL    HW133470   5.945   0.987   4.359
10857SOL    HW233471   5.924   0.894   4.492
10858SOL     OW33472   2.473   1.838   0.690
10858SOL    HW133473   2.524   1.877   0.613
10858SOL    HW233474   2.502   1.884   0.774
10859SOL     OW33475   0.728   4.717   2.178
10859SOL    HW133476   0.681   4.686   2.096
10859SOL    HW233477   0.683   4.678   2.259
10860SOL     OW33478   6.338   1.906   0.368
10860SOL    HW133479   6.319   1.923   0.465
10860SOL    HW233480   6.437   1.901   0.354
10861SOL     OW33481   3.150   2.890   2.057
10861SOL    HW133482   3.168   2.984   2.089
10861SOL    HW233483   3.143   2.829   2.135
10862SOL     OW33484   3.819   2.990   5.387
10862SOL    HW133485   3.815   3.039   5.300
10862SOL    HW233486   3.839   3.055   5.461
10863SOL     OW33487   1.844   1.823   3.237
10863SOL    HW133488   1.825   1.889   3.164
10863SOL    HW233489   1.775   1.833   3.310
10864SOL     OW33490   3.264   4.882   1.923
10864SOL    HW133491   3.281   4.807   1.859
10864SOL    HW233492   3.351   4.923   1.951
10865SOL     OW33493   3.805   1.430   3.177
10865SOL    HW133494   3.876   1.432   3.248
10865SOL    HW233495   3.839   1.380   3.098
10866SOL     OW33496   0.291   3.869   3.269
10866SOL    HW133497   0.291   3.829   3.177
10866SOL    HW233498   0.386   3.883   3.299
10867SOL     OW33499   4.553   3.554   0.558
10867SOL    HW133500   4.467   3.541   0.608
10867SOL    HW233501   4.533   3.584   0.465
10868SOL     OW33502   1.044   1.160   4.523
10868SOL    HW133503   1.051   1.260   4.524
10868SOL    HW233504   1.009   1.130   4.435
10869NA      NA33505   6.577   2.609   5.692
10870NA      NA33506   4.350   4.714   5.059
10871NA      NA33507   1.107   4.886   2.638
10872NA      NA33508   5.805   4.139   3.378
10873NA      NA33509   3.914   2.133   5.249
10874NA      NA33510   2.265   4.944   0.338
10875NA      NA33511   1.231   5.244   0.000
10876NA      NA33512   3.566   4.062   1.233
10877NA      NA33513   4.318   5.255   0.613
10878NA      NA33514   3.243   0.947   6.726
10879NA      NA33515   5.626   6.553   2.033
10880NA      NA33516   1.620   6.927   5.360
10881NA      NA33517   4.149   5.054   1.902
10882NA      NA33518   3.773   3.336   6.678
   7.02244   7.02244   7.02244
