Generated by trjconv : CNT in water t=  77.00000
33518
    1C        C    1   2.839   2.763   4.745
    1C        C    2   2.896   2.714   4.865
    1C        C    3   2.847   2.775   4.982
    1C        C    4   2.845   2.774   4.261
    1C        C    5   2.898   2.727   4.383
    1C        C    6   2.843   2.772   4.506
    1C        C    7   3.010   2.636   4.625
    1C        C    8   2.891   2.712   4.624
    1C        C    9   3.073   2.597   4.746
    1C        C   10   3.009   2.630   4.868
    1C        C   11   3.180   2.489   4.974
    1C        C   12   3.058   2.558   4.978
    1C        C   13   2.849   2.769   3.772
    1C        C   14   2.899   2.717   3.893
    1C        C   15   2.845   2.765   4.015
    1C        C   16   3.016   2.647   4.139
    1C        C   17   2.897   2.723   4.140
    1C        C   18   3.080   2.615   4.261
    1C        C   19   3.015   2.648   4.382
    1C        C   20   3.204   2.552   4.505
    1C        C   21   3.073   2.604   4.503
    1C        C   22   3.276   2.535   4.626
    1C        C   23   3.207   2.552   4.748
    1C        C   24   3.413   2.479   4.862
    1C        C   25   3.272   2.501   4.864
    1C        C   26   3.489   2.469   4.979
    1C        C   27   2.850   2.770   3.282
    1C        C   28   2.903   2.721   3.404
    1C        C   29   2.854   2.771   3.527
    1C        C   30   3.013   2.634   3.651
    1C        C   31   2.899   2.718   3.650
    1C        C   32   3.076   2.600   3.772
    1C        C   33   3.016   2.639   3.894
    1C        C   34   3.207   2.552   4.017
    1C        C   35   3.078   2.609   4.018
    1C        C   36   3.277   2.538   4.139
    1C        C   37   3.210   2.560   4.262
    1C        C   38   3.415   2.515   4.380
    1C        C   39   3.275   2.534   4.384
    1C        C   40   3.486   2.507   4.502
    1C        C   41   3.413   2.501   4.623
    1C        C   42   3.629   2.485   4.746
    1C        C   43   3.487   2.477   4.741
    1C        C   44   3.702   2.491   4.867
    1C        C   45   3.628   2.472   4.984
    1C        C   46   2.838   2.754   2.795
    1C        C   47   2.892   2.710   2.918
    1C        C   48   2.838   2.758   3.040
    1C        C   49   3.017   2.640   3.161
    1C        C   50   2.902   2.721   3.160
    1C        C   51   3.075   2.602   3.284
    1C        C   52   3.012   2.631   3.407
    1C        C   53   3.204   2.541   3.529
    1C        C   54   3.074   2.596   3.529
    1C        C   55   3.275   2.523   3.650
    1C        C   56   3.206   2.545   3.772
    1C        C   57   3.411   2.498   3.893
    1C        C   58   3.273   2.525   3.895
    1C        C   59   3.484   2.495   4.014
    1C        C   60   3.415   2.510   4.137
    1C        C   61   3.628   2.505   4.260
    1C        C   62   3.487   2.504   4.258
    1C        C   63   3.699   2.513   4.382
    1C        C   64   3.627   2.503   4.503
    1C        C   65   3.834   2.542   4.620
    1C        C   66   3.699   2.502   4.624
    1C        C   67   3.902   2.561   4.742
    1C        C   68   3.838   2.528   4.863
    1C        C   69   4.052   2.579   4.978
    1C        C   70   3.922   2.528   4.975
    1C        C   71   2.823   2.737   2.307
    1C        C   72   2.878   2.690   2.428
    1C        C   73   2.830   2.738   2.552
    1C        C   74   3.007   2.623   2.673
    1C        C   75   2.889   2.702   2.675
    1C        C   76   3.067   2.588   2.795
    1C        C   77   3.009   2.631   2.917
    1C        C   78   3.206   2.546   3.037
    1C        C   79   3.076   2.602   3.038
    1C        C   80   3.271   2.523   3.160
    1C        C   81   3.205   2.547   3.283
    1C        C   82   3.410   2.501   3.402
    1C        C   83   3.271   2.524   3.406
    1C        C   84   3.480   2.499   3.525
    1C        C   85   3.415   2.503   3.650
    1C        C   86   3.626   2.504   3.769
    1C        C   87   3.485   2.496   3.773
    1C        C   88   3.694   2.511   3.893
    1C        C   89   3.626   2.501   4.016
    1C        C   90   3.834   2.549   4.134
    1C        C   91   3.697   2.513   4.137
    1C        C   92   3.903   2.576   4.254
    1C        C   93   3.836   2.548   4.376
    1C        C   94   4.026   2.636   4.502
    1C        C   95   3.903   2.565   4.499
    1C        C   96   4.090   2.670   4.623
    1C        C   97   4.031   2.621   4.742
    1C        C   98   4.188   2.763   4.863
    1C        C   99   4.098   2.652   4.864
    1C        C  100   4.212   2.838   4.979
    1C        C  101   2.822   2.730   2.068
    1C        C  102   2.987   2.590   2.190
    1C        C  103   2.877   2.682   2.188
    1C        C  104   3.058   2.567   2.311
    1C        C  105   2.997   2.614   2.429
    1C        C  106   3.195   2.530   2.552
    1C        C  107   3.067   2.588   2.550
    1C        C  108   3.268   2.515   2.672
    1C        C  109   3.199   2.536   2.794
    1C        C  110   3.409   2.491   2.913
    1C        C  111   3.270   2.519   2.914
    1C        C  112   3.480   2.491   3.035
    1C        C  113   3.411   2.502   3.158
    1C        C  114   3.622   2.497   3.279
    1C        C  115   3.481   2.494   3.280
    1C        C  116   3.692   2.510   3.401
    1C        C  117   3.621   2.510   3.524
    1C        C  118   3.830   2.547   3.648
    1C        C  119   3.693   2.512   3.645
    1C        C  120   3.894   2.577   3.770
    1C        C  121   3.830   2.549   3.893
    1C        C  122   4.026   2.642   4.012
    1C        C  123   3.901   2.576   4.013
    1C        C  124   4.088   2.675   4.135
    1C        C  125   4.030   2.637   4.258
    1C        C  126   4.200   2.760   4.379
    1C        C  127   4.090   2.671   4.381
    1C        C  128   4.245   2.817   4.500
    1C        C  129   4.192   2.767   4.621
    1C        C  130   4.322   2.935   4.741
    1C        C  131   4.243   2.816   4.743
    1C        C  132   4.349   3.007   4.860
    1C        C  133   4.281   2.958   4.972
    1C        C  134   3.173   2.477   2.079
    1C        C  135   3.037   2.511   2.082
    1C        C  136   3.258   2.482   2.190
    1C        C  137   3.191   2.515   2.310
    1C        C  138   3.403   2.486   2.428
    1C        C  139   3.263   2.507   2.431
    1C        C  140   3.478   2.482   2.548
    1C        C  141   3.408   2.496   2.669
    1C        C  142   3.619   2.500   2.791
    1C        C  143   3.479   2.484   2.791
    1C        C  144   3.691   2.509   2.913
    1C        C  145   3.621   2.494   3.035
    1C        C  146   3.828   2.543   3.158
    1C        C  147   3.693   2.502   3.157
    1C        C  148   3.892   2.570   3.281
    1C        C  149   3.829   2.544   3.405
    1C        C  150   4.025   2.630   3.522
    1C        C  151   3.897   2.571   3.526
    1C        C  152   4.083   2.669   3.645
    1C        C  153   4.022   2.636   3.768
    1C        C  154   4.197   2.762   3.888
    1C        C  155   4.083   2.678   3.889
    1C        C  156   4.243   2.815   4.011
    1C        C  157   4.198   2.764   4.135
    1C        C  158   4.338   2.922   4.254
    1C        C  159   4.250   2.811   4.257
    1C        C  160   4.371   2.985   4.375
    1C        C  161   4.328   2.932   4.499
    1C        C  162   4.437   3.115   4.620
    1C        C  163   4.368   2.992   4.620
    1C        C  164   4.464   3.185   4.739
    1C        C  165   4.429   3.123   4.861
    1C        C  166   4.510   3.323   4.976
    1C        C  167   4.473   3.189   4.976
    1C        C  168   3.479   2.431   2.078
    1C        C  169   3.398   2.464   2.187
    1C        C  170   3.615   2.465   2.306
    1C        C  171   3.473   2.467   2.307
    1C        C  172   3.689   2.488   2.424
    1C        C  173   3.619   2.492   2.546
    1C        C  174   3.824   2.544   2.664
    1C        C  175   3.688   2.506   2.668
    1C        C  176   3.890   2.565   2.787
    1C        C  177   3.828   2.542   2.912
    1C        C  178   4.020   2.628   3.030
    1C        C  179   3.892   2.569   3.035
    1C        C  180   4.081   2.664   3.152
    1C        C  181   4.018   2.634   3.275
    1C        C  182   4.193   2.753   3.399
    1C        C  183   4.082   2.666   3.397
    1C        C  184   4.242   2.805   3.521
    1C        C  185   4.193   2.758   3.645
    1C        C  186   4.340   2.914   3.762
    1C        C  187   4.252   2.803   3.765
    1C        C  188   4.377   2.976   3.884
    1C        C  189   4.335   2.922   4.007
    1C        C  190   4.441   3.104   4.129
    1C        C  191   4.375   2.980   4.130
    1C        C  192   4.464   3.172   4.251
    1C        C  193   4.434   3.112   4.375
    1C        C  194   4.496   3.316   4.492
    1C        C  195   4.456   3.181   4.496
    1C        C  196   4.519   3.387   4.612
    1C        C  197   4.505   3.322   4.736
    1C        C  198   4.552   3.535   4.851
    1C        C  199   4.530   3.394   4.857
    1C        C  200   4.576   3.618   4.965
    1C        C  201   3.618   2.412   2.076
    1C        C  202   3.828   2.507   2.181
    1C        C  203   3.694   2.458   2.188
    1C        C  204   3.898   2.540   2.301
    1C        C  205   3.826   2.523   2.421
    1C        C  206   4.021   2.615   2.541
    1C        C  207   3.893   2.555   2.541
    1C        C  208   4.080   2.658   2.662
    1C        C  209   4.017   2.628   2.785
    1C        C  210   4.194   2.748   2.906
    1C        C  211   4.078   2.666   2.907
    1C        C  212   4.246   2.793   3.029
    1C        C  213   4.195   2.747   3.153
    1C        C  214   4.334   2.906   3.271
    1C        C  215   4.246   2.795   3.275
    1C        C  216   4.371   2.967   3.393
    1C        C  217   4.333   2.913   3.518
    1C        C  218   4.435   3.101   3.638
    1C        C  219   4.374   2.974   3.639
    1C        C  220   4.461   3.167   3.761
    1C        C  221   4.432   3.106   3.885
    1C        C  222   4.503   3.306   4.006
    1C        C  223   4.466   3.170   4.006
    1C        C  224   4.516   3.377   4.127
    1C        C  225   4.501   3.308   4.249
    1C        C  226   4.523   3.523   4.367
    1C        C  227   4.515   3.382   4.369
    1C        C  228   4.520   3.598   4.487
    1C        C  229   4.524   3.528   4.609
    1C        C  230   4.501   3.742   4.728
    1C        C  231   4.534   3.604   4.728
    1C        C  232   4.492   3.818   4.846
    1C        C  233   4.551   3.756   4.957
    1C        C  234   4.014   2.607   2.062
    1C        C  235   3.893   2.539   2.061
    1C        C  236   4.082   2.647   2.177
    1C        C  237   4.021   2.612   2.299
    1C        C  238   4.200   2.732   2.419
    1C        C  239   4.085   2.648   2.420
    1C        C  240   4.253   2.781   2.540
    1C        C  241   4.194   2.741   2.662
    1C        C  242   4.338   2.901   2.784
    1C        C  243   4.246   2.794   2.783
    1C        C  244   4.382   2.957   2.906
    1C        C  245   4.338   2.900   3.028
    1C        C  246   4.438   3.089   3.147
    1C        C  247   4.380   2.960   3.149
    1C        C  248   4.457   3.157   3.270
    1C        C  249   4.431   3.095   3.394
    1C        C  250   4.493   3.301   3.513
    1C        C  251   4.456   3.165   3.514
    1C        C  252   4.509   3.370   3.636
    1C        C  253   4.499   3.303   3.760
    1C        C  254   4.521   3.514   3.876
    1C        C  255   4.512   3.373   3.882
    1C        C  256   4.514   3.587   3.996
    1C        C  257   4.519   3.518   4.119
    1C        C  258   4.486   3.726   4.241
    1C        C  259   4.512   3.588   4.242
    1C        C  260   4.470   3.800   4.360
    1C        C  261   4.491   3.737   4.485
    1C        C  262   4.420   3.939   4.601
    1C        C  263   4.475   3.809   4.606
    1C        C  264   4.398   4.008   4.722
    1C        C  265   4.434   3.947   4.844
    1C        C  266   4.314   4.131   4.956
    1C        C  267   4.391   4.016   4.958
    1C        C  268   4.260   2.776   2.059
    1C        C  269   4.194   2.733   2.176
    1C        C  270   4.344   2.886   2.298
    1C        C  271   4.255   2.775   2.296
    1C        C  272   4.381   2.949   2.419
    1C        C  273   4.347   2.886   2.541
    1C        C  274   4.446   3.079   2.661
    1C        C  275   4.385   2.951   2.661
    1C        C  276   4.474   3.148   2.781
    1C        C  277   4.447   3.082   2.902
    1C        C  278   4.495   3.290   3.023
    1C        C  279   4.468   3.151   3.024
    1C        C  280   4.506   3.361   3.144
    1C        C  281   4.494   3.293   3.268
    1C        C  282   4.509   3.507   3.386
    1C        C  283   4.508   3.366   3.388
    1C        C  284   4.504   3.578   3.508
    1C        C  285   4.510   3.511   3.632
    1C        C  286   4.489   3.723   3.751
    1C        C  287   4.511   3.584   3.753
    1C        C  288   4.475   3.793   3.873
    1C        C  289   4.486   3.726   3.997
    1C        C  290   4.424   3.929   4.115
    1C        C  291   4.467   3.795   4.118
    1C        C  292   4.395   3.997   4.235
    1C        C  293   4.426   3.934   4.358
    1C        C  294   4.322   4.124   4.474
    1C        C  295   4.386   3.998   4.477
    1C        C  296   4.287   4.190   4.594
    1C        C  297   4.330   4.133   4.717
    1C        C  298   4.202   4.313   4.834
    1C        C  299   4.281   4.193   4.835
    1C        C  300   4.168   4.402   4.941
    1C        C  301   4.354   2.878   2.062
    1C        C  302   4.477   3.061   2.179
    1C        C  303   4.397   2.942   2.179
    1C        C  304   4.486   3.136   2.299
    1C        C  305   4.448   3.073   2.420
    1C        C  306   4.505   3.282   2.535
    1C        C  307   4.476   3.144   2.539
    1C        C  308   4.514   3.357   2.654
    1C        C  309   4.504   3.286   2.776
    1C        C  310   4.515   3.497   2.899
    1C        C  311   4.510   3.355   2.899
    1C        C  312   4.514   3.572   3.018
    1C        C  313   4.516   3.502   3.141
    1C        C  314   4.484   3.714   3.261
    1C        C  315   4.508   3.575   3.262
    1C        C  316   4.466   3.781   3.384
    1C        C  317   4.488   3.718   3.508
    1C        C  318   4.422   3.923   3.627
    1C        C  319   4.473   3.791   3.628
    1C        C  320   4.392   3.987   3.749
    1C        C  321   4.424   3.925   3.872
    1C        C  322   4.314   4.110   3.989
    1C        C  323   4.392   3.992   3.992
    1C        C  324   4.274   4.170   4.110
    1C        C  325   4.322   4.118   4.233
    1C        C  326   4.189   4.288   4.351
    1C        C  327   4.285   4.184   4.352
    1C        C  328   4.137   4.338   4.472
    1C        C  329   4.190   4.292   4.595
    1C        C  330   4.024   4.434   4.711
    1C        C  331   4.139   4.350   4.713
    1C        C  332   3.974   4.494   4.828
    1C        C  333   4.053   4.481   4.943
    1C        C  334   4.553   3.265   2.063
    1C        C  335   4.534   3.126   2.065
    1C        C  336   4.539   3.346   2.176
    1C        C  337   4.517   3.274   2.295
    1C        C  338   4.523   3.493   2.411
    1C        C  339   4.520   3.352   2.414
    1C        C  340   4.524   3.568   2.531
    1C        C  341   4.528   3.498   2.654
    1C        C  342   4.492   3.706   2.773
    1C        C  343   4.518   3.567   2.776
    1C        C  344   4.471   3.779   2.892
    1C        C  345   4.491   3.711   3.014
    1C        C  346   4.419   3.912   3.136
    1C        C  347   4.466   3.779   3.136
    1C        C  348   4.391   3.977   3.258
    1C        C  349   4.422   3.916   3.382
    1C        C  350   4.319   4.103   3.501
    1C        C  351   4.395   3.984   3.502
    1C        C  352   4.276   4.164   3.621
    1C        C  353   4.320   4.108   3.744
    1C        C  354   4.174   4.265   3.865
    1C        C  355   4.271   4.163   3.865
    1C        C  356   4.124   4.318   3.986
    1C        C  357   4.178   4.273   4.108
    1C        C  358   4.009   4.402   4.229
    1C        C  359   4.128   4.325   4.229
    1C        C  360   3.953   4.451   4.349
    1C        C  361   4.020   4.417   4.469
    1C        C  362   3.827   4.512   4.591
    1C        C  363   3.957   4.457   4.589
    1C        C  364   3.765   4.542   4.715
    1C        C  365   3.842   4.543   4.834
    1C        C  366   3.629   4.588   4.948
    1C        C  367   3.766   4.565   4.949
    1C        C  368   4.503   3.560   2.054
    1C        C  369   4.522   3.487   2.172
    1C        C  370   4.500   3.705   2.285
    1C        C  371   4.518   3.565   2.290
    1C        C  372   4.481   3.775   2.406
    1C        C  373   4.494   3.706   2.528
    1C        C  374   4.420   3.904   2.647
    1C        C  375   4.474   3.774   2.650
    1C        C  376   4.389   3.971   2.767
    1C        C  377   4.423   3.912   2.891
    1C        C  378   4.318   4.095   3.015
    1C        C  379   4.398   3.978   3.013
    1C        C  380   4.272   4.151   3.135
    1C        C  381   4.320   4.099   3.257
    1C        C  382   4.175   4.257   3.375
    1C        C  383   4.275   4.157   3.378
    1C        C  384   4.123   4.307   3.496
    1C        C  385   4.174   4.262   3.620
    1C        C  386   4.008   4.394   3.741
    1C        C  387   4.123   4.311   3.741
    1C        C  388   3.946   4.434   3.862
    1C        C  389   4.006   4.396   3.984
    1C        C  390   3.816   4.487   4.107
    1C        C  391   3.946   4.431   4.106
    1C        C  392   3.752   4.516   4.229
    1C        C  393   3.821   4.502   4.351
    1C        C  394   3.615   4.557   4.473
    1C        C  395   3.754   4.532   4.472
    1C        C  396   3.548   4.564   4.597
    1C        C  397   3.626   4.562   4.714
    1C        C  398   3.410   4.552   4.838
    1C        C  399   3.550   4.570   4.834
    1C        C  400   3.344   4.516   4.956
    1C        C  401   4.499   3.698   2.050
    1C        C  402   4.450   3.913   2.164
    1C        C  403   4.490   3.778   2.165
    1C        C  404   4.408   3.974   2.284
    1C        C  405   4.440   3.911   2.406
    1C        C  406   4.329   4.096   2.525
    1C        C  407   4.402   3.975   2.526
    1C        C  408   4.282   4.152   2.646
    1C        C  409   4.318   4.093   2.769
    1C        C  410   4.179   4.250   2.886
    1C        C  411   4.283   4.154   2.892
    1C        C  412   4.123   4.295   3.007
    1C        C  413   4.172   4.252   3.132
    1C        C  414   4.003   4.382   3.251
    1C        C  415   4.118   4.301   3.253
    1C        C  416   3.943   4.416   3.375
    1C        C  417   4.006   4.386   3.497
    1C        C  418   3.813   4.477   3.617
    1C        C  419   3.945   4.424   3.619
    1C        C  420   3.746   4.500   3.739
    1C        C  421   3.815   4.488   3.861
    1C        C  422   3.612   4.539   3.986
    1C        C  423   3.750   4.512   3.984
    1C        C  424   3.542   4.543   4.109
    1C        C  425   3.613   4.541   4.231
    1C        C  426   3.402   4.545   4.356
    1C        C  427   3.542   4.556   4.352
    1C        C  428   3.332   4.540   4.479
    1C        C  429   3.407   4.552   4.599
    1C        C  430   3.196   4.514   4.723
    1C        C  431   3.334   4.548   4.719
    1C        C  432   3.128   4.486   4.845
    1C        C  433   3.207   4.491   4.961
    1C        C  434   4.377   4.122   2.046
    1C        C  435   4.443   3.998   2.052
    1C        C  436   4.303   4.163   2.161
    1C        C  437   4.328   4.092   2.282
    1C        C  438   4.180   4.247   2.401
    1C        C  439   4.280   4.147   2.403
    1C        C  440   4.125   4.296   2.522
    1C        C  441   4.180   4.250   2.644
    1C        C  442   4.007   4.376   2.763
    1C        C  443   4.124   4.297   2.765
    1C        C  444   3.947   4.418   2.884
    1C        C  445   4.008   4.378   3.005
    1C        C  446   3.816   4.469   3.127
    1C        C  447   3.945   4.412   3.126
    1C        C  448   3.748   4.488   3.249
    1C        C  449   3.811   4.467   3.374
    1C        C  450   3.605   4.520   3.495
    1C        C  451   3.744   4.495   3.495
    1C        C  452   3.539   4.535   3.619
    1C        C  453   3.610   4.539   3.741
    1C        C  454   3.401   4.541   3.865
    1C        C  455   3.542   4.551   3.864
    1C        C  456   3.334   4.527   3.988
    1C        C  457   3.400   4.539   4.112
    1C        C  458   3.194   4.496   4.235
    1C        C  459   3.332   4.527   4.235
    1C        C  460   3.129   4.480   4.359
    1C        C  461   3.194   4.509   4.480
    1C        C  462   2.997   4.430   4.603
    1C        C  463   3.127   4.487   4.602
    1C        C  464   2.929   4.404   4.724
    1C        C  465   2.994   4.438   4.846
    1C        C  466   2.797   4.340   4.956
    1C        C  467   2.903   4.432   4.957
    1C        C  468   4.120   4.286   2.042
    1C        C  469   4.189   4.249   2.158
    1C        C  470   4.007   4.369   2.277
    1C        C  471   4.127   4.292   2.279
    1C        C  472   3.941   4.403   2.398
    1C        C  473   4.004   4.368   2.519
    1C        C  474   3.815   4.465   2.641
    1C        C  475   3.944   4.409   2.641
    1C        C  476   3.745   4.484   2.763
    1C        C  477   3.815   4.467   2.884
    1C        C  478   3.608   4.519   3.007
    1C        C  479   3.745   4.488   3.006
    1C        C  480   3.538   4.524   3.130
    1C        C  481   3.610   4.518   3.252
    1C        C  482   3.395   4.531   3.375
    1C        C  483   3.536   4.527   3.372
    1C        C  484   3.327   4.530   3.499
    1C        C  485   3.398   4.537   3.621
    1C        C  486   3.191   4.498   3.742
    1C        C  487   3.328   4.533   3.744
    1C        C  488   3.128   4.476   3.866
    1C        C  489   3.197   4.491   3.989
    1C        C  490   3.000   4.414   4.113
    1C        C  491   3.130   4.470   4.111
    1C        C  492   2.942   4.381   4.238
    1C        C  493   3.004   4.414   4.361
    1C        C  494   2.824   4.303   4.484
    1C        C  495   2.940   4.384   4.483
    1C        C  496   2.767   4.259   4.605
    1C        C  497   2.818   4.316   4.724
    1C        C  498   2.662   4.166   4.844
    1C        C  499   2.747   4.279   4.841
    1C        C  500   2.600   4.115   4.958
    1C        C  501   4.004   4.363   2.039
    1C        C  502   3.812   4.459   2.157
    1C        C  503   3.942   4.405   2.157
    1C        C  504   3.744   4.483   2.278
    1C        C  505   3.814   4.464   2.399
    1C        C  506   3.605   4.508   2.519
    1C        C  507   3.744   4.484   2.520
    1C        C  508   3.534   4.517   2.641
    1C        C  509   3.606   4.508   2.763
    1C        C  510   3.396   4.523   2.888
    1C        C  511   3.537   4.527   2.885
    1C        C  512   3.324   4.519   3.009
    1C        C  513   3.396   4.522   3.130
    1C        C  514   3.190   4.483   3.256
    1C        C  515   3.326   4.521   3.252
    1C        C  516   3.126   4.460   3.380
    1C        C  517   3.191   4.493   3.500
    1C        C  518   2.994   4.412   3.625
    1C        C  519   3.121   4.475   3.622
    1C        C  520   2.939   4.374   3.749
    1C        C  521   3.003   4.411   3.869
    1C        C  522   2.836   4.280   3.997
    1C        C  523   2.944   4.371   3.991
    1C        C  524   2.785   4.236   4.122
    1C        C  525   2.836   4.288   4.243
    1C        C  526   2.698   4.129   4.364
    1C        C  527   2.774   4.248   4.363
    1C        C  528   2.653   4.077   4.487
    1C        C  529   2.686   4.144   4.606
    1C        C  530   2.583   3.959   4.730
    1C        C  531   2.636   4.091   4.727
    1C        C  532   2.535   3.901   4.850
    1C        C  533   2.527   3.996   4.957
    1C        C  534   3.615   4.552   2.034
    1C        C  535   3.748   4.509   2.043
    1C        C  536   3.536   4.530   2.151
    1C        C  537   3.605   4.514   2.274
    1C        C  538   3.394   4.515   2.400
    1C        C  539   3.535   4.516   2.397
    1C        C  540   3.321   4.508   2.520
    1C        C  541   3.393   4.514   2.642
    1C        C  542   3.187   4.487   2.765
    1C        C  543   3.325   4.513   2.766
    1C        C  544   3.120   4.463   2.888
    1C        C  545   3.186   4.485   3.010
    1C        C  546   2.995   4.400   3.134
    1C        C  547   3.122   4.461   3.134
    1C        C  548   2.937   4.361   3.257
    1C        C  549   2.997   4.400   3.379
    1C        C  550   2.833   4.274   3.506
    1C        C  551   2.938   4.368   3.503
    1C        C  552   2.788   4.224   3.631
    1C        C  553   2.834   4.279   3.753
    1C        C  554   2.697   4.120   3.876
    1C        C  555   2.783   4.232   3.876
    1C        C  556   2.654   4.066   3.999
    1C        C  557   2.697   4.126   4.120
    1C        C  558   2.601   3.939   4.245
    1C        C  559   2.661   4.067   4.243
    1C        C  560   2.566   3.881   4.369
    1C        C  561   2.590   3.950   4.489
    1C        C  562   2.527   3.748   4.614
    1C        C  563   2.566   3.884   4.612
    1C        C  564   2.511   3.680   4.737
    1C        C  565   2.515   3.759   4.855
    1C        C  566   2.525   3.544   4.981
    1C        C  567   2.523   3.683   4.972
    1C        C  568   3.326   4.481   2.042
    1C        C  569   3.395   4.512   2.160
    1C        C  570   3.180   4.480   2.281
    1C        C  571   3.319   4.511   2.280
    1C        C  572   3.115   4.456   2.404
    1C        C  573   3.183   4.477   2.526
    1C        C  574   2.986   4.399   2.650
    1C        C  575   3.113   4.461   2.648
    1C        C  576   2.925   4.364   2.772
    1C        C  577   2.994   4.399   2.891
    1C        C  578   2.823   4.273   3.015
    1C        C  579   2.933   4.362   3.013
    1C        C  580   2.775   4.223   3.139
    1C        C  581   2.827   4.272   3.260
    1C        C  582   2.693   4.112   3.387
    1C        C  583   2.783   4.222   3.384
    1C        C  584   2.656   4.055   3.511
    1C        C  585   2.696   4.117   3.631
    1C        C  586   2.593   3.934   3.752
    1C        C  587   2.657   4.060   3.755
    1C        C  588   2.567   3.873   3.877
    1C        C  589   2.593   3.939   3.999
    1C        C  590   2.532   3.738   4.128
    1C        C  591   2.573   3.873   4.123
    1C        C  592   2.524   3.669   4.251
    1C        C  593   2.531   3.744   4.371
    1C        C  594   2.515   3.533   4.499
    1C        C  595   2.522   3.674   4.494
    1C        C  596   2.517   3.462   4.621
    1C        C  597   2.517   3.538   4.740
    1C        C  598   2.538   3.328   4.862
    1C        C  599   2.521   3.469   4.863
    1C        C  600   2.531   3.248   4.976
    1C        C  601   3.195   4.437   2.047
    1C        C  602   2.978   4.396   2.160
    1C        C  603   3.115   4.439   2.162
    1C        C  604   2.928   4.355   2.286
    1C        C  605   2.988   4.395   2.407
    1C        C  606   2.816   4.269   2.529
    1C        C  607   2.924   4.361   2.529
    1C        C  608   2.765   4.221   2.652
    1C        C  609   2.817   4.274   2.772
    1C        C  610   2.685   4.109   2.898
    1C        C  611   2.770   4.221   2.895
    1C        C  612   2.652   4.049   3.022
    1C        C  613   2.689   4.111   3.143
    1C        C  614   2.587   3.927   3.264
    1C        C  615   2.649   4.054   3.266
    1C        C  616   2.563   3.864   3.389
    1C        C  617   2.593   3.929   3.511
    1C        C  618   2.525   3.728   3.636
    1C        C  619   2.566   3.863   3.633
    1C        C  620   2.518   3.663   3.761
    1C        C  621   2.531   3.736   3.881
    1C        C  622   2.516   3.528   4.008
    1C        C  623   2.522   3.669   4.005
    1C        C  624   2.515   3.458   4.131
    1C        C  625   2.515   3.528   4.253
    1C        C  626   2.535   3.321   4.378
    1C        C  627   2.514   3.461   4.377
    1C        C  628   2.555   3.252   4.500
    1C        C  629   2.536   3.322   4.621
    1C        C  630   2.592   3.117   4.743
    1C        C  631   2.551   3.253   4.743
    1C        C  632   2.621   3.049   4.865
    1C        C  633   2.564   3.111   4.980
    1C        C  634   2.778   4.304   2.058
    1C        C  635   2.886   4.393   2.050
    1C        C  636   2.748   4.229   2.172
    1C        C  637   2.812   4.272   2.290
    1C        C  638   2.675   4.107   2.408
    1C        C  639   2.759   4.221   2.410
    1C        C  640   2.639   4.049   2.532
    1C        C  641   2.679   4.109   2.654
    1C        C  642   2.585   3.921   2.775
    1C        C  643   2.641   4.051   2.776
    1C        C  644   2.560   3.856   2.898
    1C        C  645   2.587   3.924   3.020
    1C        C  646   2.529   3.722   3.147
    1C        C  647   2.561   3.859   3.143
    1C        C  648   2.514   3.654   3.270
    1C        C  649   2.526   3.728   3.390
    1C        C  650   2.514   3.518   3.516
    1C        C  651   2.517   3.659   3.513
    1C        C  652   2.518   3.452   3.641
    1C        C  653   2.513   3.522   3.764
    1C        C  654   2.534   3.314   3.888
    1C        C  655   2.514   3.454   3.888
    1C        C  656   2.552   3.247   4.011
    1C        C  657   2.537   3.318   4.132
    1C        C  658   2.610   3.122   4.256
    1C        C  659   2.558   3.254   4.256
    1C        C  660   2.634   3.056   4.378
    1C        C  661   2.607   3.121   4.501
    1C        C  662   2.707   2.935   4.627
    1C        C  663   2.631   3.055   4.623
    1C        C  664   2.750   2.873   4.746
    1C        C  665   2.699   2.929   4.867
    1C        C  666   2.746   2.870   4.985
    1C        C  667   2.688   4.020   2.055
    1C        C  668   2.684   4.102   2.168
    1C        C  669   2.591   3.908   2.289
    1C        C  670   2.645   4.039   2.288
    1C        C  671   2.557   3.848   2.413
    1C        C  672   2.579   3.921   2.532
    1C        C  673   2.519   3.717   2.656
    1C        C  674   2.557   3.854   2.654
    1C        C  675   2.506   3.650   2.779
    1C        C  676   2.521   3.720   2.900
    1C        C  677   2.500   3.512   3.028
    1C        C  678   2.517   3.652   3.024
    1C        C  679   2.501   3.440   3.149
    1C        C  680   2.501   3.514   3.270
    1C        C  681   2.530   3.307   3.397
    1C        C  682   2.508   3.447   3.394
    1C        C  683   2.551   3.241   3.521
    1C        C  684   2.537   3.312   3.642
    1C        C  685   2.605   3.114   3.772
    1C        C  686   2.550   3.244   3.766
    1C        C  687   2.641   3.053   3.894
    1C        C  688   2.601   3.115   4.014
    1C        C  689   2.715   2.935   4.136
    1C        C  690   2.641   3.055   4.136
    1C        C  691   2.751   2.879   4.261
    1C        C  692   2.707   2.935   4.383
    1C        C  693   2.748   2.876   4.505
    1C        C  694   2.627   3.894   2.051
    1C        C  695   2.526   3.704   2.175
    1C        C  696   2.581   3.834   2.169
    1C        C  697   2.510   3.634   2.297
    1C        C  698   2.523   3.711   2.415
    1C        C  699   2.490   3.502   2.540
    1C        C  700   2.505   3.642   2.537
    1C        C  701   2.504   3.434   2.664
    1C        C  702   2.500   3.509   2.784
    1C        C  703   2.525   3.300   2.910
    1C        C  704   2.503   3.439   2.907
    1C        C  705   2.542   3.230   3.032
    1C        C  706   2.523   3.301   3.153
    1C        C  707   2.598   3.105   3.280
    1C        C  708   2.545   3.236   3.276
    1C        C  709   2.634   3.046   3.403
    1C        C  710   2.602   3.110   3.524
    1C        C  711   2.714   2.934   3.649
    1C        C  712   2.635   3.051   3.649
    1C        C  713   2.759   2.878   3.770
    1C        C  714   2.718   2.935   3.893
    1C        C  715   2.758   2.876   4.015
    1C        C  716   2.449   3.499   2.059
    1C        C  717   2.488   3.633   2.060
    1C        C  718   2.463   3.424   2.180
    1C        C  719   2.478   3.496   2.301
    1C        C  720   2.514   3.288   2.428
    1C        C  721   2.478   3.424   2.423
    1C        C  722   2.528   3.217   2.549
    1C        C  723   2.519   3.294   2.667
    1C        C  724   2.594   3.096   2.789
    1C        C  725   2.541   3.227   2.790
    1C        C  726   2.622   3.034   2.913
    1C        C  727   2.592   3.098   3.035
    1C        C  728   2.699   2.917   3.160
    1C        C  729   2.625   3.038   3.158
    1C        C  730   2.749   2.869   3.283
    1C        C  731   2.713   2.928   3.406
    1C        C  732   2.759   2.875   3.529
    1C        C  733   2.493   3.200   2.073
    1C        C  734   2.482   3.282   2.186
    1C        C  735   2.580   3.087   2.306
    1C        C  736   2.528   3.219   2.305
    1C        C  737   2.610   3.018   2.425
    1C        C  738   2.588   3.089   2.546
    1C        C  739   2.689   2.904   2.671
    1C        C  740   2.619   3.026   2.669
    1C        C  741   2.736   2.852   2.793
    1C        C  742   2.698   2.914   2.914
    1C        C  743   2.741   2.861   3.037
    1C        C  744   2.549   3.073   2.072
    1C        C  745   2.686   2.900   2.186
    1C        C  746   2.606   3.016   2.187
    1C        C  747   2.728   2.843   2.308
    1C        C  748   2.689   2.901   2.431
    1C        C  749   2.735   2.844   2.551
    1C        C  750   2.736   2.840   2.070
    1C        C  751   3.658   2.303   1.984
    1C        O  752   3.689   2.187   2.024
    1C        O  753   3.727   2.345   1.870
    1C        C  754   4.620   3.046   1.975
    1C        O  755   4.581   3.032   1.856
    1C        O  756   4.758   3.041   2.001
    1C        C  757   4.426   4.210   1.937
    1C        O  758   4.519   4.293   1.957
    1C        O  759   4.434   4.175   1.802
    1C        C  760   3.601   4.672   1.949
    1C        O  761   3.639   4.786   1.988
    1C        O  762   3.541   4.680   1.822
    1C        C  763   2.883   4.500   1.948
    1C        O  764   2.932   4.489   1.832
    1C        O  765   2.770   4.581   1.935
    1C        C  766   2.336   3.468   1.968
    1C        O  767   2.351   3.501   1.848
    1C        O  768   2.199   3.460   2.000
    1C        C  769   4.681   3.588   5.064
    1C        O  770   4.659   3.606   5.187
    1C        O  771   4.814   3.625   5.040
    1C        C  772   4.267   4.434   5.046
    1C        O  773   4.261   4.374   5.157
    1C        O  774   4.301   4.569   5.064
    1C        C  775   4.143   2.513   5.075
    1C        O  776   4.225   2.426   5.035
    1C        O  777   4.147   2.537   5.212
    1C        C  778   2.869   4.557   5.029
    1C        O  779   2.807   4.650   4.970
    1C        O  780   2.933   4.589   5.149
    1C        C  781   2.484   3.038   5.081
    1C        O  782   2.369   2.989   5.067
    1C        O  783   2.524   3.045   5.214
    1C        C  784   2.396   4.006   5.027
    1C        O  785   2.314   4.097   4.999
    1C        O  786   2.403   3.967   5.161
    1C        C  787   2.944   2.422   2.008
    1C        O  788   2.925   2.427   1.884
    1C        O  789   2.889   2.314   2.077
    1C        C  790   3.184   2.369   5.061
    1C        O  791   3.130   2.260   5.029
    1C        O  792   3.219   2.386   5.195
    1C        H  793   4.276   3.027   5.054
    1C        H  794   4.145   2.828   5.062
    1C        H  795   4.520   3.125   5.048
    1C        H  796   4.596   3.339   5.038
    1C        H  797   4.617   3.820   5.012
    1C        H  798   4.420   3.975   5.053
    1C        H  799   4.279   4.162   5.053
    1C        H  800   4.035   4.542   5.030
    1C        H  801   3.811   4.536   5.042
    1C        H  802   3.584   4.648   5.025
    1C        H  803   3.401   4.472   5.034
    1C        H  804   3.152   4.470   5.050
    1C        H  805   3.888   2.478   5.064
    1C        H  806   3.678   2.459   5.078
    1C        H  807   3.007   2.554   5.072
    1C        H  808   3.437   2.445   5.070
    1C        H  809   2.904   2.779   5.073
    1C        H  810   2.688   2.874   5.075
    1C        H  811   2.527   3.287   5.075
    1C        H  812   2.587   3.503   5.058
    1C        H  813   2.511   3.736   5.065
    1C        H  814   2.579   4.180   5.041
    1C        H  815   2.765   4.315   5.055
    1C        H  816   2.680   2.853   1.981
    1C        H  817   2.804   2.662   1.988
    1C        H  818   3.210   2.429   1.990
    1C        H  819   3.434   2.429   1.981
    1C        H  820   3.836   2.549   1.971
    1C        H  821   4.067   2.610   1.968
    1C        H  822   4.263   2.718   1.970
    1C        H  823   4.399   2.909   1.970
    1C        H  824   4.621   3.306   1.991
    1C        H  825   4.476   3.507   1.965
    1C        H  826   4.472   3.739   1.954
    1C        H  827   3.796   4.503   1.947
    1C        H  828   3.956   4.378   1.944
    1C        H  829   4.133   4.222   1.957
    1C        H  830   4.496   3.963   1.967
    1C        H  831   2.689   3.826   1.997
    1C        H  832   2.729   4.057   1.963
    1C        H  833   2.722   4.292   1.967
    1C        H  834   3.364   4.510   1.946
    1C        H  835   3.166   4.375   1.965
    1C        H  836   2.521   3.008   1.991
    1C        H  837   2.440   3.221   1.982
    1C        H  838   2.516   3.669   1.963
    2V3OU   H29  839   2.799   3.555   1.181
    2V3OU   C27  840   2.778   3.501   1.277
    2V3OU   H27  841   2.719   3.565   1.347
    2V3OU   H28  842   2.716   3.408   1.262
    2V3OU   O11  843   2.903   3.469   1.338
    2V3OU   C15  844   2.917   3.393   1.453
    2V3OU   C13  845   3.050   3.372   1.495
    2V3OU   C14  846   3.075   3.263   1.580
    2V3OU   C16  847   2.971   3.184   1.627
    2V3OU    H6  848   2.993   3.102   1.696
    2V3OU   C12  849   3.210   3.227   1.628
    2V3OU    O2  850   3.239   3.134   1.706
    2V3OU   C10  851   3.322   3.309   1.581
    2V3OU    C8  852   3.455   3.273   1.603
    2V3OU   O10  853   3.493   3.154   1.657
    2V3OU   H26  854   3.407   3.113   1.677
    2V3OU    C6  855   3.565   3.350   1.555
    2V3OU    C5  856   3.537   3.466   1.484
    2V3OU    C4  857   3.703   3.294   1.559
    2V3OU    H4  858   3.722   3.234   1.652
    2V3OU    H5  859   3.709   3.223   1.471
    2V3OU    C2  860   3.816   3.397   1.554
    2V3OU    O6  861   3.807   3.470   1.677
    2V3OU   H21  862   3.763   3.552   1.650
    2V3OU    C3  863   3.783   3.492   1.439
    2V3OU    H2  864   3.861   3.572   1.437
    2V3OU    H3  865   3.785   3.440   1.340
    2V3OU   C25  866   3.949   3.323   1.539
    2V3OU    O7  867   4.001   3.296   1.431
    2V3OU   C26  868   4.028   3.290   1.665
    2V3OU   H22  869   4.062   3.383   1.716
    2V3OU   H23  870   4.117   3.226   1.640
    2V3OU    O8  871   3.961   3.208   1.759
    2V3OU   H24  872   3.939   3.264   1.835
    2V3OU    C1  873   3.648   3.561   1.451
    2V3OU    H1  874   3.627   3.618   1.356
    2V3OU    O3  875   3.655   3.653   1.561
    2V3OU   C19  876   3.618   3.790   1.543
    2V3OU    H9  877   3.515   3.804   1.498
    2V3OU    O4  878   3.710   3.845   1.452
    2V3OU   C20  879   3.838   3.874   1.509
    2V3OU   H10  880   3.894   3.777   1.519
    2V3OU   C24  881   3.612   3.860   1.679
    2V3OU   H16  882   3.543   3.800   1.744
    2V3OU   H17  883   3.570   3.964   1.680
    2V3OU   C23  884   3.752   3.876   1.737
    2V3OU   H15  885   3.792   3.771   1.760
    2V3OU    N1  886   3.740   3.954   1.858
    2V3OU   H19  887   3.815   3.920   1.915
    2V3OU   H20  888   3.648   3.932   1.889
    2V3OU   C21  889   3.851   3.949   1.641
    2V3OU   H11  890   3.957   3.934   1.678
    2V3OU    O5  891   3.825   4.088   1.660
    2V3OU   H18  892   3.782   4.099   1.747
    2V3OU   C22  893   3.911   3.948   1.398
    2V3OU   H12  894   3.860   4.045   1.378
    2V3OU   H13  895   3.905   3.893   1.300
    2V3OU   H14  896   4.019   3.961   1.425
    2V3OU   C11  897   3.160   3.466   1.469
    2V3OU    O1  898   3.145   3.576   1.411
    2V3OU    C9  899   3.298   3.423   1.498
    2V3OU    C7  900   3.402   3.502   1.452
    2V3OU    O9  901   3.387   3.617   1.376
    2V3OU   H25  902   3.290   3.627   1.381
    2V3OU   C17  903   2.815   3.310   1.503
    2V3OU    H7  904   2.716   3.339   1.468
    2V3OU   C18  905   2.839   3.204   1.589
    2V3OU    H8  906   2.756   3.154   1.642
    3SOL     OW  907   1.545   3.048   0.464
    3SOL    HW1  908   1.586   2.968   0.506
    3SOL    HW2  909   1.515   3.026   0.371
    4SOL     OW  910   6.022   0.225   1.998
    4SOL    HW1  911   5.973   0.309   1.976
    4SOL    HW2  912   6.108   0.247   2.043
    5SOL     OW  913   3.251   2.078   1.017
    5SOL    HW1  914   3.216   2.170   1.036
    5SOL    HW2  915   3.347   2.084   0.989
    6SOL     OW  916   2.621   1.969   1.172
    6SOL    HW1  917   2.526   1.998   1.180
    6SOL    HW2  918   2.625   1.878   1.131
    7SOL     OW  919   6.127   1.480   1.682
    7SOL    HW1  920   6.164   1.485   1.589
    7SOL    HW2  921   6.148   1.566   1.730
    8SOL     OW  922   2.678   0.878   5.203
    8SOL    HW1  923   2.757   0.888   5.263
    8SOL    HW2  924   2.621   0.960   5.209
    9SOL     OW  925   1.292   3.386   5.587
    9SOL    HW1  926   1.360   3.414   5.520
    9SOL    HW2  927   1.252   3.299   5.560
   10SOL     OW  928   0.705   3.430   0.090
   10SOL    HW1  929   0.735   3.356   0.030
   10SOL    HW2  930   0.692   3.395   0.183
   11SOL     OW  931   3.794   6.873   6.862
   11SOL    HW1  932   3.839   6.871   6.951
   11SOL    HW2  933   3.821   6.792   6.810
   12SOL     OW  934   5.636   6.556   2.455
   12SOL    HW1  935   5.675   6.525   2.368
   12SOL    HW2  936   5.634   6.480   2.520
   13SOL     OW  937   2.372   6.396   3.342
   13SOL    HW1  938   2.423   6.312   3.360
   13SOL    HW2  939   2.374   6.454   3.424
   14SOL     OW  940   3.757   6.038   1.015
   14SOL    HW1  941   3.715   6.016   0.927
   14SOL    HW2  942   3.723   6.126   1.048
   15SOL     OW  943   1.514   6.128   6.862
   15SOL    HW1  944   1.421   6.108   6.831
   15SOL    HW2  945   1.574   6.051   6.839
   16SOL     OW  946   6.026   2.024   5.875
   16SOL    HW1  947   6.059   2.032   5.780
   16SOL    HW2  948   6.058   2.103   5.928
   17SOL     OW  949   5.247   6.542   4.728
   17SOL    HW1  950   5.343   6.557   4.705
   17SOL    HW2  951   5.225   6.445   4.714
   18SOL     OW  952   1.546   1.448   6.185
   18SOL    HW1  953   1.626   1.490   6.227
   18SOL    HW2  954   1.522   1.499   6.102
   19SOL     OW  955   1.050   7.017   2.407
   19SOL    HW1  956   0.995   6.965   2.472
   19SOL    HW2  957   1.032   6.984   2.314
   20SOL     OW  958   3.269   1.882   3.912
   20SOL    HW1  959   3.244   1.826   3.834
   20SOL    HW2  960   3.294   1.974   3.881
   21SOL     OW  961   3.163   2.325   1.038
   21SOL    HW1  962   3.067   2.353   1.034
   21SOL    HW2  963   3.221   2.406   1.033
   22SOL     OW  964   1.307   6.686   5.671
   22SOL    HW1  965   1.323   6.640   5.758
   22SOL    HW2  966   1.344   6.632   5.596
   23SOL     OW  967   3.738   6.596   4.345
   23SOL    HW1  968   3.823   6.631   4.384
   23SOL    HW2  969   3.663   6.615   4.408
   24SOL     OW  970   4.412   1.257   5.151
   24SOL    HW1  971   4.349   1.311   5.207
   24SOL    HW2  972   4.487   1.316   5.121
   25SOL     OW  973   3.522   5.500   0.713
   25SOL    HW1  974   3.596   5.553   0.755
   25SOL    HW2  975   3.466   5.457   0.783
   26SOL     OW  976   6.644   1.496   2.307
   26SOL    HW1  977   6.721   1.449   2.263
   26SOL    HW2  978   6.662   1.504   2.405
   27SOL     OW  979   5.943   6.419   2.373
   27SOL    HW1  980   5.997   6.500   2.348
   27SOL    HW2  981   5.964   6.394   2.468
   28SOL     OW  982   3.805   0.526   0.051
   28SOL    HW1  983   3.734   0.462   0.079
   28SOL    HW2  984   3.895   0.489   0.075
   29SOL     OW  985   4.649   2.224   1.673
   29SOL    HW1  986   4.675   2.233   1.577
   29SOL    HW2  987   4.729   2.243   1.731
   30SOL     OW  988   3.529   0.541   4.756
   30SOL    HW1  989   3.551   0.460   4.702
   30SOL    HW2  990   3.591   0.616   4.730
   31SOL     OW  991   0.195   0.498   5.526
   31SOL    HW1  992   0.106   0.466   5.557
   31SOL    HW2  993   0.197   0.501   5.426
   32SOL     OW  994   0.219   2.100   1.306
   32SOL    HW1  995   0.226   2.038   1.228
   32SOL    HW2  996   0.162   2.058   1.376
   33SOL     OW  997   2.238   2.111   6.206
   33SOL    HW1  998   2.289   2.085   6.123
   33SOL    HW2  999   2.173   2.184   6.184
   34SOL     OW 1000   1.205   0.535   4.878
   34SOL    HW1 1001   1.275   0.464   4.881
   34SOL    HW2 1002   1.200   0.581   4.967
   35SOL     OW 1003   4.728   1.701   6.550
   35SOL    HW1 1004   4.736   1.799   6.570
   35SOL    HW2 1005   4.808   1.653   6.586
   36SOL     OW 1006   1.347   2.194   5.697
   36SOL    HW1 1007   1.446   2.191   5.713
   36SOL    HW2 1008   1.304   2.255   5.764
   37SOL     OW 1009   3.191   6.731   1.834
   37SOL    HW1 1010   3.172   6.717   1.931
   37SOL    HW2 1011   3.119   6.788   1.794
   38SOL     OW 1012   6.559   6.271   3.165
   38SOL    HW1 1013   6.633   6.323   3.208
   38SOL    HW2 1014   6.472   6.314   3.187
   39SOL     OW 1015   6.920   3.746   4.854
   39SOL    HW1 1016   6.959   3.699   4.775
   39SOL    HW2 1017   6.865   3.824   4.823
   40SOL     OW 1018   6.891   0.684   2.096
   40SOL    HW1 1019   6.947   0.679   2.179
   40SOL    HW2 1020   6.806   0.634   2.111
   41SOL     OW 1021   1.074   6.813   5.482
   41SOL    HW1 1022   1.153   6.770   5.527
   41SOL    HW2 1023   1.107   6.882   5.417
   42SOL     OW 1024   3.756   0.876   0.440
   42SOL    HW1 1025   3.724   0.821   0.363
   42SOL    HW2 1026   3.801   0.958   0.406
   43SOL     OW 1027   5.677   5.690   5.428
   43SOL    HW1 1028   5.722   5.733   5.506
   43SOL    HW2 1029   5.745   5.671   5.357
   44SOL     OW 1030   0.688   2.877   5.750
   44SOL    HW1 1031   0.597   2.889   5.710
   44SOL    HW2 1032   0.699   2.941   5.827
   45SOL     OW 1033   2.803   0.384   1.926
   45SOL    HW1 1034   2.778   0.478   1.950
   45SOL    HW2 1035   2.893   0.384   1.881
   46SOL     OW 1036   1.679   3.918   4.249
   46SOL    HW1 1037   1.687   4.000   4.306
   46SOL    HW2 1038   1.751   3.853   4.274
   47SOL     OW 1039   6.319   4.822   3.573
   47SOL    HW1 1040   6.319   4.918   3.601
   47SOL    HW2 1041   6.368   4.812   3.487
   48SOL     OW 1042   0.361   2.437   5.284
   48SOL    HW1 1043   0.420   2.515   5.262
   48SOL    HW2 1044   0.405   2.353   5.253
   49SOL     OW 1045   4.616   2.202   1.270
   49SOL    HW1 1046   4.525   2.226   1.302
   49SOL    HW2 1047   4.611   2.123   1.210
   50SOL     OW 1048   6.556   4.053   4.230
   50SOL    HW1 1049   6.643   4.074   4.275
   50SOL    HW2 1050   6.546   4.112   4.149
   51SOL     OW 1051   3.631   5.036   2.890
   51SOL    HW1 1052   3.620   4.981   2.807
   51SOL    HW2 1053   3.568   5.114   2.885
   52SOL     OW 1054   2.156   1.898   1.924
   52SOL    HW1 1055   2.163   1.996   1.943
   52SOL    HW2 1056   2.203   1.847   1.996
   53SOL     OW 1057   5.270   0.093   4.187
   53SOL    HW1 1058   5.334   0.141   4.247
   53SOL    HW2 1059   5.185   0.146   4.179
   54SOL     OW 1060   4.162   5.320   5.750
   54SOL    HW1 1061   4.075   5.361   5.777
   54SOL    HW2 1062   4.235   5.354   5.809
   55SOL     OW 1063   3.925   1.897   0.344
   55SOL    HW1 1064   3.969   1.846   0.417
   55SOL    HW2 1065   3.990   1.914   0.270
   56SOL     OW 1066   1.277   0.233   2.287
   56SOL    HW1 1067   1.334   0.159   2.253
   56SOL    HW2 1068   1.186   0.198   2.309
   57SOL     OW 1069   5.896   0.969   0.245
   57SOL    HW1 1070   5.897   0.939   0.149
   57SOL    HW2 1071   5.919   0.892   0.304
   58SOL     OW 1072   6.973   6.069   0.164
   58SOL    HW1 1073   0.047   6.096   0.176
   58SOL    HW2 1074   6.915   6.126   0.223
   59SOL     OW 1075   1.279   0.229   5.313
   59SOL    HW1 1076   1.281   0.304   5.379
   59SOL    HW2 1077   1.274   0.142   5.362
   60SOL     OW 1078   4.675   6.900   4.971
   60SOL    HW1 1079   4.616   6.833   4.925
   60SOL    HW2 1080   4.651   6.904   5.068
   61SOL     OW 1081   4.702   0.425   4.396
   61SOL    HW1 1082   4.734   0.462   4.309
   61SOL    HW2 1083   4.693   0.500   4.463
   62SOL     OW 1084   1.551   0.656   4.409
   62SOL    HW1 1085   1.596   0.744   4.393
   62SOL    HW2 1086   1.618   0.583   4.410
   63SOL     OW 1087   0.139   2.763   3.043
   63SOL    HW1 1088   0.100   2.808   3.124
   63SOL    HW2 1089   0.236   2.744   3.059
   64SOL     OW 1090   0.271   3.703   5.761
   64SOL    HW1 1091   0.328   3.764   5.816
   64SOL    HW2 1092   0.305   3.702   5.667
   65SOL     OW 1093   6.604   4.707   5.753
   65SOL    HW1 1094   6.614   4.804   5.775
   65SOL    HW2 1095   6.673   4.655   5.804
   66SOL     OW 1096   2.903   0.874   0.517
   66SOL    HW1 1097   2.953   0.839   0.438
   66SOL    HW2 1098   2.879   0.970   0.501
   67SOL     OW 1099   5.118   5.912   4.738
   67SOL    HW1 1100   5.180   5.965   4.680
   67SOL    HW2 1101   5.111   5.819   4.701
   68SOL     OW 1102   5.666   2.143   5.728
   68SOL    HW1 1103   5.757   2.129   5.689
   68SOL    HW2 1104   5.672   2.205   5.806
   69SOL     OW 1105   2.915   3.725   6.071
   69SOL    HW1 1106   2.832   3.695   6.118
   69SOL    HW2 1107   2.984   3.750   6.140
   70SOL     OW 1108   6.962   5.212   2.074
   70SOL    HW1 1109   6.925   5.268   2.149
   70SOL    HW2 1110   0.041   5.215   2.077
   71SOL     OW 1111   1.112   2.641   3.073
   71SOL    HW1 1112   1.159   2.553   3.078
   71SOL    HW2 1113   1.145   2.702   3.145
   72SOL     OW 1114   2.631   5.497   4.007
   72SOL    HW1 1115   2.729   5.475   4.003
   72SOL    HW2 1116   2.580   5.418   4.041
   73SOL     OW 1117   4.362   2.510   0.307
   73SOL    HW1 1118   4.276   2.556   0.329
   73SOL    HW2 1119   4.395   2.542   0.218
   74SOL     OW 1120   5.139   5.906   6.468
   74SOL    HW1 1121   5.125   5.819   6.516
   74SOL    HW2 1122   5.198   5.890   6.389
   75SOL     OW 1123   3.769   5.627   5.795
   75SOL    HW1 1124   3.772   5.693   5.720
   75SOL    HW2 1125   3.732   5.671   5.876
   76SOL     OW 1126   2.602   2.790   1.675
   76SOL    HW1 1127   2.609   2.887   1.696
   76SOL    HW2 1128   2.688   2.744   1.699
   77SOL     OW 1129   5.826   5.376   6.346
   77SOL    HW1 1130   5.924   5.392   6.361
   77SOL    HW2 1131   5.803   5.394   6.251
   78SOL     OW 1132   6.388   6.610   5.918
   78SOL    HW1 1133   6.427   6.687   5.969
   78SOL    HW2 1134   6.462   6.550   5.887
   79SOL     OW 1135   3.149   6.962   0.292
   79SOL    HW1 1136   3.236   6.932   0.253
   79SOL    HW2 1137   3.139   0.039   0.279
   80SOL     OW 1138   0.167   1.125   4.164
   80SOL    HW1 1139   0.175   1.225   4.161
   80SOL    HW2 1140   0.220   1.085   4.089
   81SOL     OW 1141   1.782   0.720   3.107
   81SOL    HW1 1142   1.850   0.794   3.104
   81SOL    HW2 1143   1.823   0.635   3.076
   82SOL     OW 1144   0.118   4.644   5.581
   82SOL    HW1 1145   0.213   4.627   5.557
   82SOL    HW2 1146   0.097   4.741   5.566
   83SOL     OW 1147   0.100   6.978   0.396
   83SOL    HW1 1148   0.165   7.012   0.464
   83SOL    HW2 1149   0.145   6.969   0.307
   84SOL     OW 1150   5.421   3.708   1.782
   84SOL    HW1 1151   5.391   3.803   1.792
   84SOL    HW2 1152   5.519   3.707   1.762
   85SOL     OW 1153   0.957   2.764   4.998
   85SOL    HW1 1154   0.993   2.743   4.907
   85SOL    HW2 1155   0.857   2.765   4.995
   86SOL     OW 1156   0.491   0.605   6.039
   86SOL    HW1 1157   0.420   0.538   6.059
   86SOL    HW2 1158   0.571   0.587   6.096
   87SOL     OW 1159   4.547   1.267   0.634
   87SOL    HW1 1160   4.473   1.287   0.698
   87SOL    HW2 1161   4.521   1.191   0.575
   88SOL     OW 1162   5.174   1.088   0.730
   88SOL    HW1 1163   5.105   1.074   0.800
   88SOL    HW2 1164   5.216   1.178   0.743
   89SOL     OW 1165   1.553   2.725   6.068
   89SOL    HW1 1166   1.491   2.803   6.080
   89SOL    HW2 1167   1.643   2.759   6.040
   90SOL     OW 1168   5.728   6.384   3.940
   90SOL    HW1 1169   5.752   6.321   3.866
   90SOL    HW2 1170   5.677   6.461   3.904
   91SOL     OW 1171   4.685   4.539   5.045
   91SOL    HW1 1172   4.782   4.561   5.032
   91SOL    HW2 1173   4.655   4.476   4.974
   92SOL     OW 1174   3.546   5.128   1.878
   92SOL    HW1 1175   3.496   5.042   1.890
   92SOL    HW2 1176   3.519   5.192   1.950
   93SOL     OW 1177   3.294   5.586   6.057
   93SOL    HW1 1178   3.323   5.643   5.980
   93SOL    HW2 1179   3.374   5.541   6.097
   94SOL     OW 1180   2.938   5.762   0.580
   94SOL    HW1 1181   2.867   5.760   0.510
   94SOL    HW2 1182   3.027   5.741   0.539
   95SOL     OW 1183   0.396   0.259   4.494
   95SOL    HW1 1184   0.333   0.182   4.505
   95SOL    HW2 1185   0.457   0.265   4.573
   96SOL     OW 1186   2.216   0.155   5.314
   96SOL    HW1 1187   2.278   0.229   5.342
   96SOL    HW2 1188   2.123   0.178   5.340
   97SOL     OW 1189   5.958   3.076   4.797
   97SOL    HW1 1190   5.958   3.174   4.775
   97SOL    HW2 1191   5.868   3.037   4.779
   98SOL     OW 1192   5.714   2.390   5.849
   98SOL    HW1 1193   5.780   2.452   5.890
   98SOL    HW2 1194   5.685   2.425   5.760
   99SOL     OW 1195   4.422   1.848   0.961
   99SOL    HW1 1196   4.351   1.778   0.948
   99SOL    HW2 1197   4.380   1.938   0.955
  100SOL     OW 1198   0.442   5.356   6.833
  100SOL    HW1 1199   0.460   5.450   6.804
  100SOL    HW2 1200   0.517   5.323   6.890
  101SOL     OW 1201   1.755   6.352   4.000
  101SOL    HW1 1202   1.757   6.252   4.001
  101SOL    HW2 1203   1.689   6.384   3.932
  102SOL     OW 1204   4.532   0.317   4.133
  102SOL    HW1 1205   4.474   0.357   4.062
  102SOL    HW2 1206   4.486   0.323   4.222
  103SOL     OW 1207   3.824   1.858   1.482
  103SOL    HW1 1208   3.877   1.914   1.419
  103SOL    HW2 1209   3.883   1.820   1.553
  104SOL     OW 1210   0.309   5.872   2.328
  104SOL    HW1 1211   0.362   5.789   2.311
  104SOL    HW2 1212   0.371   5.948   2.346
  105SOL     OW 1213   5.189   1.035   6.287
  105SOL    HW1 1214   5.268   0.997   6.334
  105SOL    HW2 1215   5.148   1.108   6.342
  106SOL     OW 1216   2.805   6.626   6.473
  106SOL    HW1 1217   2.789   6.531   6.500
  106SOL    HW2 1218   2.902   6.648   6.483
  107SOL     OW 1219   2.515   3.049   0.808
  107SOL    HW1 1220   2.506   2.984   0.884
  107SOL    HW2 1221   2.480   3.008   0.724
  108SOL     OW 1222   4.938   4.387   5.545
  108SOL    HW1 1223   4.988   4.456   5.598
  108SOL    HW2 1224   4.999   4.312   5.521
  109SOL     OW 1225   6.537   0.762   1.078
  109SOL    HW1 1226   6.468   0.701   1.040
  109SOL    HW2 1227   6.580   0.814   1.004
  110SOL     OW 1228   3.934   6.093   5.281
  110SOL    HW1 1229   3.894   6.059   5.195
  110SOL    HW2 1230   4.034   6.086   5.276
  111SOL     OW 1231   3.538   1.013   3.604
  111SOL    HW1 1232   3.456   1.064   3.629
  111SOL    HW2 1233   3.515   0.944   3.536
  112SOL     OW 1234   6.783   6.693   5.779
  112SOL    HW1 1235   6.750   6.725   5.868
  112SOL    HW2 1236   6.870   6.737   5.758
  113SOL     OW 1237   0.203   5.186   3.140
  113SOL    HW1 1238   0.220   5.154   3.046
  113SOL    HW2 1239   0.195   5.107   3.201
  114SOL     OW 1240   0.753   6.965   6.987
  114SOL    HW1 1241   0.801   0.028   6.965
  114SOL    HW2 1242   0.656   6.975   6.964
  115SOL     OW 1243   5.460   1.382   4.791
  115SOL    HW1 1244   5.396   1.311   4.821
  115SOL    HW2 1245   5.409   1.465   4.767
  116SOL     OW 1246   6.237   4.350   2.173
  116SOL    HW1 1247   6.305   4.312   2.110
  116SOL    HW2 1248   6.172   4.407   2.122
  117SOL     OW 1249   1.533   6.822   6.281
  117SOL    HW1 1250   1.502   6.811   6.187
  117SOL    HW2 1251   1.573   6.736   6.313
  118SOL     OW 1252   0.568   0.137   2.310
  118SOL    HW1 1253   0.588   0.065   2.243
  118SOL    HW2 1254   0.596   0.225   2.273
  119SOL     OW 1255   6.985   2.733   5.931
  119SOL    HW1 1256   0.009   2.802   5.987
  119SOL    HW2 1257   6.914   2.687   5.985
  120SOL     OW 1258   6.127   6.445   0.942
  120SOL    HW1 1259   6.205   6.383   0.951
  120SOL    HW2 1260   6.071   6.417   0.863
  121SOL     OW 1261   2.754   3.469   5.906
  121SOL    HW1 1262   2.689   3.413   5.958
  121SOL    HW2 1263   2.812   3.519   5.970
  122SOL     OW 1264   0.924   2.852   4.169
  122SOL    HW1 1265   0.945   2.879   4.076
  122SOL    HW2 1266   1.005   2.867   4.227
  123SOL     OW 1267   0.850   2.146   1.307
  123SOL    HW1 1268   0.937   2.097   1.307
  123SOL    HW2 1269   0.831   2.181   1.399
  124SOL     OW 1270   4.615   3.128   1.224
  124SOL    HW1 1271   4.678   3.076   1.280
  124SOL    HW2 1272   4.636   3.226   1.231
  125SOL     OW 1273   1.595   2.968   1.826
  125SOL    HW1 1274   1.575   2.917   1.910
  125SOL    HW2 1275   1.694   2.974   1.814
  126SOL     OW 1276   3.353   4.878   1.401
  126SOL    HW1 1277   3.325   4.808   1.335
  126SOL    HW2 1278   3.321   4.968   1.371
  127SOL     OW 1279   6.995   6.141   6.389
  127SOL    HW1 1280   6.958   6.219   6.338
  127SOL    HW2 1281   6.922   6.075   6.406
  128SOL     OW 1282   4.795   2.548   1.541
  128SOL    HW1 1283   4.854   2.477   1.504
  128SOL    HW2 1284   4.823   2.569   1.635
  129SOL     OW 1285   2.580   3.697   6.410
  129SOL    HW1 1286   2.506   3.761   6.430
  129SOL    HW2 1287   2.611   3.654   6.495
  130SOL     OW 1288   1.634   1.758   4.536
  130SOL    HW1 1289   1.699   1.706   4.481
  130SOL    HW2 1290   1.642   1.855   4.514
  131SOL     OW 1291   4.549   1.493   3.069
  131SOL    HW1 1292   4.472   1.505   3.132
  131SOL    HW2 1293   4.570   1.580   3.025
  132SOL     OW 1294   1.366   2.675   1.045
  132SOL    HW1 1295   1.369   2.575   1.052
  132SOL    HW2 1296   1.344   2.713   1.135
  133SOL     OW 1297   6.714   5.698   2.522
  133SOL    HW1 1298   6.799   5.649   2.505
  133SOL    HW2 1299   6.669   5.661   2.603
  134SOL     OW 1300   6.859   3.677   2.976
  134SOL    HW1 1301   6.834   3.650   3.069
  134SOL    HW2 1302   6.795   3.637   2.911
  135SOL     OW 1303   4.928   1.544   4.096
  135SOL    HW1 1304   4.925   1.527   4.195
  135SOL    HW2 1305   4.866   1.481   4.050
  136SOL     OW 1306   5.403   4.479   5.518
  136SOL    HW1 1307   5.335   4.445   5.453
  136SOL    HW2 1308   5.438   4.403   5.572
  137SOL     OW 1309   3.636   0.291   5.878
  137SOL    HW1 1310   3.605   0.381   5.849
  137SOL    HW2 1311   3.607   0.223   5.811
  138SOL     OW 1312   0.027   5.338   4.776
  138SOL    HW1 1313   0.107   5.294   4.817
  138SOL    HW2 1314   6.983   5.267   4.747
  139SOL     OW 1315   3.372   4.736   5.326
  139SOL    HW1 1316   3.281   4.697   5.342
  139SOL    HW2 1317   3.441   4.668   5.351
  140SOL     OW 1318   6.043   4.601   4.552
  140SOL    HW1 1319   6.126   4.580   4.603
  140SOL    HW2 1320   6.067   4.654   4.470
  141SOL     OW 1321   1.173   2.170   4.180
  141SOL    HW1 1322   1.118   2.187   4.262
  141SOL    HW2 1323   1.265   2.144   4.207
  142SOL     OW 1324   1.920   6.105   1.100
  142SOL    HW1 1325   1.897   6.079   1.007
  142SOL    HW2 1326   2.013   6.142   1.103
  143SOL     OW 1327   5.787   4.440   1.888
  143SOL    HW1 1328   5.826   4.399   1.971
  143SOL    HW2 1329   5.691   4.412   1.879
  144SOL     OW 1330   2.462   6.879   6.708
  144SOL    HW1 1331   2.413   6.910   6.789
  144SOL    HW2 1332   2.397   6.860   6.635
  145SOL     OW 1333   0.170   5.788   0.443
  145SOL    HW1 1334   0.198   5.698   0.477
  145SOL    HW2 1335   0.095   5.823   0.499
  146SOL     OW 1336   4.872   5.400   1.005
  146SOL    HW1 1337   4.883   5.400   1.105
  146SOL    HW2 1338   4.958   5.376   0.962
  147SOL     OW 1339   6.198   1.957   1.352
  147SOL    HW1 1340   6.170   1.955   1.256
  147SOL    HW2 1341   6.151   1.883   1.401
  148SOL     OW 1342   0.969   5.235   5.477
  148SOL    HW1 1343   1.047   5.199   5.530
  148SOL    HW2 1344   0.969   5.334   5.481
  149SOL     OW 1345   3.322   1.127   4.818
  149SOL    HW1 1346   3.266   1.161   4.894
  149SOL    HW2 1347   3.410   1.094   4.854
  150SOL     OW 1348   0.400   4.886   6.917
  150SOL    HW1 1349   0.300   4.885   6.908
  150SOL    HW2 1350   0.427   4.959   6.979
  151SOL     OW 1351   4.337   1.738   1.728
  151SOL    HW1 1352   4.286   1.825   1.726
  151SOL    HW2 1353   4.431   1.754   1.699
  152SOL     OW 1354   3.352   0.650   4.179
  152SOL    HW1 1355   3.259   0.685   4.171
  152SOL    HW2 1356   3.417   0.716   4.142
  153SOL     OW 1357   1.992   1.437   3.441
  153SOL    HW1 1358   1.932   1.457   3.363
  153SOL    HW2 1359   2.048   1.518   3.460
  154SOL     OW 1360   6.776   2.067   2.411
  154SOL    HW1 1361   6.698   2.040   2.354
  154SOL    HW2 1362   6.810   1.988   2.461
  155SOL     OW 1363   6.810   0.981   2.897
  155SOL    HW1 1364   6.876   1.039   2.945
  155SOL    HW2 1365   6.840   0.966   2.803
  156SOL     OW 1366   6.169   2.269   0.949
  156SOL    HW1 1367   6.228   2.341   0.987
  156SOL    HW2 1368   6.134   2.212   1.023
  157SOL     OW 1369   6.151   3.653   2.628
  157SOL    HW1 1370   6.160   3.741   2.580
  157SOL    HW2 1371   6.098   3.666   2.711
  158SOL     OW 1372   2.220   1.236   2.875
  158SOL    HW1 1373   2.211   1.186   2.962
  158SOL    HW2 1374   2.261   1.326   2.892
  159SOL     OW 1375   4.748   4.171   2.112
  159SOL    HW1 1376   4.652   4.180   2.084
  159SOL    HW2 1377   4.806   4.209   2.040
  160SOL     OW 1378   6.493   4.182   5.840
  160SOL    HW1 1379   6.532   4.235   5.915
  160SOL    HW2 1380   6.394   4.194   5.837
  161SOL     OW 1381   2.288   5.653   4.888
  161SOL    HW1 1382   2.317   5.619   4.977
  161SOL    HW2 1383   2.228   5.586   4.844
  162SOL     OW 1384   4.193   5.534   1.374
  162SOL    HW1 1385   4.290   5.558   1.379
  162SOL    HW2 1386   4.165   5.491   1.460
  163SOL     OW 1387   4.586   0.517   2.737
  163SOL    HW1 1388   4.540   0.605   2.723
  163SOL    HW2 1389   4.531   0.459   2.797
  164SOL     OW 1390   5.952   3.499   0.842
  164SOL    HW1 1391   5.881   3.502   0.771
  164SOL    HW2 1392   6.042   3.491   0.798
  165SOL     OW 1393   4.842   3.137   6.522
  165SOL    HW1 1394   4.747   3.127   6.492
  165SOL    HW2 1395   4.866   3.234   6.526
  166SOL     OW 1396   0.881   6.840   2.621
  166SOL    HW1 1397   0.829   6.883   2.694
  166SOL    HW2 1398   0.826   6.837   2.538
  167SOL     OW 1399   6.024   3.060   6.971
  167SOL    HW1 1400   5.975   2.980   6.936
  167SOL    HW2 1401   6.073   3.104   6.896
  168SOL     OW 1402   2.713   5.347   0.646
  168SOL    HW1 1403   2.631   5.341   0.588
  168SOL    HW2 1404   2.727   5.261   0.693
  169SOL     OW 1405   2.098   6.852   1.941
  169SOL    HW1 1406   2.133   6.815   2.027
  169SOL    HW2 1407   2.100   6.952   1.945
  170SOL     OW 1408   0.525   1.625   2.961
  170SOL    HW1 1409   0.518   1.562   3.037
  170SOL    HW2 1410   0.569   1.580   2.884
  171SOL     OW 1411   3.504   3.501   6.995
  171SOL    HW1 1412   3.474   3.462   6.908
  171SOL    HW2 1413   3.500   3.601   6.990
  172SOL     OW 1414   6.959   2.552   5.095
  172SOL    HW1 1415   6.891   2.585   5.160
  172SOL    HW2 1416   0.029   2.571   5.129
  173SOL     OW 1417   0.191   6.860   5.568
  173SOL    HW1 1418   0.102   6.888   5.532
  173SOL    HW2 1419   0.227   6.932   5.628
  174SOL     OW 1420   2.597   5.175   3.822
  174SOL    HW1 1421   2.617   5.134   3.733
  174SOL    HW2 1422   2.589   5.103   3.891
  175SOL     OW 1423   1.371   5.438   2.955
  175SOL    HW1 1424   1.278   5.410   2.980
  175SOL    HW2 1425   1.401   5.513   3.014
  176SOL     OW 1426   2.303   4.407   0.894
  176SOL    HW1 1427   2.270   4.317   0.866
  176SOL    HW2 1428   2.398   4.402   0.922
  177SOL     OW 1429   4.655   1.966   2.399
  177SOL    HW1 1430   4.572   1.954   2.343
  177SOL    HW2 1431   4.722   1.896   2.373
  178SOL     OW 1432   5.148   5.133   6.771
  178SOL    HW1 1433   5.154   5.094   6.680
  178SOL    HW2 1434   5.166   5.062   6.839
  179SOL     OW 1435   2.877   0.415   0.274
  179SOL    HW1 1436   2.909   0.504   0.240
  179SOL    HW2 1437   2.874   0.417   0.374
  180SOL     OW 1438   0.889   1.981   0.086
  180SOL    HW1 1439   0.981   1.987   0.125
  180SOL    HW2 1440   0.861   2.071   0.052
  181SOL     OW 1441   3.575   3.152   5.559
  181SOL    HW1 1442   3.502   3.207   5.599
  181SOL    HW2 1443   3.629   3.208   5.497
  182SOL     OW 1444   4.027   2.144   4.710
  182SOL    HW1 1445   4.047   2.136   4.808
  182SOL    HW2 1446   3.965   2.070   4.683
  183SOL     OW 1447   4.970   1.159   2.077
  183SOL    HW1 1448   4.921   1.093   2.020
  183SOL    HW2 1449   5.057   1.182   2.034
  184SOL     OW 1450   6.874   4.553   3.154
  184SOL    HW1 1451   6.939   4.557   3.079
  184SOL    HW2 1452   6.843   4.459   3.167
  185SOL     OW 1453   1.851   3.958   5.985
  185SOL    HW1 1454   1.912   3.985   5.910
  185SOL    HW2 1455   1.826   3.862   5.976
  186SOL     OW 1456   5.458   0.176   3.198
  186SOL    HW1 1457   5.436   0.103   3.134
  186SOL    HW2 1458   5.448   0.142   3.292
  187SOL     OW 1459   5.712   1.235   4.024
  187SOL    HW1 1460   5.782   1.205   4.090
  187SOL    HW2 1461   5.630   1.179   4.034
  188SOL     OW 1462   6.365   2.269   3.245
  188SOL    HW1 1463   6.344   2.365   3.231
  188SOL    HW2 1464   6.328   2.238   3.332
  189SOL     OW 1465   2.106   4.487   2.669
  189SOL    HW1 1466   2.114   4.491   2.570
  189SOL    HW2 1467   2.046   4.412   2.695
  190SOL     OW 1468   3.602   1.106   5.596
  190SOL    HW1 1469   3.660   1.165   5.653
  190SOL    HW2 1470   3.506   1.135   5.606
  191SOL     OW 1471   5.518   5.830   6.339
  191SOL    HW1 1472   5.541   5.906   6.400
  191SOL    HW2 1473   5.564   5.747   6.371
  192SOL     OW 1474   6.932   0.829   1.823
  192SOL    HW1 1475   6.908   0.767   1.898
  192SOL    HW2 1476   6.986   0.780   1.755
  193SOL     OW 1477   5.493   3.961   0.014
  193SOL    HW1 1478   5.486   4.017   0.096
  193SOL    HW2 1479   5.478   4.017   6.954
  194SOL     OW 1480   3.580   0.417   3.567
  194SOL    HW1 1481   3.484   0.413   3.539
  194SOL    HW2 1482   3.587   0.401   3.666
  195SOL     OW 1483   0.805   5.926   3.348
  195SOL    HW1 1484   0.720   5.906   3.397
  195SOL    HW2 1485   0.784   5.959   3.256
  196SOL     OW 1486   0.854   2.243   0.176
  196SOL    HW1 1487   0.891   2.186   0.250
  196SOL    HW2 1488   0.788   2.307   0.215
  197SOL     OW 1489   1.501   1.018   0.637
  197SOL    HW1 1490   1.502   0.996   0.735
  197SOL    HW2 1491   1.522   0.936   0.584
  198SOL     OW 1492   3.282   2.118   3.716
  198SOL    HW1 1493   3.299   2.133   3.618
  198SOL    HW2 1494   3.368   2.127   3.766
  199SOL     OW 1495   1.222   2.722   3.984
  199SOL    HW1 1496   1.141   2.690   4.034
  199SOL    HW2 1497   1.224   2.680   3.894
  200SOL     OW 1498   6.832   2.562   0.194
  200SOL    HW1 1499   6.745   2.608   0.178
  200SOL    HW2 1500   6.883   2.557   0.108
  201SOL     OW 1501   0.425   0.681   6.465
  201SOL    HW1 1502   0.506   0.632   6.434
  201SOL    HW2 1503   0.429   0.695   6.564
  202SOL     OW 1504   4.584   6.949   0.227
  202SOL    HW1 1505   4.669   7.001   0.215
  202SOL    HW2 1506   4.528   6.957   0.145
  203SOL     OW 1507   5.786   2.752   5.690
  203SOL    HW1 1508   5.715   2.821   5.679
  203SOL    HW2 1509   5.870   2.784   5.646
  204SOL     OW 1510   6.281   1.176   5.657
  204SOL    HW1 1511   6.221   1.098   5.642
  204SOL    HW2 1512   6.226   1.260   5.665
  205SOL     OW 1513   0.854   2.980   2.237
  205SOL    HW1 1514   0.841   3.066   2.187
  205SOL    HW2 1515   0.945   2.979   2.279
  206SOL     OW 1516   0.780   3.294   0.330
  206SOL    HW1 1517   0.876   3.293   0.356
  206SOL    HW2 1518   0.729   3.354   0.392
  207SOL     OW 1519   5.476   1.913   4.146
  207SOL    HW1 1520   5.521   1.831   4.109
  207SOL    HW2 1521   5.523   1.941   4.229
  208SOL     OW 1522   1.175   4.340   4.186
  208SOL    HW1 1523   1.220   4.254   4.162
  208SOL    HW2 1524   1.172   4.350   4.286
  209SOL     OW 1525   6.389   4.069   2.820
  209SOL    HW1 1526   6.389   3.973   2.849
  209SOL    HW2 1527   6.382   4.074   2.721
  210SOL     OW 1528   4.485   2.593   0.091
  210SOL    HW1 1529   4.576   2.552   0.094
  210SOL    HW2 1530   4.493   2.692   0.099
  211SOL     OW 1531   0.388   1.410   2.742
  211SOL    HW1 1532   0.402   1.429   2.839
  211SOL    HW2 1533   0.471   1.370   2.703
  212SOL     OW 1534   1.791   3.890   2.932
  212SOL    HW1 1535   1.695   3.899   2.903
  212SOL    HW2 1536   1.815   3.793   2.937
  213SOL     OW 1537   1.751   4.688   0.966
  213SOL    HW1 1538   1.826   4.622   0.966
  213SOL    HW2 1539   1.740   4.725   0.873
  214SOL     OW 1540   4.592   6.165   2.387
  214SOL    HW1 1541   4.538   6.092   2.430
  214SOL    HW2 1542   4.568   6.171   2.290
  215SOL     OW 1543   2.577   4.833   2.732
  215SOL    HW1 1544   2.573   4.924   2.690
  215SOL    HW2 1545   2.486   4.807   2.764
  216SOL     OW 1546   1.297   6.809   2.386
  216SOL    HW1 1547   1.242   6.778   2.463
  216SOL    HW2 1548   1.322   6.905   2.400
  217SOL     OW 1549   1.599   4.368   6.438
  217SOL    HW1 1550   1.634   4.458   6.463
  217SOL    HW2 1551   1.675   4.310   6.408
  218SOL     OW 1552   1.292   1.875   4.928
  218SOL    HW1 1553   1.196   1.870   4.901
  218SOL    HW2 1554   1.344   1.808   4.876
  219SOL     OW 1555   4.057   1.771   0.775
  219SOL    HW1 1556   4.098   1.725   0.854
  219SOL    HW2 1557   4.057   1.869   0.791
  220SOL     OW 1558   2.864   6.825   0.622
  220SOL    HW1 1559   2.833   6.754   0.560
  220SOL    HW2 1560   2.956   6.855   0.596
  221SOL     OW 1561   4.803   6.061   1.921
  221SOL    HW1 1562   4.758   5.983   1.964
  221SOL    HW2 1563   4.775   6.067   1.826
  222SOL     OW 1564   2.459   4.515   6.107
  222SOL    HW1 1565   2.389   4.495   6.039
  222SOL    HW2 1566   2.424   4.495   6.198
  223SOL     OW 1567   6.279   2.867   4.971
  223SOL    HW1 1568   6.285   2.860   5.071
  223SOL    HW2 1569   6.371   2.862   4.932
  224SOL     OW 1570   2.310   1.430   6.156
  224SOL    HW1 1571   2.354   1.411   6.244
  224SOL    HW2 1572   2.219   1.390   6.155
  225SOL     OW 1573   4.688   5.079   5.837
  225SOL    HW1 1574   4.602   5.030   5.820
  225SOL    HW2 1575   4.765   5.015   5.829
  226SOL     OW 1576   1.147   2.197   6.510
  226SOL    HW1 1577   1.116   2.102   6.503
  226SOL    HW2 1578   1.166   2.219   6.606
  227SOL     OW 1579   0.908   3.554   1.946
  227SOL    HW1 1580   0.955   3.527   2.030
  227SOL    HW2 1581   0.845   3.629   1.966
  228SOL     OW 1582   1.799   6.575   2.845
  228SOL    HW1 1583   1.883   6.563   2.898
  228SOL    HW2 1584   1.820   6.573   2.747
  229SOL     OW 1585   4.758   5.741   6.159
  229SOL    HW1 1586   4.794   5.824   6.117
  229SOL    HW2 1587   4.677   5.711   6.110
  230SOL     OW 1588   4.847   5.539   5.118
  230SOL    HW1 1589   4.863   5.450   5.075
  230SOL    HW2 1590   4.859   5.531   5.217
  231SOL     OW 1591   5.295   1.315   6.945
  231SOL    HW1 1592   5.360   1.274   6.881
  231SOL    HW2 1593   5.272   1.407   6.915
  232SOL     OW 1594   1.627   2.886   5.503
  232SOL    HW1 1595   1.587   2.848   5.586
  232SOL    HW2 1596   1.717   2.925   5.524
  233SOL     OW 1597   2.819   1.598   3.069
  233SOL    HW1 1598   2.767   1.664   3.015
  233SOL    HW2 1599   2.756   1.534   3.113
  234SOL     OW 1600   4.634   1.189   6.878
  234SOL    HW1 1601   4.685   1.268   6.842
  234SOL    HW2 1602   4.614   1.204   6.975
  235SOL     OW 1603   4.903   2.313   2.684
  235SOL    HW1 1604   4.981   2.334   2.626
  235SOL    HW2 1605   4.818   2.323   2.631
  236SOL     OW 1606   4.492   4.631   6.506
  236SOL    HW1 1607   4.501   4.712   6.564
  236SOL    HW2 1608   4.402   4.632   6.462
  237SOL     OW 1609   6.268   3.579   3.015
  237SOL    HW1 1610   6.215   3.663   3.006
  237SOL    HW2 1611   6.255   3.522   2.934
  238SOL     OW 1612   6.573   1.445   0.791
  238SOL    HW1 1613   6.566   1.488   0.881
  238SOL    HW2 1614   6.664   1.462   0.754
  239SOL     OW 1615   1.135   3.828   0.227
  239SOL    HW1 1616   1.187   3.850   0.145
  239SOL    HW2 1617   1.081   3.745   0.212
  240SOL     OW 1618   5.751   3.258   2.958
  240SOL    HW1 1619   5.795   3.217   2.878
  240SOL    HW2 1620   5.673   3.314   2.929
  241SOL     OW 1621   2.988   1.679   3.724
  241SOL    HW1 1622   2.918   1.737   3.683
  241SOL    HW2 1623   3.075   1.694   3.678
  242SOL     OW 1624   3.562   3.586   3.115
  242SOL    HW1 1625   3.482   3.640   3.139
  242SOL    HW2 1626   3.583   3.522   3.189
  243SOL     OW 1627   4.759   2.596   5.937
  243SOL    HW1 1628   4.719   2.566   6.024
  243SOL    HW2 1629   4.782   2.517   5.881
  244SOL     OW 1630   4.986   3.684   5.231
  244SOL    HW1 1631   5.002   3.609   5.295
  244SOL    HW2 1632   4.914   3.658   5.167
  245SOL     OW 1633   3.457   1.859   2.780
  245SOL    HW1 1634   3.521   1.821   2.714
  245SOL    HW2 1635   3.423   1.947   2.746
  246SOL     OW 1636   6.306   1.398   2.296
  246SOL    HW1 1637   6.330   1.466   2.226
  246SOL    HW2 1638   6.212   1.367   2.280
  247SOL     OW 1639   1.908   1.589   1.333
  247SOL    HW1 1640   1.813   1.620   1.341
  247SOL    HW2 1641   1.945   1.569   1.423
  248SOL     OW 1642   1.656   2.345   2.174
  248SOL    HW1 1643   1.756   2.347   2.181
  248SOL    HW2 1644   1.626   2.418   2.114
  249SOL     OW 1645   5.591   6.389   5.118
  249SOL    HW1 1646   5.495   6.363   5.130
  249SOL    HW2 1647   5.649   6.312   5.143
  250SOL     OW 1648   3.841   2.388   1.391
  250SOL    HW1 1649   3.820   2.463   1.454
  250SOL    HW2 1650   3.830   2.420   1.297
  251SOL     OW 1651   3.924   3.938   5.533
  251SOL    HW1 1652   3.894   3.941   5.628
  251SOL    HW2 1653   4.012   3.984   5.524
  252SOL     OW 1654   6.087   5.985   5.373
  252SOL    HW1 1655   6.030   5.974   5.292
  252SOL    HW2 1656   6.111   5.896   5.409
  253SOL     OW 1657   4.300   5.816   6.017
  253SOL    HW1 1658   4.399   5.826   6.023
  253SOL    HW2 1659   4.259   5.904   5.993
  254SOL     OW 1660   5.884   2.575   4.872
  254SOL    HW1 1661   5.913   2.559   4.778
  254SOL    HW2 1662   5.965   2.583   4.931
  255SOL     OW 1663   1.657   4.801   5.720
  255SOL    HW1 1664   1.689   4.747   5.798
  255SOL    HW2 1665   1.726   4.798   5.647
  256SOL     OW 1666   5.009   2.498   4.875
  256SOL    HW1 1667   4.918   2.511   4.836
  256SOL    HW2 1668   5.070   2.461   4.806
  257SOL     OW 1669   5.014   6.472   2.540
  257SOL    HW1 1670   4.976   6.401   2.481
  257SOL    HW2 1671   5.055   6.544   2.484
  258SOL     OW 1672   2.150   3.794   5.963
  258SOL    HW1 1673   2.149   3.849   6.046
  258SOL    HW2 1674   2.087   3.717   5.972
  259SOL     OW 1675   3.970   0.277   3.902
  259SOL    HW1 1676   4.042   0.331   3.859
  259SOL    HW2 1677   3.926   0.331   3.974
  260SOL     OW 1678   3.777   5.511   3.751
  260SOL    HW1 1679   3.843   5.438   3.733
  260SOL    HW2 1680   3.748   5.507   3.847
  261SOL     OW 1681   4.252   4.509   6.762
  261SOL    HW1 1682   4.218   4.443   6.695
  261SOL    HW2 1683   4.244   4.602   6.725
  262SOL     OW 1684   2.493   4.064   6.792
  262SOL    HW1 1685   2.457   4.136   6.733
  262SOL    HW2 1686   2.590   4.049   6.770
  263SOL     OW 1687   1.008   6.024   4.063
  263SOL    HW1 1688   1.065   5.944   4.077
  263SOL    HW2 1689   1.038   6.098   4.124
  264SOL     OW 1690   6.990   3.540   6.653
  264SOL    HW1 1691   6.948   3.454   6.684
  264SOL    HW2 1692   6.937   3.617   6.690
  265SOL     OW 1693   6.385   6.840   4.481
  265SOL    HW1 1694   6.473   6.819   4.439
  265SOL    HW2 1695   6.314   6.839   4.410
  266SOL     OW 1696   3.915   1.715   5.659
  266SOL    HW1 1697   3.981   1.780   5.620
  266SOL    HW2 1698   3.922   1.627   5.612
  267SOL     OW 1699   1.518   0.849   4.938
  267SOL    HW1 1700   1.497   0.807   4.849
  267SOL    HW2 1701   1.465   0.933   4.949
  268SOL     OW 1702   3.175   1.213   1.069
  268SOL    HW1 1703   3.234   1.170   1.137
  268SOL    HW2 1704   3.086   1.168   1.068
  269SOL     OW 1705   4.128   1.711   0.059
  269SOL    HW1 1706   4.216   1.676   0.088
  269SOL    HW2 1707   4.116   1.804   0.093
  270SOL     OW 1708   6.497   6.939   0.436
  270SOL    HW1 1709   6.497   6.847   0.475
  270SOL    HW2 1710   6.590   6.976   0.439
  271SOL     OW 1711   0.382   2.474   5.712
  271SOL    HW1 1712   0.384   2.546   5.642
  271SOL    HW2 1713   0.369   2.516   5.802
  272SOL     OW 1714   2.551   6.472   3.673
  272SOL    HW1 1715   2.611   6.505   3.601
  272SOL    HW2 1716   2.455   6.484   3.645
  273SOL     OW 1717   1.760   4.848   6.122
  273SOL    HW1 1718   1.804   4.913   6.060
  273SOL    HW2 1719   1.719   4.897   6.199
  274SOL     OW 1720   4.461   1.284   3.754
  274SOL    HW1 1721   4.554   1.268   3.718
  274SOL    HW2 1722   4.417   1.197   3.772
  275SOL     OW 1723   0.123   6.425   2.674
  275SOL    HW1 1724   0.097   6.436   2.578
  275SOL    HW2 1725   0.041   6.408   2.728
  276SOL     OW 1726   0.470   0.562   4.730
  276SOL    HW1 1727   0.540   0.626   4.760
  276SOL    HW2 1728   0.398   0.556   4.799
  277SOL     OW 1729   2.466   3.504   0.595
  277SOL    HW1 1730   2.410   3.528   0.674
  277SOL    HW2 1731   2.540   3.571   0.586
  278SOL     OW 1732   0.195   2.401   2.380
  278SOL    HW1 1733   0.210   2.469   2.452
  278SOL    HW2 1734   0.238   2.315   2.406
  279SOL     OW 1735   5.818   2.365   4.281
  279SOL    HW1 1736   5.847   2.275   4.314
  279SOL    HW2 1737   5.899   2.422   4.269
  280SOL     OW 1738   1.696   4.510   2.045
  280SOL    HW1 1739   1.733   4.491   1.954
  280SOL    HW2 1740   1.764   4.561   2.098
  281SOL     OW 1741   2.190   4.088   0.555
  281SOL    HW1 1742   2.183   3.992   0.584
  281SOL    HW2 1743   2.226   4.143   0.631
  282SOL     OW 1744   3.483   2.292   5.819
  282SOL    HW1 1745   3.426   2.226   5.771
  282SOL    HW2 1746   3.446   2.308   5.911
  283SOL     OW 1747   5.003   3.152   5.774
  283SOL    HW1 1748   4.946   3.209   5.833
  283SOL    HW2 1749   5.058   3.090   5.830
  284SOL     OW 1750   0.907   3.526   4.266
  284SOL    HW1 1751   0.894   3.625   4.260
  284SOL    HW2 1752   0.881   3.495   4.357
  285SOL     OW 1753   5.604   4.474   4.245
  285SOL    HW1 1754   5.679   4.473   4.179
  285SOL    HW2 1755   5.569   4.568   4.254
  286SOL     OW 1756   3.011   3.706   6.690
  286SOL    HW1 1757   2.949   3.733   6.763
  286SOL    HW2 1758   3.045   3.614   6.707
  287SOL     OW 1759   2.098   3.561   7.003
  287SOL    HW1 1760   2.137   3.500   6.934
  287SOL    HW2 1761   2.090   3.653   6.966
  288SOL     OW 1762   4.990   2.534   6.923
  288SOL    HW1 1763   4.998   2.437   6.948
  288SOL    HW2 1764   5.040   2.550   6.838
  289SOL     OW 1765   2.562   5.116   5.882
  289SOL    HW1 1766   2.512   5.030   5.887
  289SOL    HW2 1767   2.519   5.185   5.941
  290SOL     OW 1768   6.839   2.420   5.782
  290SOL    HW1 1769   6.743   2.437   5.805
  290SOL    HW2 1770   6.872   2.493   5.722
  291SOL     OW 1771   6.763   2.109   2.900
  291SOL    HW1 1772   6.760   2.163   2.815
  291SOL    HW2 1773   6.670   2.090   2.931
  292SOL     OW 1774   1.936   0.022   3.544
  292SOL    HW1 1775   1.915   6.949   3.568
  292SOL    HW2 1776   2.007   0.024   3.473
  293SOL     OW 1777   3.842   5.140   3.692
  293SOL    HW1 1778   3.941   5.155   3.700
  293SOL    HW2 1779   3.813   5.162   3.599
  294SOL     OW 1780   4.336   6.707   6.500
  294SOL    HW1 1781   4.370   6.691   6.592
  294SOL    HW2 1782   4.248   6.663   6.488
  295SOL     OW 1783   5.025   0.256   4.179
  295SOL    HW1 1784   4.964   0.225   4.106
  295SOL    HW2 1785   4.974   0.261   4.265
  296SOL     OW 1786   2.335   1.911   3.520
  296SOL    HW1 1787   2.322   2.006   3.551
  296SOL    HW2 1788   2.260   1.855   3.556
  297SOL     OW 1789   1.807   4.527   3.267
  297SOL    HW1 1790   1.795   4.581   3.351
  297SOL    HW2 1791   1.744   4.561   3.197
  298SOL     OW 1792   5.748   5.196   1.172
  298SOL    HW1 1793   5.817   5.126   1.153
  298SOL    HW2 1794   5.696   5.169   1.254
  299SOL     OW 1795   6.418   2.304   4.964
  299SOL    HW1 1796   6.447   2.328   4.871
  299SOL    HW2 1797   6.326   2.264   4.961
  300SOL     OW 1798   6.102   6.928   2.706
  300SOL    HW1 1799   6.004   6.916   2.691
  300SOL    HW2 1800   6.119   7.018   2.746
  301SOL     OW 1801   5.284   4.233   6.096
  301SOL    HW1 1802   5.262   4.263   6.003
  301SOL    HW2 1803   5.348   4.157   6.092
  302SOL     OW 1804   1.041   6.603   3.626
  302SOL    HW1 1805   1.051   6.702   3.611
  302SOL    HW2 1806   1.083   6.554   3.549
  303SOL     OW 1807   5.629   0.088   3.955
  303SOL    HW1 1808   5.640   0.086   3.856
  303SOL    HW2 1809   5.534   0.070   3.979
  304SOL     OW 1810   3.196   0.074   3.196
  304SOL    HW1 1811   3.202   0.099   3.293
  304SOL    HW2 1812   3.184   0.156   3.140
  305SOL     OW 1813   1.214   3.450   1.282
  305SOL    HW1 1814   1.138   3.460   1.217
  305SOL    HW2 1815   1.178   3.425   1.372
  306SOL     OW 1816   2.188   0.544   3.379
  306SOL    HW1 1817   2.168   0.447   3.393
  306SOL    HW2 1818   2.194   0.589   3.468
  307SOL     OW 1819   3.629   0.490   1.289
  307SOL    HW1 1820   3.569   0.440   1.225
  307SOL    HW2 1821   3.641   0.435   1.372
  308SOL     OW 1822   0.440   5.339   4.297
  308SOL    HW1 1823   0.520   5.392   4.324
  308SOL    HW2 1824   0.358   5.380   4.338
  309SOL     OW 1825   4.254   5.341   5.333
  309SOL    HW1 1826   4.173   5.333   5.391
  309SOL    HW2 1827   4.305   5.423   5.357
  310SOL     OW 1828   0.628   6.514   6.299
  310SOL    HW1 1829   0.562   6.447   6.330
  310SOL    HW2 1830   0.581   6.589   6.252
  311SOL     OW 1831   0.711   0.475   1.527
  311SOL    HW1 1832   0.722   0.529   1.610
  311SOL    HW2 1833   0.703   0.378   1.552
  312SOL     OW 1834   4.024   1.847   4.997
  312SOL    HW1 1835   3.966   1.793   4.936
  312SOL    HW2 1836   3.969   1.888   5.069
  313SOL     OW 1837   0.588   4.569   1.396
  313SOL    HW1 1838   0.645   4.638   1.351
  313SOL    HW2 1839   0.627   4.479   1.382
  314SOL     OW 1840   3.657   6.258   1.116
  314SOL    HW1 1841   3.615   6.332   1.064
  314SOL    HW2 1842   3.641   6.272   1.213
  315SOL     OW 1843   0.904   2.914   3.089
  315SOL    HW1 1844   0.895   2.929   3.188
  315SOL    HW2 1845   0.867   2.994   3.040
  316SOL     OW 1846   2.470   2.583   3.739
  316SOL    HW1 1847   2.452   2.506   3.801
  316SOL    HW2 1848   2.565   2.578   3.708
  317SOL     OW 1849   6.581   1.810   0.074
  317SOL    HW1 1850   6.603   1.891   0.020
  317SOL    HW2 1851   6.532   1.837   0.156
  318SOL     OW 1852   2.687   5.337   1.094
  318SOL    HW1 1853   2.780   5.349   1.059
  318SOL    HW2 1854   2.638   5.424   1.089
  319SOL     OW 1855   1.393   6.574   0.875
  319SOL    HW1 1856   1.354   6.659   0.911
  319SOL    HW2 1857   1.337   6.541   0.799
  320SOL     OW 1858   5.449   4.081   0.560
  320SOL    HW1 1859   5.544   4.084   0.531
  320SOL    HW2 1860   5.421   3.986   0.574
  321SOL     OW 1861   1.995   1.281   1.283
  321SOL    HW1 1862   2.061   1.287   1.208
  321SOL    HW2 1863   1.950   1.370   1.295
  322SOL     OW 1864   3.828   2.939   4.728
  322SOL    HW1 1865   3.841   2.939   4.629
  322SOL    HW2 1866   3.888   3.008   4.769
  323SOL     OW 1867   0.508   4.370   1.845
  323SOL    HW1 1868   0.441   4.435   1.810
  323SOL    HW2 1869   0.600   4.406   1.830
  324SOL     OW 1870   0.063   3.095   4.580
  324SOL    HW1 1871   0.145   3.038   4.582
  324SOL    HW2 1872   0.010   3.080   4.663
  325SOL     OW 1873   2.345   2.773   2.651
  325SOL    HW1 1874   2.330   2.787   2.748
  325SOL    HW2 1875   2.325   2.858   2.602
  326SOL     OW 1876   2.114   4.304   6.060
  326SOL    HW1 1877   2.203   4.259   6.063
  326SOL    HW2 1878   2.112   4.378   6.128
  327SOL     OW 1879   5.836   5.370   5.283
  327SOL    HW1 1880   5.869   5.462   5.260
  327SOL    HW2 1881   5.872   5.304   5.218
  328SOL     OW 1882   2.509   5.870   2.051
  328SOL    HW1 1883   2.421   5.911   2.028
  328SOL    HW2 1884   2.542   5.909   2.138
  329SOL     OW 1885   3.466   3.176   2.248
  329SOL    HW1 1886   3.396   3.210   2.311
  329SOL    HW2 1887   3.449   3.080   2.228
  330SOL     OW 1888   3.640   1.039   1.472
  330SOL    HW1 1889   3.728   1.086   1.475
  330SOL    HW2 1890   3.645   0.955   1.527
  331SOL     OW 1891   5.493   4.643   6.436
  331SOL    HW1 1892   5.418   4.655   6.371
  331SOL    HW2 1893   5.458   4.599   6.519
  332SOL     OW 1894   3.708   1.812   3.275
  332SOL    HW1 1895   3.672   1.819   3.182
  332SOL    HW2 1896   3.754   1.725   3.287
  333SOL     OW 1897   3.749   6.290   6.713
  333SOL    HW1 1898   3.672   6.236   6.676
  333SOL    HW2 1899   3.809   6.230   6.766
  334SOL     OW 1900   4.532   6.865   2.575
  334SOL    HW1 1901   4.532   6.771   2.610
  334SOL    HW2 1902   4.496   6.865   2.481
  335SOL     OW 1903   3.417   6.729   3.036
  335SOL    HW1 1904   3.417   6.813   3.091
  335SOL    HW2 1905   3.503   6.721   2.986
  336SOL     OW 1906   3.226   1.208   4.564
  336SOL    HW1 1907   3.262   1.189   4.655
  336SOL    HW2 1908   3.211   1.122   4.516
  337SOL     OW 1909   6.910   3.904   1.283
  337SOL    HW1 1910   6.999   3.859   1.275
  337SOL    HW2 1911   6.841   3.836   1.309
  338SOL     OW 1912   3.672   2.995   1.419
  338SOL    HW1 1913   3.582   2.990   1.462
  338SOL    HW2 1914   3.694   2.907   1.376
  339SOL     OW 1915   4.502   6.699   3.081
  339SOL    HW1 1916   4.481   6.727   2.987
  339SOL    HW2 1917   4.433   6.634   3.113
  340SOL     OW 1918   4.817   4.025   4.107
  340SOL    HW1 1919   4.851   4.008   4.199
  340SOL    HW2 1920   4.819   3.940   4.054
  341SOL     OW 1921   5.695   4.854   4.989
  341SOL    HW1 1922   5.741   4.906   4.918
  341SOL    HW2 1923   5.656   4.771   4.949
  342SOL     OW 1924   6.314   3.787   0.093
  342SOL    HW1 1925   6.369   3.862   0.056
  342SOL    HW2 1926   6.359   3.749   0.173
  343SOL     OW 1927   3.040   0.485   2.826
  343SOL    HW1 1928   3.082   0.425   2.758
  343SOL    HW2 1929   3.064   0.580   2.807
  344SOL     OW 1930   3.312   5.011   0.461
  344SOL    HW1 1931   3.225   4.964   0.448
  344SOL    HW2 1932   3.304   5.105   0.429
  345SOL     OW 1933   0.625   6.759   5.783
  345SOL    HW1 1934   0.608   6.858   5.788
  345SOL    HW2 1935   0.690   6.741   5.709
  346SOL     OW 1936   1.920   0.103   3.824
  346SOL    HW1 1937   1.887   0.197   3.833
  346SOL    HW2 1938   1.937   0.083   3.728
  347SOL     OW 1939   5.376   6.168   6.195
  347SOL    HW1 1940   5.465   6.204   6.220
  347SOL    HW2 1941   5.308   6.195   6.263
  348SOL     OW 1942   3.431   5.847   2.901
  348SOL    HW1 1943   3.385   5.887   2.822
  348SOL    HW2 1944   3.523   5.885   2.909
  349SOL     OW 1945   1.945   4.726   1.800
  349SOL    HW1 1946   1.943   4.812   1.748
  349SOL    HW2 1947   2.040   4.698   1.812
  350SOL     OW 1948   4.833   2.999   1.336
  350SOL    HW1 1949   4.914   3.017   1.280
  350SOL    HW2 1950   4.800   2.907   1.319
  351SOL     OW 1951   3.388   1.882   7.005
  351SOL    HW1 1952   3.306   1.826   6.993
  351SOL    HW2 1953   3.366   1.978   6.984
  352SOL     OW 1954   3.441   1.154   6.847
  352SOL    HW1 1955   3.468   1.220   6.917
  352SOL    HW2 1956   3.490   1.068   6.863
  353SOL     OW 1957   2.053   6.866   0.822
  353SOL    HW1 1958   2.077   6.865   0.919
  353SOL    HW2 1959   2.030   6.960   0.795
  354SOL     OW 1960   4.592   1.446   1.634
  354SOL    HW1 1961   4.607   1.428   1.731
  354SOL    HW2 1962   4.496   1.472   1.619
  355SOL     OW 1963   0.981   1.522   2.249
  355SOL    HW1 1964   0.913   1.450   2.257
  355SOL    HW2 1965   0.987   1.573   2.335
  356SOL     OW 1966   4.151   5.813   3.256
  356SOL    HW1 1967   4.126   5.759   3.337
  356SOL    HW2 1968   4.218   5.882   3.282
  357SOL     OW 1969   0.927   4.804   5.472
  357SOL    HW1 1970   1.008   4.766   5.429
  357SOL    HW2 1971   0.907   4.894   5.433
  358SOL     OW 1972   5.601   0.947   2.084
  358SOL    HW1 1973   5.682   0.989   2.125
  358SOL    HW2 1974   5.519   0.989   2.122
  359SOL     OW 1975   1.543   1.185   2.222
  359SOL    HW1 1976   1.614   1.255   2.231
  359SOL    HW2 1977   1.566   1.122   2.148
  360SOL     OW 1978   4.112   6.257   0.787
  360SOL    HW1 1979   4.062   6.184   0.834
  360SOL    HW2 1980   4.097   6.344   0.835
  361SOL     OW 1981   4.050   0.564   3.523
  361SOL    HW1 1982   4.065   0.605   3.433
  361SOL    HW2 1983   4.093   0.474   3.527
  362SOL     OW 1984   2.706   3.529   0.955
  362SOL    HW1 1985   2.741   3.558   0.866
  362SOL    HW2 1986   2.745   3.440   0.979
  363SOL     OW 1987   4.651   4.815   4.105
  363SOL    HW1 1988   4.573   4.798   4.166
  363SOL    HW2 1989   4.708   4.733   4.101
  364SOL     OW 1990   1.672   5.521   5.697
  364SOL    HW1 1991   1.685   5.431   5.654
  364SOL    HW2 1992   1.665   5.591   5.626
  365SOL     OW 1993   4.558   6.583   2.649
  365SOL    HW1 1994   4.558   6.533   2.562
  365SOL    HW2 1995   4.652   6.602   2.676
  366SOL     OW 1996   5.196   6.559   7.001
  366SOL    HW1 1997   5.109   6.602   6.978
  366SOL    HW2 1998   5.179   6.479   0.038
  367SOL     OW 1999   4.973   2.323   1.523
  367SOL    HW1 2000   4.934   2.240   1.484
  367SOL    HW2 2001   5.065   2.337   1.488
  368SOL     OW 2002   1.514   4.616   5.270
  368SOL    HW1 2003   1.510   4.518   5.251
  368SOL    HW2 2004   1.597   4.655   5.229
  369SOL     OW 2005   0.362   3.564   1.619
  369SOL    HW1 2006   0.271   3.591   1.589
  369SOL    HW2 2007   0.357   3.475   1.665
  370SOL     OW 2008   3.744   1.265   6.355
  370SOL    HW1 2009   3.673   1.313   6.406
  370SOL    HW2 2010   3.776   1.323   6.280
  371SOL     OW 2011   3.925   2.897   6.665
  371SOL    HW1 2012   4.008   2.922   6.614
  371SOL    HW2 2013   3.848   2.952   6.632
  372SOL     OW 2014   1.065   5.334   5.974
  372SOL    HW1 2015   1.072   5.378   5.885
  372SOL    HW2 2016   1.152   5.343   6.022
  373SOL     OW 2017   6.767   7.009   0.380
  373SOL    HW1 2018   6.852   6.966   0.409
  373SOL    HW2 2019   6.756   6.999   0.281
  374SOL     OW 2020   3.767   1.267   1.060
  374SOL    HW1 2021   3.761   1.322   1.143
  374SOL    HW2 2022   3.754   1.171   1.083
  375SOL     OW 2023   6.926   4.392   2.410
  375SOL    HW1 2024   6.844   4.388   2.354
  375SOL    HW2 2025   6.936   4.307   2.461
  376SOL     OW 2026   2.259   2.712   4.502
  376SOL    HW1 2027   2.311   2.665   4.574
  376SOL    HW2 2028   2.178   2.755   4.542
  377SOL     OW 2029   5.048   1.816   4.184
  377SOL    HW1 2030   4.998   1.895   4.219
  377SOL    HW2 2031   4.998   1.732   4.205
  378SOL     OW 2032   4.812   2.737   4.325
  378SOL    HW1 2033   4.901   2.756   4.366
  378SOL    HW2 2034   4.740   2.744   4.394
  379SOL     OW 2035   6.471   3.544   1.305
  379SOL    HW1 2036   6.373   3.557   1.319
  379SOL    HW2 2037   6.490   3.531   1.208
  380SOL     OW 2038   0.816   1.754   0.349
  380SOL    HW1 2039   0.824   1.742   0.250
  380SOL    HW2 2040   0.726   1.793   0.371
  381SOL     OW 2041   2.963   3.984   0.681
  381SOL    HW1 2042   3.034   3.973   0.750
  381SOL    HW2 2043   2.968   3.909   0.615
  382SOL     OW 2044   2.336   5.424   1.096
  382SOL    HW1 2045   2.243   5.436   1.061
  382SOL    HW2 2046   2.344   5.468   1.185
  383SOL     OW 2047   6.435   2.165   0.059
  383SOL    HW1 2048   6.440   2.193   6.985
  383SOL    HW2 2049   6.518   2.194   0.107
  384SOL     OW 2050   1.781   5.897   4.948
  384SOL    HW1 2051   1.726   5.815   4.934
  384SOL    HW2 2052   1.877   5.873   4.955
  385SOL     OW 2053   4.615   5.219   1.418
  385SOL    HW1 2054   4.623   5.306   1.467
  385SOL    HW2 2055   4.646   5.231   1.324
  386SOL     OW 2056   2.955   6.256   5.341
  386SOL    HW1 2057   2.870   6.209   5.317
  386SOL    HW2 2058   3.025   6.236   5.272
  387SOL     OW 2059   6.971   0.426   5.617
  387SOL    HW1 2060   6.943   0.356   5.682
  387SOL    HW2 2061   6.905   0.431   5.542
  388SOL     OW 2062   6.897   2.115   5.228
  388SOL    HW1 2063   6.895   2.183   5.301
  388SOL    HW2 2064   6.874   2.159   5.141
  389SOL     OW 2065   4.684   4.347   1.377
  389SOL    HW1 2066   4.613   4.330   1.444
  389SOL    HW2 2067   4.762   4.287   1.394
  390SOL     OW 2068   4.167   2.274   0.505
  390SOL    HW1 2069   4.085   2.218   0.517
  390SOL    HW2 2070   4.212   2.249   0.419
  391SOL     OW 2071   3.452   3.925   3.818
  391SOL    HW1 2072   3.399   3.848   3.784
  391SOL    HW2 2073   3.389   3.999   3.845
  392SOL     OW 2074   1.247   3.631   1.594
  392SOL    HW1 2075   1.154   3.602   1.573
  392SOL    HW2 2076   1.293   3.660   1.510
  393SOL     OW 2077   1.397   5.143   1.090
  393SOL    HW1 2078   1.493   5.172   1.095
  393SOL    HW2 2079   1.381   5.072   1.158
  394SOL     OW 2080   6.218   1.146   6.315
  394SOL    HW1 2081   6.232   1.047   6.321
  394SOL    HW2 2082   6.240   1.187   6.404
  395SOL     OW 2083   5.953   4.892   0.853
  395SOL    HW1 2084   5.858   4.921   0.840
  395SOL    HW2 2085   6.011   4.973   0.863
  396SOL     OW 2086   1.529   6.822   1.260
  396SOL    HW1 2087   1.577   6.735   1.263
  396SOL    HW2 2088   1.514   6.855   1.353
  397SOL     OW 2089   3.681   1.880   5.104
  397SOL    HW1 2090   3.722   1.949   5.045
  397SOL    HW2 2091   3.717   1.790   5.079
  398SOL     OW 2092   1.448   0.796   3.287
  398SOL    HW1 2093   1.422   0.701   3.266
  398SOL    HW2 2094   1.375   0.840   3.339
  399SOL     OW 2095   5.879   5.986   3.925
  399SOL    HW1 2096   5.871   6.043   3.843
  399SOL    HW2 2097   5.839   6.035   4.003
  400SOL     OW 2098   5.655   6.727   4.290
  400SOL    HW1 2099   5.722   6.671   4.339
  400SOL    HW2 2100   5.590   6.766   4.355
  401SOL     OW 2101   0.481   5.814   5.433
  401SOL    HW1 2102   0.480   5.893   5.372
  401SOL    HW2 2103   0.513   5.734   5.384
  402SOL     OW 2104   5.488   1.742   3.326
  402SOL    HW1 2105   5.496   1.688   3.242
  402SOL    HW2 2106   5.571   1.731   3.380
  403SOL     OW 2107   2.941   1.356   5.354
  403SOL    HW1 2108   2.907   1.376   5.446
  403SOL    HW2 2109   2.966   1.441   5.308
  404SOL     OW 2110   3.567   5.702   3.353
  404SOL    HW1 2111   3.535   5.632   3.417
  404SOL    HW2 2112   3.491   5.730   3.293
  405SOL     OW 2113   2.408   4.878   4.375
  405SOL    HW1 2114   2.454   4.805   4.426
  405SOL    HW2 2115   2.412   4.963   4.427
  406SOL     OW 2116   0.390   6.798   6.220
  406SOL    HW1 2117   0.483   6.834   6.216
  406SOL    HW2 2118   0.380   6.723   6.155
  407SOL     OW 2119   2.263   2.756   3.828
  407SOL    HW1 2120   2.283   2.685   3.761
  407SOL    HW2 2121   2.325   2.748   3.905
  408SOL     OW 2122   1.961   1.927   3.331
  408SOL    HW1 2123   1.983   1.990   3.406
  408SOL    HW2 2124   1.866   1.939   3.304
  409SOL     OW 2125   0.473   3.187   2.120
  409SOL    HW1 2126   0.429   3.117   2.063
  409SOL    HW2 2127   0.508   3.260   2.062
  410SOL     OW 2128   1.727   2.166   1.856
  410SOL    HW1 2129   1.789   2.089   1.844
  410SOL    HW2 2130   1.642   2.134   1.898
  411SOL     OW 2131   0.157   2.328   1.179
  411SOL    HW1 2132   0.179   2.234   1.206
  411SOL    HW2 2133   0.072   2.356   1.224
  412SOL     OW 2134   1.283   4.928   2.691
  412SOL    HW1 2135   1.235   4.943   2.777
  412SOL    HW2 2136   1.378   4.960   2.699
  413SOL     OW 2137   5.995   5.932   2.092
  413SOL    HW1 2138   6.003   5.952   1.995
  413SOL    HW2 2139   6.084   5.942   2.136
  414SOL     OW 2140   1.781   6.647   3.158
  414SOL    HW1 2141   1.839   6.728   3.146
  414SOL    HW2 2142   1.835   6.565   3.139
  415SOL     OW 2143   6.013   1.412   6.713
  415SOL    HW1 2144   6.056   1.339   6.767
  415SOL    HW2 2145   6.008   1.496   6.767
  416SOL     OW 2146   5.494   3.634   5.614
  416SOL    HW1 2147   5.454   3.653   5.704
  416SOL    HW2 2148   5.482   3.538   5.591
  417SOL     OW 2149   1.676   1.859   6.608
  417SOL    HW1 2150   1.726   1.930   6.557
  417SOL    HW2 2151   1.737   1.818   6.676
  418SOL     OW 2152   3.744   0.105   4.758
  418SOL    HW1 2153   3.696   0.155   4.830
  418SOL    HW2 2154   3.836   0.142   4.747
  419SOL     OW 2155   6.653   0.510   0.258
  419SOL    HW1 2156   6.561   0.487   0.227
  419SOL    HW2 2157   6.698   0.427   0.292
  420SOL     OW 2158   4.105   6.955   0.770
  420SOL    HW1 2159   4.041   0.007   0.796
  420SOL    HW2 2160   4.055   6.881   0.726
  421SOL     OW 2161   4.655   4.497   2.357
  421SOL    HW1 2162   4.723   4.533   2.292
  421SOL    HW2 2163   4.662   4.398   2.361
  422SOL     OW 2164   5.242   2.762   1.744
  422SOL    HW1 2165   5.200   2.810   1.667
  422SOL    HW2 2166   5.339   2.748   1.725
  423SOL     OW 2167   2.617   1.063   6.325
  423SOL    HW1 2168   2.620   0.982   6.384
  423SOL    HW2 2169   2.646   1.143   6.376
  424SOL     OW 2170   1.254   3.681   3.999
  424SOL    HW1 2171   1.158   3.672   3.973
  424SOL    HW2 2172   1.271   3.774   4.031
  425SOL     OW 2173   3.831   1.048   0.200
  425SOL    HW1 2174   3.859   0.981   0.131
  425SOL    HW2 2175   3.846   1.141   0.165
  426SOL     OW 2176   2.813   1.806   4.429
  426SOL    HW1 2177   2.749   1.882   4.431
  426SOL    HW2 2178   2.905   1.840   4.408
  427SOL     OW 2179   4.605   1.761   2.978
  427SOL    HW1 2180   4.660   1.758   2.894
  427SOL    HW2 2181   4.637   1.836   3.036
  428SOL     OW 2182   3.143   2.494   6.110
  428SOL    HW1 2183   3.075   2.448   6.167
  428SOL    HW2 2184   3.120   2.482   6.014
  429SOL     OW 2185   6.913   5.823   4.454
  429SOL    HW1 2186   6.816   5.809   4.432
  429SOL    HW2 2187   6.931   5.922   4.460
  430SOL     OW 2188   1.501   0.128   4.378
  430SOL    HW1 2189   1.507   0.119   4.279
  430SOL    HW2 2190   1.563   0.064   4.422
  431SOL     OW 2191   2.621   1.780   1.941
  431SOL    HW1 2192   2.592   1.872   1.966
  431SOL    HW2 2193   2.565   1.748   1.864
  432SOL     OW 2194   4.369   1.837   1.419
  432SOL    HW1 2195   4.320   1.882   1.494
  432SOL    HW2 2196   4.313   1.763   1.383
  433SOL     OW 2197   1.952   4.489   0.993
  433SOL    HW1 2198   1.947   4.396   1.030
  433SOL    HW2 2199   2.048   4.515   0.983
  434SOL     OW 2200   4.597   4.794   3.285
  434SOL    HW1 2201   4.577   4.873   3.227
  434SOL    HW2 2202   4.579   4.816   3.380
  435SOL     OW 2203   3.918   2.800   5.942
  435SOL    HW1 2204   3.951   2.717   5.987
  435SOL    HW2 2205   3.830   2.782   5.898
  436SOL     OW 2206   5.128   6.717   2.433
  436SOL    HW1 2207   5.214   6.694   2.387
  436SOL    HW2 2208   5.147   6.773   2.513
  437SOL     OW 2209   6.485   1.006   5.018
  437SOL    HW1 2210   6.417   1.054   4.963
  437SOL    HW2 2211   6.563   1.066   5.036
  438SOL     OW 2212   0.635   4.579   2.539
  438SOL    HW1 2213   0.653   4.658   2.481
  438SOL    HW2 2214   0.706   4.570   2.608
  439SOL     OW 2215   0.150   0.928   4.857
  439SOL    HW1 2216   0.236   0.966   4.824
  439SOL    HW2 2217   0.075   0.961   4.801
  440SOL     OW 2218   4.039   1.541   0.453
  440SOL    HW1 2219   4.064   1.633   0.485
  440SOL    HW2 2220   4.121   1.483   0.454
  441SOL     OW 2221   1.161   4.886   1.938
  441SOL    HW1 2222   1.239   4.826   1.921
  441SOL    HW2 2223   1.191   4.981   1.938
  442SOL     OW 2224   4.697   3.553   5.440
  442SOL    HW1 2225   4.674   3.569   5.343
  442SOL    HW2 2226   4.667   3.462   5.467
  443SOL     OW 2227   4.836   2.669   2.835
  443SOL    HW1 2228   4.921   2.627   2.868
  443SOL    HW2 2229   4.856   2.758   2.794
  444SOL     OW 2230   4.621   1.412   1.896
  444SOL    HW1 2231   4.580   1.364   1.973
  444SOL    HW2 2232   4.694   1.472   1.930
  445SOL     OW 2233   1.511   4.804   3.002
  445SOL    HW1 2234   1.584   4.827   2.938
  445SOL    HW2 2235   1.422   4.808   2.956
  446SOL     OW 2236   6.352   6.802   1.199
  446SOL    HW1 2237   6.329   6.725   1.259
  446SOL    HW2 2238   6.289   6.802   1.121
  447SOL     OW 2239   5.810   3.989   0.779
  447SOL    HW1 2240   5.837   4.065   0.839
  447SOL    HW2 2241   5.731   3.941   0.818
  448SOL     OW 2242   3.885   6.831   3.983
  448SOL    HW1 2243   3.834   6.745   3.980
  448SOL    HW2 2244   3.983   6.812   3.978
  449SOL     OW 2245   1.677   4.118   4.448
  449SOL    HW1 2246   1.648   4.089   4.539
  449SOL    HW2 2247   1.776   4.111   4.440
  450SOL     OW 2248   6.612   4.592   3.300
  450SOL    HW1 2249   6.584   4.517   3.360
  450SOL    HW2 2250   6.693   4.636   3.336
  451SOL     OW 2251   1.066   2.148   0.537
  451SOL    HW1 2252   1.003   2.127   0.463
  451SOL    HW2 2253   1.130   2.072   0.548
  452SOL     OW 2254   4.754   5.228   3.069
  452SOL    HW1 2255   4.836   5.221   3.126
  452SOL    HW2 2256   4.672   5.219   3.126
  453SOL     OW 2257   3.921   1.287   0.086
  453SOL    HW1 2258   3.993   1.309   0.019
  453SOL    HW2 2259   3.842   1.346   0.070
  454SOL     OW 2260   0.165   3.464   5.141
  454SOL    HW1 2261   0.114   3.542   5.106
  454SOL    HW2 2262   0.109   3.381   5.134
  455SOL     OW 2263   5.266   5.296   6.234
  455SOL    HW1 2264   5.290   5.379   6.185
  455SOL    HW2 2265   5.168   5.277   6.223
  456SOL     OW 2266   2.872   0.973   2.642
  456SOL    HW1 2267   2.825   1.043   2.697
  456SOL    HW2 2268   2.936   0.923   2.701
  457SOL     OW 2269   2.363   6.963   6.934
  457SOL    HW1 2270   2.271   6.982   6.969
  457SOL    HW2 2271   2.429   6.968   7.010
  458SOL     OW 2272   3.758   1.546   2.626
  458SOL    HW1 2273   3.694   1.539   2.549
  458SOL    HW2 2274   3.836   1.486   2.611
  459SOL     OW 2275   3.259   0.684   3.559
  459SOL    HW1 2276   3.198   0.760   3.534
  459SOL    HW2 2277   3.242   0.607   3.498
  460SOL     OW 2278   0.507   1.357   6.619
  460SOL    HW1 2279   0.586   1.296   6.615
  460SOL    HW2 2280   0.527   1.433   6.681
  461SOL     OW 2281   1.118   5.821   5.585
  461SOL    HW1 2282   1.176   5.741   5.597
  461SOL    HW2 2283   1.022   5.793   5.582
  462SOL     OW 2284   3.205   4.044   4.552
  462SOL    HW1 2285   3.123   4.057   4.608
  462SOL    HW2 2286   3.268   3.983   4.600
  463SOL     OW 2287   5.228   6.002   4.022
  463SOL    HW1 2288   5.309   6.003   4.081
  463SOL    HW2 2289   5.146   5.996   4.078
  464SOL     OW 2290   4.656   5.466   5.944
  464SOL    HW1 2291   4.734   5.512   5.986
  464SOL    HW2 2292   4.684   5.427   5.857
  465SOL     OW 2293   0.738   4.169   0.318
  465SOL    HW1 2294   0.692   4.214   0.241
  465SOL    HW2 2295   0.826   4.214   0.336
  466SOL     OW 2296   4.142   5.137   4.457
  466SOL    HW1 2297   4.174   5.043   4.471
  466SOL    HW2 2298   4.144   5.158   4.359
  467SOL     OW 2299   6.189   0.253   2.475
  467SOL    HW1 2300   6.228   0.306   2.550
  467SOL    HW2 2301   6.091   0.239   2.492
  468SOL     OW 2302   2.541   6.125   6.180
  468SOL    HW1 2303   2.505   6.152   6.090
  468SOL    HW2 2304   2.468   6.132   6.248
  469SOL     OW 2305   2.950   4.856   4.814
  469SOL    HW1 2306   3.031   4.867   4.871
  469SOL    HW2 2307   2.913   4.764   4.826
  470SOL     OW 2308   2.171   4.873   2.571
  470SOL    HW1 2309   2.085   4.823   2.570
  470SOL    HW2 2310   2.153   4.971   2.559
  471SOL     OW 2311   1.587   2.204   4.050
  471SOL    HW1 2312   1.544   2.292   4.072
  471SOL    HW2 2313   1.686   2.216   4.044
  472SOL     OW 2314   5.455   3.907   6.676
  472SOL    HW1 2315   5.487   3.813   6.680
  472SOL    HW2 2316   5.482   3.948   6.589
  473SOL     OW 2317   5.647   3.512   2.567
  473SOL    HW1 2318   5.627   3.415   2.553
  473SOL    HW2 2319   5.639   3.534   2.664
  474SOL     OW 2320   4.614   5.679   4.415
  474SOL    HW1 2321   4.557   5.609   4.373
  474SOL    HW2 2322   4.555   5.745   4.463
  475SOL     OW 2323   5.857   1.630   0.575
  475SOL    HW1 2324   5.939   1.655   0.524
  475SOL    HW2 2325   5.776   1.644   0.517
  476SOL     OW 2326   1.415   3.881   6.759
  476SOL    HW1 2327   1.372   3.929   6.683
  476SOL    HW2 2328   1.390   3.785   6.758
  477SOL     OW 2329   1.050   4.929   3.197
  477SOL    HW1 2330   1.064   4.866   3.273
  477SOL    HW2 2331   0.959   4.914   3.157
  478SOL     OW 2332   5.708   5.920   3.216
  478SOL    HW1 2333   5.691   6.018   3.214
  478SOL    HW2 2334   5.620   5.871   3.209
  479SOL     OW 2335   3.051   3.955   2.862
  479SOL    HW1 2336   3.095   3.987   2.946
  479SOL    HW2 2337   3.020   3.861   2.874
  480SOL     OW 2338   1.089   0.411   2.675
  480SOL    HW1 2339   1.079   0.509   2.691
  480SOL    HW2 2340   1.004   0.374   2.636
  481SOL     OW 2341   6.726   0.249   1.188
  481SOL    HW1 2342   6.709   0.247   1.090
  481SOL    HW2 2343   6.759   0.160   1.219
  482SOL     OW 2344   4.201   5.011   2.740
  482SOL    HW1 2345   4.235   5.098   2.704
  482SOL    HW2 2346   4.159   4.958   2.666
  483SOL     OW 2347   5.910   1.937   4.074
  483SOL    HW1 2348   5.934   1.843   4.099
  483SOL    HW2 2349   5.831   1.936   4.014
  484SOL     OW 2350   2.098   5.141   3.440
  484SOL    HW1 2351   2.007   5.099   3.439
  484SOL    HW2 2352   2.105   5.203   3.518
  485SOL     OW 2353   5.567   2.150   1.593
  485SOL    HW1 2354   5.658   2.192   1.597
  485SOL    HW2 2355   5.512   2.181   1.670
  486SOL     OW 2356   5.995   6.470   5.817
  486SOL    HW1 2357   6.010   6.567   5.798
  486SOL    HW2 2358   6.077   6.432   5.862
  487SOL     OW 2359   0.475   0.452   6.738
  487SOL    HW1 2360   0.466   0.549   6.761
  487SOL    HW2 2361   0.418   0.432   6.657
  488SOL     OW 2362   1.986   5.798   3.163
  488SOL    HW1 2363   1.977   5.888   3.205
  488SOL    HW2 2364   2.074   5.792   3.115
  489SOL     OW 2365   1.942   5.929   5.553
  489SOL    HW1 2366   1.886   5.854   5.586
  489SOL    HW2 2367   1.957   5.995   5.627
  490SOL     OW 2368   1.113   3.456   4.681
  490SOL    HW1 2369   1.085   3.401   4.760
  490SOL    HW2 2370   1.208   3.436   4.658
  491SOL     OW 2371   6.317   2.657   0.891
  491SOL    HW1 2372   6.279   2.711   0.966
  491SOL    HW2 2373   6.297   2.702   0.803
  492SOL     OW 2374   1.445   3.087   5.324
  492SOL    HW1 2375   1.400   3.079   5.235
  492SOL    HW2 2376   1.539   3.054   5.317
  493SOL     OW 2377   1.605   5.206   4.401
  493SOL    HW1 2378   1.604   5.230   4.304
  493SOL    HW2 2379   1.515   5.172   4.428
  494SOL     OW 2380   2.501   0.625   4.059
  494SOL    HW1 2381   2.473   0.548   4.116
  494SOL    HW2 2382   2.600   0.625   4.049
  495SOL     OW 2383   3.505   4.197   6.571
  495SOL    HW1 2384   3.509   4.123   6.504
  495SOL    HW2 2385   3.430   4.259   6.546
  496SOL     OW 2386   5.438   1.211   3.266
  496SOL    HW1 2387   5.501   1.286   3.286
  496SOL    HW2 2388   5.474   1.126   3.305
  497SOL     OW 2389   4.787   1.911   0.573
  497SOL    HW1 2390   4.731   1.893   0.492
  497SOL    HW2 2391   4.747   1.986   0.626
  498SOL     OW 2392   0.403   0.795   1.239
  498SOL    HW1 2393   0.304   0.783   1.247
  498SOL    HW2 2394   0.424   0.833   1.149
  499SOL     OW 2395   3.125   6.187   0.397
  499SOL    HW1 2396   3.050   6.148   0.450
  499SOL    HW2 2397   3.206   6.198   0.455
  500SOL     OW 2398   5.405   1.658   6.650
  500SOL    HW1 2399   5.489   1.621   6.612
  500SOL    HW2 2400   5.395   1.754   6.622
  501SOL     OW 2401   1.390   1.190   5.267
  501SOL    HW1 2402   1.344   1.263   5.216
  501SOL    HW2 2403   1.486   1.185   5.239
  502SOL     OW 2404   2.516   4.518   6.825
  502SOL    HW1 2405   2.510   4.500   6.726
  502SOL    HW2 2406   2.572   4.446   6.867
  503SOL     OW 2407   3.504   5.701   0.980
  503SOL    HW1 2408   3.586   5.687   0.926
  503SOL    HW2 2409   3.470   5.612   1.013
  504SOL     OW 2410   6.866   6.277   1.627
  504SOL    HW1 2411   6.899   6.338   1.700
  504SOL    HW2 2412   6.865   6.327   1.540
  505SOL     OW 2413   5.834   4.985   5.202
  505SOL    HW1 2414   5.775   4.928   5.145
  505SOL    HW2 2415   5.794   4.993   5.293
  506SOL     OW 2416   3.472   4.981   3.494
  506SOL    HW1 2417   3.534   5.003   3.419
  506SOL    HW2 2418   3.381   4.963   3.458
  507SOL     OW 2419   2.973   0.933   1.477
  507SOL    HW1 2420   2.924   0.871   1.416
  507SOL    HW2 2421   2.908   0.998   1.517
  508SOL     OW 2422   0.444   4.471   3.233
  508SOL    HW1 2423   0.423   4.420   3.317
  508SOL    HW2 2424   0.467   4.566   3.257
  509SOL     OW 2425   4.115   6.850   6.064
  509SOL    HW1 2426   4.189   6.796   6.104
  509SOL    HW2 2427   4.089   6.812   5.976
  510SOL     OW 2428   6.520   3.975   0.001
  510SOL    HW1 2429   6.609   3.929   0.001
  510SOL    HW2 2430   6.503   4.015   6.933
  511SOL     OW 2431   0.592   1.414   0.398
  511SOL    HW1 2432   0.647   1.463   0.466
  511SOL    HW2 2433   0.631   1.322   0.385
  512SOL     OW 2434   0.039   2.501   3.842
  512SOL    HW1 2435   0.079   2.559   3.914
  512SOL    HW2 2436   0.049   2.547   3.754
  513SOL     OW 2437   5.232   0.345   3.414
  513SOL    HW1 2438   5.253   0.384   3.324
  513SOL    HW2 2439   5.279   0.257   3.424
  514SOL     OW 2440   4.858   0.986   5.336
  514SOL    HW1 2441   4.760   0.993   5.352
  514SOL    HW2 2442   4.879   1.014   5.242
  515SOL     OW 2443   3.640   0.367   0.190
  515SOL    HW1 2444   3.653   0.269   0.173
  515SOL    HW2 2445   3.603   0.380   0.282
  516SOL     OW 2446   2.188   6.355   2.409
  516SOL    HW1 2447   2.256   6.424   2.434
  516SOL    HW2 2448   2.227   6.264   2.418
  517SOL     OW 2449   3.243   5.341   1.696
  517SOL    HW1 2450   3.267   5.275   1.624
  517SOL    HW2 2451   3.307   5.418   1.693
  518SOL     OW 2452   2.049   5.097   4.290
  518SOL    HW1 2453   2.004   5.156   4.223
  518SOL    HW2 2454   2.126   5.146   4.330
  519SOL     OW 2455   0.082   6.720   2.124
  519SOL    HW1 2456   0.100   6.779   2.202
  519SOL    HW2 2457   0.030   6.770   2.055
  520SOL     OW 2458   2.401   4.689   0.600
  520SOL    HW1 2459   2.457   4.763   0.636
  520SOL    HW2 2460   2.319   4.678   0.656
  521SOL     OW 2461   6.609   5.944   5.180
  521SOL    HW1 2462   6.609   5.895   5.267
  521SOL    HW2 2463   6.553   5.893   5.114
  522SOL     OW 2464   3.797   4.135   0.067
  522SOL    HW1 2465   3.804   4.228   0.104
  522SOL    HW2 2466   3.885   4.090   0.075
  523SOL     OW 2467   1.332   6.866   6.986
  523SOL    HW1 2468   1.428   6.865   6.957
  523SOL    HW2 2469   1.273   6.868   6.905
  524SOL     OW 2470   6.821   1.512   0.684
  524SOL    HW1 2471   6.917   1.532   0.705
  524SOL    HW2 2472   6.814   1.479   0.590
  525SOL     OW 2473   0.878   2.918   3.894
  525SOL    HW1 2474   0.970   2.958   3.890
  525SOL    HW2 2475   0.885   2.819   3.883
  526SOL     OW 2476   4.357   0.008   4.115
  526SOL    HW1 2477   4.440   7.008   4.166
  526SOL    HW2 2478   4.381   0.024   4.019
  527SOL     OW 2479   0.566   1.655   0.940
  527SOL    HW1 2480   0.539   1.740   0.985
  527SOL    HW2 2481   0.552   1.578   1.002
  528SOL     OW 2482   6.902   2.722   4.620
  528SOL    HW1 2483   6.805   2.701   4.605
  528SOL    HW2 2484   6.915   2.750   4.715
  529SOL     OW 2485   1.918   6.976   6.852
  529SOL    HW1 2486   1.818   6.974   6.854
  529SOL    HW2 2487   1.951   0.006   6.931
  530SOL     OW 2488   3.634   4.835   1.451
  530SOL    HW1 2489   3.660   4.822   1.546
  530SOL    HW2 2490   3.538   4.862   1.447
  531SOL     OW 2491   1.487   0.058   0.372
  531SOL    HW1 2492   1.531   0.128   0.428
  531SOL    HW2 2493   1.536   0.049   0.285
  532SOL     OW 2494   1.561   1.815   5.649
  532SOL    HW1 2495   1.534   1.721   5.628
  532SOL    HW2 2496   1.508   1.849   5.726
  533SOL     OW 2497   3.997   0.656   3.827
  533SOL    HW1 2498   4.052   0.573   3.817
  533SOL    HW2 2499   3.910   0.634   3.870
  534SOL     OW 2500   1.811   4.193   1.882
  534SOL    HW1 2501   1.885   4.127   1.866
  534SOL    HW2 2502   1.782   4.187   1.978
  535SOL     OW 2503   5.041   3.356   4.433
  535SOL    HW1 2504   4.989   3.362   4.348
  535SOL    HW2 2505   4.977   3.354   4.510
  536SOL     OW 2506   6.392   6.678   1.797
  536SOL    HW1 2507   6.396   6.601   1.734
  536SOL    HW2 2508   6.483   6.719   1.804
  537SOL     OW 2509   2.784   1.937   2.504
  537SOL    HW1 2510   2.861   2.002   2.499
  537SOL    HW2 2511   2.800   1.862   2.440
  538SOL     OW 2512   3.566   5.299   4.786
  538SOL    HW1 2513   3.556   5.212   4.738
  538SOL    HW2 2514   3.582   5.373   4.721
  539SOL     OW 2515   1.795   0.276   6.571
  539SOL    HW1 2516   1.794   0.203   6.502
  539SOL    HW2 2517   1.792   0.365   6.525
  540SOL     OW 2518   1.754   0.655   4.782
  540SOL    HW1 2519   1.716   0.746   4.768
  540SOL    HW2 2520   1.711   0.613   4.861
  541SOL     OW 2521   4.981   5.907   4.120
  541SOL    HW1 2522   5.019   5.872   4.034
  541SOL    HW2 2523   4.881   5.898   4.118
  542SOL     OW 2524   3.716   6.506   5.900
  542SOL    HW1 2525   3.810   6.482   5.925
  542SOL    HW2 2526   3.657   6.499   5.980
  543SOL     OW 2527   6.287   2.192   3.516
  543SOL    HW1 2528   6.253   2.235   3.599
  543SOL    HW2 2529   6.314   2.098   3.536
  544SOL     OW 2530   1.456   2.830   1.618
  544SOL    HW1 2531   1.512   2.900   1.663
  544SOL    HW2 2532   1.437   2.859   1.524
  545SOL     OW 2533   6.625   6.335   0.860
  545SOL    HW1 2534   6.559   6.363   0.930
  545SOL    HW2 2535   6.618   6.236   0.846
  546SOL     OW 2536   0.283   3.976   1.787
  546SOL    HW1 2537   0.307   3.975   1.690
  546SOL    HW2 2538   0.350   4.031   1.837
  547SOL     OW 2539   5.131   0.131   6.374
  547SOL    HW1 2540   5.097   0.133   6.280
  547SOL    HW2 2541   5.096   0.211   6.424
  548SOL     OW 2542   3.602   2.708   6.921
  548SOL    HW1 2543   3.692   2.692   6.962
  548SOL    HW2 2544   3.576   2.804   6.934
  549SOL     OW 2545   5.582   1.335   2.155
  549SOL    HW1 2546   5.624   1.337   2.065
  549SOL    HW2 2547   5.550   1.427   2.179
  550SOL     OW 2548   6.941   6.026   3.014
  550SOL    HW1 2549   6.943   6.049   3.112
  550SOL    HW2 2550   6.855   6.057   2.975
  551SOL     OW 2551   6.110   0.507   0.812
  551SOL    HW1 2552   6.010   0.505   0.811
  551SOL    HW2 2553   6.142   0.555   0.894
  552SOL     OW 2554   0.594   6.689   5.310
  552SOL    HW1 2555   0.567   6.604   5.356
  552SOL    HW2 2556   0.522   6.757   5.321
  553SOL     OW 2557   3.650   1.899   6.795
  553SOL    HW1 2558   3.685   1.987   6.763
  553SOL    HW2 2559   3.671   1.888   6.892
  554SOL     OW 2560   6.461   6.081   0.844
  554SOL    HW1 2561   6.408   6.100   0.926
  554SOL    HW2 2562   6.427   5.998   0.801
  555SOL     OW 2563   2.237   3.823   5.302
  555SOL    HW1 2564   2.187   3.758   5.245
  555SOL    HW2 2565   2.302   3.874   5.244
  556SOL     OW 2566   5.649   0.121   3.671
  556SOL    HW1 2567   5.717   0.183   3.631
  556SOL    HW2 2568   5.676   0.027   3.652
  557SOL     OW 2569   5.629   4.427   6.612
  557SOL    HW1 2570   5.676   4.468   6.534
  557SOL    HW2 2571   5.601   4.334   6.589
  558SOL     OW 2572   3.178   3.549   2.808
  558SOL    HW1 2573   3.089   3.593   2.794
  558SOL    HW2 2574   3.185   3.468   2.750
  559SOL     OW 2575   6.672   0.623   5.939
  559SOL    HW1 2576   6.759   0.632   5.890
  559SOL    HW2 2577   6.639   0.529   5.931
  560SOL     OW 2578   6.831   3.222   4.380
  560SOL    HW1 2579   6.878   3.136   4.360
  560SOL    HW2 2580   6.754   3.234   4.317
  561SOL     OW 2581   0.795   3.129   0.668
  561SOL    HW1 2582   0.849   3.052   0.700
  561SOL    HW2 2583   0.845   3.214   0.685
  562SOL     OW 2584   4.465   6.455   4.471
  562SOL    HW1 2585   4.369   6.455   4.445
  562SOL    HW2 2586   4.472   6.441   4.570
  563SOL     OW 2587   1.750   0.777   4.050
  563SOL    HW1 2588   1.754   0.861   3.995
  563SOL    HW2 2589   1.669   0.725   4.024
  564SOL     OW 2590   5.934   2.056   6.503
  564SOL    HW1 2591   5.872   2.115   6.555
  564SOL    HW2 2592   5.981   1.995   6.566
  565SOL     OW 2593   3.824   3.580   3.253
  565SOL    HW1 2594   3.828   3.564   3.351
  565SOL    HW2 2595   3.837   3.494   3.204
  566SOL     OW 2596   3.105   1.043   3.736
  566SOL    HW1 2597   3.076   1.020   3.643
  566SOL    HW2 2598   3.044   1.114   3.773
  567SOL     OW 2599   2.904   2.927   5.668
  567SOL    HW1 2600   2.810   2.893   5.673
  567SOL    HW2 2601   2.913   3.009   5.725
  568SOL     OW 2602   0.793   6.171   0.443
  568SOL    HW1 2603   0.853   6.100   0.481
  568SOL    HW2 2604   0.846   6.234   0.387
  569SOL     OW 2605   6.268   3.580   6.970
  569SOL    HW1 2606   6.177   3.542   6.989
  569SOL    HW2 2607   6.277   3.668   7.017
  570SOL     OW 2608   2.996   0.752   5.962
  570SOL    HW1 2609   3.051   0.737   6.044
  570SOL    HW2 2610   2.973   0.664   5.920
  571SOL     OW 2611   2.251   4.409   1.526
  571SOL    HW1 2612   2.285   4.327   1.572
  571SOL    HW2 2613   2.327   4.454   1.479
  572SOL     OW 2614   2.662   0.808   4.917
  572SOL    HW1 2615   2.697   0.895   4.881
  572SOL    HW2 2616   2.696   0.795   5.011
  573SOL     OW 2617   0.443   0.936   5.537
  573SOL    HW1 2618   0.406   0.967   5.449
  573SOL    HW2 2619   0.393   0.981   5.612
  574SOL     OW 2620   2.036   1.397   6.171
  574SOL    HW1 2621   2.009   1.490   6.195
  574SOL    HW2 2622   1.967   1.357   6.110
  575SOL     OW 2623   4.038   3.926   0.209
  575SOL    HW1 2624   4.107   3.900   0.277
  575SOL    HW2 2625   4.079   3.989   0.142
  576SOL     OW 2626   2.229   1.935   2.728
  576SOL    HW1 2627   2.251   1.893   2.640
  576SOL    HW2 2628   2.174   2.017   2.713
  577SOL     OW 2629   0.694   1.287   1.435
  577SOL    HW1 2630   0.773   1.289   1.497
  577SOL    HW2 2631   0.649   1.198   1.440
  578SOL     OW 2632   3.672   0.129   6.886
  578SOL    HW1 2633   3.686   0.038   6.848
  578SOL    HW2 2634   3.757   0.182   6.880
  579SOL     OW 2635   1.868   3.795   1.675
  579SOL    HW1 2636   1.954   3.817   1.629
  579SOL    HW2 2637   1.872   3.825   1.770
  580SOL     OW 2638   4.913   5.175   4.817
  580SOL    HW1 2639   5.000   5.180   4.768
  580SOL    HW2 2640   4.857   5.255   4.795
  581SOL     OW 2641   2.269   2.526   5.185
  581SOL    HW1 2642   2.207   2.479   5.122
  581SOL    HW2 2643   2.304   2.460   5.252
  582SOL     OW 2644   5.096   4.727   4.118
  582SOL    HW1 2645   5.006   4.688   4.134
  582SOL    HW2 2646   5.123   4.784   4.195
  583SOL     OW 2647   3.829   6.116   5.809
  583SOL    HW1 2648   3.742   6.136   5.763
  583SOL    HW2 2649   3.900   6.177   5.774
  584SOL     OW 2650   3.732   0.864   5.632
  584SOL    HW1 2651   3.695   0.957   5.620
  584SOL    HW2 2652   3.723   0.838   5.728
  585SOL     OW 2653   3.832   0.245   1.166
  585SOL    HW1 2654   3.817   0.155   1.126
  585SOL    HW2 2655   3.761   0.265   1.233
  586SOL     OW 2656   3.803   0.326   0.472
  586SOL    HW1 2657   3.869   0.265   0.427
  586SOL    HW2 2658   3.712   0.311   0.434
  587SOL     OW 2659   5.089   1.649   2.037
  587SOL    HW1 2660   5.077   1.748   2.024
  587SOL    HW2 2661   5.173   1.632   2.088
  588SOL     OW 2662   1.593   4.572   3.100
  588SOL    HW1 2663   1.577   4.665   3.066
  588SOL    HW2 2664   1.511   4.539   3.147
  589SOL     OW 2665   3.064   5.379   0.446
  589SOL    HW1 2666   2.969   5.388   0.415
  589SOL    HW2 2667   3.067   5.375   0.545
  590SOL     OW 2668   3.044   2.371   0.098
  590SOL    HW1 2669   2.983   2.367   0.018
  590SOL    HW2 2670   3.101   2.289   0.101
  591SOL     OW 2671   2.970   6.052   3.807
  591SOL    HW1 2672   3.048   5.990   3.812
  591SOL    HW2 2673   2.920   6.037   3.722
  592SOL     OW 2674   3.913   1.912   4.636
  592SOL    HW1 2675   3.881   1.833   4.689
  592SOL    HW2 2676   3.836   1.952   4.586
  593SOL     OW 2677   1.797   1.854   6.892
  593SOL    HW1 2678   1.858   1.824   6.965
  593SOL    HW2 2679   1.844   1.922   6.835
  594SOL     OW 2680   4.518   0.771   2.734
  594SOL    HW1 2681   4.521   0.805   2.828
  594SOL    HW2 2682   4.547   0.844   2.672
  595SOL     OW 2683   6.298   5.641   2.900
  595SOL    HW1 2684   6.292   5.725   2.954
  595SOL    HW2 2685   6.231   5.575   2.935
  596SOL     OW 2686   6.578   4.941   4.173
  596SOL    HW1 2687   6.505   5.009   4.170
  596SOL    HW2 2688   6.590   4.901   4.083
  597SOL     OW 2689   3.167   1.252   6.782
  597SOL    HW1 2690   3.242   1.205   6.736
  597SOL    HW2 2691   3.137   1.199   6.861
  598SOL     OW 2692   3.259   4.124   3.919
  598SOL    HW1 2693   3.216   4.055   3.978
  598SOL    HW2 2694   3.274   4.207   3.972
  599SOL     OW 2695   1.671   5.503   1.522
  599SOL    HW1 2696   1.652   5.601   1.512
  599SOL    HW2 2697   1.755   5.491   1.575
  600SOL     OW 2698   6.585   3.501   5.222
  600SOL    HW1 2699   6.542   3.510   5.312
  600SOL    HW2 2700   6.533   3.435   5.167
  601SOL     OW 2701   0.582   6.408   5.837
  601SOL    HW1 2702   0.669   6.454   5.855
  601SOL    HW2 2703   0.555   6.424   5.742
  602SOL     OW 2704   1.661   0.123   3.543
  602SOL    HW1 2705   1.613   0.046   3.501
  602SOL    HW2 2706   1.760   0.108   3.537
  603SOL     OW 2707   1.788   1.650   4.333
  603SOL    HW1 2708   1.887   1.639   4.317
  603SOL    HW2 2709   1.745   1.684   4.250
  604SOL     OW 2710   5.984   3.297   1.020
  604SOL    HW1 2711   5.960   3.362   0.947
  604SOL    HW2 2712   5.906   3.238   1.039
  605SOL     OW 2713   6.546   5.962   1.285
  605SOL    HW1 2714   6.571   5.971   1.381
  605SOL    HW2 2715   6.621   5.994   1.227
  606SOL     OW 2716   3.503   6.729   4.898
  606SOL    HW1 2717   3.506   6.629   4.894
  606SOL    HW2 2718   3.585   6.767   4.856
  607SOL     OW 2719   1.858   3.058   5.604
  607SOL    HW1 2720   1.914   3.130   5.564
  607SOL    HW2 2721   1.914   3.000   5.662
  608SOL     OW 2722   2.949   1.490   6.045
  608SOL    HW1 2723   3.027   1.514   6.103
  608SOL    HW2 2724   2.983   1.442   5.964
  609SOL     OW 2725   3.429   2.903   2.246
  609SOL    HW1 2726   3.415   2.873   2.151
  609SOL    HW2 2727   3.518   2.872   2.279
  610SOL     OW 2728   4.514   3.552   1.597
  610SOL    HW1 2729   4.526   3.466   1.646
  610SOL    HW2 2730   4.416   3.573   1.591
  611SOL     OW 2731   3.703   0.946   3.173
  611SOL    HW1 2732   3.663   0.908   3.256
  611SOL    HW2 2733   3.644   1.018   3.137
  612SOL     OW 2734   4.416   5.039   4.160
  612SOL    HW1 2735   4.458   5.022   4.249
  612SOL    HW2 2736   4.475   5.099   4.107
  613SOL     OW 2737   4.174   4.526   5.343
  613SOL    HW1 2738   4.086   4.492   5.377
  613SOL    HW2 2739   4.195   4.481   5.257
  614SOL     OW 2740   2.757   6.344   6.568
  614SOL    HW1 2741   2.814   6.294   6.633
  614SOL    HW2 2742   2.661   6.326   6.585
  615SOL     OW 2743   0.499   4.921   2.637
  615SOL    HW1 2744   0.518   5.016   2.662
  615SOL    HW2 2745   0.421   4.888   2.690
  616SOL     OW 2746   6.071   2.665   3.703
  616SOL    HW1 2747   6.153   2.643   3.650
  616SOL    HW2 2748   6.014   2.583   3.712
  617SOL     OW 2749   2.940   6.638   5.846
  617SOL    HW1 2750   2.861   6.685   5.887
  617SOL    HW2 2751   2.959   6.555   5.898
  618SOL     OW 2752   1.793   1.380   2.826
  618SOL    HW1 2753   1.699   1.350   2.810
  618SOL    HW2 2754   1.856   1.313   2.787
  619SOL     OW 2755   0.812   1.797   6.817
  619SOL    HW1 2756   0.788   1.894   6.812
  619SOL    HW2 2757   0.825   1.761   6.724
  620SOL     OW 2758   4.218   3.644   1.205
  620SOL    HW1 2759   4.240   3.700   1.285
  620SOL    HW2 2760   4.303   3.611   1.163
  621SOL     OW 2761   0.223   5.510   1.083
  621SOL    HW1 2762   0.311   5.535   1.042
  621SOL    HW2 2763   0.209   5.412   1.075
  622SOL     OW 2764   0.928   0.663   6.848
  622SOL    HW1 2765   0.845   0.646   6.903
  622SOL    HW2 2766   0.996   0.593   6.869
  623SOL     OW 2767   0.405   4.668   5.925
  623SOL    HW1 2768   0.437   4.634   6.014
  623SOL    HW2 2769   0.412   4.595   5.857
  624SOL     OW 2770   1.181   1.956   0.888
  624SOL    HW1 2771   1.196   2.054   0.906
  624SOL    HW2 2772   1.199   1.904   0.971
  625SOL     OW 2773   1.475   1.346   2.512
  625SOL    HW1 2774   1.492   1.444   2.504
  625SOL    HW2 2775   1.441   1.310   2.425
  626SOL     OW 2776   3.323   6.815   4.671
  626SOL    HW1 2777   3.268   6.896   4.653
  626SOL    HW2 2778   3.353   6.816   4.767
  627SOL     OW 2779   5.530   0.920   7.010
  627SOL    HW1 2780   5.605   0.985   6.997
  627SOL    HW2 2781   5.445   0.970   0.000
  628SOL     OW 2782   5.405   3.845   3.395
  628SOL    HW1 2783   5.360   3.794   3.321
  628SOL    HW2 2784   5.438   3.781   3.464
  629SOL     OW 2785   1.487   6.590   0.561
  629SOL    HW1 2786   1.417   6.632   0.502
  629SOL    HW2 2787   1.534   6.662   0.613
  630SOL     OW 2788   3.028   1.940   1.535
  630SOL    HW1 2789   2.950   1.937   1.473
  630SOL    HW2 2790   3.108   1.976   1.486
  631SOL     OW 2791   2.418   6.923   4.666
  631SOL    HW1 2792   2.516   6.913   4.648
  631SOL    HW2 2793   2.367   6.857   4.610
  632SOL     OW 2794   2.406   0.485   1.028
  632SOL    HW1 2795   2.502   0.501   1.002
  632SOL    HW2 2796   2.373   0.563   1.081
  633SOL     OW 2797   2.336   6.461   5.662
  633SOL    HW1 2798   2.381   6.438   5.576
  633SOL    HW2 2799   2.314   6.558   5.664
  634SOL     OW 2800   2.968   5.807   1.674
  634SOL    HW1 2801   3.025   5.852   1.743
  634SOL    HW2 2802   3.004   5.715   1.656
  635SOL     OW 2803   2.671   0.624   2.665
  635SOL    HW1 2804   2.704   0.699   2.723
  635SOL    HW2 2805   2.598   0.575   2.713
  636SOL     OW 2806   4.995   5.664   0.164
  636SOL    HW1 2807   5.054   5.736   0.127
  636SOL    HW2 2808   5.050   5.585   0.190
  637SOL     OW 2809   5.426   4.522   0.536
  637SOL    HW1 2810   5.403   4.443   0.479
  637SOL    HW2 2811   5.372   4.601   0.507
  638SOL     OW 2812   5.486   1.153   2.467
  638SOL    HW1 2813   5.583   1.139   2.487
  638SOL    HW2 2814   5.473   1.160   2.368
  639SOL     OW 2815   4.802   4.334   2.615
  639SOL    HW1 2816   4.835   4.256   2.668
  639SOL    HW2 2817   4.811   4.315   2.518
  640SOL     OW 2818   2.502   4.138   5.574
  640SOL    HW1 2819   2.533   4.218   5.521
  640SOL    HW2 2820   2.513   4.056   5.519
  641SOL     OW 2821   0.251   6.009   5.962
  641SOL    HW1 2822   0.186   6.012   6.038
  641SOL    HW2 2823   0.206   5.970   5.881
  642SOL     OW 2824   1.218   4.437   5.891
  642SOL    HW1 2825   1.298   4.429   5.832
  642SOL    HW2 2826   1.138   4.462   5.835
  643SOL     OW 2827   6.319   5.952   4.952
  643SOL    HW1 2828   6.352   5.860   4.974
  643SOL    HW2 2829   6.291   5.998   5.036
  644SOL     OW 2830   2.637   5.620   2.026
  644SOL    HW1 2831   2.604   5.559   2.098
  644SOL    HW2 2832   2.584   5.705   2.029
  645SOL     OW 2833   6.231   3.249   3.250
  645SOL    HW1 2834   6.185   3.200   3.177
  645SOL    HW2 2835   6.180   3.333   3.271
  646SOL     OW 2836   1.653   2.028   4.497
  646SOL    HW1 2837   1.614   2.118   4.475
  646SOL    HW2 2838   1.694   2.031   4.589
  647SOL     OW 2839   5.556   3.159   0.192
  647SOL    HW1 2840   5.636   3.147   0.133
  647SOL    HW2 2841   5.586   3.165   0.287
  648SOL     OW 2842   4.786   1.966   3.901
  648SOL    HW1 2843   4.754   1.964   3.806
  648SOL    HW2 2844   4.738   2.038   3.950
  649SOL     OW 2845   4.399   4.543   1.890
  649SOL    HW1 2846   4.419   4.445   1.896
  649SOL    HW2 2847   4.413   4.586   1.980
  650SOL     OW 2848   5.043   3.339   0.894
  650SOL    HW1 2849   5.109   3.368   0.963
  650SOL    HW2 2850   5.090   3.291   0.820
  651SOL     OW 2851   0.809   5.973   6.409
  651SOL    HW1 2852   0.835   5.915   6.486
  651SOL    HW2 2853   0.721   5.942   6.372
  652SOL     OW 2854   5.100   1.685   2.555
  652SOL    HW1 2855   5.145   1.596   2.557
  652SOL    HW2 2856   5.125   1.733   2.471
  653SOL     OW 2857   3.754   4.948   3.383
  653SOL    HW1 2858   3.711   4.959   3.294
  653SOL    HW2 2859   3.689   4.906   3.447
  654SOL     OW 2860   6.304   5.162   6.809
  654SOL    HW1 2861   6.282   5.233   6.876
  654SOL    HW2 2862   6.245   5.083   6.824
  655SOL     OW 2863   6.955   1.399   6.790
  655SOL    HW1 2864   6.931   1.313   6.834
  655SOL    HW2 2865   6.933   1.475   6.850
  656SOL     OW 2866   2.757   6.143   1.673
  656SOL    HW1 2867   2.807   6.077   1.617
  656SOL    HW2 2868   2.676   6.098   1.712
  657SOL     OW 2869   4.178   1.115   6.289
  657SOL    HW1 2870   4.160   1.188   6.223
  657SOL    HW2 2871   4.146   1.028   6.253
  658SOL     OW 2872   3.586   4.992   5.663
  658SOL    HW1 2873   3.502   5.002   5.610
  658SOL    HW2 2874   3.611   4.895   5.670
  659SOL     OW 2875   3.024   0.853   6.500
  659SOL    HW1 2876   3.107   0.806   6.529
  659SOL    HW2 2877   3.042   0.951   6.492
  660SOL     OW 2878   3.707   6.030   3.413
  660SOL    HW1 2879   3.710   6.083   3.328
  660SOL    HW2 2880   3.722   5.934   3.393
  661SOL     OW 2881   5.700   5.756   2.860
  661SOL    HW1 2882   5.800   5.768   2.857
  661SOL    HW2 2883   5.665   5.799   2.944
  662SOL     OW 2884   3.647   1.415   0.807
  662SOL    HW1 2885   3.680   1.369   0.889
  662SOL    HW2 2886   3.681   1.368   0.725
  663SOL     OW 2887   1.986   4.826   4.679
  663SOL    HW1 2888   1.924   4.879   4.621
  663SOL    HW2 2889   2.060   4.789   4.624
  664SOL     OW 2890   6.009   0.843   6.303
  664SOL    HW1 2891   5.964   0.932   6.302
  664SOL    HW2 2892   6.108   0.856   6.316
  665SOL     OW 2893   1.643   4.311   2.252
  665SOL    HW1 2894   1.666   4.387   2.192
  665SOL    HW2 2895   1.546   4.316   2.278
  666SOL     OW 2896   4.269   1.326   0.683
  666SOL    HW1 2897   4.286   1.317   0.585
  666SOL    HW2 2898   4.171   1.335   0.699
  667SOL     OW 2899   1.383   6.726   2.130
  667SOL    HW1 2900   1.406   6.629   2.123
  667SOL    HW2 2901   1.383   6.754   2.226
  668SOL     OW 2902   5.256   3.732   0.783
  668SOL    HW1 2903   5.326   3.778   0.730
  668SOL    HW2 2904   5.270   3.633   0.779
  669SOL     OW 2905   4.884   1.724   2.298
  669SOL    HW1 2906   4.937   1.675   2.228
  669SOL    HW2 2907   4.917   1.698   2.388
  670SOL     OW 2908   2.943   2.237   3.199
  670SOL    HW1 2909   2.857   2.287   3.199
  670SOL    HW2 2910   2.956   2.191   3.287
  671SOL     OW 2911   2.986   6.803   1.700
  671SOL    HW1 2912   2.931   6.750   1.635
  671SOL    HW2 2913   3.019   6.887   1.655
  672SOL     OW 2914   1.595   6.713   2.451
  672SOL    HW1 2915   1.577   6.615   2.464
  672SOL    HW2 2916   1.515   6.756   2.410
  673SOL     OW 2917   5.782   6.642   0.719
  673SOL    HW1 2918   5.702   6.699   0.737
  673SOL    HW2 2919   5.865   6.697   0.728
  674SOL     OW 2920   6.038   0.803   3.956
  674SOL    HW1 2921   5.982   0.886   3.962
  674SOL    HW2 2922   5.998   0.740   3.890
  675SOL     OW 2923   0.302   3.412   3.142
  675SOL    HW1 2924   0.211   3.372   3.154
  675SOL    HW2 2925   0.295   3.511   3.139
  676SOL     OW 2926   2.658   6.526   5.974
  676SOL    HW1 2927   2.679   6.449   5.914
  676SOL    HW2 2928   2.590   6.585   5.930
  677SOL     OW 2929   5.474   1.751   1.139
  677SOL    HW1 2930   5.448   1.717   1.229
  677SOL    HW2 2931   5.563   1.712   1.114
  678SOL     OW 2932   0.624   5.365   3.617
  678SOL    HW1 2933   0.693   5.336   3.550
  678SOL    HW2 2934   0.622   5.300   3.692
  679SOL     OW 2935   4.658   2.134   5.238
  679SOL    HW1 2936   4.640   2.090   5.326
  679SOL    HW2 2937   4.753   2.118   5.211
  680SOL     OW 2938   6.124   6.514   4.403
  680SOL    HW1 2939   6.116   6.471   4.314
  680SOL    HW2 2940   6.153   6.447   4.471
  681SOL     OW 2941   4.773   4.740   2.614
  681SOL    HW1 2942   4.789   4.656   2.561
  681SOL    HW2 2943   4.756   4.816   2.551
  682SOL     OW 2944   0.357   1.397   3.090
  682SOL    HW1 2945   0.440   1.347   3.117
  682SOL    HW2 2946   0.286   1.332   3.064
  683SOL     OW 2947   3.429   4.155   1.448
  683SOL    HW1 2948   3.498   4.140   1.377
  683SOL    HW2 2949   3.362   4.081   1.445
  684SOL     OW 2950   6.603   1.378   5.655
  684SOL    HW1 2951   6.572   1.293   5.613
  684SOL    HW2 2952   6.566   1.456   5.604
  685SOL     OW 2953   3.434   0.455   2.760
  685SOL    HW1 2954   3.337   0.462   2.782
  685SOL    HW2 2955   3.470   0.367   2.791
  686SOL     OW 2956   4.081   0.304   5.053
  686SOL    HW1 2957   4.046   0.356   5.130
  686SOL    HW2 2958   4.170   0.340   5.025
  687SOL     OW 2959   0.319   1.859   3.434
  687SOL    HW1 2960   0.230   1.904   3.426
  687SOL    HW2 2961   0.315   1.769   3.392
  688SOL     OW 2962   5.977   1.617   6.900
  688SOL    HW1 2963   5.887   1.574   6.904
  688SOL    HW2 2964   5.976   1.702   6.952
  689SOL     OW 2965   1.421   5.584   6.450
  689SOL    HW1 2966   1.467   5.672   6.447
  689SOL    HW2 2967   1.485   5.511   6.428
  690SOL     OW 2968   5.279   3.523   3.014
  690SOL    HW1 2969   5.249   3.428   3.023
  690SOL    HW2 2970   5.299   3.543   2.918
  691SOL     OW 2971   6.038   1.568   1.201
  691SOL    HW1 2972   5.954   1.526   1.235
  691SOL    HW2 2973   6.099   1.496   1.166
  692SOL     OW 2974   1.644   0.133   4.741
  692SOL    HW1 2975   1.620   0.228   4.722
  692SOL    HW2 2976   1.638   0.080   4.657
  693SOL     OW 2977   5.724   5.886   3.607
  693SOL    HW1 2978   5.700   5.834   3.689
  693SOL    HW2 2979   5.641   5.909   3.557
  694SOL     OW 2980   4.829   6.412   5.502
  694SOL    HW1 2981   4.849   6.500   5.544
  694SOL    HW2 2982   4.897   6.345   5.532
  695SOL     OW 2983   4.706   6.811   4.082
  695SOL    HW1 2984   4.739   6.779   3.993
  695SOL    HW2 2985   4.691   6.910   4.077
  696SOL     OW 2986   5.508   3.893   2.808
  696SOL    HW1 2987   5.498   3.971   2.869
  696SOL    HW2 2988   5.599   3.896   2.764
  697SOL     OW 2989   1.261   6.431   2.317
  697SOL    HW1 2990   1.173   6.469   2.286
  697SOL    HW2 2991   1.279   6.345   2.269
  698SOL     OW 2992   5.796   6.429   6.546
  698SOL    HW1 2993   5.768   6.448   6.640
  698SOL    HW2 2994   5.891   6.455   6.533
  699SOL     OW 2995   3.290   3.010   1.242
  699SOL    HW1 2996   3.279   3.109   1.239
  699SOL    HW2 2997   3.216   2.966   1.192
  700SOL     OW 2998   4.041   0.064   4.394
  700SOL    HW1 2999   4.098   0.076   4.475
  700SOL    HW2 3000   4.076   0.120   4.319
  701SOL     OW 3001   4.825   5.030   1.508
  701SOL    HW1 3002   4.747   5.089   1.488
  701SOL    HW2 3003   4.831   5.014   1.606
  702SOL     OW 3004   3.950   0.923   4.277
  702SOL    HW1 3005   3.965   1.006   4.223
  702SOL    HW2 3006   4.028   0.908   4.338
  703SOL     OW 3007   3.057   2.190   6.707
  703SOL    HW1 3008   3.086   2.244   6.628
  703SOL    HW2 3009   3.133   2.133   6.738
  704SOL     OW 3010   2.488   1.953   5.476
  704SOL    HW1 3011   2.569   1.993   5.518
  704SOL    HW2 3012   2.427   1.918   5.547
  705SOL     OW 3013   0.308   6.678   5.134
  705SOL    HW1 3014   0.340   6.753   5.192
  705SOL    HW2 3015   0.246   6.620   5.186
  706SOL     OW 3016   4.198   1.443   5.259
  706SOL    HW1 3017   4.186   1.369   5.325
  706SOL    HW2 3018   4.262   1.510   5.295
  707SOL     OW 3019   3.022   5.416   4.303
  707SOL    HW1 3020   2.996   5.387   4.395
  707SOL    HW2 3021   3.049   5.336   4.249
  708SOL     OW 3022   4.702   5.936   4.192
  708SOL    HW1 3023   4.610   5.928   4.231
  708SOL    HW2 3024   4.716   6.029   4.159
  709SOL     OW 3025   2.142   0.400   0.923
  709SOL    HW1 3026   2.063   0.372   0.979
  709SOL    HW2 3027   2.215   0.433   0.983
  710SOL     OW 3028   4.916   3.280   2.005
  710SOL    HW1 3029   4.847   3.207   2.003
  710SOL    HW2 3030   4.994   3.250   2.059
  711SOL     OW 3031   6.705   2.013   6.947
  711SOL    HW1 3032   6.710   2.088   6.881
  711SOL    HW2 3033   6.786   2.017   7.006
  712SOL     OW 3034   5.126   3.874   0.118
  712SOL    HW1 3035   5.114   3.972   0.100
  712SOL    HW2 3036   5.193   3.837   0.053
  713SOL     OW 3037   4.158   3.383   5.136
  713SOL    HW1 3038   4.172   3.389   5.037
  713SOL    HW2 3039   4.063   3.402   5.158
  714SOL     OW 3040   5.268   6.286   2.942
  714SOL    HW1 3041   5.201   6.277   2.868
  714SOL    HW2 3042   5.342   6.220   2.928
  715SOL     OW 3043   6.339   4.807   5.633
  715SOL    HW1 3044   6.355   4.868   5.710
  715SOL    HW2 3045   6.424   4.758   5.611
  716SOL     OW 3046   2.104   2.030   3.097
  716SOL    HW1 3047   2.042   2.025   3.175
  716SOL    HW2 3048   2.077   1.962   3.029
  717SOL     OW 3049   5.092   4.920   4.315
  717SOL    HW1 3050   5.021   4.935   4.383
  717SOL    HW2 3051   5.083   4.988   4.242
  718SOL     OW 3052   5.244   2.471   5.483
  718SOL    HW1 3053   5.246   2.563   5.444
  718SOL    HW2 3054   5.275   2.474   5.578
  719SOL     OW 3055   5.132   6.703   3.800
  719SOL    HW1 3056   5.196   6.630   3.824
  719SOL    HW2 3057   5.086   6.680   3.714
  720SOL     OW 3058   2.295   0.968   0.674
  720SOL    HW1 3059   2.211   0.918   0.655
  720SOL    HW2 3060   2.291   1.058   0.630
  721SOL     OW 3061   0.133   2.318   2.688
  721SOL    HW1 3062   0.217   2.369   2.706
  721SOL    HW2 3063   0.143   2.266   2.603
  722SOL     OW 3064   5.325   6.333   0.952
  722SOL    HW1 3065   5.374   6.414   0.922
  722SOL    HW2 3066   5.353   6.254   0.897
  723SOL     OW 3067   2.516   6.907   4.271
  723SOL    HW1 3068   2.542   7.001   4.290
  723SOL    HW2 3069   2.599   6.850   4.265
  724SOL     OW 3070   1.344   1.975   3.974
  724SOL    HW1 3071   1.397   1.958   4.057
  724SOL    HW2 3072   1.250   1.999   3.998
  725SOL     OW 3073   1.731   4.482   2.852
  725SOL    HW1 3074   1.822   4.523   2.863
  725SOL    HW2 3075   1.673   4.510   2.929
  726SOL     OW 3076   1.814   3.737   1.057
  726SOL    HW1 3077   1.910   3.710   1.051
  726SOL    HW2 3078   1.801   3.792   1.140
  727SOL     OW 3079   3.951   5.415   5.010
  727SOL    HW1 3080   3.907   5.325   5.008
  727SOL    HW2 3081   4.049   5.404   4.994
  728SOL     OW 3082   6.595   3.260   3.700
  728SOL    HW1 3083   6.640   3.186   3.749
  728SOL    HW2 3084   6.635   3.348   3.728
  729SOL     OW 3085   0.624   3.975   0.944
  729SOL    HW1 3086   0.537   3.990   0.992
  729SOL    HW2 3087   0.697   4.025   0.990
  730SOL     OW 3088   3.531   0.783   3.433
  730SOL    HW1 3089   3.455   0.718   3.438
  730SOL    HW2 3090   3.617   0.733   3.428
  731SOL     OW 3091   4.847   5.178   5.349
  731SOL    HW1 3092   4.774   5.241   5.373
  731SOL    HW2 3093   4.877   5.196   5.255
  732SOL     OW 3094   3.876   1.235   5.394
  732SOL    HW1 3095   3.805   1.305   5.408
  732SOL    HW2 3096   3.889   1.220   5.296
  733SOL     OW 3097   6.295   5.788   3.132
  733SOL    HW1 3098   6.245   5.845   3.198
  733SOL    HW2 3099   6.352   5.722   3.182
  734SOL     OW 3100   6.206   6.700   2.580
  734SOL    HW1 3101   6.176   6.678   2.487
  734SOL    HW2 3102   6.164   6.786   2.609
  735SOL     OW 3103   4.871   6.816   2.393
  735SOL    HW1 3104   4.852   6.889   2.328
  735SOL    HW2 3105   4.968   6.794   2.391
  736SOL     OW 3106   2.178   1.398   3.714
  736SOL    HW1 3107   2.187   1.316   3.658
  736SOL    HW2 3108   2.091   1.394   3.765
  737SOL     OW 3109   3.395   0.986   5.972
  737SOL    HW1 3110   3.324   0.963   6.038
  737SOL    HW2 3111   3.470   0.919   5.979
  738SOL     OW 3112   2.235   4.391   0.129
  738SOL    HW1 3113   2.253   4.460   0.199
  738SOL    HW2 3114   2.245   4.300   0.170
  739SOL     OW 3115   3.040   0.102   3.860
  739SOL    HW1 3116   3.108   0.045   3.814
  739SOL    HW2 3117   2.987   0.153   3.791
  740SOL     OW 3118   4.954   3.350   2.660
  740SOL    HW1 3119   4.896   3.286   2.610
  740SOL    HW2 3120   4.911   3.372   2.748
  741SOL     OW 3121   3.027   0.775   3.074
  741SOL    HW1 3122   2.955   0.706   3.080
  741SOL    HW2 3123   3.111   0.740   3.116
  742SOL     OW 3124   2.390   6.504   1.909
  742SOL    HW1 3125   2.457   6.537   1.843
  742SOL    HW2 3126   2.388   6.404   1.908
  743SOL     OW 3127   0.430   0.008   3.096
  743SOL    HW1 3128   0.431   0.096   3.049
  743SOL    HW2 3129   0.476   6.960   3.041
  744SOL     OW 3130   5.103   1.872   0.195
  744SOL    HW1 3131   5.100   1.782   0.238
  744SOL    HW2 3132   5.074   1.942   0.260
  745SOL     OW 3133   2.002   6.983   4.585
  745SOL    HW1 3134   2.083   0.010   4.617
  745SOL    HW2 3135   2.026   6.922   4.510
  746SOL     OW 3136   0.301   4.860   5.296
  746SOL    HW1 3137   0.341   4.770   5.276
  746SOL    HW2 3138   0.366   4.914   5.349
  747SOL     OW 3139   4.771   5.900   2.702
  747SOL    HW1 3140   4.760   5.850   2.788
  747SOL    HW2 3141   4.728   5.989   2.710
  748SOL     OW 3142   5.234   5.125   1.648
  748SOL    HW1 3143   5.297   5.202   1.635
  748SOL    HW2 3144   5.146   5.159   1.679
  749SOL     OW 3145   4.926   4.031   4.359
  749SOL    HW1 3146   4.923   4.005   4.455
  749SOL    HW2 3147   5.015   4.070   4.338
  750SOL     OW 3148   2.529   2.074   2.427
  750SOL    HW1 3149   2.474   2.070   2.511
  750SOL    HW2 3150   2.622   2.042   2.446
  751SOL     OW 3151   3.575   0.865   0.669
  751SOL    HW1 3152   3.648   0.863   0.601
  751SOL    HW2 3153   3.612   0.891   0.758
  752SOL     OW 3154   3.677   2.587   5.374
  752SOL    HW1 3155   3.759   2.529   5.369
  752SOL    HW2 3156   3.602   2.535   5.414
  753SOL     OW 3157   3.734   3.742   4.336
  753SOL    HW1 3158   3.747   3.822   4.277
  753SOL    HW2 3159   3.661   3.685   4.299
  754SOL     OW 3160   5.924   0.762   0.395
  754SOL    HW1 3161   5.935   0.673   0.352
  754SOL    HW2 3162   5.922   0.751   0.495
  755SOL     OW 3163   4.098   4.206   5.262
  755SOL    HW1 3164   4.181   4.252   5.229
  755SOL    HW2 3165   4.018   4.250   5.222
  756SOL     OW 3166   2.423   5.298   6.273
  756SOL    HW1 3167   2.350   5.234   6.249
  756SOL    HW2 3168   2.428   5.371   6.205
  757SOL     OW 3169   2.698   5.933   2.583
  757SOL    HW1 3170   2.765   5.880   2.634
  757SOL    HW2 3171   2.606   5.914   2.618
  758SOL     OW 3172   4.738   0.795   4.391
  758SOL    HW1 3173   4.791   0.712   4.377
  758SOL    HW2 3174   4.672   0.805   4.316
  759SOL     OW 3175   0.925   3.181   3.543
  759SOL    HW1 3176   0.949   3.132   3.627
  759SOL    HW2 3177   0.826   3.195   3.540
  760SOL     OW 3178   6.357   5.411   3.281
  760SOL    HW1 3179   6.372   5.390   3.185
  760SOL    HW2 3180   6.370   5.509   3.297
  761SOL     OW 3181   3.917   4.418   6.123
  761SOL    HW1 3182   3.832   4.454   6.162
  761SOL    HW2 3183   3.992   4.481   6.140
  762SOL     OW 3184   3.207   5.929   3.336
  762SOL    HW1 3185   3.256   5.923   3.423
  762SOL    HW2 3186   3.180   6.023   3.319
  763SOL     OW 3187   5.648   0.598   0.540
  763SOL    HW1 3188   5.665   0.674   0.602
  763SOL    HW2 3189   5.731   0.579   0.487
  764SOL     OW 3190   5.087   6.724   5.969
  764SOL    HW1 3191   5.104   6.666   5.889
  764SOL    HW2 3192   4.998   6.700   6.008
  765SOL     OW 3193   6.994   6.998   0.832
  765SOL    HW1 3194   0.039   0.046   0.801
  765SOL    HW2 3195   6.977   7.010   0.930
  766SOL     OW 3196   2.706   2.027   4.646
  766SOL    HW1 3197   2.639   1.964   4.687
  766SOL    HW2 3198   2.682   2.042   4.550
  767SOL     OW 3199   6.407   4.990   4.766
  767SOL    HW1 3200   6.463   5.000   4.684
  767SOL    HW2 3201   6.440   4.912   4.819
  768SOL     OW 3202   1.674   5.745   2.888
  768SOL    HW1 3203   1.701   5.838   2.863
  768SOL    HW2 3204   1.643   5.744   2.984
  769SOL     OW 3205   2.719   2.088   5.524
  769SOL    HW1 3206   2.719   2.179   5.565
  769SOL    HW2 3207   2.767   2.091   5.437
  770SOL     OW 3208   1.157   4.900   5.818
  770SOL    HW1 3209   1.140   4.827   5.753
  770SOL    HW2 3210   1.248   4.889   5.858
  771SOL     OW 3211   1.485   5.075   2.850
  771SOL    HW1 3212   1.462   5.147   2.915
  771SOL    HW2 3213   1.584   5.072   2.839
  772SOL     OW 3214   6.030   3.999   0.368
  772SOL    HW1 3215   6.010   4.011   0.465
  772SOL    HW2 3216   5.945   3.978   0.319
  773SOL     OW 3217   1.558   4.169   3.866
  773SOL    HW1 3218   1.617   4.103   3.914
  773SOL    HW2 3219   1.539   4.134   3.774
  774SOL     OW 3220   2.599   0.700   3.289
  774SOL    HW1 3221   2.534   0.767   3.322
  774SOL    HW2 3222   2.645   0.736   3.207
  775SOL     OW 3223   1.141   4.250   3.058
  775SOL    HW1 3224   1.060   4.192   3.061
  775SOL    HW2 3225   1.180   4.250   2.966
  776SOL     OW 3226   2.489   5.407   5.832
  776SOL    HW1 3227   2.523   5.500   5.849
  776SOL    HW2 3228   2.562   5.353   5.789
  777SOL     OW 3229   2.390   3.890   6.484
  777SOL    HW1 3230   2.387   3.990   6.477
  777SOL    HW2 3231   2.337   3.860   6.564
  778SOL     OW 3232   2.944   5.929   6.881
  778SOL    HW1 3233   2.924   5.836   6.850
  778SOL    HW2 3234   3.043   5.938   6.898
  779SOL     OW 3235   7.002   2.377   3.178
  779SOL    HW1 3236   0.049   2.414   3.241
  779SOL    HW2 3237   6.975   2.449   3.113
  780SOL     OW 3238   0.091   2.323   4.526
  780SOL    HW1 3239   0.143   2.240   4.542
  780SOL    HW2 3240   0.055   2.322   4.433
  781SOL     OW 3241   0.068   4.654   0.020
  781SOL    HW1 3242   0.132   4.607   0.082
  781SOL    HW2 3243   7.000   4.661   0.063
  782SOL     OW 3244   1.907   3.458   4.550
  782SOL    HW1 3245   1.835   3.527   4.541
  782SOL    HW2 3246   1.993   3.504   4.575
  783SOL     OW 3247   6.287   4.890   6.719
  783SOL    HW1 3248   6.307   4.796   6.748
  783SOL    HW2 3249   6.354   4.919   6.651
  784SOL     OW 3250   2.341   5.999   0.882
  784SOL    HW1 3251   2.401   5.920   0.867
  784SOL    HW2 3252   2.250   5.979   0.847
  785SOL     OW 3253   0.906   0.783   4.144
  785SOL    HW1 3254   0.986   0.736   4.107
  785SOL    HW2 3255   0.835   0.717   4.165
  786SOL     OW 3256   6.241   0.786   4.113
  786SOL    HW1 3257   6.327   0.753   4.075
  786SOL    HW2 3258   6.172   0.792   4.041
  787SOL     OW 3259   2.177   6.704   1.081
  787SOL    HW1 3260   2.163   6.764   1.160
  787SOL    HW2 3261   2.274   6.703   1.057
  788SOL     OW 3262   1.884   2.350   1.988
  788SOL    HW1 3263   1.894   2.408   1.907
  788SOL    HW2 3264   1.817   2.279   1.970
  789SOL     OW 3265   4.300   4.675   2.740
  789SOL    HW1 3266   4.342   4.600   2.790
  789SOL    HW2 3267   4.345   4.685   2.651
  790SOL     OW 3268   0.812   2.713   2.277
  790SOL    HW1 3269   0.838   2.810   2.271
  790SOL    HW2 3270   0.782   2.692   2.370
  791SOL     OW 3271   2.645   6.242   3.887
  791SOL    HW1 3272   2.642   6.342   3.894
  791SOL    HW2 3273   2.668   6.216   3.793
  792SOL     OW 3274   1.610   0.224   0.040
  792SOL    HW1 3275   1.548   0.288   0.085
  792SOL    HW2 3276   1.608   0.238   6.963
  793SOL     OW 3277   2.577   6.536   3.937
  793SOL    HW1 3278   2.572   6.528   3.837
  793SOL    HW2 3279   2.488   6.563   3.973
  794SOL     OW 3280   3.244   3.638   2.530
  794SOL    HW1 3281   3.253   3.548   2.573
  794SOL    HW2 3282   3.149   3.668   2.537
  795SOL     OW 3283   4.112   0.928   5.924
  795SOL    HW1 3284   4.202   0.911   5.963
  795SOL    HW2 3285   4.094   0.861   5.851
  796SOL     OW 3286   0.097   2.663   0.743
  796SOL    HW1 3287   0.181   2.697   0.786
  796SOL    HW2 3288   0.074   2.720   0.664
  797SOL     OW 3289   4.546   0.111   0.832
  797SOL    HW1 3290   4.535   0.175   0.908
  797SOL    HW2 3291   4.526   0.018   0.863
  798SOL     OW 3292   4.967   5.973   1.236
  798SOL    HW1 3293   4.995   5.888   1.280
  798SOL    HW2 3294   5.024   5.990   1.156
  799SOL     OW 3295   2.520   2.237   5.746
  799SOL    HW1 3296   2.527   2.256   5.648
  799SOL    HW2 3297   2.555   2.315   5.798
  800SOL     OW 3298   5.709   2.920   3.200
  800SOL    HW1 3299   5.729   2.880   3.290
  800SOL    HW2 3300   5.710   2.847   3.131
  801SOL     OW 3301   1.754   5.801   6.302
  801SOL    HW1 3302   1.708   5.852   6.229
  801SOL    HW2 3303   1.761   5.705   6.277
  802SOL     OW 3304   5.182   2.148   6.681
  802SOL    HW1 3305   5.095   2.157   6.633
  802SOL    HW2 3306   5.169   2.090   6.762
  803SOL     OW 3307   2.402   1.757   4.476
  803SOL    HW1 3308   2.446   1.668   4.470
  803SOL    HW2 3309   2.367   1.771   4.569
  804SOL     OW 3310   5.266   0.892   3.357
  804SOL    HW1 3311   5.265   0.884   3.457
  804SOL    HW2 3312   5.184   0.940   3.327
  805SOL     OW 3313   3.540   0.422   3.836
  805SOL    HW1 3314   3.482   0.503   3.828
  805SOL    HW2 3315   3.625   0.446   3.883
  806SOL     OW 3316   2.514   6.122   5.396
  806SOL    HW1 3317   2.418   6.143   5.416
  806SOL    HW2 3318   2.523   6.023   5.383
  807SOL     OW 3319   1.261   6.278   5.801
  807SOL    HW1 3320   1.162   6.263   5.792
  807SOL    HW2 3321   1.310   6.203   5.756
  808SOL     OW 3322   5.513   2.607   6.140
  808SOL    HW1 3323   5.487   2.603   6.044
  808SOL    HW2 3324   5.604   2.566   6.151
  809SOL     OW 3325   2.623   5.141   0.029
  809SOL    HW1 3326   2.538   5.092   0.051
  809SOL    HW2 3327   2.609   5.239   0.046
  810SOL     OW 3328   3.482   3.266   0.107
  810SOL    HW1 3329   3.487   3.197   0.036
  810SOL    HW2 3330   3.500   3.356   0.067
  811SOL     OW 3331   6.215   5.186   4.736
  811SOL    HW1 3332   6.224   5.285   4.751
  811SOL    HW2 3333   6.306   5.144   4.739
  812SOL     OW 3334   0.605   3.638   1.901
  812SOL    HW1 3335   0.612   3.538   1.898
  812SOL    HW2 3336   0.650   3.677   1.820
  813SOL     OW 3337   1.480   1.849   5.293
  813SOL    HW1 3338   1.509   1.901   5.374
  813SOL    HW2 3339   1.495   1.751   5.309
  814SOL     OW 3340   0.257   4.825   2.727
  814SOL    HW1 3341   0.178   4.855   2.780
  814SOL    HW2 3342   0.252   4.726   2.713
  815SOL     OW 3343   4.190   1.870   4.665
  815SOL    HW1 3344   4.099   1.911   4.676
  815SOL    HW2 3345   4.181   1.779   4.625
  816SOL     OW 3346   5.786   4.540   6.802
  816SOL    HW1 3347   5.734   4.560   6.885
  816SOL    HW2 3348   5.726   4.500   6.734
  817SOL     OW 3349   0.552   5.093   0.048
  817SOL    HW1 3350   0.488   5.169   0.061
  817SOL    HW2 3351   0.618   5.092   0.124
  818SOL     OW 3352   6.842   2.326   4.975
  818SOL    HW1 3353   6.866   2.286   4.887
  818SOL    HW2 3354   6.899   2.406   4.992
  819SOL     OW 3355   4.818   3.114   1.737
  819SOL    HW1 3356   4.739   3.070   1.695
  819SOL    HW2 3357   4.830   3.081   1.830
  820SOL     OW 3358   2.498   1.794   5.262
  820SOL    HW1 3359   2.488   1.835   5.353
  820SOL    HW2 3360   2.593   1.767   5.248
  821SOL     OW 3361   5.095   3.412   6.601
  821SOL    HW1 3362   4.997   3.397   6.587
  821SOL    HW2 3363   5.135   3.332   6.645
  822SOL     OW 3364   0.354   4.759   3.325
  822SOL    HW1 3365   0.287   4.689   3.351
  822SOL    HW2 3366   0.367   4.822   3.400
  823SOL     OW 3367   1.409   3.279   4.882
  823SOL    HW1 3368   1.351   3.291   4.962
  823SOL    HW2 3369   1.440   3.184   4.876
  824SOL     OW 3370   4.789   0.533   6.526
  824SOL    HW1 3371   4.771   0.536   6.428
  824SOL    HW2 3372   4.791   0.626   6.563
  825SOL     OW 3373   6.099   6.007   0.836
  825SOL    HW1 3374   6.030   5.970   0.899
  825SOL    HW2 3375   6.095   5.956   0.750
  826SOL     OW 3376   3.438   2.185   7.007
  826SOL    HW1 3377   3.522   2.143   0.021
  826SOL    HW2 3378   3.458   2.276   6.973
  827SOL     OW 3379   3.509   4.010   5.289
  827SOL    HW1 3380   3.578   4.064   5.339
  827SOL    HW2 3381   3.548   3.921   5.265
  828SOL     OW 3382   0.078   6.579   6.289
  828SOL    HW1 3383   0.130   6.518   6.349
  828SOL    HW2 3384   0.081   6.672   6.325
  829SOL     OW 3385   3.696   3.280   2.340
  829SOL    HW1 3386   3.608   3.251   2.301
  829SOL    HW2 3387   3.735   3.353   2.284
  830SOL     OW 3388   6.866   4.635   0.165
  830SOL    HW1 3389   6.799   4.696   0.209
  830SOL    HW2 3390   6.869   4.548   0.213
  831SOL     OW 3391   5.001   0.519   1.938
  831SOL    HW1 3392   4.917   0.482   1.979
  831SOL    HW2 3393   5.080   0.473   1.978
  832SOL     OW 3394   3.087   1.476   4.997
  832SOL    HW1 3395   3.101   1.512   5.090
  832SOL    HW2 3396   3.135   1.389   4.987
  833SOL     OW 3397   3.725   2.380   0.222
  833SOL    HW1 3398   3.766   2.396   0.312
  833SOL    HW2 3399   3.733   2.462   0.166
  834SOL     OW 3400   6.214   2.886   0.434
  834SOL    HW1 3401   6.242   2.898   0.338
  834SOL    HW2 3402   6.182   2.792   0.447
  835SOL     OW 3403   0.172   0.034   4.860
  835SOL    HW1 3404   0.202   0.104   4.925
  835SOL    HW2 3405   0.241   0.024   4.788
  836SOL     OW 3406   5.118   0.467   4.962
  836SOL    HW1 3407   5.082   0.550   5.007
  836SOL    HW2 3408   5.168   0.493   4.880
  837SOL     OW 3409   1.427   0.447   0.082
  837SOL    HW1 3410   1.356   0.380   0.103
  837SOL    HW2 3411   1.386   0.530   0.046
  838SOL     OW 3412   1.043   5.836   3.444
  838SOL    HW1 3413   1.003   5.804   3.530
  838SOL    HW2 3414   0.971   5.872   3.385
  839SOL     OW 3415   1.416   1.930   0.279
  839SOL    HW1 3416   1.437   1.930   0.181
  839SOL    HW2 3417   1.492   1.971   0.329
  840SOL     OW 3418   4.301   4.976   0.340
  840SOL    HW1 3419   4.306   5.073   0.364
  840SOL    HW2 3420   4.388   4.932   0.364
  841SOL     OW 3421   3.028   4.850   0.134
  841SOL    HW1 3422   2.987   4.941   0.132
  841SOL    HW2 3423   2.956   4.781   0.127
  842SOL     OW 3424   4.499   5.446   1.014
  842SOL    HW1 3425   4.499   5.394   0.929
  842SOL    HW2 3426   4.404   5.463   1.043
  843SOL     OW 3427   1.048   0.516   2.408
  843SOL    HW1 3428   1.006   0.427   2.392
  843SOL    HW2 3429   1.148   0.507   2.403
  844SOL     OW 3430   0.027   0.670   1.574
  844SOL    HW1 3431   0.126   0.674   1.590
  844SOL    HW2 3432   0.005   0.721   1.491
  845SOL     OW 3433   3.072   1.328   2.823
  845SOL    HW1 3434   3.054   1.427   2.820
  845SOL    HW2 3435   3.161   1.309   2.781
  846SOL     OW 3436   2.847   1.794   0.816
  846SOL    HW1 3437   2.872   1.699   0.837
  846SOL    HW2 3438   2.930   1.850   0.813
  847SOL     OW 3439   2.707   3.577   1.735
  847SOL    HW1 3440   2.784   3.607   1.791
  847SOL    HW2 3441   2.652   3.656   1.708
  848SOL     OW 3442   6.879   6.245   0.377
  848SOL    HW1 3443   6.907   6.334   0.341
  848SOL    HW2 3444   6.819   6.260   0.456
  849SOL     OW 3445   6.139   3.429   6.541
  849SOL    HW1 3446   6.193   3.512   6.528
  849SOL    HW2 3447   6.050   3.440   6.496
  850SOL     OW 3448   0.967   1.023   5.177
  850SOL    HW1 3449   1.011   1.113   5.189
  850SOL    HW2 3450   1.018   0.971   5.108
  851SOL     OW 3451   5.378   3.654   5.863
  851SOL    HW1 3452   5.349   3.700   5.947
  851SOL    HW2 3453   5.306   3.662   5.794
  852SOL     OW 3454   0.364   3.755   1.993
  852SOL    HW1 3455   0.434   3.689   1.966
  852SOL    HW2 3456   0.385   3.845   1.954
  853SOL     OW 3457   2.725   2.730   0.522
  853SOL    HW1 3458   2.686   2.688   0.603
  853SOL    HW2 3459   2.825   2.723   0.525
  854SOL     OW 3460   5.904   6.050   5.589
  854SOL    HW1 3461   5.983   6.023   5.535
  854SOL    HW2 3462   5.893   5.988   5.667
  855SOL     OW 3463   5.832   1.716   0.195
  855SOL    HW1 3464   5.811   1.620   0.177
  855SOL    HW2 3465   5.755   1.759   0.242
  856SOL     OW 3466   1.723   5.172   1.871
  856SOL    HW1 3467   1.738   5.110   1.794
  856SOL    HW2 3468   1.634   5.217   1.860
  857SOL     OW 3469   6.904   5.933   4.993
  857SOL    HW1 3470   6.963   5.925   5.073
  857SOL    HW2 3471   6.813   5.964   5.022
  858SOL     OW 3472   4.342   3.430   0.259
  858SOL    HW1 3473   4.274   3.486   0.307
  858SOL    HW2 3474   4.411   3.398   0.324
  859SOL     OW 3475   5.455   6.052   5.114
  859SOL    HW1 3476   5.365   6.051   5.069
  859SOL    HW2 3477   5.447   6.100   5.201
  860SOL     OW 3478   4.902   2.832   6.147
  860SOL    HW1 3479   4.929   2.752   6.094
  860SOL    HW2 3480   4.980   2.865   6.200
  861SOL     OW 3481   1.961   5.771   1.649
  861SOL    HW1 3482   1.868   5.807   1.637
  861SOL    HW2 3483   1.957   5.672   1.658
  862SOL     OW 3484   0.182   4.198   3.795
  862SOL    HW1 3485   0.100   4.155   3.833
  862SOL    HW2 3486   0.201   4.161   3.704
  863SOL     OW 3487   6.288   0.624   1.406
  863SOL    HW1 3488   6.238   0.648   1.489
  863SOL    HW2 3489   6.356   0.694   1.386
  864SOL     OW 3490   5.863   6.423   4.161
  864SOL    HW1 3491   5.828   6.462   4.247
  864SOL    HW2 3492   5.800   6.444   4.087
  865SOL     OW 3493   1.529   5.956   5.685
  865SOL    HW1 3494   1.438   5.963   5.643
  865SOL    HW2 3495   1.573   6.045   5.684
  866SOL     OW 3496   3.702   0.232   1.463
  866SOL    HW1 3497   3.615   0.246   1.511
  866SOL    HW2 3498   3.720   0.134   1.453
  867SOL     OW 3499   5.951   1.756   5.871
  867SOL    HW1 3500   5.976   1.853   5.872
  867SOL    HW2 3501   5.868   1.742   5.818
  868SOL     OW 3502   0.249   2.418   1.859
  868SOL    HW1 3503   0.227   2.411   1.956
  868SOL    HW2 3504   0.345   2.446   1.849
  869SOL     OW 3505   6.926   3.762   3.581
  869SOL    HW1 3506   6.961   3.669   3.595
  869SOL    HW2 3507   6.894   3.798   3.668
  870SOL     OW 3508   3.808   5.136   2.429
  870SOL    HW1 3509   3.882   5.172   2.372
  870SOL    HW2 3510   3.758   5.212   2.470
  871SOL     OW 3511   4.907   1.476   3.467
  871SOL    HW1 3512   4.817   1.518   3.452
  871SOL    HW2 3513   4.978   1.534   3.427
  872SOL     OW 3514   0.867   2.438   4.893
  872SOL    HW1 3515   0.920   2.491   4.826
  872SOL    HW2 3516   0.920   2.429   4.977
  873SOL     OW 3517   3.835   6.944   6.120
  873SOL    HW1 3518   3.778   6.902   6.050
  873SOL    HW2 3519   3.928   6.908   6.114
  874SOL     OW 3520   4.718   3.958   1.481
  874SOL    HW1 3521   4.699   3.969   1.578
  874SOL    HW2 3522   4.639   3.916   1.436
  875SOL     OW 3523   4.860   5.542   1.452
  875SOL    HW1 3524   4.879   5.569   1.546
  875SOL    HW2 3525   4.761   5.530   1.440
  876SOL     OW 3526   0.217   0.269   0.852
  876SOL    HW1 3527   0.180   0.298   0.764
  876SOL    HW2 3528   0.153   0.293   0.926
  877SOL     OW 3529   2.014   3.694   6.404
  877SOL    HW1 3530   2.013   3.781   6.355
  877SOL    HW2 3531   2.004   3.710   6.502
  878SOL     OW 3532   4.104   6.184   4.598
  878SOL    HW1 3533   4.113   6.152   4.692
  878SOL    HW2 3534   4.148   6.273   4.588
  879SOL     OW 3535   6.217   0.066   0.726
  879SOL    HW1 3536   6.299   0.014   0.748
  879SOL    HW2 3537   6.198   0.060   0.628
  880SOL     OW 3538   3.005   3.541   2.228
  880SOL    HW1 3539   2.935   3.557   2.159
  880SOL    HW2 3540   3.079   3.607   2.217
  881SOL     OW 3541   4.103   1.780   0.507
  881SOL    HW1 3542   4.198   1.783   0.476
  881SOL    HW2 3543   4.101   1.774   0.607
  882SOL     OW 3544   1.562   3.235   4.577
  882SOL    HW1 3545   1.571   3.179   4.659
  882SOL    HW2 3546   1.641   3.221   4.517
  883SOL     OW 3547   2.719   0.132   2.754
  883SOL    HW1 3548   2.658   0.073   2.806
  883SOL    HW2 3549   2.813   0.099   2.762
  884SOL     OW 3550   4.168   3.743   5.914
  884SOL    HW1 3551   4.256   3.714   5.951
  884SOL    HW2 3552   4.099   3.672   5.931
  885SOL     OW 3553   3.872   2.718   6.275
  885SOL    HW1 3554   3.793   2.687   6.223
  885SOL    HW2 3555   3.881   2.663   6.358
  886SOL     OW 3556   3.577   0.835   6.862
  886SOL    HW1 3557   3.614   0.883   6.942
  886SOL    HW2 3558   3.653   0.802   6.806
  887SOL     OW 3559   4.989   1.542   4.376
  887SOL    HW1 3560   5.046   1.471   4.418
  887SOL    HW2 3561   4.993   1.625   4.432
  888SOL     OW 3562   6.491   6.551   2.927
  888SOL    HW1 3563   6.550   6.561   2.847
  888SOL    HW2 3564   6.547   6.548   3.010
  889SOL     OW 3565   0.520   3.943   6.989
  889SOL    HW1 3566   0.583   3.867   6.972
  889SOL    HW2 3567   0.547   4.021   6.932
  890SOL     OW 3568   2.389   5.014   4.129
  890SOL    HW1 3569   2.381   4.967   4.217
  890SOL    HW2 3570   2.485   5.014   4.100
  891SOL     OW 3571   4.802   5.853   1.662
  891SOL    HW1 3572   4.719   5.798   1.659
  891SOL    HW2 3573   4.871   5.806   1.718
  892SOL     OW 3574   2.862   4.412   0.675
  892SOL    HW1 3575   2.766   4.436   0.676
  892SOL    HW2 3576   2.918   4.493   0.695
  893SOL     OW 3577   2.347   6.547   2.454
  893SOL    HW1 3578   2.397   6.545   2.368
  893SOL    HW2 3579   2.404   6.508   2.527
  894SOL     OW 3580   0.793   4.165   1.074
  894SOL    HW1 3581   0.835   4.164   0.983
  894SOL    HW2 3582   0.747   4.253   1.089
  895SOL     OW 3583   0.306   5.705   4.072
  895SOL    HW1 3584   0.290   5.625   4.013
  895SOL    HW2 3585   0.237   5.707   4.144
  896SOL     OW 3586   6.664   7.020   6.194
  896SOL    HW1 3587   6.676   6.921   6.202
  896SOL    HW2 3588   6.634   0.037   6.282
  897SOL     OW 3589   5.097   0.608   0.039
  897SOL    HW1 3590   5.127   0.611   6.965
  897SOL    HW2 3591   5.000   0.584   0.042
  898SOL     OW 3592   4.039   6.192   3.296
  898SOL    HW1 3593   3.982   6.265   3.335
  898SOL    HW2 3594   4.064   6.127   3.368
  899SOL     OW 3595   0.241   4.986   0.150
  899SOL    HW1 3596   0.195   4.968   0.063
  899SOL    HW2 3597   0.205   5.070   0.191
  900SOL     OW 3598   5.143   5.195   0.520
  900SOL    HW1 3599   5.155   5.287   0.556
  900SOL    HW2 3600   5.046   5.179   0.502
  901SOL     OW 3601   1.529   1.052   2.573
  901SOL    HW1 3602   1.617   1.016   2.542
  901SOL    HW2 3603   1.532   1.152   2.576
  902SOL     OW 3604   5.804   3.393   2.236
  902SOL    HW1 3605   5.850   3.411   2.322
  902SOL    HW2 3606   5.859   3.428   2.160
  903SOL     OW 3607   0.000   2.172   0.727
  903SOL    HW1 3608   0.023   2.264   0.694
  903SOL    HW2 3609   6.949   2.133   0.669
  904SOL     OW 3610   3.152   1.485   1.742
  904SOL    HW1 3611   3.170   1.568   1.688
  904SOL    HW2 3612   3.073   1.437   1.705
  905SOL     OW 3613   6.081   2.957   6.575
  905SOL    HW1 3614   6.151   2.916   6.516
  905SOL    HW2 3615   6.018   3.011   6.519
  906SOL     OW 3616   5.764   3.899   6.963
  906SOL    HW1 3617   5.783   3.820   6.905
  906SOL    HW2 3618   5.666   3.903   6.982
  907SOL     OW 3619   5.242   4.300   6.813
  907SOL    HW1 3620   5.148   4.290   6.847
  907SOL    HW2 3621   5.241   4.353   6.728
  908SOL     OW 3622   1.212   4.311   2.809
  908SOL    HW1 3623   1.266   4.287   2.728
  908SOL    HW2 3624   1.202   4.411   2.813
  909SOL     OW 3625   5.007   5.254   6.233
  909SOL    HW1 3626   4.986   5.193   6.156
  909SOL    HW2 3627   4.945   5.234   6.309
  910SOL     OW 3628   2.559   4.290   0.957
  910SOL    HW1 3629   2.560   4.241   1.044
  910SOL    HW2 3630   2.611   4.238   0.889
  911SOL     OW 3631   1.007   5.386   6.469
  911SOL    HW1 3632   0.961   5.413   6.384
  911SOL    HW2 3633   0.977   5.294   6.495
  912SOL     OW 3634   4.871   1.771   3.290
  912SOL    HW1 3635   4.802   1.744   3.357
  912SOL    HW2 3636   4.962   1.746   3.324
  913SOL     OW 3637   5.083   0.044   2.820
  913SOL    HW1 3638   5.104   0.134   2.858
  913SOL    HW2 3639   5.052   7.004   2.894
  914SOL     OW 3640   2.963   0.052   6.747
  914SOL    HW1 3641   2.866   0.074   6.738
  914SOL    HW2 3642   2.987   7.000   6.683
  915SOL     OW 3643   5.310   5.385   0.699
  915SOL    HW1 3644   5.382   5.328   0.661
  915SOL    HW2 3645   5.349   5.467   0.741
  916SOL     OW 3646   1.475   2.293   2.356
  916SOL    HW1 3647   1.395   2.312   2.300
  916SOL    HW2 3648   1.558   2.299   2.300
  917SOL     OW 3649   6.730   6.624   0.667
  917SOL    HW1 3650   6.702   6.631   0.762
  917SOL    HW2 3651   6.726   6.529   0.638
  918SOL     OW 3652   2.607   5.721   0.538
  918SOL    HW1 3653   2.520   5.749   0.579
  918SOL    HW2 3654   2.606   5.622   0.524
  919SOL     OW 3655   5.865   1.947   4.887
  919SOL    HW1 3656   5.834   1.955   4.982
  919SOL    HW2 3657   5.937   2.014   4.870
  920SOL     OW 3658   2.373   5.378   2.565
  920SOL    HW1 3659   2.366   5.320   2.484
  920SOL    HW2 3660   2.466   5.414   2.572
  921SOL     OW 3661   4.937   5.239   5.078
  921SOL    HW1 3662   4.928   5.222   4.980
  921SOL    HW2 3663   5.034   5.252   5.101
  922SOL     OW 3664   3.601   2.891   3.531
  922SOL    HW1 3665   3.543   2.905   3.611
  922SOL    HW2 3666   3.544   2.861   3.454
  923SOL     OW 3667   2.322   3.656   5.494
  923SOL    HW1 3668   2.293   3.732   5.436
  923SOL    HW2 3669   2.403   3.612   5.454
  924SOL     OW 3670   0.085   3.525   2.409
  924SOL    HW1 3671   0.005   3.491   2.459
  924SOL    HW2 3672   0.163   3.531   2.471
  925SOL     OW 3673   6.842   1.780   0.148
  925SOL    HW1 3674   6.749   1.774   0.113
  925SOL    HW2 3675   6.898   1.709   0.104
  926SOL     OW 3676   1.528   1.502   2.084
  926SOL    HW1 3677   1.554   1.490   1.988
  926SOL    HW2 3678   1.432   1.476   2.096
  927SOL     OW 3679   6.104   3.458   3.993
  927SOL    HW1 3680   6.138   3.453   4.087
  927SOL    HW2 3681   6.036   3.531   3.986
  928SOL     OW 3682   3.374   4.643   6.173
  928SOL    HW1 3683   3.344   4.737   6.155
  928SOL    HW2 3684   3.473   4.640   6.179
  929SOL     OW 3685   0.264   1.480   4.934
  929SOL    HW1 3686   0.362   1.488   4.916
  929SOL    HW2 3687   0.248   1.477   5.033
  930SOL     OW 3688   5.253   4.722   5.762
  930SOL    HW1 3689   5.230   4.796   5.826
  930SOL    HW2 3690   5.303   4.761   5.684
  931SOL     OW 3691   6.582   1.579   3.593
  931SOL    HW1 3692   6.671   1.538   3.613
  931SOL    HW2 3693   6.595   1.664   3.541
  932SOL     OW 3694   3.761   0.633   3.458
  932SOL    HW1 3695   3.716   0.558   3.507
  932SOL    HW2 3696   3.856   0.639   3.487
  933SOL     OW 3697   1.732   5.534   2.152
  933SOL    HW1 3698   1.639   5.570   2.156
  933SOL    HW2 3699   1.783   5.565   2.232
  934SOL     OW 3700   1.896   3.848   0.390
  934SOL    HW1 3701   1.873   3.812   0.300
  934SOL    HW2 3702   1.868   3.943   0.396
  935SOL     OW 3703   5.706   2.916   4.233
  935SOL    HW1 3704   5.640   2.960   4.173
  935SOL    HW2 3705   5.725   2.975   4.311
  936SOL     OW 3706   1.523   6.797   5.971
  936SOL    HW1 3707   1.575   6.882   5.973
  936SOL    HW2 3708   1.575   6.728   5.921
  937SOL     OW 3709   3.409   2.035   6.080
  937SOL    HW1 3710   3.386   2.001   5.988
  937SOL    HW2 3711   3.366   2.124   6.094
  938SOL     OW 3712   6.027   5.415   4.463
  938SOL    HW1 3713   5.952   5.442   4.402
  938SOL    HW2 3714   6.114   5.445   4.423
  939SOL     OW 3715   6.980   6.617   6.043
  939SOL    HW1 3716   0.023   6.592   5.970
  939SOL    HW2 3717   0.002   6.603   6.132
  940SOL     OW 3718   2.025   4.732   6.728
  940SOL    HW1 3719   1.946   4.789   6.750
  940SOL    HW2 3720   2.007   4.638   6.758
  941SOL     OW 3721   3.538   0.312   0.451
  941SOL    HW1 3722   3.459   0.263   0.414
  941SOL    HW2 3723   3.519   0.339   0.546
  942SOL     OW 3724   0.453   5.378   0.156
  942SOL    HW1 3725   0.462   5.335   0.246
  942SOL    HW2 3726   0.359   5.367   0.123
  943SOL     OW 3727   3.524   5.796   2.180
  943SOL    HW1 3728   3.465   5.797   2.099
  943SOL    HW2 3729   3.514   5.708   2.227
  944SOL     OW 3730   6.177   6.757   4.229
  944SOL    HW1 3731   6.132   6.681   4.275
  944SOL    HW2 3732   6.236   6.722   4.156
  945SOL     OW 3733   0.906   5.371   0.138
  945SOL    HW1 3734   0.827   5.432   0.148
  945SOL    HW2 3735   0.903   5.326   0.048
  946SOL     OW 3736   5.307   2.604   4.539
  946SOL    HW1 3737   5.258   2.517   4.531
  946SOL    HW2 3738   5.397   2.595   4.495
  947SOL     OW 3739   3.715   4.156   3.966
  947SOL    HW1 3740   3.690   4.145   3.870
  947SOL    HW2 3741   3.718   4.253   3.989
  948SOL     OW 3742   3.775   0.729   2.643
  948SOL    HW1 3743   3.779   0.734   2.743
  948SOL    HW2 3744   3.867   0.738   2.606
  949SOL     OW 3745   3.066   6.841   5.713
  949SOL    HW1 3746   3.158   6.846   5.750
  949SOL    HW2 3747   3.013   6.771   5.762
  950SOL     OW 3748   6.823   6.992   2.246
  950SOL    HW1 3749   6.823   0.064   2.210
  950SOL    HW2 3750   6.786   6.930   2.178
  951SOL     OW 3751   2.321   6.560   3.102
  951SOL    HW1 3752   2.360   6.498   3.169
  951SOL    HW2 3753   2.257   6.511   3.043
  952SOL     OW 3754   3.248   0.999   2.865
  952SOL    HW1 3755   3.276   1.092   2.844
  952SOL    HW2 3756   3.152   0.986   2.840
  953SOL     OW 3757   6.748   4.392   5.857
  953SOL    HW1 3758   6.750   4.363   5.762
  953SOL    HW2 3759   6.791   4.482   5.865
  954SOL     OW 3760   4.454   6.007   2.741
  954SOL    HW1 3761   4.531   6.054   2.783
  954SOL    HW2 3762   4.454   5.911   2.768
  955SOL     OW 3763   2.083   4.738   0.461
  955SOL    HW1 3764   2.054   4.643   0.455
  955SOL    HW2 3765   2.137   4.752   0.545
  956SOL     OW 3766   5.022   0.488   0.939
  956SOL    HW1 3767   5.091   0.559   0.921
  956SOL    HW2 3768   4.934   0.531   0.959
  957SOL     OW 3769   6.000   1.356   3.081
  957SOL    HW1 3770   5.901   1.347   3.089
  957SOL    HW2 3771   6.043   1.329   3.167
  958SOL     OW 3772   5.506   0.114   1.454
  958SOL    HW1 3773   5.454   0.149   1.531
  958SOL    HW2 3774   5.445   0.099   1.376
  959SOL     OW 3775   4.674   6.814   3.767
  959SOL    HW1 3776   4.693   6.864   3.683
  959SOL    HW2 3777   4.622   6.731   3.746
  960SOL     OW 3778   1.588   6.591   6.409
  960SOL    HW1 3779   1.520   6.520   6.425
  960SOL    HW2 3780   1.653   6.592   6.484
  961SOL     OW 3781   3.629   0.081   3.009
  961SOL    HW1 3782   3.577   0.029   3.076
  961SOL    HW2 3783   3.688   0.147   3.056
  962SOL     OW 3784   6.577   0.802   4.531
  962SOL    HW1 3785   6.500   0.854   4.495
  962SOL    HW2 3786   6.598   0.832   4.624
  963SOL     OW 3787   5.188   3.065   1.054
  963SOL    HW1 3788   5.231   3.077   0.965
  963SOL    HW2 3789   5.238   3.118   1.122
  964SOL     OW 3790   4.733   4.991   5.512
  964SOL    HW1 3791   4.778   4.902   5.515
  964SOL    HW2 3792   4.788   5.055   5.459
  965SOL     OW 3793   5.803   2.239   3.579
  965SOL    HW1 3794   5.716   2.190   3.589
  965SOL    HW2 3795   5.862   2.188   3.516
  966SOL     OW 3796   4.672   1.384   4.673
  966SOL    HW1 3797   4.617   1.385   4.589
  966SOL    HW2 3798   4.654   1.468   4.725
  967SOL     OW 3799   4.304   3.787   6.500
  967SOL    HW1 3800   4.360   3.851   6.447
  967SOL    HW2 3801   4.288   3.704   6.446
  968SOL     OW 3802   3.950   0.817   1.444
  968SOL    HW1 3803   3.899   0.901   1.462
  968SOL    HW2 3804   3.978   0.776   1.531
  969SOL     OW 3805   2.872   4.190   6.319
  969SOL    HW1 3806   2.854   4.108   6.373
  969SOL    HW2 3807   2.796   4.206   6.256
  970SOL     OW 3808   5.309   6.851   6.072
  970SOL    HW1 3809   5.301   6.949   6.052
  970SOL    HW2 3810   5.219   6.807   6.060
  971SOL     OW 3811   5.553   3.660   3.528
  971SOL    HW1 3812   5.646   3.642   3.496
  971SOL    HW2 3813   5.544   3.630   3.623
  972SOL     OW 3814   7.004   2.757   0.340
  972SOL    HW1 3815   6.958   2.844   0.319
  972SOL    HW2 3816   6.948   2.681   0.308
  973SOL     OW 3817   0.129   3.340   5.972
  973SOL    HW1 3818   0.053   3.345   5.908
  973SOL    HW2 3819   0.096   3.303   6.059
  974SOL     OW 3820   7.000   4.749   2.442
  974SOL    HW1 3821   0.018   4.689   2.372
  974SOL    HW2 3822   0.018   4.726   2.531
  975SOL     OW 3823   3.166   0.486   2.132
  975SOL    HW1 3824   3.227   0.564   2.115
  975SOL    HW2 3825   3.102   0.508   2.205
  976SOL     OW 3826   6.884   3.360   3.337
  976SOL    HW1 3827   6.938   3.375   3.420
  976SOL    HW2 3828   6.813   3.291   3.355
  977SOL     OW 3829   6.453   0.510   2.137
  977SOL    HW1 3830   6.553   0.515   2.141
  977SOL    HW2 3831   6.414   0.584   2.192
  978SOL     OW 3832   5.472   2.910   1.979
  978SOL    HW1 3833   5.404   2.870   1.917
  978SOL    HW2 3834   5.493   3.003   1.949
  979SOL     OW 3835   0.340   4.417   6.923
  979SOL    HW1 3836   0.314   4.360   7.001
  979SOL    HW2 3837   0.400   4.491   6.954
  980SOL     OW 3838   3.719   0.724   4.610
  980SOL    HW1 3839   3.675   0.686   4.528
  980SOL    HW2 3840   3.780   0.798   4.583
  981SOL     OW 3841   6.936   0.240   5.800
  981SOL    HW1 3842   0.011   0.223   5.823
  981SOL    HW2 3843   6.878   0.205   5.873
  982SOL     OW 3844   6.010   1.312   5.930
  982SOL    HW1 3845   6.076   1.253   5.977
  982SOL    HW2 3846   5.927   1.260   5.909
  983SOL     OW 3847   0.429   4.888   3.969
  983SOL    HW1 3848   0.441   4.970   4.026
  983SOL    HW2 3849   0.452   4.807   4.022
  984SOL     OW 3850   0.588   3.399   3.660
  984SOL    HW1 3851   0.628   3.381   3.749
  984SOL    HW2 3852   0.595   3.317   3.603
  985SOL     OW 3853   6.592   5.164   5.354
  985SOL    HW1 3854   6.526   5.100   5.393
  985SOL    HW2 3855   6.550   5.254   5.345
  986SOL     OW 3856   5.057   5.223   1.840
  986SOL    HW1 3857   4.974   5.270   1.871
  986SOL    HW2 3858   5.118   5.288   1.795
  987SOL     OW 3859   4.643   4.370   4.311
  987SOL    HW1 3860   4.609   4.282   4.345
  987SOL    HW2 3861   4.645   4.367   4.211
  988SOL     OW 3862   2.483   4.550   2.225
  988SOL    HW1 3863   2.517   4.596   2.307
  988SOL    HW2 3864   2.517   4.597   2.144
  989SOL     OW 3865   1.448   2.049   0.809
  989SOL    HW1 3866   1.358   2.046   0.766
  989SOL    HW2 3867   1.508   1.982   0.765
  990SOL     OW 3868   3.713   0.267   4.149
  990SOL    HW1 3869   3.614   0.257   4.136
  990SOL    HW2 3870   3.753   0.177   4.168
  991SOL     OW 3871   0.175   5.377   4.366
  991SOL    HW1 3872   0.161   5.463   4.317
  991SOL    HW2 3873   0.090   5.349   4.409
  992SOL     OW 3874   6.994   2.276   7.005
  992SOL    HW1 3875   0.015   2.323   0.062
  992SOL    HW2 3876   6.972   2.181   0.009
  993SOL     OW 3877   1.548   5.141   0.113
  993SOL    HW1 3878   1.637   5.116   0.152
  993SOL    HW2 3879   1.475   5.113   0.175
  994SOL     OW 3880   3.377   5.890   0.422
  994SOL    HW1 3881   3.340   5.978   0.450
  994SOL    HW2 3882   3.465   5.874   0.468
  995SOL     OW 3883   6.670   4.260   6.087
  995SOL    HW1 3884   6.661   4.321   6.166
  995SOL    HW2 3885   6.723   4.306   6.016
  996SOL     OW 3886   3.772   5.839   4.329
  996SOL    HW1 3887   3.815   5.753   4.300
  996SOL    HW2 3888   3.842   5.898   4.371
  997SOL     OW 3889   1.535   6.805   3.521
  997SOL    HW1 3890   1.580   6.724   3.482
  997SOL    HW2 3891   1.509   6.867   3.447
  998SOL     OW 3892   4.440   0.185   5.948
  998SOL    HW1 3893   4.486   0.175   6.036
  998SOL    HW2 3894   4.427   0.282   5.927
  999SOL     OW 3895   4.912   3.689   2.267
  999SOL    HW1 3896   4.940   3.627   2.340
  999SOL    HW2 3897   4.919   3.641   2.179
 1000SOL     OW 3898   5.369   2.233   1.762
 1000SOL    HW1 3899   5.321   2.213   1.847
 1000SOL    HW2 3900   5.410   2.324   1.767
 1001SOL     OW 3901   2.993   0.353   2.554
 1001SOL    HW1 3902   2.896   0.349   2.576
 1001SOL    HW2 3903   3.013   0.436   2.503
 1002SOL     OW 3904   5.373   2.288   1.289
 1002SOL    HW1 3905   5.337   2.332   1.207
 1002SOL    HW2 3906   5.448   2.343   1.325
 1003SOL     OW 3907   0.960   0.307   2.993
 1003SOL    HW1 3908   0.924   0.274   3.081
 1003SOL    HW2 3909   1.036   0.249   2.965
 1004SOL     OW 3910   5.186   1.366   4.200
 1004SOL    HW1 3911   5.159   1.339   4.108
 1004SOL    HW2 3912   5.196   1.466   4.204
 1005SOL     OW 3913   1.687   4.946   2.257
 1005SOL    HW1 3914   1.773   4.992   2.278
 1005SOL    HW2 3915   1.696   4.896   2.171
 1006SOL     OW 3916   2.604   3.898   1.283
 1006SOL    HW1 3917   2.541   3.890   1.361
 1006SOL    HW2 3918   2.696   3.874   1.312
 1007SOL     OW 3919   4.798   0.797   6.623
 1007SOL    HW1 3920   4.802   0.879   6.566
 1007SOL    HW2 3921   4.721   0.804   6.687
 1008SOL     OW 3922   0.482   5.009   5.464
 1008SOL    HW1 3923   0.581   5.014   5.476
 1008SOL    HW2 3924   0.438   5.079   5.519
 1009SOL     OW 3925   6.846   5.848   5.874
 1009SOL    HW1 3926   6.913   5.778   5.850
 1009SOL    HW2 3927   6.804   5.827   5.962
 1010SOL     OW 3928   3.014   3.465   0.932
 1010SOL    HW1 3929   2.949   3.467   1.007
 1010SOL    HW2 3930   2.973   3.506   0.850
 1011SOL     OW 3931   0.128   5.495   2.042
 1011SOL    HW1 3932   0.132   5.397   2.021
 1011SOL    HW2 3933   0.196   5.517   2.112
 1012SOL     OW 3934   4.816   6.728   3.426
 1012SOL    HW1 3935   4.895   6.692   3.477
 1012SOL    HW2 3936   4.793   6.819   3.461
 1013SOL     OW 3937   6.939   6.862   6.436
 1013SOL    HW1 3938   6.951   6.960   6.421
 1013SOL    HW2 3939   0.002   6.813   6.413
 1014SOL     OW 3940   1.065   4.187   4.864
 1014SOL    HW1 3941   1.139   4.226   4.918
 1014SOL    HW2 3942   1.084   4.199   4.766
 1015SOL     OW 3943   3.022   6.348   6.919
 1015SOL    HW1 3944   2.932   6.393   6.910
 1015SOL    HW2 3945   3.036   6.320   7.013
 1016SOL     OW 3946   6.022   4.044   1.698
 1016SOL    HW1 3947   6.102   4.019   1.643
 1016SOL    HW2 3948   5.993   3.964   1.751
 1017SOL     OW 3949   2.343   1.381   1.751
 1017SOL    HW1 3950   2.268   1.446   1.759
 1017SOL    HW2 3951   2.358   1.335   1.839
 1018SOL     OW 3952   6.690   6.426   5.094
 1018SOL    HW1 3953   6.786   6.413   5.118
 1018SOL    HW2 3954   6.639   6.342   5.117
 1019SOL     OW 3955   6.520   4.115   1.176
 1019SOL    HW1 3956   6.589   4.184   1.196
 1019SOL    HW2 3957   6.544   4.066   1.092
 1020SOL     OW 3958   5.333   1.321   0.806
 1020SOL    HW1 3959   5.378   1.304   0.718
 1020SOL    HW2 3960   5.252   1.378   0.792
 1021SOL     OW 3961   0.887   6.662   1.292
 1021SOL    HW1 3962   0.796   6.654   1.252
 1021SOL    HW2 3963   0.918   6.757   1.288
 1022SOL     OW 3964   2.501   5.795   6.423
 1022SOL    HW1 3965   2.456   5.797   6.333
 1022SOL    HW2 3966   2.434   5.769   6.493
 1023SOL     OW 3967   0.692   0.958   3.299
 1023SOL    HW1 3968   0.757   1.027   3.265
 1023SOL    HW2 3969   0.632   1.000   3.368
 1024SOL     OW 3970   1.836   1.963   4.194
 1024SOL    HW1 3971   1.768   2.034   4.175
 1024SOL    HW2 3972   1.803   1.875   4.161
 1025SOL     OW 3973   4.629   4.164   0.271
 1025SOL    HW1 3974   4.649   4.104   0.349
 1025SOL    HW2 3975   4.535   4.149   0.241
 1026SOL     OW 3976   3.295   2.682   1.787
 1026SOL    HW1 3977   3.234   2.604   1.800
 1026SOL    HW2 3978   3.359   2.661   1.713
 1027SOL     OW 3979   0.878   6.771   0.417
 1027SOL    HW1 3980   0.941   6.838   0.377
 1027SOL    HW2 3981   0.836   6.809   0.499
 1028SOL     OW 3982   1.417   5.906   2.735
 1028SOL    HW1 3983   1.408   5.875   2.830
 1028SOL    HW2 3984   1.442   6.003   2.734
 1029SOL     OW 3985   0.916   0.943   6.154
 1029SOL    HW1 3986   0.824   0.982   6.158
 1029SOL    HW2 3987   0.982   1.014   6.131
 1030SOL     OW 3988   3.865   3.354   1.097
 1030SOL    HW1 3989   3.848   3.269   1.046
 1030SOL    HW2 3990   3.959   3.384   1.081
 1031SOL     OW 3991   3.949   2.811   0.843
 1031SOL    HW1 3992   3.856   2.828   0.812
 1031SOL    HW2 3993   3.979   2.886   0.902
 1032SOL     OW 3994   2.082   1.410   6.749
 1032SOL    HW1 3995   2.118   1.459   6.669
 1032SOL    HW2 3996   1.993   1.447   6.774
 1033SOL     OW 3997   0.543   6.666   2.684
 1033SOL    HW1 3998   0.449   6.656   2.718
 1033SOL    HW2 3999   0.549   6.626   2.593
 1034SOL     OW 4000   2.903   0.770   4.343
 1034SOL    HW1 4001   2.816   0.723   4.357
 1034SOL    HW2 4002   2.969   0.739   4.412
 1035SOL     OW 4003   1.457   1.440   6.680
 1035SOL    HW1 4004   1.476   1.517   6.619
 1035SOL    HW2 4005   1.490   1.355   6.638
 1036SOL     OW 4006   4.966   1.303   1.415
 1036SOL    HW1 4007   4.918   1.305   1.327
 1036SOL    HW2 4008   5.006   1.393   1.433
 1037SOL     OW 4009   1.651   3.223   1.619
 1037SOL    HW1 4010   1.690   3.162   1.550
 1037SOL    HW2 4011   1.718   3.239   1.691
 1038SOL     OW 4012   2.695   5.692   0.176
 1038SOL    HW1 4013   2.613   5.684   0.232
 1038SOL    HW2 4014   2.668   5.702   0.080
 1039SOL     OW 4015   3.828   3.374   2.787
 1039SOL    HW1 4016   3.831   3.289   2.735
 1039SOL    HW2 4017   3.747   3.427   2.761
 1040SOL     OW 4018   3.766   2.087   3.304
 1040SOL    HW1 4019   3.682   2.119   3.260
 1040SOL    HW2 4020   3.776   1.989   3.288
 1041SOL     OW 4021   6.493   5.776   6.390
 1041SOL    HW1 4022   6.512   5.714   6.314
 1041SOL    HW2 4023   6.411   5.746   6.439
 1042SOL     OW 4024   5.557   4.300   3.169
 1042SOL    HW1 4025   5.619   4.378   3.157
 1042SOL    HW2 4026   5.466   4.334   3.192
 1043SOL     OW 4027   2.712   2.321   3.473
 1043SOL    HW1 4028   2.764   2.259   3.531
 1043SOL    HW2 4029   2.726   2.297   3.377
 1044SOL     OW 4030   5.743   4.645   1.705
 1044SOL    HW1 4031   5.729   4.593   1.621
 1044SOL    HW2 4032   5.768   4.584   1.779
 1045SOL     OW 4033   2.240   0.419   1.895
 1045SOL    HW1 4034   2.181   0.453   1.968
 1045SOL    HW2 4035   2.262   0.323   1.912
 1046SOL     OW 4036   2.848   1.926   1.341
 1046SOL    HW1 4037   2.923   1.957   1.283
 1046SOL    HW2 4038   2.761   1.957   1.303
 1047SOL     OW 4039   3.595   6.390   3.347
 1047SOL    HW1 4040   3.639   6.335   3.276
 1047SOL    HW2 4041   3.508   6.347   3.373
 1048SOL     OW 4042   1.475   6.174   2.738
 1048SOL    HW1 4043   1.500   6.236   2.813
 1048SOL    HW2 4044   1.385   6.200   2.702
 1049SOL     OW 4045   4.529   6.129   4.993
 1049SOL    HW1 4046   4.437   6.156   4.964
 1049SOL    HW2 4047   4.550   6.039   4.953
 1050SOL     OW 4048   2.972   5.901   3.553
 1050SOL    HW1 4049   2.918   5.935   3.475
 1050SOL    HW2 4050   3.041   5.838   3.520
 1051SOL     OW 4051   1.119   1.020   6.364
 1051SOL    HW1 4052   1.155   0.947   6.422
 1051SOL    HW2 4053   1.177   1.030   6.283
 1052SOL     OW 4054   3.354   1.301   0.264
 1052SOL    HW1 4055   3.423   1.272   0.330
 1052SOL    HW2 4056   3.277   1.237   0.265
 1053SOL     OW 4057   5.175   2.245   4.173
 1053SOL    HW1 4058   5.080   2.212   4.180
 1053SOL    HW2 4059   5.232   2.172   4.135
 1054SOL     OW 4060   3.829   5.002   6.128
 1054SOL    HW1 4061   3.910   4.953   6.097
 1054SOL    HW2 4062   3.847   5.042   6.218
 1055SOL     OW 4063   4.684   5.700   6.430
 1055SOL    HW1 4064   4.614   5.767   6.454
 1055SOL    HW2 4065   4.722   5.722   6.340
 1056SOL     OW 4066   2.909   4.103   0.180
 1056SOL    HW1 4067   2.983   4.163   0.211
 1056SOL    HW2 4068   2.824   4.155   0.177
 1057SOL     OW 4069   3.234   2.637   0.686
 1057SOL    HW1 4070   3.191   2.726   0.699
 1057SOL    HW2 4071   3.239   2.616   0.589
 1058SOL     OW 4072   2.839   2.224   2.367
 1058SOL    HW1 4073   2.827   2.277   2.283
 1058SOL    HW2 4074   2.922   2.169   2.360
 1059SOL     OW 4075   2.872   6.382   1.436
 1059SOL    HW1 4076   2.856   6.330   1.520
 1059SOL    HW2 4077   2.795   6.369   1.374
 1060SOL     OW 4078   6.347   0.201   5.846
 1060SOL    HW1 4079   6.337   0.131   5.917
 1060SOL    HW2 4080   6.259   0.214   5.800
 1061SOL     OW 4081   6.864   3.641   6.027
 1061SOL    HW1 4082   6.836   3.736   6.043
 1061SOL    HW2 4083   6.929   3.638   5.951
 1062SOL     OW 4084   3.653   6.302   4.564
 1062SOL    HW1 4085   3.649   6.393   4.605
 1062SOL    HW2 4086   3.636   6.309   4.466
 1063SOL     OW 4087   3.754   6.590   5.192
 1063SOL    HW1 4088   3.757   6.690   5.191
 1063SOL    HW2 4089   3.700   6.557   5.115
 1064SOL     OW 4090   1.836   3.686   0.164
 1064SOL    HW1 4091   1.902   3.614   0.188
 1064SOL    HW2 4092   1.758   3.646   0.116
 1065SOL     OW 4093   5.145   0.575   4.692
 1065SOL    HW1 4094   5.047   0.559   4.693
 1065SOL    HW2 4095   5.187   0.521   4.618
 1066SOL     OW 4096   5.399   6.898   1.654
 1066SOL    HW1 4097   5.417   6.818   1.711
 1066SOL    HW2 4098   5.317   6.944   1.687
 1067SOL     OW 4099   2.675   1.606   0.446
 1067SOL    HW1 4100   2.761   1.580   0.401
 1067SOL    HW2 4101   2.600   1.597   0.381
 1068SOL     OW 4102   6.756   2.740   1.361
 1068SOL    HW1 4103   6.736   2.810   1.429
 1068SOL    HW2 4104   6.849   2.705   1.376
 1069SOL     OW 4105   6.206   3.363   1.783
 1069SOL    HW1 4106   6.252   3.452   1.783
 1069SOL    HW2 4107   6.201   3.328   1.877
 1070SOL     OW 4108   1.394   0.012   2.145
 1070SOL    HW1 4109   1.416   6.935   2.148
 1070SOL    HW2 4110   1.375   0.039   2.051
 1071SOL     OW 4111   0.200   2.699   5.154
 1071SOL    HW1 4112   0.189   2.767   5.227
 1071SOL    HW2 4113   0.290   2.657   5.162
 1072SOL     OW 4114   1.757   1.737   2.063
 1072SOL    HW1 4115   1.660   1.762   2.072
 1072SOL    HW2 4116   1.804   1.756   2.150
 1073SOL     OW 4117   4.548   1.948   3.390
 1073SOL    HW1 4118   4.466   1.978   3.342
 1073SOL    HW2 4119   4.548   1.849   3.398
 1074SOL     OW 4120   2.820   4.803   1.825
 1074SOL    HW1 4121   2.826   4.712   1.868
 1074SOL    HW2 4122   2.817   4.873   1.897
 1075SOL     OW 4123   6.224   4.484   5.901
 1075SOL    HW1 4124   6.310   4.508   5.856
 1075SOL    HW2 4125   6.210   4.385   5.896
 1076SOL     OW 4126   1.900   4.436   4.779
 1076SOL    HW1 4127   1.976   4.502   4.785
 1076SOL    HW2 4128   1.922   4.355   4.832
 1077SOL     OW 4129   6.968   6.943   0.109
 1077SOL    HW1 4130   0.040   6.921   0.139
 1077SOL    HW2 4131   6.958   0.021   0.103
 1078SOL     OW 4132   6.101   6.701   4.591
 1078SOL    HW1 4133   6.097   6.655   4.502
 1078SOL    HW2 4134   6.046   6.784   4.588
 1079SOL     OW 4135   1.127   6.916   1.690
 1079SOL    HW1 4136   1.123   7.015   1.702
 1079SOL    HW2 4137   1.036   6.882   1.664
 1080SOL     OW 4138   3.516   6.166   6.627
 1080SOL    HW1 4139   3.481   6.089   6.681
 1080SOL    HW2 4140   3.440   6.228   6.605
 1081SOL     OW 4141   6.736   6.226   4.458
 1081SOL    HW1 4142   6.804   6.212   4.386
 1081SOL    HW2 4143   6.696   6.138   4.482
 1082SOL     OW 4144   4.191   6.990   6.919
 1082SOL    HW1 4145   4.257   6.972   6.846
 1082SOL    HW2 4146   4.201   0.064   6.950
 1083SOL     OW 4147   5.096   4.278   1.585
 1083SOL    HW1 4148   5.162   4.346   1.553
 1083SOL    HW2 4149   5.110   4.263   1.683
 1084SOL     OW 4150   6.410   0.666   5.093
 1084SOL    HW1 4151   6.509   0.659   5.085
 1084SOL    HW2 4152   6.366   0.595   5.039
 1085SOL     OW 4153   1.921   3.793   4.397
 1085SOL    HW1 4154   1.994   3.734   4.362
 1085SOL    HW2 4155   1.890   3.758   4.485
 1086SOL     OW 4156   5.612   5.705   0.950
 1086SOL    HW1 4157   5.638   5.802   0.945
 1086SOL    HW2 4158   5.681   5.655   1.003
 1087SOL     OW 4159   3.346   0.109   5.486
 1087SOL    HW1 4160   3.276   0.063   5.540
 1087SOL    HW2 4161   3.341   0.078   5.391
 1088SOL     OW 4162   6.567   5.057   3.282
 1088SOL    HW1 4163   6.543   5.051   3.185
 1088SOL    HW2 4164   6.654   5.104   3.291
 1089SOL     OW 4165   6.485   4.703   4.244
 1089SOL    HW1 4166   6.561   4.642   4.222
 1089SOL    HW2 4167   6.509   4.797   4.220
 1090SOL     OW 4168   5.168   1.884   5.416
 1090SOL    HW1 4169   5.247   1.848   5.467
 1090SOL    HW2 4170   5.179   1.862   5.319
 1091SOL     OW 4171   2.199   2.325   2.876
 1091SOL    HW1 4172   2.141   2.349   2.954
 1091SOL    HW2 4173   2.285   2.286   2.909
 1092SOL     OW 4174   0.522   5.489   0.853
 1092SOL    HW1 4175   0.425   5.469   0.838
 1092SOL    HW2 4176   0.558   5.539   0.774
 1093SOL     OW 4177   2.004   0.678   2.884
 1093SOL    HW1 4178   2.090   0.630   2.900
 1093SOL    HW2 4179   1.929   0.612   2.881
 1094SOL     OW 4180   0.742   0.465   3.277
 1094SOL    HW1 4181   0.648   0.433   3.270
 1094SOL    HW2 4182   0.753   0.548   3.223
 1095SOL     OW 4183   5.109   3.222   0.176
 1095SOL    HW1 4184   5.129   3.156   0.104
 1095SOL    HW2 4185   5.083   3.173   0.260
 1096SOL     OW 4186   3.082   6.491   1.665
 1096SOL    HW1 4187   3.079   6.402   1.711
 1096SOL    HW2 4188   3.100   6.563   1.733
 1097SOL     OW 4189   3.053   5.778   4.552
 1097SOL    HW1 4190   3.148   5.747   4.554
 1097SOL    HW2 4191   3.048   5.866   4.504
 1098SOL     OW 4192   6.323   4.249   0.505
 1098SOL    HW1 4193   6.264   4.322   0.541
 1098SOL    HW2 4194   6.341   4.182   0.577
 1099SOL     OW 4195   4.251   6.736   5.618
 1099SOL    HW1 4196   4.227   6.818   5.564
 1099SOL    HW2 4197   4.311   6.677   5.564
 1100SOL     OW 4198   3.830   1.629   4.378
 1100SOL    HW1 4199   3.840   1.620   4.478
 1100SOL    HW2 4200   3.734   1.626   4.354
 1101SOL     OW 4201   5.283   3.467   6.380
 1101SOL    HW1 4202   5.205   3.468   6.443
 1101SOL    HW2 4203   5.266   3.401   6.307
 1102SOL     OW 4204   2.996   1.031   3.201
 1102SOL    HW1 4205   2.899   1.051   3.186
 1102SOL    HW2 4206   3.023   0.952   3.146
 1103SOL     OW 4207   3.416   6.934   0.148
 1103SOL    HW1 4208   3.446   6.899   0.059
 1103SOL    HW2 4209   3.474   6.898   0.220
 1104SOL     OW 4210   0.676   3.099   4.025
 1104SOL    HW1 4211   0.725   3.017   3.998
 1104SOL    HW2 4212   0.737   3.159   4.077
 1105SOL     OW 4213   5.130   1.120   5.770
 1105SOL    HW1 4214   5.194   1.117   5.693
 1105SOL    HW2 4215   5.118   1.214   5.800
 1106SOL     OW 4216   6.877   1.574   0.403
 1106SOL    HW1 4217   6.928   1.658   0.420
 1106SOL    HW2 4218   6.787   1.596   0.366
 1107SOL     OW 4219   0.823   1.503   6.669
 1107SOL    HW1 4220   0.816   1.478   6.765
 1107SOL    HW2 4221   0.905   1.462   6.629
 1108SOL     OW 4222   2.470   0.162   3.986
 1108SOL    HW1 4223   2.562   0.145   3.950
 1108SOL    HW2 4224   2.424   0.228   3.927
 1109SOL     OW 4225   4.547   1.935   4.951
 1109SOL    HW1 4226   4.575   2.029   4.935
 1109SOL    HW2 4227   4.448   1.931   4.964
 1110SOL     OW 4228   2.597   0.903   2.395
 1110SOL    HW1 4229   2.680   0.861   2.432
 1110SOL    HW2 4230   2.610   0.923   2.298
 1111SOL     OW 4231   5.990   4.349   6.531
 1111SOL    HW1 4232   6.037   4.384   6.612
 1111SOL    HW2 4233   5.930   4.420   6.494
 1112SOL     OW 4234   5.522   0.431   2.016
 1112SOL    HW1 4235   5.495   0.525   2.039
 1112SOL    HW2 4236   5.574   0.432   1.931
 1113SOL     OW 4237   5.675   4.334   2.620
 1113SOL    HW1 4238   5.748   4.387   2.577
 1113SOL    HW2 4239   5.673   4.352   2.718
 1114SOL     OW 4240   3.412   4.162   4.977
 1114SOL    HW1 4241   3.319   4.199   4.979
 1114SOL    HW2 4242   3.410   4.070   4.936
 1115SOL     OW 4243   2.630   4.273   5.393
 1115SOL    HW1 4244   2.689   4.214   5.339
 1115SOL    HW2 4245   2.664   4.367   5.389
 1116SOL     OW 4246   4.373   6.985   6.730
 1116SOL    HW1 4247   4.325   6.979   6.643
 1116SOL    HW2 4248   4.463   0.005   6.715
 1117SOL     OW 4249   2.268   2.547   1.622
 1117SOL    HW1 4250   2.301   2.465   1.576
 1117SOL    HW2 4251   2.262   2.622   1.555
 1118SOL     OW 4252   3.906   5.318   0.008
 1118SOL    HW1 4253   3.891   5.276   0.097
 1118SOL    HW2 4254   3.901   5.418   0.016
 1119SOL     OW 4255   2.708   5.278   4.286
 1119SOL    HW1 4256   2.751   5.368   4.274
 1119SOL    HW2 4257   2.743   5.215   4.216
 1120SOL     OW 4258   0.008   4.142   1.132
 1120SOL    HW1 4259   6.979   4.172   1.051
 1120SOL    HW2 4260   7.001   4.049   1.156
 1121SOL     OW 4261   6.989   4.623   4.334
 1121SOL    HW1 4262   0.004   4.576   4.253
 1121SOL    HW2 4263   6.962   4.716   4.309
 1122SOL     OW 4264   5.578   2.475   2.033
 1122SOL    HW1 4265   5.615   2.426   1.954
 1122SOL    HW2 4266   5.580   2.415   2.113
 1123SOL     OW 4267   3.753   1.128   3.485
 1123SOL    HW1 4268   3.771   1.225   3.473
 1123SOL    HW2 4269   3.675   1.115   3.546
 1124SOL     OW 4270   2.235   2.554   4.262
 1124SOL    HW1 4271   2.304   2.482   4.267
 1124SOL    HW2 4272   2.224   2.595   4.353
 1125SOL     OW 4273   2.146   3.845   3.436
 1125SOL    HW1 4274   2.168   3.774   3.504
 1125SOL    HW2 4275   2.191   3.930   3.462
 1126SOL     OW 4276   4.132   4.829   4.742
 1126SOL    HW1 4277   4.173   4.774   4.815
 1126SOL    HW2 4278   4.081   4.905   4.782
 1127SOL     OW 4279   6.113   6.612   2.303
 1127SOL    HW1 4280   6.197   6.599   2.252
 1127SOL    HW2 4281   6.077   6.704   2.286
 1128SOL     OW 4282   4.940   1.092   4.113
 1128SOL    HW1 4283   4.954   1.108   4.210
 1128SOL    HW2 4284   4.978   1.167   4.060
 1129SOL     OW 4285   1.259   1.121   0.826
 1129SOL    HW1 4286   1.332   1.083   0.884
 1129SOL    HW2 4287   1.172   1.114   0.873
 1130SOL     OW 4288   2.005   4.511   2.055
 1130SOL    HW1 4289   2.090   4.554   2.087
 1130SOL    HW2 4290   1.968   4.563   1.979
 1131SOL     OW 4291   1.080   5.400   4.074
 1131SOL    HW1 4292   1.143   5.357   4.009
 1131SOL    HW2 4293   0.986   5.376   4.050
 1132SOL     OW 4294   2.598   1.338   2.667
 1132SOL    HW1 4295   2.587   1.433   2.697
 1132SOL    HW2 4296   2.547   1.324   2.581
 1133SOL     OW 4297   0.766   0.130   5.929
 1133SOL    HW1 4298   0.745   0.075   6.010
 1133SOL    HW2 4299   0.865   0.144   5.923
 1134SOL     OW 4300   3.902   6.606   1.525
 1134SOL    HW1 4301   3.898   6.525   1.466
 1134SOL    HW2 4302   3.810   6.625   1.560
 1135SOL     OW 4303   2.228   5.812   3.552
 1135SOL    HW1 4304   2.269   5.832   3.640
 1135SOL    HW2 4305   2.146   5.867   3.540
 1136SOL     OW 4306   1.821   5.422   1.935
 1136SOL    HW1 4307   1.792   5.327   1.923
 1136SOL    HW2 4308   1.779   5.459   2.018
 1137SOL     OW 4309   1.018   5.388   5.192
 1137SOL    HW1 4310   0.998   5.293   5.167
 1137SOL    HW2 4311   0.992   5.449   5.118
 1138SOL     OW 4312   2.142   3.566   4.642
 1138SOL    HW1 4313   2.218   3.582   4.580
 1138SOL    HW2 4314   2.110   3.652   4.680
 1139SOL     OW 4315   2.671   5.582   5.057
 1139SOL    HW1 4316   2.745   5.526   5.092
 1139SOL    HW2 4317   2.628   5.537   4.979
 1140SOL     OW 4318   1.907   2.146   1.179
 1140SOL    HW1 4319   1.925   2.244   1.185
 1140SOL    HW2 4320   1.990   2.098   1.150
 1141SOL     OW 4321   0.333   4.922   5.845
 1141SOL    HW1 4322   0.400   4.982   5.889
 1141SOL    HW2 4323   0.347   4.828   5.876
 1142SOL     OW 4324   2.427   6.225   2.002
 1142SOL    HW1 4325   2.385   6.212   2.092
 1142SOL    HW2 4326   2.400   6.150   1.941
 1143SOL     OW 4327   0.747   4.061   1.794
 1143SOL    HW1 4328   0.788   4.129   1.853
 1143SOL    HW2 4329   0.774   4.078   1.699
 1144SOL     OW 4330   5.851   4.589   0.597
 1144SOL    HW1 4331   5.781   4.518   0.605
 1144SOL    HW2 4332   5.899   4.598   0.684
 1145SOL     OW 4333   6.054   0.207   1.015
 1145SOL    HW1 4334   6.029   0.301   1.040
 1145SOL    HW2 4335   6.153   0.195   1.027
 1146SOL     OW 4336   0.720   1.209   1.108
 1146SOL    HW1 4337   0.707   1.136   1.175
 1146SOL    HW2 4338   0.795   1.268   1.137
 1147SOL     OW 4339   2.558   6.334   1.246
 1147SOL    HW1 4340   2.498   6.342   1.325
 1147SOL    HW2 4341   2.533   6.253   1.193
 1148SOL     OW 4342   4.545   5.509   3.341
 1148SOL    HW1 4343   4.500   5.422   3.322
 1148SOL    HW2 4344   4.623   5.494   3.403
 1149SOL     OW 4345   4.343   3.171   1.462
 1149SOL    HW1 4346   4.300   3.246   1.413
 1149SOL    HW2 4347   4.420   3.136   1.409
 1150SOL     OW 4348   1.795   3.716   0.601
 1150SOL    HW1 4349   1.820   3.774   0.523
 1150SOL    HW2 4350   1.735   3.642   0.570
 1151SOL     OW 4351   6.408   5.427   4.103
 1151SOL    HW1 4352   6.315   5.396   4.081
 1151SOL    HW2 4353   6.451   5.463   4.020
 1152SOL     OW 4354   3.593   6.503   6.115
 1152SOL    HW1 4355   3.564   6.432   6.179
 1152SOL    HW2 4356   3.605   6.590   6.164
 1153SOL     OW 4357   6.140   0.009   1.406
 1153SOL    HW1 4358   6.165   6.938   1.376
 1153SOL    HW2 4359   6.191   0.032   1.489
 1154SOL     OW 4360   2.121   2.604   1.086
 1154SOL    HW1 4361   2.086   2.590   1.179
 1154SOL    HW2 4362   2.162   2.695   1.080
 1155SOL     OW 4363   2.974   6.754   4.469
 1155SOL    HW1 4364   2.910   6.765   4.393
 1155SOL    HW2 4365   3.061   6.796   4.445
 1156SOL     OW 4366   2.645   1.732   3.861
 1156SOL    HW1 4367   2.636   1.827   3.889
 1156SOL    HW2 4368   2.593   1.674   3.924
 1157SOL     OW 4369   3.581   0.954   0.103
 1157SOL    HW1 4370   3.644   1.032   0.106
 1157SOL    HW2 4371   3.526   0.952   0.187
 1158SOL     OW 4372   5.710   4.844   3.423
 1158SOL    HW1 4373   5.795   4.867   3.376
 1158SOL    HW2 4374   5.688   4.915   3.490
 1159SOL     OW 4375   6.069   5.255   1.231
 1159SOL    HW1 4376   6.092   5.326   1.296
 1159SOL    HW2 4377   6.149   5.196   1.215
 1160SOL     OW 4378   5.600   1.864   0.312
 1160SOL    HW1 4379   5.574   1.785   0.369
 1160SOL    HW2 4380   5.518   1.907   0.276
 1161SOL     OW 4381   7.002   5.507   0.740
 1161SOL    HW1 4382   0.010   5.488   0.647
 1161SOL    HW2 4383   7.000   5.421   0.792
 1162SOL     OW 4384   3.109   2.134   4.784
 1162SOL    HW1 4385   3.104   2.178   4.874
 1162SOL    HW2 4386   3.055   2.049   4.786
 1163SOL     OW 4387   5.648   3.118   1.694
 1163SOL    HW1 4388   5.553   3.111   1.663
 1163SOL    HW2 4389   5.691   3.028   1.690
 1164SOL     OW 4390   4.344   2.190   5.566
 1164SOL    HW1 4391   4.249   2.160   5.556
 1164SOL    HW2 4392   4.351   2.287   5.542
 1165SOL     OW 4393   3.947   6.117   3.708
 1165SOL    HW1 4394   3.927   6.207   3.746
 1165SOL    HW2 4395   3.865   6.060   3.714
 1166SOL     OW 4396   3.185   4.455   6.111
 1166SOL    HW1 4397   3.272   4.502   6.131
 1166SOL    HW2 4398   3.118   4.522   6.079
 1167SOL     OW 4399   5.133   4.684   2.640
 1167SOL    HW1 4400   5.092   4.774   2.632
 1167SOL    HW2 4401   5.067   4.620   2.679
 1168SOL     OW 4402   6.253   0.871   3.074
 1168SOL    HW1 4403   6.236   0.821   3.160
 1168SOL    HW2 4404   6.280   0.806   3.003
 1169SOL     OW 4405   5.107   1.041   5.456
 1169SOL    HW1 4406   5.012   1.058   5.429
 1169SOL    HW2 4407   5.109   0.985   5.539
 1170SOL     OW 4408   5.085   6.208   3.813
 1170SOL    HW1 4409   5.077   6.123   3.864
 1170SOL    HW2 4410   5.090   6.285   3.877
 1171SOL     OW 4411   0.802   6.257   1.264
 1171SOL    HW1 4412   0.818   6.201   1.183
 1171SOL    HW2 4413   0.873   6.326   1.272
 1172SOL     OW 4414   6.636   3.633   6.208
 1172SOL    HW1 4415   6.717   3.611   6.154
 1172SOL    HW2 4416   6.589   3.549   6.233
 1173SOL     OW 4417   3.555   1.750   0.674
 1173SOL    HW1 4418   3.545   1.805   0.591
 1173SOL    HW2 4419   3.648   1.715   0.680
 1174SOL     OW 4420   2.636   3.747   0.626
 1174SOL    HW1 4421   2.685   3.791   0.702
 1174SOL    HW2 4422   2.567   3.809   0.590
 1175SOL     OW 4423   3.512   2.872   4.427
 1175SOL    HW1 4424   3.590   2.842   4.371
 1175SOL    HW2 4425   3.436   2.896   4.367
 1176SOL     OW 4426   5.350   3.765   6.122
 1176SOL    HW1 4427   5.403   3.710   6.186
 1176SOL    HW2 4428   5.254   3.767   6.151
 1177SOL     OW 4429   0.026   1.902   4.521
 1177SOL    HW1 4430   6.963   1.956   4.508
 1177SOL    HW2 4431   0.020   1.851   4.607
 1178SOL     OW 4432   3.566   5.230   0.528
 1178SOL    HW1 4433   3.572   5.216   0.627
 1178SOL    HW2 4434   3.479   5.196   0.494
 1179SOL     OW 4435   1.916   5.385   0.226
 1179SOL    HW1 4436   1.825   5.396   0.184
 1179SOL    HW2 4437   1.938   5.288   0.231
 1180SOL     OW 4438   3.226   5.859   0.739
 1180SOL    HW1 4439   3.185   5.934   0.685
 1180SOL    HW2 4440   3.290   5.898   0.805
 1181SOL     OW 4441   0.352   6.426   0.429
 1181SOL    HW1 4442   0.285   6.352   0.433
 1181SOL    HW2 4443   0.385   6.446   0.522
 1182SOL     OW 4444   4.536   4.467   2.749
 1182SOL    HW1 4445   4.622   4.443   2.703
 1182SOL    HW2 4446   4.509   4.392   2.809
 1183SOL     OW 4447   2.481   3.306   5.563
 1183SOL    HW1 4448   2.528   3.237   5.618
 1183SOL    HW2 4449   2.538   3.389   5.559
 1184SOL     OW 4450   0.822   6.798   6.122
 1184SOL    HW1 4451   0.733   6.756   6.105
 1184SOL    HW2 4452   0.813   6.868   6.193
 1185SOL     OW 4453   6.406   1.594   6.542
 1185SOL    HW1 4454   6.428   1.584   6.639
 1185SOL    HW2 4455   6.470   1.540   6.487
 1186SOL     OW 4456   5.723   6.068   4.876
 1186SOL    HW1 4457   5.670   6.003   4.932
 1186SOL    HW2 4458   5.817   6.035   4.867
 1187SOL     OW 4459   5.961   0.646   6.073
 1187SOL    HW1 4460   5.996   0.552   6.072
 1187SOL    HW2 4461   5.972   0.685   6.164
 1188SOL     OW 4462   2.380   0.068   6.051
 1188SOL    HW1 4463   2.337   0.027   6.132
 1188SOL    HW2 4464   2.472   0.031   6.041
 1189SOL     OW 4465   5.567   3.387   3.302
 1189SOL    HW1 4466   5.609   3.306   3.260
 1189SOL    HW2 4467   5.474   3.365   3.332
 1190SOL     OW 4468   2.219   5.806   2.973
 1190SOL    HW1 4469   2.305   5.760   2.996
 1190SOL    HW2 4470   2.163   5.746   2.917
 1191SOL     OW 4471   4.264   5.755   2.569
 1191SOL    HW1 4472   4.179   5.802   2.595
 1191SOL    HW2 4473   4.317   5.735   2.650
 1192SOL     OW 4474   5.577   6.168   3.681
 1192SOL    HW1 4475   5.535   6.194   3.768
 1192SOL    HW2 4476   5.666   6.127   3.698
 1193SOL     OW 4477   6.595   5.269   4.286
 1193SOL    HW1 4478   6.681   5.232   4.252
 1193SOL    HW2 4479   6.541   5.306   4.210
 1194SOL     OW 4480   3.958   1.064   0.774
 1194SOL    HW1 4481   3.867   1.041   0.808
 1194SOL    HW2 4482   4.012   1.103   0.848
 1195SOL     OW 4483   5.263   2.492   3.460
 1195SOL    HW1 4484   5.301   2.534   3.542
 1195SOL    HW2 4485   5.167   2.470   3.475
 1196SOL     OW 4486   6.225   6.543   5.138
 1196SOL    HW1 4487   6.263   6.594   5.060
 1196SOL    HW2 4488   6.146   6.592   5.174
 1197SOL     OW 4489   2.561   6.133   0.543
 1197SOL    HW1 4490   2.489   6.153   0.477
 1197SOL    HW2 4491   2.529   6.156   0.635
 1198SOL     OW 4492   1.500   2.991   0.189
 1198SOL    HW1 4493   1.437   2.916   0.173
 1198SOL    HW2 4494   1.523   3.036   0.102
 1199SOL     OW 4495   5.398   4.034   1.853
 1199SOL    HW1 4496   5.349   4.056   1.769
 1199SOL    HW2 4497   5.496   4.048   1.840
 1200SOL     OW 4498   3.295   3.662   1.862
 1200SOL    HW1 4499   3.368   3.625   1.918
 1200SOL    HW2 4500   3.220   3.596   1.857
 1201SOL     OW 4501   1.735   2.019   4.798
 1201SOL    HW1 4502   1.764   1.924   4.784
 1201SOL    HW2 4503   1.797   2.064   4.862
 1202SOL     OW 4504   0.465   5.207   5.682
 1202SOL    HW1 4505   0.468   5.307   5.687
 1202SOL    HW2 4506   0.511   5.169   5.762
 1203SOL     OW 4507   4.550   5.732   5.991
 1203SOL    HW1 4508   4.588   5.812   5.944
 1203SOL    HW2 4509   4.576   5.649   5.941
 1204SOL     OW 4510   2.210   6.667   2.817
 1204SOL    HW1 4511   2.201   6.684   2.719
 1204SOL    HW2 4512   2.199   6.569   2.834
 1205SOL     OW 4513   5.212   4.479   2.097
 1205SOL    HW1 4514   5.175   4.572   2.095
 1205SOL    HW2 4515   5.136   4.414   2.096
 1206SOL     OW 4516   3.353   3.519   4.996
 1206SOL    HW1 4517   3.333   3.422   4.981
 1206SOL    HW2 4518   3.450   3.536   4.980
 1207SOL     OW 4519   1.549   6.464   2.068
 1207SOL    HW1 4520   1.480   6.404   2.028
 1207SOL    HW2 4521   1.613   6.493   1.997
 1208SOL     OW 4522   3.457   4.060   5.943
 1208SOL    HW1 4523   3.372   4.009   5.955
 1208SOL    HW2 4524   3.512   4.017   5.871
 1209SOL     OW 4525   4.143   6.542   5.398
 1209SOL    HW1 4526   4.077   6.546   5.473
 1209SOL    HW2 4527   4.219   6.483   5.423
 1210SOL     OW 4528   3.339   0.975   3.182
 1210SOL    HW1 4529   3.365   1.049   3.244
 1210SOL    HW2 4530   3.302   1.014   3.097
 1211SOL     OW 4531   1.313   3.523   0.279
 1211SOL    HW1 4532   1.361   3.440   0.309
 1211SOL    HW2 4533   1.242   3.546   0.346
 1212SOL     OW 4534   1.768   6.411   0.220
 1212SOL    HW1 4535   1.738   6.426   0.315
 1212SOL    HW2 4536   1.704   6.457   0.158
 1213SOL     OW 4537   5.582   2.868   1.487
 1213SOL    HW1 4538   5.677   2.840   1.477
 1213SOL    HW2 4539   5.523   2.806   1.434
 1214SOL     OW 4540   0.340   2.522   1.465
 1214SOL    HW1 4541   0.361   2.614   1.497
 1214SOL    HW2 4542   0.324   2.524   1.366
 1215SOL     OW 4543   1.351   5.574   4.446
 1215SOL    HW1 4544   1.269   5.532   4.407
 1215SOL    HW2 4545   1.331   5.668   4.471
 1216SOL     OW 4546   4.596   6.377   0.686
 1216SOL    HW1 4547   4.500   6.355   0.667
 1216SOL    HW2 4548   4.609   6.384   0.785
 1217SOL     OW 4549   3.058   4.111   6.848
 1217SOL    HW1 4550   3.001   4.192   6.861
 1217SOL    HW2 4551   3.041   4.047   6.923
 1218SOL     OW 4552   1.817   5.046   3.459
 1218SOL    HW1 4553   1.811   4.980   3.384
 1218SOL    HW2 4554   1.752   5.120   3.443
 1219SOL     OW 4555   4.194   6.137   2.719
 1219SOL    HW1 4556   4.137   6.055   2.731
 1219SOL    HW2 4557   4.290   6.112   2.724
 1220SOL     OW 4558   0.872   4.589   2.696
 1220SOL    HW1 4559   0.927   4.608   2.614
 1220SOL    HW2 4560   0.883   4.493   2.722
 1221SOL     OW 4561   5.445   4.034   6.076
 1221SOL    HW1 4562   5.424   3.937   6.074
 1221SOL    HW2 4563   5.542   4.047   6.095
 1222SOL     OW 4564   6.622   6.548   6.530
 1222SOL    HW1 4565   6.665   6.458   6.533
 1222SOL    HW2 4566   6.600   6.572   6.435
 1223SOL     OW 4567   3.363   6.129   0.539
 1223SOL    HW1 4568   3.392   6.129   0.635
 1223SOL    HW2 4569   3.434   6.171   0.483
 1224SOL     OW 4570   3.526   0.337   1.952
 1224SOL    HW1 4571   3.454   0.335   1.882
 1224SOL    HW2 4572   3.577   0.423   1.944
 1225SOL     OW 4573   2.660   4.008   6.217
 1225SOL    HW1 4574   2.613   3.932   6.171
 1225SOL    HW2 4575   2.718   3.971   6.290
 1226SOL     OW 4576   2.248   4.159   1.127
 1226SOL    HW1 4577   2.205   4.100   1.195
 1226SOL    HW2 4578   2.348   4.152   1.135
 1227SOL     OW 4579   0.170   3.567   6.486
 1227SOL    HW1 4580   0.100   3.554   6.556
 1227SOL    HW2 4581   0.245   3.503   6.501
 1228SOL     OW 4582   3.905   1.377   5.821
 1228SOL    HW1 4583   3.954   1.292   5.839
 1228SOL    HW2 4584   3.936   1.417   5.735
 1229SOL     OW 4585   3.337   4.369   6.457
 1229SOL    HW1 4586   3.242   4.358   6.426
 1229SOL    HW2 4587   3.370   4.460   6.433
 1230SOL     OW 4588   4.578   6.313   3.376
 1230SOL    HW1 4589   4.584   6.412   3.362
 1230SOL    HW2 4590   4.493   6.279   3.335
 1231SOL     OW 4591   1.713   4.732   4.308
 1231SOL    HW1 4592   1.628   4.695   4.270
 1231SOL    HW2 4593   1.713   4.722   4.407
 1232SOL     OW 4594   1.870   2.354   4.514
 1232SOL    HW1 4595   1.953   2.307   4.485
 1232SOL    HW2 4596   1.790   2.296   4.497
 1233SOL     OW 4597   1.006   2.943   4.497
 1233SOL    HW1 4598   1.048   2.932   4.406
 1233SOL    HW2 4599   1.055   3.014   4.548
 1234SOL     OW 4600   6.408   4.362   4.487
 1234SOL    HW1 4601   6.501   4.395   4.504
 1234SOL    HW2 4602   6.342   4.430   4.520
 1235SOL     OW 4603   6.302   5.875   4.134
 1235SOL    HW1 4604   6.339   5.892   4.042
 1235SOL    HW2 4605   6.363   5.913   4.203
 1236SOL     OW 4606   4.969   0.958   0.033
 1236SOL    HW1 4607   4.911   1.038   0.024
 1236SOL    HW2 4608   4.972   0.910   6.966
 1237SOL     OW 4609   2.843   4.423   6.523
 1237SOL    HW1 4610   2.852   4.344   6.462
 1237SOL    HW2 4611   2.891   4.501   6.483
 1238SOL     OW 4612   1.695   1.396   1.466
 1238SOL    HW1 4613   1.636   1.465   1.423
 1238SOL    HW2 4614   1.640   1.315   1.488
 1239SOL     OW 4615   0.182   6.827   6.395
 1239SOL    HW1 4616   0.223   6.881   6.468
 1239SOL    HW2 4617   0.246   6.822   6.318
 1240SOL     OW 4618   4.249   5.910   2.231
 1240SOL    HW1 4619   4.348   5.904   2.225
 1240SOL    HW2 4620   4.217   5.987   2.176
 1241SOL     OW 4621   6.508   3.262   3.240
 1241SOL    HW1 4622   6.414   3.229   3.232
 1241SOL    HW2 4623   6.515   3.324   3.318
 1242SOL     OW 4624   2.339   3.549   6.618
 1242SOL    HW1 4625   2.360   3.633   6.668
 1242SOL    HW2 4626   2.300   3.572   6.528
 1243SOL     OW 4627   2.778   5.066   5.335
 1243SOL    HW1 4628   2.828   4.996   5.285
 1243SOL    HW2 4629   2.680   5.044   5.336
 1244SOL     OW 4630   0.822   0.738   3.176
 1244SOL    HW1 4631   0.883   0.740   3.096
 1244SOL    HW2 4632   0.804   0.831   3.207
 1245SOL     OW 4633   2.802   2.965   5.930
 1245SOL    HW1 4634   2.819   3.060   5.906
 1245SOL    HW2 4635   2.888   2.914   5.931
 1246SOL     OW 4636   1.145   6.768   2.632
 1246SOL    HW1 4637   1.048   6.782   2.654
 1246SOL    HW2 4638   1.201   6.798   2.710
 1247SOL     OW 4639   1.658   6.329   6.637
 1247SOL    HW1 4640   1.607   6.375   6.709
 1247SOL    HW2 4641   1.686   6.238   6.667
 1248SOL     OW 4642   2.011   5.952   3.504
 1248SOL    HW1 4643   1.968   5.974   3.417
 1248SOL    HW2 4644   1.948   5.973   3.579
 1249SOL     OW 4645   5.939   3.410   3.125
 1249SOL    HW1 4646   5.889   3.324   3.115
 1249SOL    HW2 4647   5.991   3.408   3.211
 1250SOL     OW 4648   0.622   4.538   4.295
 1250SOL    HW1 4649   0.657   4.461   4.243
 1250SOL    HW2 4650   0.696   4.601   4.316
 1251SOL     OW 4651   3.585   7.003   5.246
 1251SOL    HW1 4652   3.604   0.073   5.282
 1251SOL    HW2 4653   3.486   6.994   5.229
 1252SOL     OW 4654   3.470   3.374   6.729
 1252SOL    HW1 4655   3.495   3.278   6.714
 1252SOL    HW2 4656   3.478   3.424   6.643
 1253SOL     OW 4657   4.390   5.938   3.355
 1253SOL    HW1 4658   4.427   6.031   3.353
 1253SOL    HW2 4659   4.399   5.900   3.447
 1254SOL     OW 4660   6.787   1.570   2.553
 1254SOL    HW1 4661   6.713   1.540   2.612
 1254SOL    HW2 4662   6.875   1.553   2.598
 1255SOL     OW 4663   6.119   0.036   0.471
 1255SOL    HW1 4664   6.188   7.000   0.426
 1255SOL    HW2 4665   6.084   0.103   0.405
 1256SOL     OW 4666   4.291   1.490   3.780
 1256SOL    HW1 4667   4.374   1.434   3.787
 1256SOL    HW2 4668   4.314   1.581   3.746
 1257SOL     OW 4669   6.589   1.122   4.128
 1257SOL    HW1 4670   6.540   1.183   4.067
 1257SOL    HW2 4671   6.542   1.034   4.132
 1258SOL     OW 4672   6.815   6.743   4.050
 1258SOL    HW1 4673   6.889   6.684   4.082
 1258SOL    HW2 4674   6.799   6.816   4.116
 1259SOL     OW 4675   4.346   2.270   5.213
 1259SOL    HW1 4676   4.296   2.341   5.163
 1259SOL    HW2 4677   4.337   2.287   5.312
 1260SOL     OW 4678   0.917   1.150   6.477
 1260SOL    HW1 4679   0.969   1.234   6.464
 1260SOL    HW2 4680   0.965   1.073   6.434
 1261SOL     OW 4681   6.529   3.950   0.931
 1261SOL    HW1 4682   6.523   3.993   0.841
 1261SOL    HW2 4683   6.458   3.881   0.940
 1262SOL     OW 4684   5.127   5.843   2.519
 1262SOL    HW1 4685   5.050   5.884   2.470
 1262SOL    HW2 4686   5.096   5.762   2.568
 1263SOL     OW 4687   0.062   2.591   3.579
 1263SOL    HW1 4688   0.126   2.521   3.548
 1263SOL    HW2 4689   6.994   2.576   3.537
 1264SOL     OW 4690   0.619   2.950   5.199
 1264SOL    HW1 4691   0.677   2.886   5.249
 1264SOL    HW2 4692   0.650   3.044   5.216
 1265SOL     OW 4693   5.532   6.242   5.482
 1265SOL    HW1 4694   5.484   6.322   5.449
 1265SOL    HW2 4695   5.620   6.269   5.522
 1266SOL     OW 4696   1.545   1.587   5.326
 1266SOL    HW1 4697   1.487   1.538   5.260
 1266SOL    HW2 4698   1.639   1.589   5.292
 1267SOL     OW 4699   3.648   0.379   3.029
 1267SOL    HW1 4700   3.678   0.383   2.934
 1267SOL    HW2 4701   3.713   0.428   3.087
 1268SOL     OW 4702   4.169   2.678   5.576
 1268SOL    HW1 4703   4.215   2.693   5.488
 1268SOL    HW2 4704   4.235   2.691   5.650
 1269SOL     OW 4705   6.077   2.044   4.407
 1269SOL    HW1 4706   6.115   1.954   4.428
 1269SOL    HW2 4707   5.993   2.032   4.354
 1270SOL     OW 4708   6.504   5.610   2.713
 1270SOL    HW1 4709   6.427   5.587   2.773
 1270SOL    HW2 4710   6.559   5.528   2.697
 1271SOL     OW 4711   1.612   1.578   1.020
 1271SOL    HW1 4712   1.624   1.541   0.928
 1271SOL    HW2 4713   1.521   1.555   1.054
 1272SOL     OW 4714   6.241   3.144   6.185
 1272SOL    HW1 4715   6.307   3.145   6.260
 1272SOL    HW2 4716   6.271   3.207   6.113
 1273SOL     OW 4717   1.264   4.475   5.001
 1273SOL    HW1 4718   1.360   4.451   4.992
 1273SOL    HW2 4719   1.215   4.399   5.044
 1274SOL     OW 4720   0.042   5.100   2.507
 1274SOL    HW1 4721   6.983   5.096   2.567
 1274SOL    HW2 4722   0.034   5.030   2.436
 1275SOL     OW 4723   2.428   0.996   3.322
 1275SOL    HW1 4724   2.418   0.951   3.411
 1275SOL    HW2 4725   2.380   0.942   3.253
 1276SOL     OW 4726   5.668   4.774   4.092
 1276SOL    HW1 4727   5.606   4.755   4.168
 1276SOL    HW2 4728   5.644   4.716   4.014
 1277SOL     OW 4729   0.647   5.935   0.648
 1277SOL    HW1 4730   0.572   5.928   0.582
 1277SOL    HW2 4731   0.712   6.005   0.619
 1278SOL     OW 4732   1.122   5.795   3.140
 1278SOL    HW1 4733   1.177   5.816   3.221
 1278SOL    HW2 4734   1.077   5.878   3.108
 1279SOL     OW 4735   3.077   2.843   1.816
 1279SOL    HW1 4736   3.083   2.910   1.890
 1279SOL    HW2 4737   3.163   2.793   1.809
 1280SOL     OW 4738   1.997   2.244   3.872
 1280SOL    HW1 4739   2.060   2.322   3.870
 1280SOL    HW2 4740   1.933   2.255   3.948
 1281SOL     OW 4741   4.892   6.134   5.251
 1281SOL    HW1 4742   4.902   6.068   5.176
 1281SOL    HW2 4743   4.968   6.199   5.248
 1282SOL     OW 4744   0.083   2.651   1.131
 1282SOL    HW1 4745   0.021   2.616   1.062
 1282SOL    HW2 4746   0.170   2.603   1.126
 1283SOL     OW 4747   6.688   2.996   4.627
 1283SOL    HW1 4748   6.652   2.989   4.534
 1283SOL    HW2 4749   6.768   3.055   4.627
 1284SOL     OW 4750   4.171   2.223   2.081
 1284SOL    HW1 4751   4.118   2.202   2.163
 1284SOL    HW2 4752   4.236   2.297   2.101
 1285SOL     OW 4753   4.229   1.161   5.389
 1285SOL    HW1 4754   4.166   1.125   5.457
 1285SOL    HW2 4755   4.243   1.094   5.317
 1286SOL     OW 4756   5.340   1.601   1.331
 1286SOL    HW1 4757   5.351   1.541   1.409
 1286SOL    HW2 4758   5.293   1.685   1.359
 1287SOL     OW 4759   6.851   5.110   4.613
 1287SOL    HW1 4760   6.823   5.128   4.708
 1287SOL    HW2 4761   6.903   5.025   4.610
 1288SOL     OW 4762   4.659   4.614   6.953
 1288SOL    HW1 4763   4.635   4.555   6.876
 1288SOL    HW2 4764   4.588   4.685   6.964
 1289SOL     OW 4765   6.970   6.686   1.273
 1289SOL    HW1 4766   6.873   6.713   1.281
 1289SOL    HW2 4767   6.999   6.694   1.178
 1290SOL     OW 4768   1.216   6.194   5.355
 1290SOL    HW1 4769   1.140   6.260   5.352
 1290SOL    HW2 4770   1.277   6.211   5.278
 1291SOL     OW 4771   6.791   4.756   3.422
 1291SOL    HW1 4772   6.881   4.746   3.465
 1291SOL    HW2 4773   6.803   4.801   3.333
 1292SOL     OW 4774   1.163   6.841   2.003
 1292SOL    HW1 4775   1.243   6.786   2.028
 1292SOL    HW2 4776   1.193   6.926   1.959
 1293SOL     OW 4777   4.542   1.168   0.101
 1293SOL    HW1 4778   4.590   1.098   0.154
 1293SOL    HW2 4779   4.444   1.162   0.119
 1294SOL     OW 4780   2.172   4.563   4.859
 1294SOL    HW1 4781   2.174   4.658   4.890
 1294SOL    HW2 4782   2.187   4.502   4.936
 1295SOL     OW 4783   6.521   4.478   0.644
 1295SOL    HW1 4784   6.509   4.389   0.687
 1295SOL    HW2 4785   6.453   4.488   0.571
 1296SOL     OW 4786   5.219   0.366   5.800
 1296SOL    HW1 4787   5.254   0.440   5.742
 1296SOL    HW2 4788   5.276   0.284   5.788
 1297SOL     OW 4789   0.778   0.466   1.825
 1297SOL    HW1 4790   0.824   0.388   1.867
 1297SOL    HW2 4791   0.685   0.474   1.862
 1298SOL     OW 4792   4.962   0.473   2.471
 1298SOL    HW1 4793   4.943   0.470   2.569
 1298SOL    HW2 4794   4.920   0.395   2.426
 1299SOL     OW 4795   0.771   3.204   4.728
 1299SOL    HW1 4796   0.786   3.106   4.712
 1299SOL    HW2 4797   0.714   3.216   4.810
 1300SOL     OW 4798   1.000   5.203   1.669
 1300SOL    HW1 4799   0.918   5.222   1.616
 1300SOL    HW2 4800   0.987   5.120   1.723
 1301SOL     OW 4801   0.338   0.110   0.538
 1301SOL    HW1 4802   0.421   0.086   0.488
 1301SOL    HW2 4803   0.332   0.210   0.546
 1302SOL     OW 4804   6.076   6.963   5.234
 1302SOL    HW1 4805   6.015   6.896   5.192
 1302SOL    HW2 4806   6.043   0.035   5.215
 1303SOL     OW 4807   3.661   6.653   1.645
 1303SOL    HW1 4808   3.567   6.625   1.622
 1303SOL    HW2 4809   3.658   6.736   1.700
 1304SOL     OW 4810   0.512   0.793   0.719
 1304SOL    HW1 4811   0.599   0.842   0.720
 1304SOL    HW2 4812   0.462   0.813   0.803
 1305SOL     OW 4813   4.572   3.269   6.529
 1305SOL    HW1 4814   4.533   3.178   6.517
 1305SOL    HW2 4815   4.516   3.336   6.480
 1306SOL     OW 4816   2.934   5.615   4.139
 1306SOL    HW1 4817   2.959   5.553   4.214
 1306SOL    HW2 4818   3.015   5.632   4.083
 1307SOL     OW 4819   2.571   2.554   3.353
 1307SOL    HW1 4820   2.650   2.506   3.391
 1307SOL    HW2 4821   2.524   2.494   3.288
 1308SOL     OW 4822   0.404   4.540   6.196
 1308SOL    HW1 4823   0.390   4.552   6.295
 1308SOL    HW2 4824   0.315   4.544   6.150
 1309SOL     OW 4825   5.655   4.875   6.468
 1309SOL    HW1 4826   5.749   4.871   6.434
 1309SOL    HW2 4827   5.607   4.791   6.443
 1310SOL     OW 4828   1.172   4.288   3.332
 1310SOL    HW1 4829   1.233   4.210   3.349
 1310SOL    HW2 4830   1.141   4.285   3.237
 1311SOL     OW 4831   5.653   5.283   0.947
 1311SOL    HW1 4832   5.679   5.248   1.037
 1311SOL    HW2 4833   5.571   5.235   0.915
 1312SOL     OW 4834   2.302   1.164   6.015
 1312SOL    HW1 4835   2.305   1.260   6.045
 1312SOL    HW2 4836   2.392   1.122   6.027
 1313SOL     OW 4837   6.741   5.897   2.081
 1313SOL    HW1 4838   6.691   5.823   2.036
 1313SOL    HW2 4839   6.826   5.914   2.032
 1314SOL     OW 4840   2.273   1.668   5.153
 1314SOL    HW1 4841   2.290   1.642   5.058
 1314SOL    HW2 4842   2.351   1.718   5.188
 1315SOL     OW 4843   6.380   1.507   3.310
 1315SOL    HW1 4844   6.362   1.594   3.354
 1315SOL    HW2 4845   6.407   1.523   3.215
 1316SOL     OW 4846   5.421   0.121   6.636
 1316SOL    HW1 4847   5.464   0.141   6.725
 1316SOL    HW2 4848   5.369   0.202   6.606
 1317SOL     OW 4849   3.662   3.500   5.552
 1317SOL    HW1 4850   3.727   3.492   5.627
 1317SOL    HW2 4851   3.680   3.429   5.484
 1318SOL     OW 4852   1.716   1.818   6.172
 1318SOL    HW1 4853   1.692   1.721   6.174
 1318SOL    HW2 4854   1.666   1.867   6.243
 1319SOL     OW 4855   6.922   0.009   1.096
 1319SOL    HW1 4856   7.014   7.001   1.119
 1319SOL    HW2 4857   6.861   7.014   1.173
 1320SOL     OW 4858   3.447   3.367   5.685
 1320SOL    HW1 4859   3.511   3.416   5.625
 1320SOL    HW2 4860   3.408   3.431   5.751
 1321SOL     OW 4861   6.671   2.706   0.419
 1321SOL    HW1 4862   6.707   2.727   0.510
 1321SOL    HW2 4863   6.645   2.610   0.414
 1322SOL     OW 4864   3.548   2.216   0.377
 1322SOL    HW1 4865   3.602   2.160   0.314
 1322SOL    HW2 4866   3.515   2.297   0.330
 1323SOL     OW 4867   3.837   6.660   0.710
 1323SOL    HW1 4868   3.881   6.712   0.636
 1323SOL    HW2 4869   3.769   6.598   0.671
 1324SOL     OW 4870   2.035   3.816   6.959
 1324SOL    HW1 4871   2.044   3.909   6.924
 1324SOL    HW2 4872   1.956   3.811   7.020
 1325SOL     OW 4873   2.862   5.822   5.288
 1325SOL    HW1 4874   2.946   5.803   5.237
 1325SOL    HW2 4875   2.826   5.738   5.328
 1326SOL     OW 4876   4.779   2.246   4.576
 1326SOL    HW1 4877   4.792   2.257   4.478
 1326SOL    HW2 4878   4.684   2.224   4.596
 1327SOL     OW 4879   5.252   5.542   2.047
 1327SOL    HW1 4880   5.206   5.605   1.984
 1327SOL    HW2 4881   5.193   5.524   2.126
 1328SOL     OW 4882   2.007   2.784   5.360
 1328SOL    HW1 4883   2.085   2.780   5.297
 1328SOL    HW2 4884   1.962   2.872   5.352
 1329SOL     OW 4885   0.915   2.655   3.883
 1329SOL    HW1 4886   1.011   2.642   3.857
 1329SOL    HW2 4887   0.856   2.619   3.810
 1330SOL     OW 4888   6.229   3.041   2.036
 1330SOL    HW1 4889   6.259   3.120   2.090
 1330SOL    HW2 4890   6.281   2.960   2.062
 1331SOL     OW 4891   4.428   1.937   4.165
 1331SOL    HW1 4892   4.338   1.926   4.125
 1331SOL    HW2 4893   4.484   1.855   4.146
 1332SOL     OW 4894   2.156   6.145   6.980
 1332SOL    HW1 4895   2.139   6.122   0.054
 1332SOL    HW2 4896   2.246   6.187   6.971
 1333SOL     OW 4897   3.348   4.141   3.061
 1333SOL    HW1 4898   3.442   4.143   3.094
 1333SOL    HW2 4899   3.344   4.174   2.967
 1334SOL     OW 4900   6.716   3.158   1.677
 1334SOL    HW1 4901   6.696   3.070   1.635
 1334SOL    HW2 4902   6.720   3.148   1.776
 1335SOL     OW 4903   1.014   4.081   2.682
 1335SOL    HW1 4904   0.927   4.044   2.715
 1335SOL    HW2 4905   1.030   4.171   2.724
 1336SOL     OW 4906   2.135   0.301   5.647
 1336SOL    HW1 4907   2.139   0.232   5.719
 1336SOL    HW2 4908   2.194   0.378   5.672
 1337SOL     OW 4909   6.615   0.700   2.960
 1337SOL    HW1 4910   6.634   0.670   3.054
 1337SOL    HW2 4911   6.700   0.734   2.918
 1338SOL     OW 4912   6.547   4.120   4.950
 1338SOL    HW1 4913   6.525   4.110   4.853
 1338SOL    HW2 4914   6.463   4.140   5.001
 1339SOL     OW 4915   6.905   0.194   0.097
 1339SOL    HW1 4916   6.920   0.255   0.174
 1339SOL    HW2 4917   6.839   0.235   0.034
 1340SOL     OW 4918   4.095   2.605   1.195
 1340SOL    HW1 4919   3.999   2.624   1.216
 1340SOL    HW2 4920   4.150   2.618   1.278
 1341SOL     OW 4921   5.039   6.095   0.232
 1341SOL    HW1 4922   5.020   6.017   0.172
 1341SOL    HW2 4923   5.102   6.157   0.186
 1342SOL     OW 4924   2.036   6.545   1.674
 1342SOL    HW1 4925   2.055   6.518   1.768
 1342SOL    HW2 4926   2.088   6.628   1.652
 1343SOL     OW 4927   6.238   6.079   3.533
 1343SOL    HW1 4928   6.161   6.137   3.561
 1343SOL    HW2 4929   6.209   6.021   3.457
 1344SOL     OW 4930   0.654   0.743   4.823
 1344SOL    HW1 4931   0.723   0.803   4.783
 1344SOL    HW2 4932   0.663   0.743   4.922
 1345SOL     OW 4933   0.247   6.476   0.156
 1345SOL    HW1 4934   0.311   6.510   0.087
 1345SOL    HW2 4935   0.295   6.468   0.244
 1346SOL     OW 4936   3.113   5.214   4.806
 1346SOL    HW1 4937   3.186   5.155   4.840
 1346SOL    HW2 4938   3.142   5.310   4.812
 1347SOL     OW 4939   1.106   6.783   6.519
 1347SOL    HW1 4940   1.131   6.879   6.528
 1347SOL    HW2 4941   1.095   6.761   6.422
 1348SOL     OW 4942   0.602   6.435   5.402
 1348SOL    HW1 4943   0.555   6.402   5.484
 1348SOL    HW2 4944   0.608   6.361   5.335
 1349SOL     OW 4945   4.677   2.851   3.910
 1349SOL    HW1 4946   4.644   2.765   3.950
 1349SOL    HW2 4947   4.732   2.901   3.977
 1350SOL     OW 4948   4.238   4.129   6.663
 1350SOL    HW1 4949   4.320   4.171   6.701
 1350SOL    HW2 4950   4.191   4.194   6.603
 1351SOL     OW 4951   0.493   2.663   5.207
 1351SOL    HW1 4952   0.571   2.655   5.144
 1351SOL    HW2 4953   0.504   2.745   5.263
 1352SOL     OW 4954   0.014   0.569   2.309
 1352SOL    HW1 4955   0.077   0.499   2.278
 1352SOL    HW2 4956   6.978   0.532   2.383
 1353SOL     OW 4957   0.790   0.820   0.428
 1353SOL    HW1 4958   0.867   0.840   0.367
 1353SOL    HW2 4959   0.708   0.803   0.374
 1354SOL     OW 4960   4.714   4.751   2.958
 1354SOL    HW1 4961   4.760   4.802   3.031
 1354SOL    HW2 4962   4.725   4.653   2.974
 1355SOL     OW 4963   5.493   3.192   6.115
 1355SOL    HW1 4964   5.406   3.242   6.116
 1355SOL    HW2 4965   5.476   3.097   6.089
 1356SOL     OW 4966   2.706   3.075   0.201
 1356SOL    HW1 4967   2.629   3.025   0.161
 1356SOL    HW2 4968   2.730   3.152   0.142
 1357SOL     OW 4969   1.244   3.338   5.134
 1357SOL    HW1 4970   1.161   3.342   5.077
 1357SOL    HW2 4971   1.248   3.419   5.192
 1358SOL     OW 4972   1.909   6.962   0.295
 1358SOL    HW1 4973   1.866   6.884   0.341
 1358SOL    HW2 4974   1.982   6.999   0.353
 1359SOL     OW 4975   6.986   4.439   1.756
 1359SOL    HW1 4976   0.016   4.426   1.841
 1359SOL    HW2 4977   6.895   4.401   1.766
 1360SOL     OW 4978   1.816   2.538   0.020
 1360SOL    HW1 4979   1.763   2.578   0.095
 1360SOL    HW2 4980   1.912   2.565   0.029
 1361SOL     OW 4981   0.401   4.614   5.189
 1361SOL    HW1 4982   0.314   4.589   5.146
 1361SOL    HW2 4983   0.468   4.542   5.172
 1362SOL     OW 4984   3.146   3.261   2.909
 1362SOL    HW1 4985   3.121   3.183   2.967
 1362SOL    HW2 4986   3.241   3.251   2.881
 1363SOL     OW 4987   0.990   6.273   4.507
 1363SOL    HW1 4988   0.972   6.256   4.604
 1363SOL    HW2 4989   0.985   6.187   4.457
 1364SOL     OW 4990   4.666   4.015   0.703
 1364SOL    HW1 4991   4.596   4.080   0.674
 1364SOL    HW2 4992   4.623   3.937   0.748
 1365SOL     OW 4993   6.863   3.333   6.756
 1365SOL    HW1 4994   6.768   3.363   6.752
 1365SOL    HW2 4995   6.867   3.237   6.781
 1366SOL     OW 4996   3.199   6.646   5.085
 1366SOL    HW1 4997   3.100   6.661   5.087
 1366SOL    HW2 4998   3.218   6.547   5.086
 1367SOL     OW 4999   2.361   1.189   2.258
 1367SOL    HW1 5000   2.341   1.122   2.329
 1367SOL    HW2 5001   2.419   1.261   2.296
 1368SOL     OW 5002   5.379   6.736   3.517
 1368SOL    HW1 5003   5.389   6.640   3.546
 1368SOL    HW2 5004   5.319   6.741   3.437
 1369SOL     OW 5005   0.925   0.732   2.904
 1369SOL    HW1 5006   1.020   0.702   2.903
 1369SOL    HW2 5007   0.865   0.655   2.882
 1370SOL     OW 5008   1.875   0.246   1.435
 1370SOL    HW1 5009   1.915   0.232   1.526
 1370SOL    HW2 5010   1.841   0.340   1.428
 1371SOL     OW 5011   3.914   0.293   6.863
 1371SOL    HW1 5012   3.957   0.357   6.926
 1371SOL    HW2 5013   3.936   0.320   6.769
 1372SOL     OW 5014   3.007   2.116   2.190
 1372SOL    HW1 5015   3.058   2.065   2.122
 1372SOL    HW2 5016   2.959   2.192   2.147
 1373SOL     OW 5017   1.037   5.864   0.815
 1373SOL    HW1 5018   1.074   5.780   0.775
 1373SOL    HW2 5019   1.112   5.921   0.849
 1374SOL     OW 5020   4.958   3.143   0.392
 1374SOL    HW1 5021   4.965   3.077   0.467
 1374SOL    HW2 5022   4.879   3.202   0.408
 1375SOL     OW 5023   0.292   4.025   5.353
 1375SOL    HW1 5024   0.319   4.042   5.258
 1375SOL    HW2 5025   0.229   4.097   5.383
 1376SOL     OW 5026   4.589   1.624   2.454
 1376SOL    HW1 5027   4.579   1.681   2.373
 1376SOL    HW2 5028   4.512   1.639   2.516
 1377SOL     OW 5029   1.105   5.164   4.787
 1377SOL    HW1 5030   1.195   5.206   4.798
 1377SOL    HW2 5031   1.110   5.067   4.813
 1378SOL     OW 5032   1.600   2.539   6.565
 1378SOL    HW1 5033   1.583   2.503   6.656
 1378SOL    HW2 5034   1.567   2.474   6.497
 1379SOL     OW 5035   4.525   6.214   1.253
 1379SOL    HW1 5036   4.561   6.307   1.261
 1379SOL    HW2 5037   4.441   6.215   1.199
 1380SOL     OW 5038   6.383   6.322   2.845
 1380SOL    HW1 5039   6.386   6.380   2.763
 1380SOL    HW2 5040   6.413   6.375   2.924
 1381SOL     OW 5041   6.289   0.180   1.190
 1381SOL    HW1 5042   6.378   0.139   1.171
 1381SOL    HW2 5043   6.235   0.118   1.247
 1382SOL     OW 5044   6.979   5.062   6.485
 1382SOL    HW1 5045   6.933   5.113   6.558
 1382SOL    HW2 5046   0.024   5.122   6.440
 1383SOL     OW 5047   2.704   0.577   0.113
 1383SOL    HW1 5048   2.618   0.591   0.063
 1383SOL    HW2 5049   2.730   0.481   0.107
 1384SOL     OW 5050   2.423   2.281   2.288
 1384SOL    HW1 5051   2.485   2.353   2.256
 1384SOL    HW2 5052   2.476   2.200   2.312
 1385SOL     OW 5053   5.622   2.603   3.710
 1385SOL    HW1 5054   5.685   2.574   3.638
 1385SOL    HW2 5055   5.670   2.601   3.798
 1386SOL     OW 5056   2.164   2.433   3.529
 1386SOL    HW1 5057   2.114   2.473   3.452
 1386SOL    HW2 5058   2.261   2.457   3.521
 1387SOL     OW 5059   2.706   0.618   4.478
 1387SOL    HW1 5060   2.740   0.662   4.560
 1387SOL    HW2 5061   2.629   0.671   4.441
 1388SOL     OW 5062   6.369   1.132   4.791
 1388SOL    HW1 5063   6.456   1.109   4.747
 1388SOL    HW2 5064   6.381   1.210   4.852
 1389SOL     OW 5065   6.532   0.864   4.104
 1389SOL    HW1 5066   6.522   0.781   4.157
 1389SOL    HW2 5067   6.510   0.846   4.008
 1390SOL     OW 5068   4.425   2.328   2.250
 1390SOL    HW1 5069   4.465   2.410   2.290
 1390SOL    HW2 5070   4.343   2.302   2.301
 1391SOL     OW 5071   5.910   1.471   5.015
 1391SOL    HW1 5072   5.824   1.518   5.031
 1391SOL    HW2 5073   5.898   1.405   4.940
 1392SOL     OW 5074   4.621   6.287   5.655
 1392SOL    HW1 5075   4.712   6.281   5.612
 1392SOL    HW2 5076   4.621   6.361   5.721
 1393SOL     OW 5077   5.081   0.264   6.839
 1393SOL    HW1 5078   5.101   0.167   6.838
 1393SOL    HW2 5079   5.144   0.311   6.902
 1394SOL     OW 5080   4.511   0.587   3.642
 1394SOL    HW1 5081   4.477   0.613   3.732
 1394SOL    HW2 5082   4.529   0.670   3.588
 1395SOL     OW 5083   1.571   5.227   2.278
 1395SOL    HW1 5084   1.486   5.255   2.234
 1395SOL    HW2 5085   1.581   5.128   2.272
 1396SOL     OW 5086   1.639   1.289   3.612
 1396SOL    HW1 5087   1.677   1.231   3.539
 1396SOL    HW2 5088   1.541   1.275   3.618
 1397SOL     OW 5089   0.470   5.085   5.080
 1397SOL    HW1 5090   0.414   5.019   5.029
 1397SOL    HW2 5091   0.412   5.132   5.147
 1398SOL     OW 5092   1.799   6.560   6.602
 1398SOL    HW1 5093   1.739   6.485   6.631
 1398SOL    HW2 5094   1.890   6.523   6.582
 1399SOL     OW 5095   3.979   6.831   0.027
 1399SOL    HW1 5096   3.989   6.747   0.079
 1399SOL    HW2 5097   4.067   6.857   7.009
 1400SOL     OW 5098   0.052   1.292   4.951
 1400SOL    HW1 5099   0.142   1.335   4.949
 1400SOL    HW2 5100   0.001   1.324   5.031
 1401SOL     OW 5101   5.186   0.283   2.870
 1401SOL    HW1 5102   5.223   0.321   2.955
 1401SOL    HW2 5103   5.238   0.319   2.793
 1402SOL     OW 5104   0.107   4.653   1.987
 1402SOL    HW1 5105   0.146   4.734   2.032
 1402SOL    HW2 5106   0.132   4.571   2.037
 1403SOL     OW 5107   3.237   3.349   6.420
 1403SOL    HW1 5108   3.293   3.295   6.357
 1403SOL    HW2 5109   3.294   3.419   6.463
 1404SOL     OW 5110   4.405   6.516   1.026
 1404SOL    HW1 5111   4.389   6.550   0.934
 1404SOL    HW2 5112   4.495   6.473   1.031
 1405SOL     OW 5113   1.184   3.694   0.719
 1405SOL    HW1 5114   1.118   3.731   0.785
 1405SOL    HW2 5115   1.254   3.641   0.767
 1406SOL     OW 5116   1.995   2.854   7.002
 1406SOL    HW1 5117   1.937   2.863   6.921
 1406SOL    HW2 5118   2.034   2.943   0.004
 1407SOL     OW 5119   0.946   2.805   1.252
 1407SOL    HW1 5120   0.946   2.758   1.340
 1407SOL    HW2 5121   0.933   2.738   1.179
 1408SOL     OW 5122   5.468   6.570   0.878
 1408SOL    HW1 5123   5.379   6.612   0.898
 1408SOL    HW2 5124   5.496   6.595   0.785
 1409SOL     OW 5125   6.474   1.574   5.457
 1409SOL    HW1 5126   6.386   1.542   5.424
 1409SOL    HW2 5127   6.465   1.669   5.488
 1410SOL     OW 5128   3.112   0.215   0.293
 1410SOL    HW1 5129   3.027   0.268   0.287
 1410SOL    HW2 5130   3.190   0.275   0.273
 1411SOL     OW 5131   3.899   5.119   6.393
 1411SOL    HW1 5132   3.869   5.213   6.410
 1411SOL    HW2 5133   3.910   5.071   6.481
 1412SOL     OW 5134   2.210   2.073   0.562
 1412SOL    HW1 5135   2.225   2.053   0.465
 1412SOL    HW2 5136   2.249   2.000   0.618
 1413SOL     OW 5137   2.122   1.734   5.549
 1413SOL    HW1 5138   2.198   1.792   5.578
 1413SOL    HW2 5139   2.087   1.682   5.627
 1414SOL     OW 5140   0.997   5.164   1.982
 1414SOL    HW1 5141   0.968   5.116   1.899
 1414SOL    HW2 5142   0.942   5.132   2.059
 1415SOL     OW 5143   2.999   1.895   4.841
 1415SOL    HW1 5144   2.923   1.861   4.786
 1415SOL    HW2 5145   3.066   1.822   4.852
 1416SOL     OW 5146   3.972   0.246   4.819
 1416SOL    HW1 5147   3.968   0.328   4.762
 1416SOL    HW2 5148   4.006   0.270   4.909
 1417SOL     OW 5149   3.485   3.580   4.311
 1417SOL    HW1 5150   3.420   3.536   4.248
 1417SOL    HW2 5151   3.439   3.655   4.359
 1418SOL     OW 5152   3.592   3.661   6.021
 1418SOL    HW1 5153   3.655   3.735   6.045
 1418SOL    HW2 5154   3.508   3.699   5.983
 1419SOL     OW 5155   1.294   6.153   2.228
 1419SOL    HW1 5156   1.336   6.126   2.314
 1419SOL    HW2 5157   1.252   6.073   2.185
 1420SOL     OW 5158   3.045   6.110   2.563
 1420SOL    HW1 5159   2.964   6.094   2.507
 1420SOL    HW2 5160   3.026   6.182   2.630
 1421SOL     OW 5161   1.894   5.291   6.489
 1421SOL    HW1 5162   1.942   5.302   6.402
 1421SOL    HW2 5163   1.946   5.336   6.562
 1422SOL     OW 5164   1.751   3.694   6.240
 1422SOL    HW1 5165   1.659   3.719   6.209
 1422SOL    HW2 5166   1.744   3.622   6.310
 1423SOL     OW 5167   3.789   0.508   5.292
 1423SOL    HW1 5168   3.843   0.554   5.222
 1423SOL    HW2 5169   3.729   0.574   5.338
 1424SOL     OW 5170   6.369   2.436   1.042
 1424SOL    HW1 5171   6.455   2.389   1.022
 1424SOL    HW2 5172   6.364   2.520   0.988
 1425SOL     OW 5173   5.351   6.957   4.017
 1425SOL    HW1 5174   5.313   6.979   3.927
 1425SOL    HW2 5175   5.316   7.021   4.085
 1426SOL     OW 5176   4.457   0.292   0.339
 1426SOL    HW1 5177   4.447   0.387   0.370
 1426SOL    HW2 5178   4.505   0.290   0.252
 1427SOL     OW 5179   1.478   0.398   4.186
 1427SOL    HW1 5180   1.398   0.358   4.141
 1427SOL    HW2 5181   1.449   0.454   4.264
 1428SOL     OW 5182   1.943   3.656   3.985
 1428SOL    HW1 5183   1.852   3.653   4.028
 1428SOL    HW2 5184   1.976   3.750   3.983
 1429SOL     OW 5185   6.233   0.330   2.171
 1429SOL    HW1 5186   6.314   0.389   2.170
 1429SOL    HW2 5187   6.188   0.336   2.260
 1430SOL     OW 5188   2.226   4.007   4.295
 1430SOL    HW1 5189   2.241   4.068   4.218
 1430SOL    HW2 5190   2.307   3.950   4.309
 1431SOL     OW 5191   3.451   1.624   0.251
 1431SOL    HW1 5192   3.500   1.575   0.324
 1431SOL    HW2 5193   3.483   1.592   0.162
 1432SOL     OW 5194   4.444   0.157   2.367
 1432SOL    HW1 5195   4.511   0.129   2.436
 1432SOL    HW2 5196   4.365   0.095   2.370
 1433SOL     OW 5197   3.100   1.439   3.947
 1433SOL    HW1 5198   3.063   1.513   3.891
 1433SOL    HW2 5199   3.160   1.477   4.017
 1434SOL     OW 5200   5.717   4.196   0.480
 1434SOL    HW1 5201   5.810   4.183   0.512
 1434SOL    HW2 5202   5.683   4.285   0.511
 1435SOL     OW 5203   1.166   0.253   4.213
 1435SOL    HW1 5204   1.193   0.266   4.117
 1435SOL    HW2 5205   1.187   0.159   4.241
 1436SOL     OW 5206   5.603   0.924   0.319
 1436SOL    HW1 5207   5.693   0.951   0.285
 1436SOL    HW2 5208   5.580   0.833   0.285
 1437SOL     OW 5209   4.003   1.038   0.506
 1437SOL    HW1 5210   3.998   1.127   0.461
 1437SOL    HW2 5211   3.964   1.044   0.598
 1438SOL     OW 5212   2.283   6.901   2.202
 1438SOL    HW1 5213   2.362   6.867   2.252
 1438SOL    HW2 5214   2.200   6.860   2.239
 1439SOL     OW 5215   0.328   5.508   6.552
 1439SOL    HW1 5216   0.373   5.430   6.510
 1439SOL    HW2 5217   0.382   5.540   6.631
 1440SOL     OW 5218   3.976   3.117   2.648
 1440SOL    HW1 5219   3.997   3.168   2.564
 1440SOL    HW2 5220   3.947   3.025   2.625
 1441SOL     OW 5221   6.289   2.511   5.139
 1441SOL    HW1 5222   6.384   2.535   5.124
 1441SOL    HW2 5223   6.233   2.545   5.064
 1442SOL     OW 5224   5.582   6.797   0.300
 1442SOL    HW1 5225   5.598   6.702   0.273
 1442SOL    HW2 5226   5.663   6.832   0.348
 1443SOL     OW 5227   1.662   2.627   3.227
 1443SOL    HW1 5228   1.577   2.652   3.273
 1443SOL    HW2 5229   1.641   2.587   3.138
 1444SOL     OW 5230   5.319   6.911   5.078
 1444SOL    HW1 5231   5.227   6.928   5.111
 1444SOL    HW2 5232   5.381   6.981   5.114
 1445SOL     OW 5233   6.533   1.748   0.527
 1445SOL    HW1 5234   6.518   1.833   0.578
 1445SOL    HW2 5235   6.600   1.692   0.575
 1446SOL     OW 5236   3.795   6.588   1.215
 1446SOL    HW1 5237   3.866   6.638   1.167
 1446SOL    HW2 5238   3.705   6.626   1.190
 1447SOL     OW 5239   6.427   1.349   4.951
 1447SOL    HW1 5240   6.351   1.332   5.014
 1447SOL    HW2 5241   6.505   1.386   5.001
 1448SOL     OW 5242   5.730   0.686   6.852
 1448SOL    HW1 5243   5.718   0.592   6.884
 1448SOL    HW2 5244   5.645   0.736   6.863
 1449SOL     OW 5245   4.641   5.559   1.223
 1449SOL    HW1 5246   4.727   5.598   1.191
 1449SOL    HW2 5247   4.606   5.496   1.154
 1450SOL     OW 5248   6.020   2.091   3.487
 1450SOL    HW1 5249   6.001   2.028   3.562
 1450SOL    HW2 5250   6.073   2.169   3.521
 1451SOL     OW 5251   1.881   6.307   1.885
 1451SOL    HW1 5252   1.962   6.364   1.898
 1451SOL    HW2 5253   1.895   6.246   1.807
 1452SOL     OW 5254   3.657   0.703   5.424
 1452SOL    HW1 5255   3.691   0.762   5.497
 1452SOL    HW2 5256   3.570   0.739   5.389
 1453SOL     OW 5257   4.396   4.736   4.315
 1453SOL    HW1 5258   4.387   4.742   4.414
 1453SOL    HW2 5259   4.321   4.785   4.271
 1454SOL     OW 5260   4.813   4.381   0.716
 1454SOL    HW1 5261   4.777   4.449   0.652
 1454SOL    HW2 5262   4.742   4.313   0.735
 1455SOL     OW 5263   2.322   1.768   1.691
 1455SOL    HW1 5264   2.313   1.821   1.775
 1455SOL    HW2 5265   2.334   1.830   1.614
 1456SOL     OW 5266   6.329   5.483   4.725
 1456SOL    HW1 5267   6.330   5.430   4.641
 1456SOL    HW2 5268   6.256   5.552   4.721
 1457SOL     OW 5269   2.187   0.026   3.361
 1457SOL    HW1 5270   2.226   7.001   3.282
 1457SOL    HW2 5271   2.243   0.008   3.442
 1458SOL     OW 5272   0.010   5.534   0.460
 1458SOL    HW1 5273   0.084   5.471   0.435
 1458SOL    HW2 5274   6.974   5.551   0.380
 1459SOL     OW 5275   2.205   6.946   1.261
 1459SOL    HW1 5276   2.300   6.972   1.278
 1459SOL    HW2 5277   2.147   0.007   1.259
 1460SOL     OW 5278   0.851   6.730   6.868
 1460SOL    HW1 5279   0.816   6.812   6.913
 1460SOL    HW2 5280   0.835   6.650   6.926
 1461SOL     OW 5281   4.979   5.258   2.499
 1461SOL    HW1 5282   4.928   5.312   2.566
 1461SOL    HW2 5283   5.077   5.277   2.509
 1462SOL     OW 5284   5.029   0.259   5.106
 1462SOL    HW1 5285   5.099   0.227   5.171
 1462SOL    HW2 5286   5.063   0.340   5.058
 1463SOL     OW 5287   0.589   1.987   6.198
 1463SOL    HW1 5288   0.641   2.051   6.255
 1463SOL    HW2 5289   0.605   2.009   6.102
 1464SOL     OW 5290   0.707   1.032   1.666
 1464SOL    HW1 5291   0.663   0.978   1.595
 1464SOL    HW2 5292   0.657   1.021   1.752
 1465SOL     OW 5293   0.678   0.624   4.196
 1465SOL    HW1 5294   0.698   0.551   4.262
 1465SOL    HW2 5295   0.581   0.648   4.202
 1466SOL     OW 5296   5.488   5.132   4.720
 1466SOL    HW1 5297   5.404   5.090   4.687
 1466SOL    HW2 5298   5.567   5.080   4.687
 1467SOL     OW 5299   5.817   3.646   3.478
 1467SOL    HW1 5300   5.888   3.621   3.544
 1467SOL    HW2 5301   5.826   3.589   3.396
 1468SOL     OW 5302   5.410   7.013   2.095
 1468SOL    HW1 5303   5.497   7.011   2.046
 1468SOL    HW2 5304   5.337   0.018   2.033
 1469SOL     OW 5305   1.064   1.047   2.072
 1469SOL    HW1 5306   1.073   0.995   2.157
 1469SOL    HW2 5307   0.974   1.092   2.070
 1470SOL     OW 5308   6.759   0.725   3.220
 1470SOL    HW1 5309   6.740   0.644   3.275
 1470SOL    HW2 5310   6.856   0.747   3.223
 1471SOL     OW 5311   6.348   0.459   1.182
 1471SOL    HW1 5312   6.316   0.364   1.180
 1471SOL    HW2 5313   6.342   0.494   1.276
 1472SOL     OW 5314   4.548   5.346   5.088
 1472SOL    HW1 5315   4.579   5.274   5.026
 1472SOL    HW2 5316   4.574   5.435   5.051
 1473SOL     OW 5317   6.151   3.815   2.910
 1473SOL    HW1 5318   6.062   3.854   2.886
 1473SOL    HW2 5319   6.214   3.825   2.833
 1474SOL     OW 5320   4.677   5.188   3.598
 1474SOL    HW1 5321   4.763   5.139   3.606
 1474SOL    HW2 5322   4.695   5.286   3.588
 1475SOL     OW 5323   6.296   0.635   3.680
 1475SOL    HW1 5324   6.228   0.708   3.670
 1475SOL    HW2 5325   6.249   0.548   3.691
 1476SOL     OW 5326   6.696   2.602   1.012
 1476SOL    HW1 5327   6.787   2.561   1.004
 1476SOL    HW2 5328   6.657   2.581   1.102
 1477SOL     OW 5329   2.451   6.116   3.432
 1477SOL    HW1 5330   2.431   6.022   3.405
 1477SOL    HW2 5331   2.497   6.116   3.521
 1478SOL     OW 5332   0.049   4.140   1.537
 1478SOL    HW1 5333   6.998   4.082   1.574
 1478SOL    HW2 5334   0.009   4.221   1.496
 1479SOL     OW 5335   1.157   5.046   0.476
 1479SOL    HW1 5336   1.166   5.111   0.400
 1479SOL    HW2 5337   1.192   4.957   0.448
 1480SOL     OW 5338   2.647   1.036   7.015
 1480SOL    HW1 5339   2.650   0.937   0.009
 1480SOL    HW2 5340   2.722   1.063   6.955
 1481SOL     OW 5341   0.289   2.611   5.942
 1481SOL    HW1 5342   0.304   2.704   5.908
 1481SOL    HW2 5343   0.336   2.600   6.030
 1482SOL     OW 5344   5.213   0.647   6.825
 1482SOL    HW1 5345   5.210   0.600   6.737
 1482SOL    HW2 5346   5.305   0.639   6.864
 1483SOL     OW 5347   6.435   2.050   6.334
 1483SOL    HW1 5348   6.485   2.032   6.250
 1483SOL    HW2 5349   6.426   2.148   6.347
 1484SOL     OW 5350   6.031   6.793   3.306
 1484SOL    HW1 5351   6.054   6.823   3.213
 1484SOL    HW2 5352   6.115   6.776   3.357
 1485SOL     OW 5353   6.054   2.847   3.950
 1485SOL    HW1 5354   5.987   2.822   4.020
 1485SOL    HW2 5355   6.033   2.800   3.864
 1486SOL     OW 5356   5.254   2.147   1.993
 1486SOL    HW1 5357   5.199   2.228   2.013
 1486SOL    HW2 5358   5.195   2.072   1.966
 1487SOL     OW 5359   6.598   1.381   5.926
 1487SOL    HW1 5360   6.518   1.358   5.982
 1487SOL    HW2 5361   6.570   1.388   5.830
 1488SOL     OW 5362   5.014   2.065   3.846
 1488SOL    HW1 5363   4.947   2.000   3.882
 1488SOL    HW2 5364   5.093   2.070   3.907
 1489SOL     OW 5365   3.827   5.526   4.201
 1489SOL    HW1 5366   3.882   5.447   4.173
 1489SOL    HW2 5367   3.859   5.607   4.152
 1490SOL     OW 5368   2.595   2.469   1.338
 1490SOL    HW1 5369   2.563   2.561   1.361
 1490SOL    HW2 5370   2.689   2.474   1.303
 1491SOL     OW 5371   6.776   2.628   5.325
 1491SOL    HW1 5372   6.797   2.716   5.367
 1491SOL    HW2 5373   6.718   2.574   5.387
 1492SOL     OW 5374   5.502   2.774   1.725
 1492SOL    HW1 5375   5.519   2.819   1.637
 1492SOL    HW2 5376   5.579   2.793   1.786
 1493SOL     OW 5377   6.109   1.669   4.993
 1493SOL    HW1 5378   6.118   1.661   4.893
 1493SOL    HW2 5379   6.053   1.593   5.027
 1494SOL     OW 5380   5.722   1.829   4.551
 1494SOL    HW1 5381   5.813   1.868   4.562
 1494SOL    HW2 5382   5.710   1.753   4.615
 1495SOL     OW 5383   0.933   3.497   2.508
 1495SOL    HW1 5384   1.005   3.499   2.577
 1495SOL    HW2 5385   0.922   3.404   2.474
 1496SOL     OW 5386   0.839   1.022   2.817
 1496SOL    HW1 5387   0.881   0.994   2.904
 1496SOL    HW2 5388   0.793   0.943   2.776
 1497SOL     OW 5389   5.431   4.542   5.813
 1497SOL    HW1 5390   5.344   4.586   5.788
 1497SOL    HW2 5391   5.500   4.613   5.829
 1498SOL     OW 5392   2.451   5.459   0.199
 1498SOL    HW1 5393   2.356   5.431   0.189
 1498SOL    HW2 5394   2.499   5.445   0.112
 1499SOL     OW 5395   1.025   4.197   4.572
 1499SOL    HW1 5396   1.028   4.099   4.593
 1499SOL    HW2 5397   0.995   4.211   4.478
 1500SOL     OW 5398   4.505   6.686   5.483
 1500SOL    HW1 5399   4.509   6.740   5.399
 1500SOL    HW2 5400   4.506   6.589   5.460
 1501SOL     OW 5401   4.048   0.375   0.102
 1501SOL    HW1 5402   4.124   0.322   0.063
 1501SOL    HW2 5403   4.050   0.368   0.201
 1502SOL     OW 5404   6.946   6.187   6.797
 1502SOL    HW1 5405   6.976   6.095   6.821
 1502SOL    HW2 5406   0.003   6.239   6.762
 1503SOL     OW 5407   3.350   4.397   5.449
 1503SOL    HW1 5408   3.399   4.365   5.368
 1503SOL    HW2 5409   3.252   4.403   5.428
 1504SOL     OW 5410   2.806   6.800   4.251
 1504SOL    HW1 5411   2.855   6.806   4.164
 1504SOL    HW2 5412   2.772   6.707   4.263
 1505SOL     OW 5413   4.768   6.576   2.298
 1505SOL    HW1 5414   4.807   6.665   2.320
 1505SOL    HW2 5415   4.839   6.518   2.258
 1506SOL     OW 5416   0.866   6.612   3.034
 1506SOL    HW1 5417   0.868   6.588   2.937
 1506SOL    HW2 5418   0.934   6.683   3.052
 1507SOL     OW 5419   2.521   2.541   6.433
 1507SOL    HW1 5420   2.452   2.470   6.418
 1507SOL    HW2 5421   2.582   2.514   6.507
 1508SOL     OW 5422   4.829   6.692   0.795
 1508SOL    HW1 5423   4.905   6.745   0.759
 1508SOL    HW2 5424   4.745   6.717   0.747
 1509SOL     OW 5425   5.427   1.704   0.023
 1509SOL    HW1 5426   5.474   1.700   0.111
 1509SOL    HW2 5427   5.348   1.643   0.024
 1510SOL     OW 5428   6.997   2.112   3.167
 1510SOL    HW1 5429   6.983   2.100   3.069
 1510SOL    HW2 5430   6.998   2.209   3.189
 1511SOL     OW 5431   1.281   2.962   0.746
 1511SOL    HW1 5432   1.230   2.939   0.829
 1511SOL    HW2 5433   1.328   3.049   0.759
 1512SOL     OW 5434   6.363   0.700   2.290
 1512SOL    HW1 5435   6.263   0.708   2.292
 1512SOL    HW2 5436   6.402   0.788   2.261
 1513SOL     OW 5437   3.807   0.955   2.221
 1513SOL    HW1 5438   3.784   0.869   2.176
 1513SOL    HW2 5439   3.738   1.024   2.198
 1514SOL     OW 5440   4.802   1.004   6.442
 1514SOL    HW1 5441   4.895   1.042   6.444
 1514SOL    HW2 5442   4.783   0.968   6.350
 1515SOL     OW 5443   5.953   5.197   5.092
 1515SOL    HW1 5444   5.992   5.157   5.009
 1515SOL    HW2 5445   5.893   5.131   5.136
 1516SOL     OW 5446   0.765   0.914   0.681
 1516SOL    HW1 5447   0.825   0.994   0.680
 1516SOL    HW2 5448   0.771   0.866   0.593
 1517SOL     OW 5449   3.494   5.498   3.530
 1517SOL    HW1 5450   3.527   5.414   3.573
 1517SOL    HW2 5451   3.506   5.575   3.592
 1518SOL     OW 5452   0.969   4.666   0.882
 1518SOL    HW1 5453   0.878   4.650   0.845
 1518SOL    HW2 5454   1.015   4.737   0.829
 1519SOL     OW 5455   0.408   4.053   1.105
 1519SOL    HW1 5456   0.346   4.105   1.162
 1519SOL    HW2 5457   0.457   3.986   1.160
 1520SOL     OW 5458   1.349   2.545   2.829
 1520SOL    HW1 5459   1.349   2.454   2.787
 1520SOL    HW2 5460   1.268   2.595   2.800
 1521SOL     OW 5461   2.385   4.235   5.263
 1521SOL    HW1 5462   2.390   4.146   5.218
 1521SOL    HW2 5463   2.462   4.244   5.327
 1522SOL     OW 5464   0.971   2.581   6.240
 1522SOL    HW1 5465   1.044   2.648   6.247
 1522SOL    HW2 5466   1.003   2.493   6.274
 1523SOL     OW 5467   6.184   1.096   1.219
 1523SOL    HW1 5468   6.259   1.048   1.173
 1523SOL    HW2 5469   6.098   1.049   1.200
 1524SOL     OW 5470   6.315   0.659   2.588
 1524SOL    HW1 5471   6.351   0.732   2.645
 1524SOL    HW2 5472   6.322   0.685   2.492
 1525SOL     OW 5473   4.395   1.087   5.987
 1525SOL    HW1 5474   4.413   1.118   6.080
 1525SOL    HW2 5475   4.400   1.165   5.925
 1526SOL     OW 5476   6.600   1.481   0.297
 1526SOL    HW1 5477   6.580   1.502   0.201
 1526SOL    HW2 5478   6.515   1.483   0.350
 1527SOL     OW 5479   3.029   1.332   5.854
 1527SOL    HW1 5480   3.115   1.281   5.850
 1527SOL    HW2 5481   2.957   1.272   5.889
 1528SOL     OW 5482   5.397   5.694   4.273
 1528SOL    HW1 5483   5.303   5.721   4.293
 1528SOL    HW2 5484   5.446   5.677   4.359
 1529SOL     OW 5485   2.422   0.656   5.387
 1529SOL    HW1 5486   2.468   0.591   5.447
 1529SOL    HW2 5487   2.489   0.694   5.323
 1530SOL     OW 5488   3.322   6.928   1.648
 1530SOL    HW1 5489   3.420   6.942   1.658
 1530SOL    HW2 5490   3.290   6.865   1.719
 1531SOL     OW 5491   5.376   0.528   6.394
 1531SOL    HW1 5492   5.460   0.578   6.416
 1531SOL    HW2 5493   5.371   0.516   6.295
 1532SOL     OW 5494   3.325   2.600   5.291
 1532SOL    HW1 5495   3.277   2.519   5.256
 1532SOL    HW2 5496   3.365   2.579   5.380
 1533SOL     OW 5497   5.082   2.788   6.757
 1533SOL    HW1 5498   5.179   2.799   6.781
 1533SOL    HW2 5499   5.027   2.793   6.840
 1534SOL     OW 5500   6.783   6.595   2.252
 1534SOL    HW1 5501   6.878   6.616   2.228
 1534SOL    HW2 5502   6.723   6.665   2.214
 1535SOL     OW 5503   5.113   4.215   4.241
 1535SOL    HW1 5504   5.181   4.278   4.280
 1535SOL    HW2 5505   5.104   4.233   4.143
 1536SOL     OW 5506   3.237   5.426   3.429
 1536SOL    HW1 5507   3.218   5.329   3.443
 1536SOL    HW2 5508   3.331   5.446   3.455
 1537SOL     OW 5509   2.474   5.613   4.495
 1537SOL    HW1 5510   2.400   5.674   4.470
 1537SOL    HW2 5511   2.554   5.631   4.437
 1538SOL     OW 5512   3.549   4.932   6.298
 1538SOL    HW1 5513   3.626   4.925   6.234
 1538SOL    HW2 5514   3.530   4.842   6.338
 1539SOL     OW 5515   3.797   5.978   2.155
 1539SOL    HW1 5516   3.738   5.898   2.155
 1539SOL    HW2 5517   3.752   6.053   2.203
 1540SOL     OW 5518   5.985   0.202   5.191
 1540SOL    HW1 5519   6.031   0.204   5.102
 1540SOL    HW2 5520   5.909   0.267   5.191
 1541SOL     OW 5521   4.789   1.445   1.217
 1541SOL    HW1 5522   4.696   1.460   1.251
 1541SOL    HW2 5523   4.846   1.524   1.237
 1542SOL     OW 5524   0.893   5.629   0.922
 1542SOL    HW1 5525   0.886   5.563   0.847
 1542SOL    HW2 5526   0.938   5.712   0.890
 1543SOL     OW 5527   3.693   3.829   3.218
 1543SOL    HW1 5528   3.654   3.858   3.130
 1543SOL    HW2 5529   3.709   3.731   3.216
 1544SOL     OW 5530   3.407   3.849   2.608
 1544SOL    HW1 5531   3.374   3.759   2.638
 1544SOL    HW2 5532   3.425   3.906   2.689
 1545SOL     OW 5533   0.144   0.645   4.122
 1545SOL    HW1 5534   0.141   0.646   4.222
 1545SOL    HW2 5535   0.214   0.579   4.092
 1546SOL     OW 5536   6.348   6.571   6.388
 1546SOL    HW1 5537   6.268   6.613   6.346
 1546SOL    HW2 5538   6.323   6.534   6.478
 1547SOL     OW 5539   3.230   5.842   6.944
 1547SOL    HW1 5540   3.210   5.775   6.873
 1547SOL    HW2 5541   3.221   5.799   0.013
 1548SOL     OW 5542   5.659   3.965   4.144
 1548SOL    HW1 5543   5.627   3.967   4.239
 1548SOL    HW2 5544   5.614   3.890   4.096
 1549SOL     OW 5545   6.734   2.476   0.583
 1549SOL    HW1 5546   6.660   2.443   0.642
 1549SOL    HW2 5547   6.774   2.558   0.624
 1550SOL     OW 5548   2.232   5.361   2.796
 1550SOL    HW1 5549   2.281   5.386   2.713
 1550SOL    HW2 5550   2.289   5.299   2.850
 1551SOL     OW 5551   0.156   3.401   0.968
 1551SOL    HW1 5552   0.090   3.402   1.044
 1551SOL    HW2 5553   0.249   3.404   1.004
 1552SOL     OW 5554   0.657   6.605   2.031
 1552SOL    HW1 5555   0.651   6.512   1.995
 1552SOL    HW2 5556   0.590   6.617   2.104
 1553SOL     OW 5557   5.326   0.897   6.495
 1553SOL    HW1 5558   5.396   0.826   6.493
 1553SOL    HW2 5559   5.334   0.950   6.580
 1554SOL     OW 5560   2.924   2.305   1.370
 1554SOL    HW1 5561   2.918   2.238   1.444
 1554SOL    HW2 5562   3.020   2.331   1.356
 1555SOL     OW 5563   4.175   0.892   0.029
 1555SOL    HW1 5564   4.141   0.886   0.123
 1555SOL    HW2 5565   4.101   0.918   6.989
 1556SOL     OW 5566   4.052   2.250   6.865
 1556SOL    HW1 5567   4.096   2.339   6.877
 1556SOL    HW2 5568   4.115   2.188   6.817
 1557SOL     OW 5569   1.662   3.436   0.886
 1557SOL    HW1 5570   1.748   3.386   0.882
 1557SOL    HW2 5571   1.647   3.469   0.979
 1558SOL     OW 5572   5.172   2.603   6.311
 1558SOL    HW1 5573   5.086   2.593   6.360
 1558SOL    HW2 5574   5.221   2.516   6.309
 1559SOL     OW 5575   2.869   6.056   2.986
 1559SOL    HW1 5576   2.952   6.016   3.023
 1559SOL    HW2 5577   2.852   6.018   2.895
 1560SOL     OW 5578   3.804   2.581   1.142
 1560SOL    HW1 5579   3.766   2.514   1.078
 1560SOL    HW2 5580   3.769   2.672   1.122
 1561SOL     OW 5581   5.772   6.332   1.095
 1561SOL    HW1 5582   5.744   6.257   1.156
 1561SOL    HW2 5583   5.698   6.399   1.089
 1562SOL     OW 5584   3.921   0.353   1.538
 1562SOL    HW1 5585   3.995   0.343   1.472
 1562SOL    HW2 5586   3.840   0.306   1.505
 1563SOL     OW 5587   1.970   2.509   4.084
 1563SOL    HW1 5588   2.055   2.502   4.136
 1563SOL    HW2 5589   1.987   2.558   3.998
 1564SOL     OW 5590   0.755   1.320   2.584
 1564SOL    HW1 5591   0.781   1.223   2.581
 1564SOL    HW2 5592   0.833   1.376   2.554
 1565SOL     OW 5593   4.335   1.503   4.939
 1565SOL    HW1 5594   4.415   1.459   4.979
 1565SOL    HW2 5595   4.349   1.602   4.938
 1566SOL     OW 5596   6.695   4.303   3.959
 1566SOL    HW1 5597   6.608   4.272   3.997
 1566SOL    HW2 5598   6.678   4.380   3.896
 1567SOL     OW 5599   5.300   0.582   5.182
 1567SOL    HW1 5600   5.271   0.611   5.273
 1567SOL    HW2 5601   5.225   0.534   5.137
 1568SOL     OW 5602   2.935   4.966   1.623
 1568SOL    HW1 5603   2.882   4.923   1.696
 1568SOL    HW2 5604   3.032   4.943   1.634
 1569SOL     OW 5605   3.086   1.058   2.417
 1569SOL    HW1 5606   3.047   1.145   2.388
 1569SOL    HW2 5607   3.022   1.011   2.478
 1570SOL     OW 5608   2.857   6.326   6.299
 1570SOL    HW1 5609   2.867   6.245   6.241
 1570SOL    HW2 5610   2.810   6.301   6.384
 1571SOL     OW 5611   6.684   3.507   4.217
 1571SOL    HW1 5612   6.585   3.502   4.202
 1571SOL    HW2 5613   6.705   3.588   4.271
 1572SOL     OW 5614   2.401   5.978   2.767
 1572SOL    HW1 5615   2.425   5.910   2.836
 1572SOL    HW2 5616   2.343   5.936   2.697
 1573SOL     OW 5617   4.879   6.157   0.457
 1573SOL    HW1 5618   4.868   6.071   0.508
 1573SOL    HW2 5619   4.939   6.142   0.379
 1574SOL     OW 5620   0.497   4.212   2.532
 1574SOL    HW1 5621   0.476   4.129   2.481
 1574SOL    HW2 5622   0.422   4.277   2.521
 1575SOL     OW 5623   6.943   2.546   6.975
 1575SOL    HW1 5624   0.011   2.588   6.992
 1575SOL    HW2 5625   6.955   2.449   6.956
 1576SOL     OW 5626   1.883   6.211   1.631
 1576SOL    HW1 5627   1.798   6.205   1.580
 1576SOL    HW2 5628   1.957   6.242   1.571
 1577SOL     OW 5629   3.421   5.898   4.128
 1577SOL    HW1 5630   3.337   5.893   4.182
 1577SOL    HW2 5631   3.492   5.945   4.180
 1578SOL     OW 5632   5.192   1.292   1.992
 1578SOL    HW1 5633   5.287   1.321   1.976
 1578SOL    HW2 5634   5.130   1.354   1.944
 1579SOL     OW 5635   1.153   2.759   1.578
 1579SOL    HW1 5636   1.251   2.760   1.596
 1579SOL    HW2 5637   1.117   2.852   1.585
 1580SOL     OW 5638   3.315   3.365   2.570
 1580SOL    HW1 5639   3.369   3.298   2.621
 1580SOL    HW2 5640   3.292   3.327   2.480
 1581SOL     OW 5641   6.345   4.178   5.335
 1581SOL    HW1 5642   6.323   4.204   5.240
 1581SOL    HW2 5643   6.373   4.259   5.386
 1582SOL     OW 5644   4.981   5.662   4.922
 1582SOL    HW1 5645   5.077   5.634   4.922
 1582SOL    HW2 5646   4.927   5.599   4.978
 1583SOL     OW 5647   1.558   5.702   4.939
 1583SOL    HW1 5648   1.517   5.749   5.018
 1583SOL    HW2 5649   1.488   5.689   4.869
 1584SOL     OW 5650   0.083   3.839   0.521
 1584SOL    HW1 5651   0.158   3.867   0.581
 1584SOL    HW2 5652   7.018   3.877   0.554
 1585SOL     OW 5653   4.314   6.346   3.587
 1585SOL    HW1 5654   4.305   6.301   3.676
 1585SOL    HW2 5655   4.407   6.333   3.553
 1586SOL     OW 5656   3.216   6.100   2.368
 1586SOL    HW1 5657   3.151   6.130   2.438
 1586SOL    HW2 5658   3.297   6.158   2.371
 1587SOL     OW 5659   3.093   6.151   6.666
 1587SOL    HW1 5660   3.121   6.216   6.737
 1587SOL    HW2 5661   2.996   6.129   6.677
 1588SOL     OW 5662   6.621   1.863   3.493
 1588SOL    HW1 5663   6.657   1.884   3.584
 1588SOL    HW2 5664   6.659   1.927   3.427
 1589SOL     OW 5665   6.378   3.834   4.313
 1589SOL    HW1 5666   6.419   3.919   4.280
 1589SOL    HW2 5667   6.287   3.823   4.274
 1590SOL     OW 5668   6.744   1.564   3.305
 1590SOL    HW1 5669   6.670   1.498   3.289
 1590SOL    HW2 5670   6.818   1.518   3.355
 1591SOL     OW 5671   1.431   5.797   1.017
 1591SOL    HW1 5672   1.477   5.721   1.063
 1591SOL    HW2 5673   1.421   5.776   0.920
 1592SOL     OW 5674   0.356   3.480   5.917
 1592SOL    HW1 5675   0.332   3.576   5.898
 1592SOL    HW2 5676   0.272   3.426   5.924
 1593SOL     OW 5677   3.763   6.583   0.257
 1593SOL    HW1 5678   3.722   6.547   0.173
 1593SOL    HW2 5679   3.717   6.668   0.282
 1594SOL     OW 5680   5.482   0.830   2.847
 1594SOL    HW1 5681   5.527   0.919   2.850
 1594SOL    HW2 5682   5.384   0.842   2.862
 1595SOL     OW 5683   0.359   3.020   0.190
 1595SOL    HW1 5684   0.411   3.042   0.273
 1595SOL    HW2 5685   0.385   3.084   0.117
 1596SOL     OW 5686   4.925   4.539   2.768
 1596SOL    HW1 5687   4.863   4.613   2.740
 1596SOL    HW2 5688   4.894   4.452   2.730
 1597SOL     OW 5689   3.436   5.915   0.148
 1597SOL    HW1 5690   3.423   6.014   0.146
 1597SOL    HW2 5691   3.388   5.877   0.226
 1598SOL     OW 5692   0.628   5.007   6.454
 1598SOL    HW1 5693   0.697   4.952   6.406
 1598SOL    HW2 5694   0.557   4.947   6.490
 1599SOL     OW 5695   4.239   5.462   3.699
 1599SOL    HW1 5696   4.279   5.553   3.707
 1599SOL    HW2 5697   4.312   5.395   3.682
 1600SOL     OW 5698   4.085   0.385   1.768
 1600SOL    HW1 5699   4.009   0.387   1.704
 1600SOL    HW2 5700   4.170   0.365   1.719
 1601SOL     OW 5701   6.704   1.418   4.835
 1601SOL    HW1 5702   6.620   1.387   4.791
 1601SOL    HW2 5703   6.768   1.451   4.766
 1602SOL     OW 5704   4.435   5.926   4.268
 1602SOL    HW1 5705   4.374   5.965   4.337
 1602SOL    HW2 5706   4.427   5.826   4.268
 1603SOL     OW 5707   2.970   4.813   2.882
 1603SOL    HW1 5708   2.958   4.730   2.828
 1603SOL    HW2 5709   2.902   4.814   2.956
 1604SOL     OW 5710   4.477   4.922   2.914
 1604SOL    HW1 5711   4.544   4.848   2.910
 1604SOL    HW2 5712   4.506   4.996   2.853
 1605SOL     OW 5713   4.777   4.855   0.549
 1605SOL    HW1 5714   4.693   4.863   0.495
 1605SOL    HW2 5715   4.758   4.881   0.644
 1606SOL     OW 5716   2.968   6.155   4.840
 1606SOL    HW1 5717   2.907   6.085   4.876
 1606SOL    HW2 5718   3.063   6.130   4.860
 1607SOL     OW 5719   4.519   4.574   3.822
 1607SOL    HW1 5720   4.521   4.509   3.746
 1607SOL    HW2 5721   4.478   4.530   3.902
 1608SOL     OW 5722   5.669   1.857   3.651
 1608SOL    HW1 5723   5.736   1.811   3.593
 1608SOL    HW2 5724   5.591   1.796   3.667
 1609SOL     OW 5725   2.406   6.620   1.541
 1609SOL    HW1 5726   2.490   6.673   1.549
 1609SOL    HW2 5727   2.347   6.640   1.619
 1610SOL     OW 5728   5.755   6.943   0.905
 1610SOL    HW1 5729   5.699   6.945   0.822
 1610SOL    HW2 5730   5.747   6.854   0.949
 1611SOL     OW 5731   1.285   4.127   0.305
 1611SOL    HW1 5732   1.242   4.059   0.364
 1611SOL    HW2 5733   1.232   4.136   0.220
 1612SOL     OW 5734   4.838   0.714   2.456
 1612SOL    HW1 5735   4.807   0.718   2.361
 1612SOL    HW2 5736   4.892   0.631   2.470
 1613SOL     OW 5737   6.982   5.597   2.435
 1613SOL    HW1 5738   7.005   5.506   2.470
 1613SOL    HW2 5739   6.937   5.588   2.346
 1614SOL     OW 5740   6.126   1.561   5.912
 1614SOL    HW1 5741   6.052   1.629   5.905
 1614SOL    HW2 5742   6.087   1.469   5.913
 1615SOL     OW 5743   7.006   3.755   5.775
 1615SOL    HW1 5744   6.962   3.841   5.749
 1615SOL    HW2 5745   0.083   3.769   5.786
 1616SOL     OW 5746   1.055   0.233   3.864
 1616SOL    HW1 5747   0.990   0.285   3.808
 1616SOL    HW2 5748   1.023   0.138   3.872
 1617SOL     OW 5749   6.634   5.479   3.371
 1617SOL    HW1 5750   6.549   5.512   3.411
 1617SOL    HW2 5751   6.654   5.531   3.288
 1618SOL     OW 5752   3.332   5.371   3.178
 1618SOL    HW1 5753   3.388   5.434   3.125
 1618SOL    HW2 5754   3.290   5.420   3.255
 1619SOL     OW 5755   0.665   4.514   6.515
 1619SOL    HW1 5756   0.602   4.436   6.521
 1619SOL    HW2 5757   0.667   4.562   6.603
 1620SOL     OW 5758   3.272   6.140   4.020
 1620SOL    HW1 5759   3.233   6.160   4.110
 1620SOL    HW2 5760   3.350   6.079   4.031
 1621SOL     OW 5761   4.550   5.490   0.678
 1621SOL    HW1 5762   4.615   5.552   0.722
 1621SOL    HW2 5763   4.547   5.404   0.728
 1622SOL     OW 5764   6.292   4.165   4.338
 1622SOL    HW1 5765   6.328   4.247   4.382
 1622SOL    HW2 5766   6.366   4.115   4.294
 1623SOL     OW 5767   0.255   2.061   2.964
 1623SOL    HW1 5768   0.162   2.073   2.930
 1623SOL    HW2 5769   0.282   1.965   2.954
 1624SOL     OW 5770   3.618   2.993   0.250
 1624SOL    HW1 5771   3.650   3.076   0.295
 1624SOL    HW2 5772   3.519   2.999   0.234
 1625SOL     OW 5773   0.637   6.699   0.918
 1625SOL    HW1 5774   0.723   6.750   0.924
 1625SOL    HW2 5775   0.571   6.750   0.863
 1626SOL     OW 5776   2.855   1.658   1.887
 1626SOL    HW1 5777   2.896   1.616   1.968
 1626SOL    HW2 5778   2.757   1.674   1.904
 1627SOL     OW 5779   4.107   2.232   5.820
 1627SOL    HW1 5780   4.046   2.185   5.885
 1627SOL    HW2 5781   4.158   2.303   5.868
 1628SOL     OW 5782   5.542   6.816   0.725
 1628SOL    HW1 5783   5.461   6.796   0.781
 1628SOL    HW2 5784   5.516   6.880   0.652
 1629SOL     OW 5785   1.292   0.106   3.510
 1629SOL    HW1 5786   1.259   0.200   3.505
 1629SOL    HW2 5787   1.328   0.088   3.602
 1630SOL     OW 5788   0.319   3.404   6.205
 1630SOL    HW1 5789   0.305   3.430   6.109
 1630SOL    HW2 5790   0.295   3.481   6.264
 1631SOL     OW 5791   6.838   3.905   0.616
 1631SOL    HW1 5792   6.789   3.850   0.548
 1631SOL    HW2 5793   6.806   3.882   0.707
 1632SOL     OW 5794   6.447   5.598   2.415
 1632SOL    HW1 5795   6.535   5.645   2.423
 1632SOL    HW2 5796   6.390   5.620   2.494
 1633SOL     OW 5797   5.383   3.589   5.103
 1633SOL    HW1 5798   5.375   3.548   5.193
 1633SOL    HW2 5799   5.418   3.521   5.038
 1634SOL     OW 5800   6.895   2.278   5.507
 1634SOL    HW1 5801   6.948   2.351   5.465
 1634SOL    HW2 5802   6.855   2.311   5.592
 1635SOL     OW 5803   3.299   6.553   3.501
 1635SOL    HW1 5804   3.318   6.455   3.494
 1635SOL    HW2 5805   3.200   6.568   3.499
 1636SOL     OW 5806   6.001   5.966   1.277
 1636SOL    HW1 5807   6.026   6.045   1.222
 1636SOL    HW2 5808   6.085   5.918   1.305
 1637SOL     OW 5809   1.021   1.009   3.064
 1637SOL    HW1 5810   0.965   1.077   3.111
 1637SOL    HW2 5811   1.093   1.054   3.012
 1638SOL     OW 5812   5.382   2.604   2.223
 1638SOL    HW1 5813   5.385   2.699   2.252
 1638SOL    HW2 5814   5.403   2.598   2.125
 1639SOL     OW 5815   5.183   2.109   2.597
 1639SOL    HW1 5816   5.100   2.066   2.559
 1639SOL    HW2 5817   5.261   2.048   2.583
 1640SOL     OW 5818   5.595   0.661   6.396
 1640SOL    HW1 5819   5.665   0.728   6.421
 1640SOL    HW2 5820   5.638   0.585   6.347
 1641SOL     OW 5821   6.217   2.068   3.141
 1641SOL    HW1 5822   6.277   2.136   3.183
 1641SOL    HW2 5823   6.124   2.078   3.176
 1642SOL     OW 5824   6.847   3.384   6.173
 1642SOL    HW1 5825   6.861   3.453   6.102
 1642SOL    HW2 5826   6.925   3.385   6.235
 1643SOL     OW 5827   2.234   5.357   4.269
 1643SOL    HW1 5828   2.227   5.373   4.171
 1643SOL    HW2 5829   2.330   5.360   4.297
 1644SOL     OW 5830   6.225   2.169   2.014
 1644SOL    HW1 5831   6.159   2.214   1.955
 1644SOL    HW2 5832   6.315   2.210   2.002
 1645SOL     OW 5833   2.187   0.803   5.102
 1645SOL    HW1 5834   2.204   0.741   5.179
 1645SOL    HW2 5835   2.238   0.888   5.115
 1646SOL     OW 5836   1.434   4.895   0.630
 1646SOL    HW1 5837   1.393   4.897   0.720
 1646SOL    HW2 5838   1.397   4.818   0.578
 1647SOL     OW 5839   5.520   3.032   4.540
 1647SOL    HW1 5840   5.448   2.964   4.526
 1647SOL    HW2 5841   5.479   3.123   4.544
 1648SOL     OW 5842   6.084   6.298   1.537
 1648SOL    HW1 5843   6.034   6.326   1.619
 1648SOL    HW2 5844   6.036   6.330   1.455
 1649SOL     OW 5845   3.586   1.991   3.554
 1649SOL    HW1 5846   3.551   1.899   3.534
 1649SOL    HW2 5847   3.604   2.039   3.469
 1650SOL     OW 5848   3.098   3.762   5.437
 1650SOL    HW1 5849   2.999   3.766   5.451
 1650SOL    HW2 5850   3.126   3.839   5.380
 1651SOL     OW 5851   0.825   2.301   3.636
 1651SOL    HW1 5852   0.747   2.266   3.584
 1651SOL    HW2 5853   0.877   2.224   3.675
 1652SOL     OW 5854   0.498   3.095   1.678
 1652SOL    HW1 5855   0.435   3.116   1.603
 1652SOL    HW2 5856   0.592   3.113   1.649
 1653SOL     OW 5857   0.531   4.700   2.231
 1653SOL    HW1 5858   0.475   4.660   2.303
 1653SOL    HW2 5859   0.595   4.765   2.273
 1654SOL     OW 5860   6.971   3.012   2.041
 1654SOL    HW1 5861   6.982   3.045   2.135
 1654SOL    HW2 5862   6.908   2.935   2.040
 1655SOL     OW 5863   0.298   0.428   5.759
 1655SOL    HW1 5864   0.342   0.498   5.815
 1655SOL    HW2 5865   0.262   0.469   5.676
 1656SOL     OW 5866   2.258   4.190   3.224
 1656SOL    HW1 5867   2.189   4.174   3.154
 1656SOL    HW2 5868   2.247   4.282   3.262
 1657SOL     OW 5869   6.964   6.920   5.780
 1657SOL    HW1 5870   6.930   7.011   5.805
 1657SOL    HW2 5871   6.976   6.915   5.681
 1658SOL     OW 5872   5.350   6.384   6.037
 1658SOL    HW1 5873   5.315   6.296   6.067
 1658SOL    HW2 5874   5.310   6.457   6.093
 1659SOL     OW 5875   3.730   6.701   5.678
 1659SOL    HW1 5876   3.775   6.783   5.713
 1659SOL    HW2 5877   3.731   6.629   5.747
 1660SOL     OW 5878   2.676   0.943   2.064
 1660SOL    HW1 5879   2.758   0.926   2.009
 1660SOL    HW2 5880   2.595   0.920   2.010
 1661SOL     OW 5881   5.019   4.072   2.556
 1661SOL    HW1 5882   4.953   4.039   2.488
 1661SOL    HW2 5883   5.036   4.000   2.623
 1662SOL     OW 5884   0.478   2.021   3.924
 1662SOL    HW1 5885   0.554   1.993   3.866
 1662SOL    HW2 5886   0.423   1.941   3.948
 1663SOL     OW 5887   5.053   4.399   0.936
 1663SOL    HW1 5888   5.128   4.465   0.932
 1663SOL    HW2 5889   5.038   4.371   1.030
 1664SOL     OW 5890   1.316   0.289   6.428
 1664SOL    HW1 5891   1.217   0.295   6.417
 1664SOL    HW2 5892   1.350   0.209   6.379
 1665SOL     OW 5893   2.941   4.392   6.785
 1665SOL    HW1 5894   2.978   4.481   6.812
 1665SOL    HW2 5895   2.907   4.398   6.691
 1666SOL     OW 5896   4.730   6.689   6.128
 1666SOL    HW1 5897   4.678   6.606   6.109
 1666SOL    HW2 5898   4.711   6.758   6.058
 1667SOL     OW 5899   6.771   6.093   0.727
 1667SOL    HW1 5900   6.838   6.133   0.790
 1667SOL    HW2 5901   6.768   5.994   0.740
 1668SOL     OW 5902   5.714   3.889   2.326
 1668SOL    HW1 5903   5.730   3.975   2.375
 1668SOL    HW2 5904   5.788   3.825   2.347
 1669SOL     OW 5905   6.840   3.563   5.274
 1669SOL    HW1 5906   6.748   3.553   5.236
 1669SOL    HW2 5907   6.896   3.618   5.212
 1670SOL     OW 5908   2.596   4.444   5.660
 1670SOL    HW1 5909   2.681   4.392   5.655
 1670SOL    HW2 5910   2.586   4.500   5.578
 1671SOL     OW 5911   5.796   2.353   0.577
 1671SOL    HW1 5912   5.816   2.448   0.598
 1671SOL    HW2 5913   5.811   2.336   0.479
 1672SOL     OW 5914   0.979   2.626   1.013
 1672SOL    HW1 5915   0.999   2.538   1.056
 1672SOL    HW2 5916   0.988   2.617   0.913
 1673SOL     OW 5917   1.508   0.820   4.644
 1673SOL    HW1 5918   1.518   0.766   4.561
 1673SOL    HW2 5919   1.413   0.851   4.652
 1674SOL     OW 5920   4.937   1.968   2.525
 1674SOL    HW1 5921   4.843   1.998   2.543
 1674SOL    HW2 5922   4.964   1.901   2.595
 1675SOL     OW 5923   5.241   0.705   1.661
 1675SOL    HW1 5924   5.234   0.700   1.761
 1675SOL    HW2 5925   5.282   0.620   1.627
 1676SOL     OW 5926   1.002   2.783   3.561
 1676SOL    HW1 5927   1.016   2.707   3.497
 1676SOL    HW2 5928   0.914   2.826   3.543
 1677SOL     OW 5929   3.314   3.312   3.227
 1677SOL    HW1 5930   3.392   3.270   3.180
 1677SOL    HW2 5931   3.244   3.337   3.160
 1678SOL     OW 5932   1.261   0.360   0.803
 1678SOL    HW1 5933   1.312   0.445   0.789
 1678SOL    HW2 5934   1.243   0.317   0.714
 1679SOL     OW 5935   6.600   1.340   6.842
 1679SOL    HW1 5936   6.559   1.416   6.893
 1679SOL    HW2 5937   6.642   1.276   6.907
 1680SOL     OW 5938   5.715   2.513   3.470
 1680SOL    HW1 5939   5.641   2.478   3.414
 1680SOL    HW2 5940   5.771   2.437   3.504
 1681SOL     OW 5941   3.141   6.096   5.186
 1681SOL    HW1 5942   3.151   6.076   5.088
 1681SOL    HW2 5943   3.209   6.043   5.237
 1682SOL     OW 5944   3.787   0.477   4.011
 1682SOL    HW1 5945   3.773   0.404   4.078
 1682SOL    HW2 5946   3.769   0.566   4.054
 1683SOL     OW 5947   5.984   3.006   3.048
 1683SOL    HW1 5948   6.034   3.042   2.969
 1683SOL    HW2 5949   5.897   3.054   3.056
 1684SOL     OW 5950   2.652   4.972   2.247
 1684SOL    HW1 5951   2.693   5.053   2.288
 1684SOL    HW2 5952   2.573   4.943   2.301
 1685SOL     OW 5953   0.317   1.337   5.871
 1685SOL    HW1 5954   0.339   1.380   5.783
 1685SOL    HW2 5955   0.402   1.321   5.922
 1686SOL     OW 5956   4.489   5.369   2.857
 1686SOL    HW1 5957   4.391   5.365   2.839
 1686SOL    HW2 5958   4.534   5.290   2.815
 1687SOL     OW 5959   5.021   4.755   0.842
 1687SOL    HW1 5960   5.084   4.678   0.842
 1687SOL    HW2 5961   4.938   4.730   0.892
 1688SOL     OW 5962   1.109   0.090   2.926
 1688SOL    HW1 5963   1.044   0.015   2.916
 1688SOL    HW2 5964   1.173   0.069   2.999
 1689SOL     OW 5965   4.628   0.682   1.424
 1689SOL    HW1 5966   4.600   0.587   1.410
 1689SOL    HW2 5967   4.671   0.717   1.341
 1690SOL     OW 5968   0.117   4.923   3.872
 1690SOL    HW1 5969   0.032   4.901   3.824
 1690SOL    HW2 5970   0.156   4.839   3.910
 1691SOL     OW 5971   4.501   2.520   5.159
 1691SOL    HW1 5972   4.582   2.532   5.102
 1691SOL    HW2 5973   4.436   2.459   5.112
 1692SOL     OW 5974   4.968   4.973   1.269
 1692SOL    HW1 5975   4.899   4.998   1.337
 1692SOL    HW2 5976   5.037   5.045   1.262
 1693SOL     OW 5977   5.666   6.826   5.956
 1693SOL    HW1 5978   5.616   6.888   6.016
 1693SOL    HW2 5979   5.602   6.774   5.900
 1694SOL     OW 5980   4.797   1.936   6.211
 1694SOL    HW1 5981   4.802   1.844   6.170
 1694SOL    HW2 5982   4.890   1.971   6.225
 1695SOL     OW 5983   3.158   0.744   6.245
 1695SOL    HW1 5984   3.173   0.835   6.284
 1695SOL    HW2 5985   3.245   0.695   6.240
 1696SOL     OW 5986   4.359   5.951   0.344
 1696SOL    HW1 5987   4.387   6.047   0.353
 1696SOL    HW2 5988   4.440   5.893   0.334
 1697SOL     OW 5989   4.883   2.785   1.989
 1697SOL    HW1 5990   4.809   2.732   2.030
 1697SOL    HW2 5991   4.855   2.881   1.980
 1698SOL     OW 5992   4.014   1.414   1.427
 1698SOL    HW1 5993   4.076   1.343   1.396
 1698SOL    HW2 5994   3.948   1.375   1.492
 1699SOL     OW 5995   2.266   0.119   0.226
 1699SOL    HW1 5996   2.211   0.179   0.283
 1699SOL    HW2 5997   2.325   0.063   0.284
 1700SOL     OW 5998   5.466   2.868   2.917
 1700SOL    HW1 5999   5.422   2.813   2.846
 1700SOL    HW2 6000   5.488   2.810   2.996
 1701SOL     OW 6001   0.172   6.131   5.166
 1701SOL    HW1 6002   0.178   6.032   5.151
 1701SOL    HW2 6003   0.078   6.161   5.155
 1702SOL     OW 6004   2.110   2.375   6.909
 1702SOL    HW1 6005   2.124   2.465   6.951
 1702SOL    HW2 6006   2.035   2.328   6.955
 1703SOL     OW 6007   1.343   1.725   1.816
 1703SOL    HW1 6008   1.264   1.675   1.852
 1703SOL    HW2 6009   1.409   1.660   1.778
 1704SOL     OW 6010   3.310   2.334   0.693
 1704SOL    HW1 6011   3.236   2.278   0.729
 1704SOL    HW2 6012   3.319   2.417   0.748
 1705SOL     OW 6013   4.586   2.763   0.710
 1705SOL    HW1 6014   4.635   2.793   0.792
 1705SOL    HW2 6015   4.631   2.682   0.672
 1706SOL     OW 6016   6.056   2.298   6.630
 1706SOL    HW1 6017   6.097   2.291   6.539
 1706SOL    HW2 6018   5.961   2.329   6.622
 1707SOL     OW 6019   4.305   1.252   2.192
 1707SOL    HW1 6020   4.268   1.254   2.285
 1707SOL    HW2 6021   4.260   1.323   2.137
 1708SOL     OW 6022   2.837   4.738   2.179
 1708SOL    HW1 6023   2.846   4.687   2.094
 1708SOL    HW2 6024   2.784   4.821   2.163
 1709SOL     OW 6025   5.177   5.018   0.731
 1709SOL    HW1 6026   5.103   4.950   0.733
 1709SOL    HW2 6027   5.161   5.082   0.655
 1710SOL     OW 6028   4.771   4.220   2.361
 1710SOL    HW1 6029   4.791   4.223   2.264
 1710SOL    HW2 6030   4.774   4.126   2.394
 1711SOL     OW 6031   3.689   5.217   6.865
 1711SOL    HW1 6032   3.777   5.249   6.899
 1711SOL    HW2 6033   3.618   5.240   6.932
 1712SOL     OW 6034   0.588   1.411   1.887
 1712SOL    HW1 6035   0.658   1.444   1.824
 1712SOL    HW2 6036   0.599   1.454   1.976
 1713SOL     OW 6037   3.309   1.282   2.681
 1713SOL    HW1 6038   3.358   1.367   2.698
 1713SOL    HW2 6039   3.369   1.218   2.633
 1714SOL     OW 6040   2.773   3.828   0.892
 1714SOL    HW1 6041   2.819   3.742   0.873
 1714SOL    HW2 6042   2.841   3.897   0.917
 1715SOL     OW 6043   1.604   6.046   1.976
 1715SOL    HW1 6044   1.570   5.967   1.925
 1715SOL    HW2 6045   1.657   6.106   1.915
 1716SOL     OW 6046   3.759   1.198   2.826
 1716SOL    HW1 6047   3.696   1.173   2.900
 1716SOL    HW2 6048   3.812   1.118   2.798
 1717SOL     OW 6049   3.309   5.776   4.555
 1717SOL    HW1 6050   3.364   5.696   4.531
 1717SOL    HW2 6051   3.365   5.858   4.547
 1718SOL     OW 6052   2.022   2.724   1.541
 1718SOL    HW1 6053   2.077   2.785   1.598
 1718SOL    HW2 6054   1.930   2.762   1.530
 1719SOL     OW 6055   1.102   5.197   2.362
 1719SOL    HW1 6056   1.165   5.254   2.309
 1719SOL    HW2 6057   1.116   5.101   2.338
 1720SOL     OW 6058   0.713   3.353   5.321
 1720SOL    HW1 6059   0.695   3.447   5.347
 1720SOL    HW2 6060   0.713   3.295   5.402
 1721SOL     OW 6061   2.115   2.623   0.076
 1721SOL    HW1 6062   2.212   2.621   0.100
 1721SOL    HW2 6063   2.085   2.718   0.066
 1722SOL     OW 6064   2.613   2.249   4.384
 1722SOL    HW1 6065   2.705   2.220   4.411
 1722SOL    HW2 6066   2.567   2.293   4.461
 1723SOL     OW 6067   5.959   4.280   1.147
 1723SOL    HW1 6068   5.955   4.184   1.176
 1723SOL    HW2 6069   5.975   4.338   1.226
 1724SOL     OW 6070   5.457   2.391   0.946
 1724SOL    HW1 6071   5.496   2.442   0.869
 1724SOL    HW2 6072   5.494   2.299   0.947
 1725SOL     OW 6073   1.770   6.191   6.082
 1725SOL    HW1 6074   1.757   6.290   6.096
 1725SOL    HW2 6075   1.739   6.166   5.991
 1726SOL     OW 6076   5.369   4.130   2.938
 1726SOL    HW1 6077   5.302   4.155   2.868
 1726SOL    HW2 6078   5.383   4.207   3.000
 1727SOL     OW 6079   3.162   3.941   3.103
 1727SOL    HW1 6080   3.239   4.005   3.107
 1727SOL    HW2 6081   3.117   3.937   3.192
 1728SOL     OW 6082   5.848   2.284   3.990
 1728SOL    HW1 6083   5.843   2.366   4.048
 1728SOL    HW2 6084   5.774   2.222   4.015
 1729SOL     OW 6085   1.130   2.680   2.729
 1729SOL    HW1 6086   1.060   2.608   2.730
 1729SOL    HW2 6087   1.116   2.741   2.807
 1730SOL     OW 6088   1.873   6.385   4.483
 1730SOL    HW1 6089   1.821   6.304   4.458
 1730SOL    HW2 6090   1.966   6.358   4.510
 1731SOL     OW 6091   5.301   5.351   3.574
 1731SOL    HW1 6092   5.275   5.437   3.618
 1731SOL    HW2 6093   5.285   5.275   3.637
 1732SOL     OW 6094   2.782   3.760   5.197
 1732SOL    HW1 6095   2.770   3.683   5.259
 1732SOL    HW2 6096   2.756   3.732   5.104
 1733SOL     OW 6097   2.049   2.959   6.088
 1733SOL    HW1 6098   2.134   2.978   6.138
 1733SOL    HW2 6099   1.974   3.006   6.133
 1734SOL     OW 6100   6.252   2.813   1.091
 1734SOL    HW1 6101   6.169   2.866   1.075
 1734SOL    HW2 6102   6.315   2.867   1.148
 1735SOL     OW 6103   3.808   5.674   6.237
 1735SOL    HW1 6104   3.890   5.674   6.293
 1735SOL    HW2 6105   3.752   5.754   6.259
 1736SOL     OW 6106   5.198   2.340   6.301
 1736SOL    HW1 6107   5.265   2.268   6.281
 1736SOL    HW2 6108   5.115   2.323   6.248
 1737SOL     OW 6109   3.498   1.215   6.096
 1737SOL    HW1 6110   3.453   1.138   6.051
 1737SOL    HW2 6111   3.551   1.267   6.028
 1738SOL     OW 6112   2.162   3.429   2.784
 1738SOL    HW1 6113   2.153   3.355   2.717
 1738SOL    HW2 6114   2.248   3.419   2.834
 1739SOL     OW 6115   5.358   7.003   3.061
 1739SOL    HW1 6116   5.332   7.018   2.966
 1739SOL    HW2 6117   5.388   6.909   3.074
 1740SOL     OW 6118   6.191   2.963   4.722
 1740SOL    HW1 6119   6.108   3.009   4.756
 1740SOL    HW2 6120   6.243   2.929   4.800
 1741SOL     OW 6121   0.582   2.054   4.788
 1741SOL    HW1 6122   0.595   2.153   4.781
 1741SOL    HW2 6123   0.637   2.009   4.717
 1742SOL     OW 6124   6.163   6.399   6.747
 1742SOL    HW1 6125   6.161   6.478   6.808
 1742SOL    HW2 6126   6.081   6.343   6.763
 1743SOL     OW 6127   1.718   2.042   2.227
 1743SOL    HW1 6128   1.662   2.083   2.155
 1743SOL    HW2 6129   1.775   2.113   2.270
 1744SOL     OW 6130   3.673   2.251   5.360
 1744SOL    HW1 6131   3.726   2.172   5.331
 1744SOL    HW2 6132   3.586   2.252   5.311
 1745SOL     OW 6133   6.259   6.195   0.983
 1745SOL    HW1 6134   6.187   6.159   0.923
 1745SOL    HW2 6135   6.224   6.203   1.076
 1746SOL     OW 6136   2.693   4.784   3.404
 1746SOL    HW1 6137   2.650   4.694   3.403
 1746SOL    HW2 6138   2.624   4.854   3.385
 1747SOL     OW 6139   3.941   0.047   2.451
 1747SOL    HW1 6140   3.903   6.982   2.483
 1747SOL    HW2 6141   3.878   0.121   2.473
 1748SOL     OW 6142   6.865   2.094   4.391
 1748SOL    HW1 6143   6.946   2.146   4.367
 1748SOL    HW2 6144   6.829   2.049   4.309
 1749SOL     OW 6145   6.720   5.539   1.635
 1749SOL    HW1 6146   6.775   5.521   1.554
 1749SOL    HW2 6147   6.699   5.453   1.681
 1750SOL     OW 6148   3.302   0.757   0.053
 1750SOL    HW1 6149   3.357   0.840   0.047
 1750SOL    HW2 6150   3.317   0.713   0.141
 1751SOL     OW 6151   5.371   3.460   4.698
 1751SOL    HW1 6152   5.339   3.549   4.665
 1751SOL    HW2 6153   5.295   3.397   4.701
 1752SOL     OW 6154   0.373   0.862   2.049
 1752SOL    HW1 6155   0.414   0.819   2.129
 1752SOL    HW2 6156   0.321   0.943   2.077
 1753SOL     OW 6157   6.766   1.378   1.186
 1753SOL    HW1 6158   6.810   1.462   1.218
 1753SOL    HW2 6159   6.795   1.360   1.091
 1754SOL     OW 6160   3.213   5.165   3.644
 1754SOL    HW1 6161   3.202   5.066   3.650
 1754SOL    HW2 6162   3.124   5.209   3.640
 1755SOL     OW 6163   6.596   0.235   5.624
 1755SOL    HW1 6164   6.627   0.235   5.720
 1755SOL    HW2 6165   6.509   0.187   5.619
 1756SOL     OW 6166   4.556   5.961   0.862
 1756SOL    HW1 6167   4.601   5.980   0.775
 1756SOL    HW2 6168   4.470   5.913   0.846
 1757SOL     OW 6169   2.842   4.821   5.234
 1757SOL    HW1 6170   2.743   4.809   5.239
 1757SOL    HW2 6171   2.885   4.734   5.208
 1758SOL     OW 6172   1.387   6.026   4.085
 1758SOL    HW1 6173   1.427   6.072   4.165
 1758SOL    HW2 6174   1.412   6.077   4.003
 1759SOL     OW 6175   1.196   5.883   0.310
 1759SOL    HW1 6176   1.121   5.822   0.287
 1759SOL    HW2 6177   1.257   5.893   0.232
 1760SOL     OW 6178   6.840   1.561   4.644
 1760SOL    HW1 6179   6.784   1.616   4.582
 1760SOL    HW2 6180   6.906   1.620   4.690
 1761SOL     OW 6181   5.301   1.179   2.679
 1761SOL    HW1 6182   5.295   1.139   2.771
 1761SOL    HW2 6183   5.389   1.154   2.638
 1762SOL     OW 6184   0.427   1.599   5.768
 1762SOL    HW1 6185   0.437   1.576   5.865
 1762SOL    HW2 6186   0.425   1.699   5.759
 1763SOL     OW 6187   1.284   4.992   3.646
 1763SOL    HW1 6188   1.282   5.009   3.745
 1763SOL    HW2 6189   1.377   5.007   3.612
 1764SOL     OW 6190   0.977   6.313   3.697
 1764SOL    HW1 6191   0.935   6.332   3.609
 1764SOL    HW2 6192   1.013   6.397   3.736
 1765SOL     OW 6193   5.551   4.249   2.023
 1765SOL    HW1 6194   5.538   4.194   2.105
 1765SOL    HW2 6195   5.594   4.194   1.952
 1766SOL     OW 6196   4.458   4.527   4.104
 1766SOL    HW1 6197   4.406   4.564   4.182
 1766SOL    HW2 6198   4.553   4.515   4.131
 1767SOL     OW 6199   0.445   4.968   1.547
 1767SOL    HW1 6200   0.350   4.969   1.517
 1767SOL    HW2 6201   0.454   5.021   1.631
 1768SOL     OW 6202   5.269   4.427   2.647
 1768SOL    HW1 6203   5.243   4.387   2.560
 1768SOL    HW2 6204   5.219   4.513   2.661
 1769SOL     OW 6205   5.454   0.233   0.903
 1769SOL    HW1 6206   5.528   0.200   0.843
 1769SOL    HW2 6207   5.474   0.208   0.997
 1770SOL     OW 6208   1.940   5.000   0.477
 1770SOL    HW1 6209   1.994   4.922   0.445
 1770SOL    HW2 6210   1.974   5.030   0.566
 1771SOL     OW 6211   1.950   3.275   6.013
 1771SOL    HW1 6212   1.887   3.321   5.951
 1771SOL    HW2 6213   2.027   3.239   5.962
 1772SOL     OW 6214   2.148   4.001   2.286
 1772SOL    HW1 6215   2.194   4.086   2.263
 1772SOL    HW2 6216   2.161   3.935   2.212
 1773SOL     OW 6217   2.317   6.165   5.799
 1773SOL    HW1 6218   2.312   6.170   5.899
 1773SOL    HW2 6219   2.394   6.220   5.766
 1774SOL     OW 6220   5.484   5.809   1.534
 1774SOL    HW1 6221   5.468   5.903   1.504
 1774SOL    HW2 6222   5.404   5.753   1.512
 1775SOL     OW 6223   2.165   5.286   0.916
 1775SOL    HW1 6224   2.152   5.208   0.976
 1775SOL    HW2 6225   2.260   5.288   0.884
 1776SOL     OW 6226   4.406   2.731   5.734
 1776SOL    HW1 6227   4.423   2.634   5.716
 1776SOL    HW2 6228   4.492   2.775   5.762
 1777SOL     OW 6229   4.403   6.436   6.800
 1777SOL    HW1 6230   4.412   6.535   6.797
 1777SOL    HW2 6231   4.344   6.410   6.877
 1778SOL     OW 6232   5.891   0.100   4.306
 1778SOL    HW1 6233   5.987   0.083   4.282
 1778SOL    HW2 6234   5.855   0.174   4.250
 1779SOL     OW 6235   5.486   0.548   4.603
 1779SOL    HW1 6236   5.398   0.526   4.563
 1779SOL    HW2 6237   5.518   0.636   4.568
 1780SOL     OW 6238   2.152   5.550   5.559
 1780SOL    HW1 6239   2.248   5.534   5.583
 1780SOL    HW2 6240   2.099   5.467   5.575
 1781SOL     OW 6241   4.073   0.946   5.552
 1781SOL    HW1 6242   4.136   0.891   5.607
 1781SOL    HW2 6243   3.982   0.941   5.592
 1782SOL     OW 6244   5.014   1.342   2.405
 1782SOL    HW1 6245   5.085   1.411   2.415
 1782SOL    HW2 6246   4.975   1.346   2.313
 1783SOL     OW 6247   1.789   4.263   0.188
 1783SOL    HW1 6248   1.791   4.223   0.280
 1783SOL    HW2 6249   1.831   4.353   0.190
 1784SOL     OW 6250   3.080   6.992   1.535
 1784SOL    HW1 6251   3.174   6.964   1.554
 1784SOL    HW2 6252   3.069   7.006   1.437
 1785SOL     OW 6253   1.699   6.998   4.476
 1785SOL    HW1 6254   1.777   6.977   4.417
 1785SOL    HW2 6255   1.693   6.929   4.549
 1786SOL     OW 6256   0.878   6.004   1.391
 1786SOL    HW1 6257   0.850   6.090   1.349
 1786SOL    HW2 6258   0.951   6.022   1.457
 1787SOL     OW 6259   2.094   3.561   5.651
 1787SOL    HW1 6260   2.139   3.606   5.574
 1787SOL    HW2 6261   2.141   3.476   5.672
 1788SOL     OW 6262   4.116   3.156   0.750
 1788SOL    HW1 6263   4.215   3.138   0.752
 1788SOL    HW2 6264   4.090   3.211   0.829
 1789SOL     OW 6265   6.261   3.210   2.247
 1789SOL    HW1 6266   6.190   3.234   2.313
 1789SOL    HW2 6267   6.338   3.273   2.256
 1790SOL     OW 6268   1.562   2.416   4.882
 1790SOL    HW1 6269   1.594   2.392   4.974
 1790SOL    HW2 6270   1.518   2.337   4.840
 1791SOL     OW 6271   5.059   0.328   3.804
 1791SOL    HW1 6272   5.107   0.359   3.722
 1791SOL    HW2 6273   5.071   0.395   3.878
 1792SOL     OW 6274   0.027   3.064   6.619
 1792SOL    HW1 6275   6.968   3.006   6.605
 1792SOL    HW2 6276   0.087   3.022   6.687
 1793SOL     OW 6277   6.591   1.339   5.257
 1793SOL    HW1 6278   6.606   1.438   5.251
 1793SOL    HW2 6279   6.554   1.316   5.347
 1794SOL     OW 6280   0.071   1.525   6.383
 1794SOL    HW1 6281   0.150   1.476   6.421
 1794SOL    HW2 6282   0.074   1.518   6.283
 1795SOL     OW 6283   5.245   4.595   0.891
 1795SOL    HW1 6284   5.338   4.582   0.857
 1795SOL    HW2 6285   5.248   4.616   0.989
 1796SOL     OW 6286   6.750   0.259   0.400
 1796SOL    HW1 6287   6.757   0.159   0.394
 1796SOL    HW2 6288   6.841   0.299   0.387
 1797SOL     OW 6289   2.920   5.525   5.593
 1797SOL    HW1 6290   2.951   5.620   5.598
 1797SOL    HW2 6291   3.000   5.464   5.594
 1798SOL     OW 6292   2.054   3.994   5.398
 1798SOL    HW1 6293   2.136   3.937   5.387
 1798SOL    HW2 6294   2.016   3.980   5.490
 1799SOL     OW 6295   2.975   1.377   1.496
 1799SOL    HW1 6296   2.937   1.468   1.479
 1799SOL    HW2 6297   2.962   1.319   1.416
 1800SOL     OW 6298   6.198   3.281   5.660
 1800SOL    HW1 6299   6.293   3.303   5.681
 1800SOL    HW2 6300   6.195   3.211   5.589
 1801SOL     OW 6301   0.486   0.456   3.147
 1801SOL    HW1 6302   0.469   0.545   3.190
 1801SOL    HW2 6303   0.414   0.392   3.174
 1802SOL     OW 6304   6.414   4.565   3.937
 1802SOL    HW1 6305   6.470   4.648   3.936
 1802SOL    HW2 6306   6.366   4.558   4.024
 1803SOL     OW 6307   6.935   0.156   4.034
 1803SOL    HW1 6308   6.928   0.233   4.097
 1803SOL    HW2 6309   6.881   0.175   3.952
 1804SOL     OW 6310   2.076   2.330   6.113
 1804SOL    HW1 6311   2.110   2.422   6.130
 1804SOL    HW2 6312   1.978   2.327   6.132
 1805SOL     OW 6313   6.361   4.791   0.804
 1805SOL    HW1 6314   6.318   4.760   0.719
 1805SOL    HW2 6315   6.460   4.781   0.797
 1806SOL     OW 6316   0.377   1.736   0.680
 1806SOL    HW1 6317   0.322   1.813   0.714
 1806SOL    HW2 6318   0.434   1.701   0.754
 1807SOL     OW 6319   6.153   2.695   2.994
 1807SOL    HW1 6320   6.149   2.770   3.060
 1807SOL    HW2 6321   6.224   2.715   2.926
 1808SOL     OW 6322   5.582   1.125   6.214
 1808SOL    HW1 6323   5.598   1.139   6.311
 1808SOL    HW2 6324   5.661   1.080   6.173
 1809SOL     OW 6325   5.833   0.430   5.585
 1809SOL    HW1 6326   5.861   0.411   5.679
 1809SOL    HW2 6327   5.773   0.510   5.583
 1810SOL     OW 6328   1.286   0.713   4.404
 1810SOL    HW1 6329   1.377   0.672   4.408
 1810SOL    HW2 6330   1.217   0.640   4.403
 1811SOL     OW 6331   3.427   6.291   2.316
 1811SOL    HW1 6332   3.435   6.218   2.248
 1811SOL    HW2 6333   3.404   6.377   2.271
 1812SOL     OW 6334   3.872   6.693   6.649
 1812SOL    HW1 6335   3.958   6.648   6.626
 1812SOL    HW2 6336   3.796   6.630   6.633
 1813SOL     OW 6337   4.826   3.877   2.011
 1813SOL    HW1 6338   4.766   3.952   2.035
 1813SOL    HW2 6339   4.818   3.804   2.080
 1814SOL     OW 6340   6.337   6.021   0.308
 1814SOL    HW1 6341   6.372   6.024   0.401
 1814SOL    HW2 6342   6.344   5.927   0.273
 1815SOL     OW 6343   4.799   6.011   1.448
 1815SOL    HW1 6344   4.854   5.978   1.371
 1815SOL    HW2 6345   4.823   5.959   1.531
 1816SOL     OW 6346   4.284   4.807   5.438
 1816SOL    HW1 6347   4.228   4.864   5.379
 1816SOL    HW2 6348   4.342   4.865   5.496
 1817SOL     OW 6349   0.334   2.730   3.424
 1817SOL    HW1 6350   0.325   2.823   3.460
 1817SOL    HW2 6351   0.352   2.735   3.326
 1818SOL     OW 6352   2.509   1.050   0.272
 1818SOL    HW1 6353   2.569   1.033   0.194
 1818SOL    HW2 6354   2.478   0.963   0.310
 1819SOL     OW 6355   1.588   3.912   1.939
 1819SOL    HW1 6356   1.519   3.923   2.010
 1819SOL    HW2 6357   1.671   3.961   1.964
 1820SOL     OW 6358   3.800   0.324   4.416
 1820SOL    HW1 6359   3.895   0.354   4.420
 1820SOL    HW2 6360   3.776   0.298   4.323
 1821SOL     OW 6361   3.225   1.417   2.423
 1821SOL    HW1 6362   3.210   1.397   2.519
 1821SOL    HW2 6363   3.203   1.512   2.404
 1822SOL     OW 6364   1.079   3.754   3.641
 1822SOL    HW1 6365   1.100   3.798   3.554
 1822SOL    HW2 6366   1.018   3.676   3.624
 1823SOL     OW 6367   4.079   6.882   3.039
 1823SOL    HW1 6368   4.042   6.857   3.128
 1823SOL    HW2 6369   4.077   6.802   2.978
 1824SOL     OW 6370   4.330   3.111   1.724
 1824SOL    HW1 6371   4.328   3.128   1.626
 1824SOL    HW2 6372   4.416   3.144   1.762
 1825SOL     OW 6373   1.025   3.197   5.778
 1825SOL    HW1 6374   1.072   3.277   5.815
 1825SOL    HW2 6375   0.927   3.217   5.769
 1826SOL     OW 6376   3.728   2.178   1.511
 1826SOL    HW1 6377   3.670   2.219   1.581
 1826SOL    HW2 6378   3.763   2.250   1.451
 1827SOL     OW 6379   5.630   4.415   0.640
 1827SOL    HW1 6380   5.545   4.464   0.623
 1827SOL    HW2 6381   5.625   4.368   0.728
 1828SOL     OW 6382   1.489   4.310   4.356
 1828SOL    HW1 6383   1.393   4.324   4.381
 1828SOL    HW2 6384   1.531   4.247   4.422
 1829SOL     OW 6385   3.179   6.341   1.975
 1829SOL    HW1 6386   3.204   6.398   2.053
 1829SOL    HW2 6387   3.086   6.363   1.946
 1830SOL     OW 6388   4.156   1.372   6.122
 1830SOL    HW1 6389   4.192   1.439   6.057
 1830SOL    HW2 6390   4.056   1.371   6.116
 1831SOL     OW 6391   3.341   4.497   0.639
 1831SOL    HW1 6392   3.378   4.420   0.587
 1831SOL    HW2 6393   3.282   4.462   0.712
 1832SOL     OW 6394   2.185   3.153   5.880
 1832SOL    HW1 6395   2.198   3.203   5.794
 1832SOL    HW2 6396   2.196   3.055   5.865
 1833SOL     OW 6397   6.434   1.041   6.968
 1833SOL    HW1 6398   6.430   0.956   6.915
 1833SOL    HW2 6399   6.417   1.021   0.043
 1834SOL     OW 6400   0.606   3.532   6.057
 1834SOL    HW1 6401   0.524   3.505   6.007
 1834SOL    HW2 6402   0.582   3.599   6.127
 1835SOL     OW 6403   6.825   6.055   1.169
 1835SOL    HW1 6404   6.853   6.007   1.086
 1835SOL    HW2 6405   6.906   6.079   1.222
 1836SOL     OW 6406   5.371   1.563   2.786
 1836SOL    HW1 6407   5.343   1.657   2.769
 1836SOL    HW2 6408   5.306   1.520   2.850
 1837SOL     OW 6409   2.512   2.262   6.898
 1837SOL    HW1 6410   2.510   2.341   6.837
 1837SOL    HW2 6411   2.563   2.285   6.981
 1838SOL     OW 6412   4.945   1.443   0.460
 1838SOL    HW1 6413   4.947   1.352   0.420
 1838SOL    HW2 6414   4.864   1.453   0.518
 1839SOL     OW 6415   6.160   0.730   0.630
 1839SOL    HW1 6416   6.151   0.671   0.710
 1839SOL    HW2 6417   6.195   0.677   0.553
 1840SOL     OW 6418   4.430   6.495   4.026
 1840SOL    HW1 6419   4.473   6.455   4.107
 1840SOL    HW2 6420   4.337   6.525   4.049
 1841SOL     OW 6421   1.720   0.538   1.519
 1841SOL    HW1 6422   1.759   0.580   1.600
 1841SOL    HW2 6423   1.782   0.553   1.441
 1842SOL     OW 6424   0.153   4.995   1.087
 1842SOL    HW1 6425   0.212   5.071   1.115
 1842SOL    HW2 6426   0.170   4.973   0.991
 1843SOL     OW 6427   2.444   1.209   6.979
 1843SOL    HW1 6428   2.509   1.134   6.997
 1843SOL    HW2 6429   2.456   1.241   6.885
 1844SOL     OW 6430   5.600   2.693   6.666
 1844SOL    HW1 6431   5.599   2.613   6.725
 1844SOL    HW2 6432   5.568   2.667   6.575
 1845SOL     OW 6433   1.169   2.610   3.755
 1845SOL    HW1 6434   1.244   2.544   3.754
 1845SOL    HW2 6435   1.160   2.652   3.665
 1846SOL     OW 6436   2.800   1.145   1.531
 1846SOL    HW1 6437   2.857   1.215   1.574
 1846SOL    HW2 6438   2.730   1.115   1.595
 1847SOL     OW 6439   2.116   5.539   6.249
 1847SOL    HW1 6440   2.151   5.525   6.342
 1847SOL    HW2 6441   2.146   5.627   6.215
 1848SOL     OW 6442   3.860   6.377   3.432
 1848SOL    HW1 6443   3.857   6.378   3.531
 1848SOL    HW2 6444   3.769   6.398   3.395
 1849SOL     OW 6445   4.627   2.554   2.425
 1849SOL    HW1 6446   4.711   2.505   2.401
 1849SOL    HW2 6447   4.628   2.645   2.384
 1850SOL     OW 6448   3.995   2.016   1.360
 1850SOL    HW1 6449   4.076   2.053   1.405
 1850SOL    HW2 6450   3.971   2.074   1.282
 1851SOL     OW 6451   0.136   4.453   4.529
 1851SOL    HW1 6452   0.059   4.514   4.544
 1851SOL    HW2 6453   0.206   4.500   4.475
 1852SOL     OW 6454   0.530   0.004   3.432
 1852SOL    HW1 6455   0.528   0.019   3.334
 1852SOL    HW2 6456   0.443   6.985   3.462
 1853SOL     OW 6457   0.679   2.267   5.561
 1853SOL    HW1 6458   0.688   2.288   5.659
 1853SOL    HW2 6459   0.608   2.324   5.521
 1854SOL     OW 6460   6.998   0.162   3.576
 1854SOL    HW1 6461   6.982   0.176   3.479
 1854SOL    HW2 6462   0.039   0.084   3.588
 1855SOL     OW 6463   5.403   2.361   5.042
 1855SOL    HW1 6464   5.318   2.310   5.049
 1855SOL    HW2 6465   5.448   2.363   5.132
 1856SOL     OW 6466   4.620   3.447   0.161
 1856SOL    HW1 6467   4.712   3.417   0.137
 1856SOL    HW2 6468   4.553   3.401   0.104
 1857SOL     OW 6469   3.960   0.822   6.453
 1857SOL    HW1 6470   4.007   0.877   6.522
 1857SOL    HW2 6471   3.946   0.729   6.488
 1858SOL     OW 6472   5.575   1.976   4.380
 1858SOL    HW1 6473   5.630   1.916   4.439
 1858SOL    HW2 6474   5.533   2.047   4.435
 1859SOL     OW 6475   0.017   0.861   3.527
 1859SOL    HW1 6476   0.004   0.946   3.477
 1859SOL    HW2 6477   6.951   0.831   3.566
 1860SOL     OW 6478   2.811   1.126   6.564
 1860SOL    HW1 6479   2.794   1.224   6.553
 1860SOL    HW2 6480   2.831   1.106   6.660
 1861SOL     OW 6481   6.093   6.440   4.743
 1861SOL    HW1 6482   6.079   6.538   4.727
 1861SOL    HW2 6483   6.017   6.403   4.796
 1862SOL     OW 6484   3.282   6.055   5.773
 1862SOL    HW1 6485   3.225   6.034   5.694
 1862SOL    HW2 6486   3.238   6.021   5.856
 1863SOL     OW 6487   6.863   1.618   1.298
 1863SOL    HW1 6488   6.951   1.645   1.259
 1863SOL    HW2 6489   6.858   1.648   1.393
 1864SOL     OW 6490   2.827   6.736   1.913
 1864SOL    HW1 6491   2.880   6.778   1.840
 1864SOL    HW2 6492   2.873   6.653   1.945
 1865SOL     OW 6493   6.330   2.372   6.005
 1865SOL    HW1 6494   6.421   2.360   5.966
 1865SOL    HW2 6495   6.330   2.454   6.063
 1866SOL     OW 6496   0.448   5.825   3.274
 1866SOL    HW1 6497   0.367   5.777   3.310
 1866SOL    HW2 6498   0.418   5.895   3.210
 1867SOL     OW 6499   0.817   1.597   1.684
 1867SOL    HW1 6500   0.854   1.647   1.762
 1867SOL    HW2 6501   0.891   1.576   1.619
 1868SOL     OW 6502   5.484   3.629   6.318
 1868SOL    HW1 6503   5.411   3.565   6.339
 1868SOL    HW2 6504   5.567   3.578   6.294
 1869SOL     OW 6505   5.165   0.736   5.363
 1869SOL    HW1 6506   5.125   0.780   5.443
 1869SOL    HW2 6507   5.159   0.798   5.284
 1870SOL     OW 6508   6.026   0.390   6.116
 1870SOL    HW1 6509   5.981   0.301   6.115
 1870SOL    HW2 6510   6.082   0.397   6.199
 1871SOL     OW 6511   0.800   6.273   0.123
 1871SOL    HW1 6512   0.895   6.273   0.155
 1871SOL    HW2 6513   0.784   6.191   0.067
 1872SOL     OW 6514   2.496   2.731   1.411
 1872SOL    HW1 6515   2.561   2.731   1.487
 1872SOL    HW2 6516   2.434   2.809   1.419
 1873SOL     OW 6517   5.851   1.401   1.718
 1873SOL    HW1 6518   5.941   1.442   1.726
 1873SOL    HW2 6519   5.859   1.301   1.721
 1874SOL     OW 6520   1.340   5.786   6.849
 1874SOL    HW1 6521   1.350   5.847   6.771
 1874SOL    HW2 6522   1.311   5.695   6.818
 1875SOL     OW 6523   0.262   6.298   2.040
 1875SOL    HW1 6524   0.184   6.328   2.096
 1875SOL    HW2 6525   0.337   6.269   2.099
 1876SOL     OW 6526   0.453   4.812   0.798
 1876SOL    HW1 6527   0.487   4.853   0.713
 1876SOL    HW2 6528   0.415   4.722   0.779
 1877SOL     OW 6529   1.445   1.836   2.285
 1877SOL    HW1 6530   1.374   1.779   2.327
 1877SOL    HW2 6531   1.435   1.834   2.186
 1878SOL     OW 6532   5.029   3.809   4.261
 1878SOL    HW1 6533   4.990   3.889   4.306
 1878SOL    HW2 6534   5.126   3.825   4.241
 1879SOL     OW 6535   4.558   6.442   4.742
 1879SOL    HW1 6536   4.479   6.447   4.803
 1879SOL    HW2 6537   4.601   6.352   4.751
 1880SOL     OW 6538   0.903   1.982   4.314
 1880SOL    HW1 6539   0.990   1.933   4.313
 1880SOL    HW2 6540   0.846   1.950   4.238
 1881SOL     OW 6541   2.186   1.140   3.586
 1881SOL    HW1 6542   2.253   1.111   3.653
 1881SOL    HW2 6543   2.133   1.061   3.555
 1882SOL     OW 6544   2.800   5.440   0.368
 1882SOL    HW1 6545   2.734   5.447   0.442
 1882SOL    HW2 6546   2.763   5.482   0.285
 1883SOL     OW 6547   2.353   2.611   2.417
 1883SOL    HW1 6548   2.280   2.643   2.355
 1883SOL    HW2 6549   2.362   2.674   2.493
 1884SOL     OW 6550   4.866   0.933   0.398
 1884SOL    HW1 6551   4.804   0.861   0.427
 1884SOL    HW2 6552   4.956   0.894   0.378
 1885SOL     OW 6553   0.025   1.806   0.426
 1885SOL    HW1 6554   0.030   1.904   0.410
 1885SOL    HW2 6555   0.113   1.764   0.403
 1886SOL     OW 6556   3.595   2.777   5.724
 1886SOL    HW1 6557   3.599   2.715   5.803
 1886SOL    HW2 6558   3.516   2.837   5.733
 1887SOL     OW 6559   0.870   6.219   4.767
 1887SOL    HW1 6560   0.836   6.280   4.839
 1887SOL    HW2 6561   0.813   6.137   4.763
 1888SOL     OW 6562   1.769   2.267   6.092
 1888SOL    HW1 6563   1.730   2.343   6.041
 1888SOL    HW2 6564   1.749   2.278   6.190
 1889SOL     OW 6565   2.853   3.309   0.515
 1889SOL    HW1 6566   2.911   3.386   0.489
 1889SOL    HW2 6567   2.797   3.281   0.436
 1890SOL     OW 6568   6.171   5.769   6.664
 1890SOL    HW1 6569   6.179   5.803   6.758
 1890SOL    HW2 6570   6.244   5.704   6.646
 1891SOL     OW 6571   5.513   3.492   6.787
 1891SOL    HW1 6572   5.477   3.408   6.747
 1891SOL    HW2 6573   5.463   3.514   6.871
 1892SOL     OW 6574   4.235   7.018   2.344
 1892SOL    HW1 6575   4.275   6.928   2.331
 1892SOL    HW2 6576   4.151   7.010   2.397
 1893SOL     OW 6577   2.760   1.195   5.901
 1893SOL    HW1 6578   2.736   1.288   5.929
 1893SOL    HW2 6579   2.691   1.131   5.934
 1894SOL     OW 6580   4.892   3.787   1.358
 1894SOL    HW1 6581   4.906   3.728   1.438
 1894SOL    HW2 6582   4.856   3.875   1.387
 1895SOL     OW 6583   4.325   6.250   3.275
 1895SOL    HW1 6584   4.337   6.347   3.256
 1895SOL    HW2 6585   4.227   6.230   3.286
 1896SOL     OW 6586   6.042   1.946   5.346
 1896SOL    HW1 6587   6.095   1.864   5.324
 1896SOL    HW2 6588   6.074   1.984   5.433
 1897SOL     OW 6589   5.955   4.842   3.283
 1897SOL    HW1 6590   5.982   4.938   3.291
 1897SOL    HW2 6591   6.018   4.794   3.222
 1898SOL     OW 6592   6.117   6.591   6.931
 1898SOL    HW1 6593   6.132   6.667   6.868
 1898SOL    HW2 6594   6.024   6.596   6.967
 1899SOL     OW 6595   1.710   2.534   3.553
 1899SOL    HW1 6596   1.719   2.599   3.628
 1899SOL    HW2 6597   1.786   2.546   3.489
 1900SOL     OW 6598   2.664   6.337   1.848
 1900SOL    HW1 6599   2.702   6.270   1.784
 1900SOL    HW2 6600   2.601   6.290   1.910
 1901SOL     OW 6601   1.281   0.709   5.983
 1901SOL    HW1 6602   1.194   0.709   6.031
 1901SOL    HW2 6603   1.265   0.721   5.885
 1902SOL     OW 6604   1.337   2.732   5.156
 1902SOL    HW1 6605   1.296   2.674   5.086
 1902SOL    HW2 6606   1.407   2.789   5.115
 1903SOL     OW 6607   6.607   4.800   3.931
 1903SOL    HW1 6608   6.635   4.839   3.843
 1903SOL    HW2 6609   6.686   4.755   3.974
 1904SOL     OW 6610   0.308   0.442   4.105
 1904SOL    HW1 6611   0.248   0.374   4.147
 1904SOL    HW2 6612   0.402   0.424   4.131
 1905SOL     OW 6613   6.223   2.797   4.300
 1905SOL    HW1 6614   6.294   2.849   4.347
 1905SOL    HW2 6615   6.139   2.851   4.297
 1906SOL     OW 6616   2.994   5.921   6.229
 1906SOL    HW1 6617   3.069   5.861   6.254
 1906SOL    HW2 6618   2.931   5.931   6.306
 1907SOL     OW 6619   4.686   6.189   3.884
 1907SOL    HW1 6620   4.713   6.197   3.980
 1907SOL    HW2 6621   4.594   6.225   3.873
 1908SOL     OW 6622   5.299   6.373   0.528
 1908SOL    HW1 6623   5.261   6.451   0.578
 1908SOL    HW2 6624   5.383   6.341   0.572
 1909SOL     OW 6625   4.628   5.621   3.727
 1909SOL    HW1 6626   4.544   5.590   3.771
 1909SOL    HW2 6627   4.661   5.704   3.774
 1910SOL     OW 6628   4.898   3.364   5.080
 1910SOL    HW1 6629   4.843   3.447   5.074
 1910SOL    HW2 6630   4.988   3.380   5.040
 1911SOL     OW 6631   0.152   3.459   5.643
 1911SOL    HW1 6632   0.184   3.484   5.552
 1911SOL    HW2 6633   0.174   3.532   5.707
 1912SOL     OW 6634   2.935   5.792   3.180
 1912SOL    HW1 6635   2.906   5.887   3.175
 1912SOL    HW2 6636   2.984   5.777   3.266
 1913SOL     OW 6637   1.529   4.334   5.260
 1913SOL    HW1 6638   1.567   4.318   5.169
 1913SOL    HW2 6639   1.526   4.248   5.311
 1914SOL     OW 6640   4.446   1.254   5.510
 1914SOL    HW1 6641   4.378   1.194   5.469
 1914SOL    HW2 6642   4.404   1.342   5.533
 1915SOL     OW 6643   2.772   0.498   5.160
 1915SOL    HW1 6644   2.833   0.566   5.121
 1915SOL    HW2 6645   2.768   0.510   5.259
 1916SOL     OW 6646   3.988   6.081   3.050
 1916SOL    HW1 6647   4.023   6.124   3.134
 1916SOL    HW2 6648   4.063   6.071   2.984
 1917SOL     OW 6649   3.354   3.827   4.354
 1917SOL    HW1 6650   3.295   3.901   4.385
 1917SOL    HW2 6651   3.396   3.852   4.267
 1918SOL     OW 6652   6.627   6.858   5.412
 1918SOL    HW1 6653   6.566   6.804   5.470
 1918SOL    HW2 6654   6.646   6.808   5.327
 1919SOL     OW 6655   6.470   6.972   2.716
 1919SOL    HW1 6656   6.413   0.022   2.758
 1919SOL    HW2 6657   6.556   7.013   2.685
 1920SOL     OW 6658   6.555   6.192   5.135
 1920SOL    HW1 6659   6.457   6.186   5.156
 1920SOL    HW2 6660   6.594   6.100   5.129
 1921SOL     OW 6661   1.618   6.899   6.953
 1921SOL    HW1 6662   1.657   6.807   6.947
 1921SOL    HW2 6663   1.627   6.932   0.025
 1922SOL     OW 6664   4.215   3.889   0.846
 1922SOL    HW1 6665   4.298   3.910   0.897
 1922SOL    HW2 6666   4.155   3.832   0.902
 1923SOL     OW 6667   1.789   2.899   0.206
 1923SOL    HW1 6668   1.721   2.943   0.148
 1923SOL    HW2 6669   1.867   2.870   0.150
 1924SOL     OW 6670   0.620   4.375   1.120
 1924SOL    HW1 6671   0.605   4.467   1.084
 1924SOL    HW2 6672   0.532   4.332   1.140
 1925SOL     OW 6673   3.531   4.516   0.072
 1925SOL    HW1 6674   3.510   4.580   7.020
 1925SOL    HW2 6675   3.544   4.567   0.158
 1926SOL     OW 6676   0.525   0.255   3.884
 1926SOL    HW1 6677   0.427   0.272   3.895
 1926SOL    HW2 6678   0.540   0.193   3.807
 1927SOL     OW 6679   4.511   3.326   0.836
 1927SOL    HW1 6680   4.585   3.318   0.903
 1927SOL    HW2 6681   4.463   3.239   0.828
 1928SOL     OW 6682   0.306   5.619   5.077
 1928SOL    HW1 6683   0.309   5.524   5.110
 1928SOL    HW2 6684   0.245   5.626   4.999
 1929SOL     OW 6685   1.650   5.781   3.465
 1929SOL    HW1 6686   1.629   5.870   3.506
 1929SOL    HW2 6687   1.641   5.709   3.534
 1930SOL     OW 6688   6.882   4.924   6.782
 1930SOL    HW1 6689   6.797   4.967   6.813
 1930SOL    HW2 6690   6.862   4.854   6.714
 1931SOL     OW 6691   0.452   1.894   4.978
 1931SOL    HW1 6692   0.378   1.948   5.020
 1931SOL    HW2 6693   0.514   1.956   4.929
 1932SOL     OW 6694   6.105   2.905   2.645
 1932SOL    HW1 6695   6.129   2.874   2.554
 1932SOL    HW2 6696   6.165   2.982   2.671
 1933SOL     OW 6697   2.307   5.100   0.501
 1933SOL    HW1 6698   2.305   5.039   0.580
 1933SOL    HW2 6699   2.300   5.195   0.531
 1934SOL     OW 6700   6.768   6.406   3.883
 1934SOL    HW1 6701   6.725   6.358   3.959
 1934SOL    HW2 6702   6.718   6.492   3.865
 1935SOL     OW 6703   2.269   0.783   3.252
 1935SOL    HW1 6704   2.251   0.686   3.272
 1935SOL    HW2 6705   2.183   0.827   3.226
 1936SOL     OW 6706   6.944   6.363   5.366
 1936SOL    HW1 6707   6.911   6.269   5.357
 1936SOL    HW2 6708   7.006   6.369   5.445
 1937SOL     OW 6709   3.932   0.995   2.724
 1937SOL    HW1 6710   3.964   1.024   2.635
 1937SOL    HW2 6711   3.980   0.912   2.752
 1938SOL     OW 6712   4.955   1.223   4.341
 1938SOL    HW1 6713   4.928   1.252   4.432
 1938SOL    HW2 6714   5.015   1.292   4.300
 1939SOL     OW 6715   2.787   0.852   3.926
 1939SOL    HW1 6716   2.777   0.876   3.829
 1939SOL    HW2 6717   2.718   0.783   3.950
 1940SOL     OW 6718   6.265   4.835   6.371
 1940SOL    HW1 6719   6.332   4.888   6.422
 1940SOL    HW2 6720   6.219   4.772   6.434
 1941SOL     OW 6721   5.297   5.081   2.785
 1941SOL    HW1 6722   5.269   5.118   2.873
 1941SOL    HW2 6723   5.288   4.982   2.786
 1942SOL     OW 6724   6.967   4.416   3.450
 1942SOL    HW1 6725   6.981   4.513   3.432
 1942SOL    HW2 6726   0.009   4.363   3.394
 1943SOL     OW 6727   2.970   5.465   2.632
 1943SOL    HW1 6728   3.035   5.445   2.559
 1943SOL    HW2 6729   3.004   5.540   2.688
 1944SOL     OW 6730   6.963   0.100   1.977
 1944SOL    HW1 6731   7.010   0.158   1.911
 1944SOL    HW2 6732   6.954   0.008   1.941
 1945SOL     OW 6733   3.351   5.003   3.905
 1945SOL    HW1 6734   3.329   4.953   3.988
 1945SOL    HW2 6735   3.450   5.015   3.897
 1946SOL     OW 6736   1.901   6.278   0.014
 1946SOL    HW1 6737   1.867   6.289   0.108
 1946SOL    HW2 6738   1.983   6.222   0.015
 1947SOL     OW 6739   5.206   0.066   3.792
 1947SOL    HW1 6740   5.111   0.090   3.809
 1947SOL    HW2 6741   5.213   0.016   3.706
 1948SOL     OW 6742   6.900   3.843   5.430
 1948SOL    HW1 6743   6.928   3.750   5.454
 1948SOL    HW2 6744   6.833   3.839   5.355
 1949SOL     OW 6745   4.853   3.946   6.222
 1949SOL    HW1 6746   4.916   3.977   6.292
 1949SOL    HW2 6747   4.848   3.846   6.224
 1950SOL     OW 6748   2.946   5.066   1.158
 1950SOL    HW1 6749   2.940   4.984   1.101
 1950SOL    HW2 6750   2.944   5.147   1.100
 1951SOL     OW 6751   6.666   3.256   0.458
 1951SOL    HW1 6752   6.692   3.272   0.553
 1951SOL    HW2 6753   6.657   3.157   0.443
 1952SOL     OW 6754   3.587   2.974   5.170
 1952SOL    HW1 6755   3.682   2.973   5.138
 1952SOL    HW2 6756   3.528   2.931   5.101
 1953SOL     OW 6757   0.074   2.506   4.731
 1953SOL    HW1 6758   6.997   2.511   4.750
 1953SOL    HW2 6759   0.091   2.444   4.654
 1954SOL     OW 6760   2.450   2.228   3.355
 1954SOL    HW1 6761   2.531   2.216   3.413
 1954SOL    HW2 6762   2.368   2.203   3.407
 1955SOL     OW 6763   5.855   5.325   2.134
 1955SOL    HW1 6764   5.921   5.311   2.061
 1955SOL    HW2 6765   5.844   5.239   2.185
 1956SOL     OW 6766   5.576   6.278   2.240
 1956SOL    HW1 6767   5.490   6.329   2.239
 1956SOL    HW2 6768   5.599   6.253   2.334
 1957SOL     OW 6769   0.823   6.762   5.567
 1957SOL    HW1 6770   0.783   6.722   5.484
 1957SOL    HW2 6771   0.913   6.801   5.545
 1958SOL     OW 6772   4.670   3.283   5.745
 1958SOL    HW1 6773   4.640   3.193   5.777
 1958SOL    HW2 6774   4.669   3.284   5.645
 1959SOL     OW 6775   2.204   1.998   0.310
 1959SOL    HW1 6776   2.163   2.039   0.229
 1959SOL    HW2 6777   2.277   1.935   0.283
 1960SOL     OW 6778   5.522   6.411   2.726
 1960SOL    HW1 6779   5.506   6.495   2.778
 1960SOL    HW2 6780   5.535   6.334   2.788
 1961SOL     OW 6781   6.080   4.746   5.541
 1961SOL    HW1 6782   6.172   4.769   5.574
 1961SOL    HW2 6783   6.070   4.779   5.447
 1962SOL     OW 6784   6.681   6.664   3.825
 1962SOL    HW1 6785   6.724   6.692   3.911
 1962SOL    HW2 6786   6.618   6.736   3.794
 1963SOL     OW 6787   2.761   0.128   3.319
 1963SOL    HW1 6788   2.712   0.127   3.232
 1963SOL    HW2 6789   2.763   0.222   3.355
 1964SOL     OW 6790   5.648   4.382   2.230
 1964SOL    HW1 6791   5.711   4.319   2.273
 1964SOL    HW2 6792   5.590   4.333   2.166
 1965SOL     OW 6793   2.424   5.618   3.859
 1965SOL    HW1 6794   2.491   5.571   3.917
 1965SOL    HW2 6795   2.424   5.578   3.768
 1966SOL     OW 6796   5.971   6.160   6.567
 1966SOL    HW1 6797   5.878   6.170   6.601
 1966SOL    HW2 6798   5.991   6.234   6.503
 1967SOL     OW 6799   4.877   3.335   4.670
 1967SOL    HW1 6800   4.902   3.404   4.738
 1967SOL    HW2 6801   4.844   3.252   4.716
 1968SOL     OW 6802   3.772   5.484   5.199
 1968SOL    HW1 6803   3.851   5.490   5.137
 1968SOL    HW2 6804   3.787   5.546   5.276
 1969SOL     OW 6805   0.036   1.971   1.481
 1969SOL    HW1 6806   7.006   1.989   1.565
 1969SOL    HW2 6807   6.996   1.977   1.402
 1970SOL     OW 6808   1.783   6.833   3.678
 1970SOL    HW1 6809   1.691   6.843   3.642
 1970SOL    HW2 6810   1.785   6.863   3.774
 1971SOL     OW 6811   0.210   1.115   6.324
 1971SOL    HW1 6812   0.277   1.108   6.250
 1971SOL    HW2 6813   0.136   1.049   6.308
 1972SOL     OW 6814   1.831   5.967   3.714
 1972SOL    HW1 6815   1.810   5.977   3.811
 1972SOL    HW2 6816   1.747   5.952   3.663
 1973SOL     OW 6817   2.480   2.931   6.650
 1973SOL    HW1 6818   2.512   2.979   6.731
 1973SOL    HW2 6819   2.460   2.836   6.672
 1974SOL     OW 6820   5.481   6.508   4.547
 1974SOL    HW1 6821   5.493   6.507   4.646
 1974SOL    HW2 6822   5.498   6.600   4.513
 1975SOL     OW 6823   3.096   0.275   3.386
 1975SOL    HW1 6824   3.072   0.372   3.393
 1975SOL    HW2 6825   3.028   0.229   3.329
 1976SOL     OW 6826   6.688   4.304   6.933
 1976SOL    HW1 6827   6.775   4.256   6.921
 1976SOL    HW2 6828   6.669   4.316   0.009
 1977SOL     OW 6829   2.879   2.122   5.311
 1977SOL    HW1 6830   2.926   2.203   5.347
 1977SOL    HW2 6831   2.925   2.092   5.227
 1978SOL     OW 6832   6.909   2.024   4.892
 1978SOL    HW1 6833   6.952   2.095   4.836
 1978SOL    HW2 6834   6.824   1.995   4.849
 1979SOL     OW 6835   5.578   4.592   3.269
 1979SOL    HW1 6836   5.668   4.616   3.304
 1979SOL    HW2 6837   5.550   4.657   3.199
 1980SOL     OW 6838   3.526   0.919   1.071
 1980SOL    HW1 6839   3.494   0.932   1.165
 1980SOL    HW2 6840   3.552   0.824   1.057
 1981SOL     OW 6841   5.151   3.289   1.750
 1981SOL    HW1 6842   5.066   3.279   1.802
 1981SOL    HW2 6843   5.191   3.199   1.733
 1982SOL     OW 6844   5.974   6.962   5.499
 1982SOL    HW1 6845   5.945   0.035   5.485
 1982SOL    HW2 6846   6.041   6.937   5.429
 1983SOL     OW 6847   0.364   4.581   2.445
 1983SOL    HW1 6848   0.428   4.575   2.522
 1983SOL    HW2 6849   0.315   4.495   2.437
 1984SOL     OW 6850   4.373   0.858   5.369
 1984SOL    HW1 6851   4.369   0.872   5.468
 1984SOL    HW2 6852   4.387   0.761   5.349
 1985SOL     OW 6853   1.878   6.526   1.316
 1985SOL    HW1 6854   1.894   6.598   1.249
 1985SOL    HW2 6855   1.820   6.455   1.276
 1986SOL     OW 6856   0.123   1.969   6.863
 1986SOL    HW1 6857   0.210   1.934   6.897
 1986SOL    HW2 6858   0.138   2.056   6.816
 1987SOL     OW 6859   3.007   4.246   0.509
 1987SOL    HW1 6860   2.976   4.159   0.548
 1987SOL    HW2 6861   2.962   4.321   0.558
 1988SOL     OW 6862   4.785   3.310   0.510
 1988SOL    HW1 6863   4.755   3.233   0.566
 1988SOL    HW2 6864   4.734   3.392   0.535
 1989SOL     OW 6865   2.686   1.282   3.919
 1989SOL    HW1 6866   2.703   1.333   4.004
 1989SOL    HW2 6867   2.599   1.313   3.879
 1990SOL     OW 6868   2.382   1.444   2.906
 1990SOL    HW1 6869   2.473   1.419   2.937
 1990SOL    HW2 6870   2.376   1.544   2.897
 1991SOL     OW 6871   5.047   5.535   3.474
 1991SOL    HW1 6872   5.123   5.555   3.535
 1991SOL    HW2 6873   5.051   5.597   3.395
 1992SOL     OW 6874   2.254   6.698   5.280
 1992SOL    HW1 6875   2.263   6.599   5.269
 1992SOL    HW2 6876   2.270   6.722   5.376
 1993SOL     OW 6877   3.467   3.190   4.235
 1993SOL    HW1 6878   3.506   3.209   4.325
 1993SOL    HW2 6879   3.529   3.129   4.185
 1994SOL     OW 6880   6.001   2.576   1.969
 1994SOL    HW1 6881   6.054   2.505   2.015
 1994SOL    HW2 6882   5.929   2.609   2.030
 1995SOL     OW 6883   4.265   2.576   1.426
 1995SOL    HW1 6884   4.237   2.616   1.513
 1995SOL    HW2 6885   4.356   2.536   1.435
 1996SOL     OW 6886   2.801   3.987   5.374
 1996SOL    HW1 6887   2.835   3.893   5.385
 1996SOL    HW2 6888   2.708   3.984   5.337
 1997SOL     OW 6889   5.722   0.266   4.139
 1997SOL    HW1 6890   5.686   0.240   4.049
 1997SOL    HW2 6891   5.698   0.361   4.158
 1998SOL     OW 6892   3.330   5.085   4.904
 1998SOL    HW1 6893   3.305   4.997   4.943
 1998SOL    HW2 6894   3.378   5.140   4.973
 1999SOL     OW 6895   2.482   0.567   1.806
 1999SOL    HW1 6896   2.390   0.597   1.783
 1999SOL    HW2 6897   2.478   0.500   1.880
 2000SOL     OW 6898   3.620   1.749   4.785
 2000SOL    HW1 6899   3.581   1.827   4.737
 2000SOL    HW2 6900   3.555   1.672   4.781
 2001SOL     OW 6901   2.625   3.466   0.114
 2001SOL    HW1 6902   2.665   3.391   0.167
 2001SOL    HW2 6903   2.650   3.553   0.155
 2002SOL     OW 6904   1.387   5.622   4.744
 2002SOL    HW1 6905   1.399   5.593   4.650
 2002SOL    HW2 6906   1.296   5.594   4.776
 2003SOL     OW 6907   6.456   4.813   3.335
 2003SOL    HW1 6908   6.510   4.892   3.310
 2003SOL    HW2 6909   6.493   4.731   3.292
 2004SOL     OW 6910   3.301   0.359   6.430
 2004SOL    HW1 6911   3.222   0.328   6.484
 2004SOL    HW2 6912   3.270   0.387   6.339
 2005SOL     OW 6913   2.897   6.392   5.057
 2005SOL    HW1 6914   2.823   6.373   5.121
 2005SOL    HW2 6915   2.927   6.307   5.014
 2006SOL     OW 6916   4.717   5.941   3.539
 2006SOL    HW1 6917   4.722   6.041   3.537
 2006SOL    HW2 6918   4.706   5.910   3.634
 2007SOL     OW 6919   6.265   5.339   0.006
 2007SOL    HW1 6920   6.351   5.359   0.052
 2007SOL    HW2 6921   6.191   5.338   0.073
 2008SOL     OW 6922   6.742   6.492   4.297
 2008SOL    HW1 6923   6.761   6.407   4.346
 2008SOL    HW2 6924   6.810   6.504   4.224
 2009SOL     OW 6925   0.605   0.289   0.604
 2009SOL    HW1 6926   0.615   0.271   0.702
 2009SOL    HW2 6927   0.637   0.381   0.583
 2010SOL     OW 6928   1.095   0.026   1.083
 2010SOL    HW1 6929   1.083   0.042   0.985
 2010SOL    HW2 6930   1.188   7.014   1.099
 2011SOL     OW 6931   6.896   2.268   4.704
 2011SOL    HW1 6932   6.801   2.274   4.674
 2011SOL    HW2 6933   6.955   2.307   4.634
 2012SOL     OW 6934   0.090   3.614   0.792
 2012SOL    HW1 6935   0.159   3.626   0.720
 2012SOL    HW2 6936   0.119   3.543   0.855
 2013SOL     OW 6937   4.637   0.946   2.561
 2013SOL    HW1 6938   4.689   0.873   2.516
 2013SOL    HW2 6939   4.623   1.021   2.497
 2014SOL     OW 6940   2.525   5.408   3.424
 2014SOL    HW1 6941   2.543   5.310   3.420
 2014SOL    HW2 6942   2.482   5.438   3.339
 2015SOL     OW 6943   3.393   6.422   0.189
 2015SOL    HW1 6944   3.308   6.461   0.156
 2015SOL    HW2 6945   3.469   6.452   0.131
 2016SOL     OW 6946   6.276   5.069   3.656
 2016SOL    HW1 6947   6.248   5.122   3.736
 2016SOL    HW2 6948   6.323   5.129   3.590
 2017SOL     OW 6949   2.206   4.896   2.003
 2017SOL    HW1 6950   2.115   4.929   2.025
 2017SOL    HW2 6951   2.222   4.904   1.904
 2018SOL     OW 6952   0.254   4.349   6.510
 2018SOL    HW1 6953   0.231   4.301   6.426
 2018SOL    HW2 6954   0.273   4.446   6.489
 2019SOL     OW 6955   5.616   1.567   2.893
 2019SOL    HW1 6956   5.679   1.607   2.827
 2019SOL    HW2 6957   5.526   1.556   2.851
 2020SOL     OW 6958   1.394   5.181   3.407
 2020SOL    HW1 6959   1.382   5.090   3.367
 2020SOL    HW2 6960   1.314   5.205   3.461
 2021SOL     OW 6961   1.710   6.522   1.854
 2021SOL    HW1 6962   1.667   6.526   1.763
 2021SOL    HW2 6963   1.761   6.437   1.863
 2022SOL     OW 6964   2.850   4.563   1.151
 2022SOL    HW1 6965   2.938   4.557   1.105
 2022SOL    HW2 6966   2.776   4.557   1.083
 2023SOL     OW 6967   6.173   1.521   6.368
 2023SOL    HW1 6968   6.165   1.588   6.443
 2023SOL    HW2 6969   6.221   1.563   6.291
 2024SOL     OW 6970   6.080   0.392   2.973
 2024SOL    HW1 6971   6.072   0.446   2.890
 2024SOL    HW2 6972   6.059   0.449   3.052
 2025SOL     OW 6973   6.687   0.851   0.813
 2025SOL    HW1 6974   6.746   0.917   0.765
 2025SOL    HW2 6975   6.733   0.763   0.819
 2026SOL     OW 6976   1.319   1.966   5.530
 2026SOL    HW1 6977   1.328   2.029   5.607
 2026SOL    HW2 6978   1.330   2.016   5.444
 2027SOL     OW 6979   0.747   1.323   2.275
 2027SOL    HW1 6980   0.751   1.239   2.329
 2027SOL    HW2 6981   0.652   1.352   2.264
 2028SOL     OW 6982   3.570   3.900   5.754
 2028SOL    HW1 6983   3.492   3.879   5.694
 2028SOL    HW2 6984   3.629   3.820   5.761
 2029SOL     OW 6985   1.746   0.504   0.539
 2029SOL    HW1 6986   1.732   0.602   0.549
 2029SOL    HW2 6987   1.689   0.469   0.465
 2030SOL     OW 6988   1.409   1.530   2.896
 2030SOL    HW1 6989   1.474   1.567   2.963
 2030SOL    HW2 6990   1.381   1.604   2.834
 2031SOL     OW 6991   4.705   6.910   2.960
 2031SOL    HW1 6992   4.797   6.947   2.965
 2031SOL    HW2 6993   4.681   6.865   3.046
 2032SOL     OW 6994   5.509   6.626   1.558
 2032SOL    HW1 6995   5.470   6.555   1.499
 2032SOL    HW2 6996   5.478   6.716   1.526
 2033SOL     OW 6997   7.014   5.412   6.510
 2033SOL    HW1 6998   0.054   5.489   6.492
 2033SOL    HW2 6999   6.981   5.417   6.603
 2034SOL     OW 7000   2.920   6.980   3.169
 2034SOL    HW1 7001   2.859   0.017   3.222
 2034SOL    HW2 7002   3.014   6.990   3.203
 2035SOL     OW 7003   1.131   3.039   1.225
 2035SOL    HW1 7004   1.223   3.012   1.195
 2035SOL    HW2 7005   1.065   2.970   1.198
 2036SOL     OW 7006   0.963   4.291   0.405
 2036SOL    HW1 7007   0.979   4.388   0.424
 2036SOL    HW2 7008   0.985   4.237   0.486
 2037SOL     OW 7009   7.021   1.383   6.101
 2037SOL    HW1 7010   0.030   1.307   6.043
 2037SOL    HW2 7011   6.939   1.424   6.061
 2038SOL     OW 7012   0.585   0.025   5.169
 2038SOL    HW1 7013   0.586   0.050   5.266
 2038SOL    HW2 7014   0.618   6.953   5.159
 2039SOL     OW 7015   1.371   5.077   1.945
 2039SOL    HW1 7016   1.392   5.121   1.858
 2039SOL    HW2 7017   1.416   4.987   1.948
 2040SOL     OW 7018   3.168   3.615   4.228
 2040SOL    HW1 7019   3.213   3.557   4.161
 2040SOL    HW2 7020   3.234   3.679   4.267
 2041SOL     OW 7021   6.595   3.789   6.600
 2041SOL    HW1 7022   6.539   3.732   6.658
 2041SOL    HW2 7023   6.548   3.806   6.513
 2042SOL     OW 7024   3.307   5.254   0.335
 2042SOL    HW1 7025   3.217   5.294   0.353
 2042SOL    HW2 7026   3.368   5.326   0.302
 2043SOL     OW 7027   4.449   4.588   2.516
 2043SOL    HW1 7028   4.517   4.579   2.443
 2043SOL    HW2 7029   4.465   4.517   2.585
 2044SOL     OW 7030   6.482   0.363   1.887
 2044SOL    HW1 7031   6.448   0.276   1.921
 2044SOL    HW2 7032   6.495   0.427   1.963
 2045SOL     OW 7033   2.034   5.455   6.005
 2045SOL    HW1 7034   2.061   5.505   6.088
 2045SOL    HW2 7035   1.979   5.514   5.947
 2046SOL     OW 7036   6.110   0.351   4.601
 2046SOL    HW1 7037   6.021   0.309   4.585
 2046SOL    HW2 7038   6.105   0.411   4.681
 2047SOL     OW 7039   5.467   2.616   0.129
 2047SOL    HW1 7040   5.388   2.556   0.115
 2047SOL    HW2 7041   5.479   2.675   0.050
 2048SOL     OW 7042   3.873   6.882   5.457
 2048SOL    HW1 7043   3.912   6.908   5.369
 2048SOL    HW2 7044   3.901   6.789   5.481
 2049SOL     OW 7045   4.639   6.024   0.596
 2049SOL    HW1 7046   4.600   6.116   0.601
 2049SOL    HW2 7047   4.617   5.983   0.508
 2050SOL     OW 7048   5.371   1.169   4.325
 2050SOL    HW1 7049   5.325   1.251   4.291
 2050SOL    HW2 7050   5.452   1.196   4.377
 2051SOL     OW 7051   2.523   5.470   0.474
 2051SOL    HW1 7052   2.452   5.434   0.534
 2051SOL    HW2 7053   2.491   5.468   0.379
 2052SOL     OW 7054   1.448   2.580   0.718
 2052SOL    HW1 7055   1.473   2.601   0.624
 2052SOL    HW2 7056   1.419   2.665   0.764
 2053SOL     OW 7057   5.272   0.817   0.486
 2053SOL    HW1 7058   5.305   0.877   0.559
 2053SOL    HW2 7059   5.203   0.865   0.432
 2054SOL     OW 7060   6.628   3.487   1.784
 2054SOL    HW1 7061   6.705   3.426   1.765
 2054SOL    HW2 7062   6.582   3.458   1.868
 2055SOL     OW 7063   6.226   1.775   4.071
 2055SOL    HW1 7064   6.260   1.807   4.159
 2055SOL    HW2 7065   6.134   1.737   4.083
 2056SOL     OW 7066   1.347   0.666   2.631
 2056SOL    HW1 7067   1.374   0.584   2.580
 2056SOL    HW2 7068   1.278   0.642   2.698
 2057SOL     OW 7069   6.828   2.465   4.136
 2057SOL    HW1 7070   6.843   2.391   4.070
 2057SOL    HW2 7071   6.788   2.427   4.220
 2058SOL     OW 7072   0.225   2.087   1.749
 2058SOL    HW1 7073   0.205   1.991   1.727
 2058SOL    HW2 7074   0.193   2.146   1.675
 2059SOL     OW 7075   1.516   1.180   6.615
 2059SOL    HW1 7076   1.556   1.172   6.523
 2059SOL    HW2 7077   1.418   1.196   6.607
 2060SOL     OW 7078   0.691   5.254   1.945
 2060SOL    HW1 7079   0.731   5.205   2.022
 2060SOL    HW2 7080   0.646   5.189   1.883
 2061SOL     OW 7081   0.518   1.528   1.176
 2061SOL    HW1 7082   0.430   1.501   1.136
 2061SOL    HW2 7083   0.502   1.588   1.255
 2062SOL     OW 7084   4.238   0.267   3.105
 2062SOL    HW1 7085   4.309   0.237   3.168
 2062SOL    HW2 7086   4.235   0.206   3.026
 2063SOL     OW 7087   2.641   1.817   0.615
 2063SOL    HW1 7088   2.664   1.737   0.560
 2063SOL    HW2 7089   2.722   1.848   0.664
 2064SOL     OW 7090   0.781   2.554   0.592
 2064SOL    HW1 7091   0.728   2.477   0.556
 2064SOL    HW2 7092   0.721   2.612   0.648
 2065SOL     OW 7093   5.871   3.071   2.095
 2065SOL    HW1 7094   5.964   3.038   2.079
 2065SOL    HW2 7095   5.820   3.002   2.147
 2066SOL     OW 7096   2.232   6.783   3.224
 2066SOL    HW1 7097   2.291   6.786   3.305
 2066SOL    HW2 7098   2.268   6.714   3.161
 2067SOL     OW 7099   0.162   6.898   1.140
 2067SOL    HW1 7100   0.215   6.820   1.108
 2067SOL    HW2 7101   0.223   6.962   1.188
 2068SOL     OW 7102   2.017   1.130   5.207
 2068SOL    HW1 7103   1.968   1.119   5.293
 2068SOL    HW2 7104   2.017   1.044   5.156
 2069SOL     OW 7105   0.530   1.576   1.628
 2069SOL    HW1 7106   0.630   1.578   1.635
 2069SOL    HW2 7107   0.490   1.624   1.706
 2070SOL     OW 7108   0.834   1.397   3.111
 2070SOL    HW1 7109   0.913   1.408   3.050
 2070SOL    HW2 7110   0.826   1.478   3.169
 2071SOL     OW 7111   1.702   6.463   4.974
 2071SOL    HW1 7112   1.747   6.413   4.900
 2071SOL    HW2 7113   1.664   6.399   5.041
 2072SOL     OW 7114   4.750   4.860   2.273
 2072SOL    HW1 7115   4.756   4.821   2.181
 2072SOL    HW2 7116   4.655   4.883   2.293
 2073SOL     OW 7117   3.385   6.648   5.456
 2073SOL    HW1 7118   3.388   6.702   5.372
 2073SOL    HW2 7119   3.307   6.585   5.453
 2074SOL     OW 7120   6.474   1.961   1.703
 2074SOL    HW1 7121   6.469   1.898   1.625
 2074SOL    HW2 7122   6.452   1.911   1.787
 2075SOL     OW 7123   3.986   3.541   5.950
 2075SOL    HW1 7124   3.947   3.572   6.037
 2075SOL    HW2 7125   4.058   3.474   5.968
 2076SOL     OW 7126   4.807   0.636   1.086
 2076SOL    HW1 7127   4.729   0.578   1.109
 2076SOL    HW2 7128   4.774   0.721   1.045
 2077SOL     OW 7129   5.072   1.957   3.128
 2077SOL    HW1 7130   4.978   1.928   3.142
 2077SOL    HW2 7131   5.129   1.877   3.110
 2078SOL     OW 7132   4.241   5.665   5.622
 2078SOL    HW1 7133   4.296   5.615   5.556
 2078SOL    HW2 7134   4.191   5.600   5.679
 2079SOL     OW 7135   5.812   1.455   3.533
 2079SOL    HW1 7136   5.746   1.451   3.608
 2079SOL    HW2 7137   5.896   1.408   3.559
 2080SOL     OW 7138   3.191   2.153   4.543
 2080SOL    HW1 7139   3.153   2.131   4.633
 2080SOL    HW2 7140   3.261   2.224   4.552
 2081SOL     OW 7141   0.488   6.463   5.119
 2081SOL    HW1 7142   0.415   6.529   5.140
 2081SOL    HW2 7143   0.568   6.483   5.175
 2082SOL     OW 7144   4.845   0.466   1.675
 2082SOL    HW1 7145   4.846   0.548   1.618
 2082SOL    HW2 7146   4.890   0.486   1.762
 2083SOL     OW 7147   3.371   4.968   5.486
 2083SOL    HW1 7148   3.301   5.021   5.438
 2083SOL    HW2 7149   3.369   4.873   5.453
 2084SOL     OW 7150   6.993   3.245   2.951
 2084SOL    HW1 7151   0.012   3.195   3.027
 2084SOL    HW2 7152   6.893   3.234   2.954
 2085SOL     OW 7153   5.648   6.264   6.289
 2085SOL    HW1 7154   5.709   6.186   6.298
 2085SOL    HW2 7155   5.659   6.324   6.368
 2086SOL     OW 7156   2.890   4.866   0.754
 2086SOL    HW1 7157   2.945   4.927   0.697
 2086SOL    HW2 7158   2.914   4.878   0.850
 2087SOL     OW 7159   5.889   6.194   3.740
 2087SOL    HW1 7160   5.912   6.164   3.647
 2087SOL    HW2 7161   5.946   6.272   3.764
 2088SOL     OW 7162   2.649   0.242   0.731
 2088SOL    HW1 7163   2.690   0.313   0.788
 2088SOL    HW2 7164   2.668   0.260   0.635
 2089SOL     OW 7165   2.931   0.452   6.423
 2089SOL    HW1 7166   2.983   0.429   6.505
 2089SOL    HW2 7167   2.959   0.393   6.348
 2090SOL     OW 7168   3.385   2.908   3.714
 2090SOL    HW1 7169   3.405   3.006   3.724
 2090SOL    HW2 7170   3.345   2.873   3.799
 2091SOL     OW 7171   2.136   4.815   0.202
 2091SOL    HW1 7172   2.135   4.786   0.297
 2091SOL    HW2 7173   2.043   4.814   0.166
 2092SOL     OW 7174   6.361   6.428   0.536
 2092SOL    HW1 7175   6.261   6.422   0.536
 2092SOL    HW2 7176   6.399   6.337   0.551
 2093SOL     OW 7177   1.448   2.398   1.658
 2093SOL    HW1 7178   1.442   2.386   1.559
 2093SOL    HW2 7179   1.493   2.486   1.677
 2094SOL     OW 7180   5.765   0.384   2.508
 2094SOL    HW1 7181   5.710   0.394   2.426
 2094SOL    HW2 7182   5.716   0.424   2.586
 2095SOL     OW 7183   6.901   4.878   4.962
 2095SOL    HW1 7184   6.870   4.823   4.884
 2095SOL    HW2 7185   6.832   4.875   5.035
 2096SOL     OW 7186   4.841   3.663   2.902
 2096SOL    HW1 7187   4.876   3.751   2.934
 2096SOL    HW2 7188   4.823   3.668   2.803
 2097SOL     OW 7189   6.704   3.284   7.006
 2097SOL    HW1 7190   6.644   3.323   6.937
 2097SOL    HW2 7191   6.742   3.357   0.042
 2098SOL     OW 7192   4.858   0.552   4.224
 2098SOL    HW1 7193   4.841   0.509   4.135
 2098SOL    HW2 7194   4.955   0.575   4.232
 2099SOL     OW 7195   2.784   1.469   4.156
 2099SOL    HW1 7196   2.812   1.545   4.098
 2099SOL    HW2 7197   2.742   1.504   4.240
 2100SOL     OW 7198   3.554   3.913   6.475
 2100SOL    HW1 7199   3.455   3.915   6.463
 2100SOL    HW2 7200   3.599   3.923   6.386
 2101SOL     OW 7201   6.625   0.551   3.392
 2101SOL    HW1 7202   6.584   0.625   3.446
 2101SOL    HW2 7203   6.559   0.519   3.324
 2102SOL     OW 7204   0.372   4.878   1.875
 2102SOL    HW1 7205   0.403   4.784   1.862
 2102SOL    HW2 7206   0.302   4.880   1.947
 2103SOL     OW 7207   2.788   3.776   6.861
 2103SOL    HW1 7208   2.755   3.682   6.858
 2103SOL    HW2 7209   2.842   3.791   6.944
 2104SOL     OW 7210   1.287   3.597   4.978
 2104SOL    HW1 7211   1.226   3.541   5.034
 2104SOL    HW2 7212   1.371   3.545   4.958
 2105SOL     OW 7213   5.864   5.707   1.588
 2105SOL    HW1 7214   5.782   5.762   1.605
 2105SOL    HW2 7215   5.884   5.707   1.490
 2106SOL     OW 7216   5.160   6.085   6.787
 2106SOL    HW1 7217   5.246   6.037   6.804
 2106SOL    HW2 7218   5.102   6.030   6.727
 2107SOL     OW 7219   3.644   4.326   6.752
 2107SOL    HW1 7220   3.586   4.315   6.833
 2107SOL    HW2 7221   3.601   4.280   6.674
 2108SOL     OW 7222   5.418   4.749   5.520
 2108SOL    HW1 7223   5.505   4.798   5.512
 2108SOL    HW2 7224   5.435   4.651   5.513
 2109SOL     OW 7225   5.485   6.774   2.481
 2109SOL    HW1 7226   5.559   6.709   2.466
 2109SOL    HW2 7227   5.413   6.731   2.535
 2110SOL     OW 7228   2.506   4.978   5.150
 2110SOL    HW1 7229   2.577   5.026   5.099
 2110SOL    HW2 7230   2.529   4.881   5.156
 2111SOL     OW 7231   1.221   2.503   6.580
 2111SOL    HW1 7232   1.130   2.501   6.622
 2111SOL    HW2 7233   1.226   2.433   6.509
 2112SOL     OW 7234   5.308   3.182   1.269
 2112SOL    HW1 7235   5.387   3.152   1.322
 2112SOL    HW2 7236   5.281   3.273   1.298
 2113SOL     OW 7237   7.011   1.170   3.021
 2113SOL    HW1 7238   0.090   1.167   3.029
 2113SOL    HW2 7239   6.980   1.264   3.036
 2114SOL     OW 7240   1.788   3.998   6.689
 2114SOL    HW1 7241   1.771   3.977   6.593
 2114SOL    HW2 7242   1.714   4.055   6.724
 2115SOL     OW 7243   2.784   5.003   2.011
 2115SOL    HW1 7244   2.837   5.087   1.999
 2115SOL    HW2 7245   2.761   4.991   2.108
 2116SOL     OW 7246   6.928   4.049   3.285
 2116SOL    HW1 7247   6.880   3.963   3.298
 2116SOL    HW2 7248   7.014   4.047   3.336
 2117SOL     OW 7249   6.714   4.887   0.539
 2117SOL    HW1 7250   6.630   4.934   0.513
 2117SOL    HW2 7251   6.785   4.955   0.560
 2118SOL     OW 7252   6.916   3.880   2.047
 2118SOL    HW1 7253   6.982   3.805   2.057
 2118SOL    HW2 7254   6.949   3.944   1.978
 2119SOL     OW 7255   3.148   5.791   1.201
 2119SOL    HW1 7256   3.144   5.708   1.146
 2119SOL    HW2 7257   3.127   5.770   1.296
 2120SOL     OW 7258   0.417   5.515   2.254
 2120SOL    HW1 7259   0.480   5.578   2.299
 2120SOL    HW2 7260   0.430   5.520   2.155
 2121SOL     OW 7261   0.713   4.060   4.852
 2121SOL    HW1 7262   0.782   3.990   4.836
 2121SOL    HW2 7263   0.660   4.036   4.933
 2122SOL     OW 7264   4.443   4.356   5.355
 2122SOL    HW1 7265   4.532   4.325   5.322
 2122SOL    HW2 7266   4.379   4.361   5.278
 2123SOL     OW 7267   4.784   4.471   3.480
 2123SOL    HW1 7268   4.829   4.382   3.483
 2123SOL    HW2 7269   4.827   4.528   3.409
 2124SOL     OW 7270   2.491   1.107   1.309
 2124SOL    HW1 7271   2.591   1.109   1.308
 2124SOL    HW2 7272   2.457   1.157   1.388
 2125SOL     OW 7273   2.655   0.174   1.445
 2125SOL    HW1 7274   2.709   0.237   1.501
 2125SOL    HW2 7275   2.671   0.193   1.348
 2126SOL     OW 7276   2.848   0.669   1.976
 2126SOL    HW1 7277   2.917   0.690   2.046
 2126SOL    HW2 7278   2.865   0.725   1.895
 2127SOL     OW 7279   5.547   3.107   4.990
 2127SOL    HW1 7280   5.550   3.054   4.905
 2127SOL    HW2 7281   5.607   3.066   5.058
 2128SOL     OW 7282   0.684   4.879   4.348
 2128SOL    HW1 7283   0.676   4.954   4.282
 2128SOL    HW2 7284   0.774   4.835   4.338
 2129SOL     OW 7285   3.722   2.152   5.744
 2129SOL    HW1 7286   3.735   2.133   5.646
 2129SOL    HW2 7287   3.632   2.193   5.758
 2130SOL     OW 7288   4.066   6.406   3.679
 2130SOL    HW1 7289   4.044   6.501   3.656
 2130SOL    HW2 7290   4.143   6.376   3.622
 2131SOL     OW 7291   5.473   2.247   6.782
 2131SOL    HW1 7292   5.499   2.156   6.816
 2131SOL    HW2 7293   5.380   2.268   6.811
 2132SOL     OW 7294   2.313   3.100   0.350
 2132SOL    HW1 7295   2.231   3.069   0.400
 2132SOL    HW2 7296   2.374   3.147   0.413
 2133SOL     OW 7297   3.324   3.502   5.890
 2133SOL    HW1 7298   3.294   3.487   5.984
 2133SOL    HW2 7299   3.268   3.574   5.849
 2134SOL     OW 7300   0.920   6.936   1.275
 2134SOL    HW1 7301   0.832   6.977   1.252
 2134SOL    HW2 7302   0.993   7.003   1.262
 2135SOL     OW 7303   6.679   4.368   4.577
 2135SOL    HW1 7304   6.721   4.457   4.558
 2135SOL    HW2 7305   6.751   4.300   4.589
 2136SOL     OW 7306   1.329   4.918   0.897
 2136SOL    HW1 7307   1.302   4.839   0.951
 2136SOL    HW2 7308   1.334   4.999   0.955
 2137SOL     OW 7309   1.800   6.157   4.335
 2137SOL    HW1 7310   1.767   6.097   4.409
 2137SOL    HW2 7311   1.883   6.118   4.297
 2138SOL     OW 7312   5.160   1.211   1.661
 2138SOL    HW1 7313   5.064   1.209   1.632
 2138SOL    HW2 7314   5.189   1.307   1.673
 2139SOL     OW 7315   2.610   0.102   5.445
 2139SOL    HW1 7316   2.582   0.172   5.379
 2139SOL    HW2 7317   2.700   0.067   5.420
 2140SOL     OW 7318   2.421   1.580   4.896
 2140SOL    HW1 7319   2.516   1.608   4.892
 2140SOL    HW2 7320   2.414   1.482   4.877
 2141SOL     OW 7321   6.518   3.448   2.887
 2141SOL    HW1 7322   6.431   3.480   2.923
 2141SOL    HW2 7323   6.548   3.369   2.941
 2142SOL     OW 7324   1.567   2.281   2.798
 2142SOL    HW1 7325   1.497   2.292   2.727
 2142SOL    HW2 7326   1.562   2.188   2.835
 2143SOL     OW 7327   0.860   4.669   6.404
 2143SOL    HW1 7328   0.829   4.684   6.310
 2143SOL    HW2 7329   0.794   4.611   6.452
 2144SOL     OW 7330   6.223   4.583   3.598
 2144SOL    HW1 7331   6.269   4.671   3.591
 2144SOL    HW2 7332   6.137   4.586   3.546
 2145SOL     OW 7333   4.525   0.796   3.449
 2145SOL    HW1 7334   4.605   0.767   3.397
 2145SOL    HW2 7335   4.480   0.871   3.402
 2146SOL     OW 7336   2.408   2.964   0.108
 2146SOL    HW1 7337   2.355   3.018   0.173
 2146SOL    HW2 7338   2.429   2.875   0.148
 2147SOL     OW 7339   5.970   6.931   4.552
 2147SOL    HW1 7340   5.892   6.989   4.574
 2147SOL    HW2 7341   5.976   6.919   4.452
 2148SOL     OW 7342   0.508   3.366   5.702
 2148SOL    HW1 7343   0.539   3.412   5.619
 2148SOL    HW2 7344   0.451   3.429   5.755
 2149SOL     OW 7345   0.871   0.153   0.282
 2149SOL    HW1 7346   0.786   0.206   0.293
 2149SOL    HW2 7347   0.949   0.215   0.287
 2150SOL     OW 7348   2.000   2.485   1.718
 2150SOL    HW1 7349   2.078   2.526   1.670
 2150SOL    HW2 7350   1.972   2.401   1.671
 2151SOL     OW 7351   1.130   5.411   0.291
 2151SOL    HW1 7352   1.036   5.411   0.257
 2151SOL    HW2 7353   1.178   5.492   0.254
 2152SOL     OW 7354   5.076   5.686   4.559
 2152SOL    HW1 7355   5.095   5.740   4.477
 2152SOL    HW2 7356   4.984   5.646   4.551
 2153SOL     OW 7357   5.095   1.382   3.656
 2153SOL    HW1 7358   5.024   1.407   3.589
 2153SOL    HW2 7359   5.120   1.286   3.643
 2154SOL     OW 7360   3.421   0.595   3.021
 2154SOL    HW1 7361   3.471   0.511   2.999
 2154SOL    HW2 7362   3.435   0.662   2.949
 2155SOL     OW 7363   4.223   0.790   0.720
 2155SOL    HW1 7364   4.125   0.780   0.705
 2155SOL    HW2 7365   4.264   0.701   0.738
 2156SOL     OW 7366   5.063   1.542   4.890
 2156SOL    HW1 7367   5.064   1.635   4.853
 2156SOL    HW2 7368   5.157   1.514   4.911
 2157SOL     OW 7369   3.563   6.302   4.300
 2157SOL    HW1 7370   3.592   6.368   4.230
 2157SOL    HW2 7371   3.550   6.212   4.258
 2158SOL     OW 7372   3.725   6.962   0.513
 2158SOL    HW1 7373   3.784   0.017   0.488
 2158SOL    HW2 7374   3.775   6.900   0.574
 2159SOL     OW 7375   0.559   0.836   5.918
 2159SOL    HW1 7376   0.561   0.842   5.818
 2159SOL    HW2 7377   0.529   0.745   5.945
 2160SOL     OW 7378   5.617   0.134   0.641
 2160SOL    HW1 7379   5.711   0.128   0.607
 2160SOL    HW2 7380   5.561   0.063   0.598
 2161SOL     OW 7381   1.570   2.630   1.744
 2161SOL    HW1 7382   1.666   2.653   1.765
 2161SOL    HW2 7383   1.525   2.711   1.706
 2162SOL     OW 7384   1.442   6.527   1.628
 2162SOL    HW1 7385   1.441   6.432   1.596
 2162SOL    HW2 7386   1.526   6.571   1.596
 2163SOL     OW 7387   1.841   2.631   2.776
 2163SOL    HW1 7388   1.788   2.686   2.839
 2163SOL    HW2 7389   1.926   2.679   2.753
 2164SOL     OW 7390   2.197   2.970   2.544
 2164SOL    HW1 7391   2.207   2.936   2.451
 2164SOL    HW2 7392   2.100   2.977   2.567
 2165SOL     OW 7393   6.839   1.515   3.693
 2165SOL    HW1 7394   6.817   1.425   3.731
 2165SOL    HW2 7395   6.880   1.572   3.765
 2166SOL     OW 7396   6.998   3.950   2.659
 2166SOL    HW1 7397   6.909   3.911   2.681
 2166SOL    HW2 7398   0.025   3.891   2.595
 2167SOL     OW 7399   2.271   1.827   3.189
 2167SOL    HW1 7400   2.321   1.865   3.266
 2167SOL    HW2 7401   2.203   1.893   3.157
 2168SOL     OW 7402   1.517   2.067   3.005
 2168SOL    HW1 7403   1.500   2.000   3.077
 2168SOL    HW2 7404   1.476   2.155   3.030
 2169SOL     OW 7405   0.875   0.082   1.732
 2169SOL    HW1 7406   0.854   7.011   1.698
 2169SOL    HW2 7407   0.878   0.146   1.655
 2170SOL     OW 7408   1.148   3.986   5.629
 2170SOL    HW1 7409   1.192   3.925   5.563
 2170SOL    HW2 7410   1.052   3.961   5.639
 2171SOL     OW 7411   6.541   5.630   1.356
 2171SOL    HW1 7412   6.523   5.710   1.299
 2171SOL    HW2 7413   6.566   5.660   1.448
 2172SOL     OW 7414   1.444   1.357   5.504
 2172SOL    HW1 7415   1.442   1.281   5.439
 2172SOL    HW2 7416   1.504   1.429   5.469
 2173SOL     OW 7417   5.668   0.806   5.187
 2173SOL    HW1 7418   5.594   0.873   5.178
 2173SOL    HW2 7419   5.746   0.849   5.233
 2174SOL     OW 7420   5.668   0.264   6.118
 2174SOL    HW1 7421   5.596   0.209   6.075
 2174SOL    HW2 7422   5.757   0.228   6.092
 2175SOL     OW 7423   2.531   3.948   5.392
 2175SOL    HW1 7424   2.489   3.870   5.438
 2175SOL    HW2 7425   2.503   3.949   5.296
 2176SOL     OW 7426   5.474   2.624   2.644
 2176SOL    HW1 7427   5.563   2.623   2.689
 2176SOL    HW2 7428   5.402   2.613   2.713
 2177SOL     OW 7429   0.544   0.312   4.714
 2177SOL    HW1 7430   0.518   0.408   4.713
 2177SOL    HW2 7431   0.545   0.279   4.809
 2178SOL     OW 7432   0.574   2.075   2.964
 2178SOL    HW1 7433   0.476   2.092   2.962
 2178SOL    HW2 7434   0.623   2.162   2.964
 2179SOL     OW 7435   1.700   4.407   6.143
 2179SOL    HW1 7436   1.767   4.343   6.107
 2179SOL    HW2 7437   1.733   4.443   6.231
 2180SOL     OW 7438   0.649   6.477   2.843
 2180SOL    HW1 7439   0.619   6.469   2.938
 2180SOL    HW2 7440   0.597   6.549   2.798
 2181SOL     OW 7441   2.958   4.944   4.547
 2181SOL    HW1 7442   2.877   5.001   4.539
 2181SOL    HW2 7443   2.973   4.921   4.643
 2182SOL     OW 7444   6.805   6.532   2.792
 2182SOL    HW1 7445   6.786   6.592   2.714
 2182SOL    HW2 7446   6.765   6.442   2.775
 2183SOL     OW 7447   3.419   3.261   6.241
 2183SOL    HW1 7448   3.486   3.326   6.205
 2183SOL    HW2 7449   3.423   3.177   6.187
 2184SOL     OW 7450   6.527   1.542   0.040
 2184SOL    HW1 7451   6.427   1.542   0.030
 2184SOL    HW2 7452   6.559   1.636   0.054
 2185SOL     OW 7453   1.254   7.009   6.530
 2185SOL    HW1 7454   1.312   0.008   6.451
 2185SOL    HW2 7455   1.267   0.058   6.600
 2186SOL     OW 7456   0.131   5.477   5.367
 2186SOL    HW1 7457   0.218   5.483   5.319
 2186SOL    HW2 7458   0.073   5.410   5.322
 2187SOL     OW 7459   0.574   5.725   2.332
 2187SOL    HW1 7460   0.625   5.686   2.409
 2187SOL    HW2 7461   0.638   5.749   2.259
 2188SOL     OW 7462   2.718   0.513   0.905
 2188SOL    HW1 7463   2.680   0.604   0.887
 2188SOL    HW2 7464   2.809   0.506   0.864
 2189SOL     OW 7465   1.897   1.476   1.607
 2189SOL    HW1 7466   1.812   1.445   1.563
 2189SOL    HW2 7467   1.875   1.523   1.692
 2190SOL     OW 7468   6.378   4.172   1.987
 2190SOL    HW1 7469   6.291   4.195   1.943
 2190SOL    HW2 7470   6.450   4.166   1.917
 2191SOL     OW 7471   2.873   0.416   6.989
 2191SOL    HW1 7472   2.961   0.461   7.003
 2191SOL    HW2 7473   2.872   0.329   0.016
 2192SOL     OW 7474   5.002   1.963   1.648
 2192SOL    HW1 7475   4.992   2.058   1.679
 2192SOL    HW2 7476   4.984   1.957   1.550
 2193SOL     OW 7477   1.616   7.017   5.559
 2193SOL    HW1 7478   1.696   0.002   5.499
 2193SOL    HW2 7479   1.562   0.080   5.551
 2194SOL     OW 7480   0.866   3.883   6.554
 2194SOL    HW1 7481   0.921   3.825   6.494
 2194SOL    HW2 7482   0.858   3.841   6.644
 2195SOL     OW 7483   0.532   3.460   4.659
 2195SOL    HW1 7484   0.562   3.431   4.750
 2195SOL    HW2 7485   0.493   3.382   4.611
 2196SOL     OW 7486   2.652   0.353   6.604
 2196SOL    HW1 7487   2.681   0.309   6.519
 2196SOL    HW2 7488   2.552   0.350   6.610
 2197SOL     OW 7489   3.541   5.449   5.850
 2197SOL    HW1 7490   3.600   5.376   5.884
 2197SOL    HW2 7491   3.587   5.537   5.861
 2198SOL     OW 7492   0.910   0.614   0.178
 2198SOL    HW1 7493   0.970   0.692   0.160
 2198SOL    HW2 7494   0.821   0.630   0.133
 2199SOL     OW 7495   3.964   6.582   4.783
 2199SOL    HW1 7496   3.969   6.488   4.818
 2199SOL    HW2 7497   3.996   6.645   4.853
 2200SOL     OW 7498   2.354   1.925   3.977
 2200SOL    HW1 7499   2.353   1.937   4.076
 2200SOL    HW2 7500   2.285   1.856   3.951
 2201SOL     OW 7501   6.043   3.794   5.095
 2201SOL    HW1 7502   5.999   3.869   5.144
 2201SOL    HW2 7503   6.098   3.740   5.159
 2202SOL     OW 7504   3.623   0.075   1.941
 2202SOL    HW1 7505   3.584   0.167   1.942
 2202SOL    HW2 7506   3.704   0.073   1.999
 2203SOL     OW 7507   2.230   4.601   1.155
 2203SOL    HW1 7508   2.223   4.516   1.103
 2203SOL    HW2 7509   2.142   4.622   1.199
 2204SOL     OW 7510   5.750   3.473   0.668
 2204SOL    HW1 7511   5.751   3.483   0.568
 2204SOL    HW2 7512   5.721   3.380   0.692
 2205SOL     OW 7513   0.363   5.560   0.490
 2205SOL    HW1 7514   0.420   5.490   0.446
 2205SOL    HW2 7515   0.369   5.550   0.590
 2206SOL     OW 7516   3.814   2.548   5.841
 2206SOL    HW1 7517   3.820   2.453   5.873
 2206SOL    HW2 7518   3.848   2.553   5.747
 2207SOL     OW 7519   4.767   5.586   0.848
 2207SOL    HW1 7520   4.721   5.641   0.917
 2207SOL    HW2 7521   4.822   5.515   0.893
 2208SOL     OW 7522   6.568   6.408   3.469
 2208SOL    HW1 7523   6.555   6.309   3.469
 2208SOL    HW2 7524   6.657   6.429   3.429
 2209SOL     OW 7525   2.417   5.957   4.154
 2209SOL    HW1 7526   2.396   5.863   4.127
 2209SOL    HW2 7527   2.364   6.021   4.098
 2210SOL     OW 7528   4.533   0.231   1.188
 2210SOL    HW1 7529   4.630   0.221   1.165
 2210SOL    HW2 7530   4.522   0.306   1.254
 2211SOL     OW 7531   0.515   1.893   1.072
 2211SOL    HW1 7532   0.550   1.900   1.165
 2211SOL    HW2 7533   0.551   1.968   1.017
 2212SOL     OW 7534   3.159   5.673   6.747
 2212SOL    HW1 7535   3.112   5.587   6.762
 2212SOL    HW2 7536   3.113   5.724   6.674
 2213SOL     OW 7537   3.394   1.912   4.798
 2213SOL    HW1 7538   3.456   1.883   4.871
 2213SOL    HW2 7539   3.330   1.838   4.777
 2214SOL     OW 7540   4.242   3.719   6.849
 2214SOL    HW1 7541   4.266   3.623   6.841
 2214SOL    HW2 7542   4.285   3.758   6.930
 2215SOL     OW 7543   3.938   0.102   0.094
 2215SOL    HW1 7544   3.962   0.006   0.077
 2215SOL    HW2 7545   3.943   0.153   0.009
 2216SOL     OW 7546   0.687   7.017   6.540
 2216SOL    HW1 7547   0.757   6.956   6.578
 2216SOL    HW2 7548   0.693   7.017   6.440
 2217SOL     OW 7549   4.447   0.715   3.861
 2217SOL    HW1 7550   4.357   0.725   3.818
 2217SOL    HW2 7551   4.499   0.799   3.847
 2218SOL     OW 7552   0.626   6.129   5.796
 2218SOL    HW1 7553   0.591   6.222   5.806
 2218SOL    HW2 7554   0.563   6.075   5.741
 2219SOL     OW 7555   5.958   0.967   1.071
 2219SOL    HW1 7556   5.875   0.982   1.125
 2219SOL    HW2 7557   5.933   0.941   0.978
 2220SOL     OW 7558   0.440   5.984   4.919
 2220SOL    HW1 7559   0.367   5.956   4.856
 2220SOL    HW2 7560   0.419   6.074   4.957
 2221SOL     OW 7561   6.636   1.553   4.027
 2221SOL    HW1 7562   6.537   1.546   4.010
 2221SOL    HW2 7563   6.680   1.467   4.003
 2222SOL     OW 7564   5.146   0.275   2.378
 2222SOL    HW1 7565   5.112   0.363   2.409
 2222SOL    HW2 7566   5.105   0.253   2.289
 2223SOL     OW 7567   0.436   6.411   5.612
 2223SOL    HW1 7568   0.414   6.505   5.638
 2223SOL    HW2 7569   0.353   6.365   5.580
 2224SOL     OW 7570   6.348   3.918   0.381
 2224SOL    HW1 7571   6.309   3.955   0.297
 2224SOL    HW2 7572   6.425   3.975   0.411
 2225SOL     OW 7573   6.611   6.065   2.587
 2225SOL    HW1 7574   6.650   6.041   2.498
 2225SOL    HW2 7575   6.645   6.155   2.614
 2226SOL     OW 7576   2.477   4.967   0.351
 2226SOL    HW1 7577   2.443   4.966   0.257
 2226SOL    HW2 7578   2.406   5.004   0.412
 2227SOL     OW 7579   3.734   2.015   1.827
 2227SOL    HW1 7580   3.809   2.054   1.773
 2227SOL    HW2 7581   3.714   2.075   1.904
 2228SOL     OW 7582   5.641   5.438   6.812
 2228SOL    HW1 7583   5.566   5.482   6.764
 2228SOL    HW2 7584   5.617   5.426   6.909
 2229SOL     OW 7585   3.552   3.394   3.305
 2229SOL    HW1 7586   3.590   3.313   3.349
 2229SOL    HW2 7587   3.455   3.379   3.285
 2230SOL     OW 7588   5.670   0.419   6.955
 2230SOL    HW1 7589   5.621   0.414   6.868
 2230SOL    HW2 7590   5.609   0.455   0.005
 2231SOL     OW 7591   1.393   6.700   6.577
 2231SOL    HW1 7592   1.451   6.692   6.497
 2231SOL    HW2 7593   1.324   6.771   6.562
 2232SOL     OW 7594   1.086   0.948   4.939
 2232SOL    HW1 7595   1.185   0.962   4.934
 2232SOL    HW2 7596   1.059   0.872   4.880
 2233SOL     OW 7597   3.078   4.633   1.002
 2233SOL    HW1 7598   3.121   4.585   0.927
 2233SOL    HW2 7599   3.144   4.645   1.076
 2234SOL     OW 7600   4.758   1.680   1.567
 2234SOL    HW1 7601   4.700   1.599   1.561
 2234SOL    HW2 7602   4.742   1.726   1.654
 2235SOL     OW 7603   0.918   1.821   3.172
 2235SOL    HW1 7604   0.866   1.844   3.089
 2235SOL    HW2 7605   1.007   1.867   3.169
 2236SOL     OW 7606   1.876   4.693   5.165
 2236SOL    HW1 7607   1.936   4.649   5.233
 2236SOL    HW2 7608   1.875   4.791   5.181
 2237SOL     OW 7609   6.653   4.983   5.837
 2237SOL    HW1 7610   6.629   5.080   5.844
 2237SOL    HW2 7611   6.717   4.959   5.910
 2238SOL     OW 7612   5.685   4.070   1.830
 2238SOL    HW1 7613   5.698   3.971   1.827
 2238SOL    HW2 7614   5.677   4.105   1.737
 2239SOL     OW 7615   4.629   6.570   3.344
 2239SOL    HW1 7616   4.707   6.620   3.381
 2239SOL    HW2 7617   4.563   6.635   3.305
 2240SOL     OW 7618   4.900   4.912   3.111
 2240SOL    HW1 7619   4.957   4.899   3.193
 2240SOL    HW2 7620   4.875   5.009   3.104
 2241SOL     OW 7621   0.414   1.348   1.417
 2241SOL    HW1 7622   0.510   1.327   1.399
 2241SOL    HW2 7623   0.399   1.447   1.411
 2242SOL     OW 7624   4.869   2.650   3.390
 2242SOL    HW1 7625   4.825   2.597   3.317
 2242SOL    HW2 7626   4.917   2.588   3.452
 2243SOL     OW 7627   1.898   6.717   0.666
 2243SOL    HW1 7628   1.956   6.772   0.727
 2243SOL    HW2 7629   1.886   6.626   0.705
 2244SOL     OW 7630   2.427   0.836   0.460
 2244SOL    HW1 7631   2.434   0.875   0.551
 2244SOL    HW2 7632   2.363   0.760   0.461
 2245SOL     OW 7633   0.142   0.521   6.889
 2245SOL    HW1 7634   0.075   0.468   6.838
 2245SOL    HW2 7635   0.154   0.611   6.847
 2246SOL     OW 7636   2.703   1.099   5.421
 2246SOL    HW1 7637   2.765   1.176   5.405
 2246SOL    HW2 7638   2.637   1.094   5.346
 2247SOL     OW 7639   2.974   3.744   2.520
 2247SOL    HW1 7640   2.941   3.730   2.614
 2247SOL    HW2 7641   2.911   3.700   2.456
 2248SOL     OW 7642   4.792   4.089   5.107
 2248SOL    HW1 7643   4.745   4.144   5.176
 2248SOL    HW2 7644   4.768   3.992   5.120
 2249SOL     OW 7645   1.298   6.073   3.347
 2249SOL    HW1 7646   1.398   6.078   3.345
 2249SOL    HW2 7647   1.260   6.135   3.279
 2250SOL     OW 7648   4.669   5.434   6.415
 2250SOL    HW1 7649   4.642   5.413   6.509
 2250SOL    HW2 7650   4.640   5.526   6.392
 2251SOL     OW 7651   5.783   6.280   5.571
 2251SOL    HW1 7652   5.853   6.209   5.572
 2251SOL    HW2 7653   5.766   6.312   5.664
 2252SOL     OW 7654   4.256   1.660   2.999
 2252SOL    HW1 7655   4.278   1.590   3.067
 2252SOL    HW2 7656   4.237   1.616   2.911
 2253SOL     OW 7657   0.516   3.501   1.404
 2253SOL    HW1 7658   0.612   3.528   1.406
 2253SOL    HW2 7659   0.472   3.527   1.490
 2254SOL     OW 7660   4.128   3.509   2.637
 2254SOL    HW1 7661   4.110   3.607   2.638
 2254SOL    HW2 7662   4.163   3.481   2.726
 2255SOL     OW 7663   2.966   3.418   6.441
 2255SOL    HW1 7664   3.060   3.387   6.427
 2255SOL    HW2 7665   2.961   3.517   6.433
 2256SOL     OW 7666   4.986   6.935   1.479
 2256SOL    HW1 7667   4.934   7.018   1.498
 2256SOL    HW2 7668   5.062   6.928   1.543
 2257SOL     OW 7669   0.432   1.208   5.117
 2257SOL    HW1 7670   0.512   1.232   5.063
 2257SOL    HW2 7671   0.386   1.291   5.148
 2258SOL     OW 7672   2.308   5.694   4.146
 2258SOL    HW1 7673   2.231   5.631   4.157
 2258SOL    HW2 7674   2.386   5.644   4.110
 2259SOL     OW 7675   6.035   2.272   4.610
 2259SOL    HW1 7676   6.057   2.261   4.707
 2259SOL    HW2 7677   6.048   2.185   4.563
 2260SOL     OW 7678   0.947   4.065   1.275
 2260SOL    HW1 7679   0.981   3.983   1.230
 2260SOL    HW2 7680   0.892   4.118   1.211
 2261SOL     OW 7681   5.466   4.154   6.879
 2261SOL    HW1 7682   5.397   4.224   6.860
 2261SOL    HW2 7683   5.534   4.154   6.805
 2262SOL     OW 7684   6.648   0.396   4.810
 2262SOL    HW1 7685   6.733   0.344   4.800
 2262SOL    HW2 7686   6.668   0.488   4.842
 2263SOL     OW 7687   2.367   4.522   6.357
 2263SOL    HW1 7688   2.452   4.542   6.405
 2263SOL    HW2 7689   2.290   4.542   6.417
 2264SOL     OW 7690   2.327   6.979   5.471
 2264SOL    HW1 7691   2.420   7.017   5.479
 2264SOL    HW2 7692   2.271   0.020   5.416
 2265SOL     OW 7693   0.593   6.488   4.689
 2265SOL    HW1 7694   0.563   6.574   4.731
 2265SOL    HW2 7695   0.614   6.503   4.593
 2266SOL     OW 7696   3.805   2.345   6.932
 2266SOL    HW1 7697   3.759   2.313   7.015
 2266SOL    HW2 7698   3.880   2.282   6.910
 2267SOL     OW 7699   4.892   2.463   4.241
 2267SOL    HW1 7700   4.981   2.472   4.196
 2267SOL    HW2 7701   4.856   2.554   4.261
 2268SOL     OW 7702   0.787   5.755   5.041
 2268SOL    HW1 7703   0.856   5.684   5.025
 2268SOL    HW2 7704   0.716   5.720   5.102
 2269SOL     OW 7705   1.875   2.383   5.095
 2269SOL    HW1 7706   1.918   2.409   5.181
 2269SOL    HW2 7707   1.780   2.355   5.112
 2270SOL     OW 7708   5.149   1.899   5.874
 2270SOL    HW1 7709   5.077   1.849   5.825
 2270SOL    HW2 7710   5.155   1.992   5.840
 2271SOL     OW 7711   5.120   5.365   5.978
 2271SOL    HW1 7712   5.023   5.340   5.969
 2271SOL    HW2 7713   5.128   5.462   5.999
 2272SOL     OW 7714   5.650   0.906   5.851
 2272SOL    HW1 7715   5.741   0.930   5.886
 2272SOL    HW2 7716   5.595   0.869   5.925
 2273SOL     OW 7717   0.931   2.524   2.889
 2273SOL    HW1 7718   1.013   2.543   2.944
 2273SOL    HW2 7719   0.947   2.442   2.833
 2274SOL     OW 7720   0.075   1.717   6.831
 2274SOL    HW1 7721   0.099   1.814   6.839
 2274SOL    HW2 7722   0.148   1.668   6.784
 2275SOL     OW 7723   5.657   4.983   3.100
 2275SOL    HW1 7724   5.598   5.060   3.126
 2275SOL    HW2 7725   5.751   5.001   3.132
 2276SOL     OW 7726   1.500   2.915   1.061
 2276SOL    HW1 7727   1.427   2.850   1.038
 2276SOL    HW2 7728   1.470   3.007   1.037
 2277SOL     OW 7729   3.855   3.462   3.540
 2277SOL    HW1 7730   3.904   3.375   3.540
 2277SOL    HW2 7731   3.915   3.534   3.575
 2278SOL     OW 7732   0.092   2.282   4.000
 2278SOL    HW1 7733   0.069   2.364   3.947
 2278SOL    HW2 7734   0.178   2.244   3.966
 2279SOL     OW 7735   0.760   5.951   5.279
 2279SOL    HW1 7736   0.661   5.963   5.292
 2279SOL    HW2 7737   0.785   5.978   5.186
 2280SOL     OW 7738   4.947   1.779   5.505
 2280SOL    HW1 7739   5.029   1.823   5.467
 2280SOL    HW2 7740   4.939   1.686   5.468
 2281SOL     OW 7741   5.701   6.999   2.692
 2281SOL    HW1 7742   5.750   0.049   2.742
 2281SOL    HW2 7743   5.649   0.020   2.617
 2282SOL     OW 7744   4.199   6.226   5.094
 2282SOL    HW1 7745   4.136   6.281   5.149
 2282SOL    HW2 7746   4.254   6.168   5.154
 2283SOL     OW 7747   0.236   0.252   3.896
 2283SOL    HW1 7748   0.199   0.160   3.910
 2283SOL    HW2 7749   0.195   0.316   3.961
 2284SOL     OW 7750   1.283   2.783   6.650
 2284SOL    HW1 7751   1.280   2.695   6.604
 2284SOL    HW2 7752   1.227   2.849   6.599
 2285SOL     OW 7753   1.828   4.245   6.382
 2285SOL    HW1 7754   1.852   4.154   6.415
 2285SOL    HW2 7755   1.834   4.246   6.282
 2286SOL     OW 7756   4.752   5.743   3.995
 2286SOL    HW1 7757   4.723   5.812   4.061
 2286SOL    HW2 7758   4.787   5.663   4.044
 2287SOL     OW 7759   2.045   0.932   3.239
 2287SOL    HW1 7760   2.016   0.950   3.145
 2287SOL    HW2 7761   2.067   1.018   3.285
 2288SOL     OW 7762   6.951   6.563   3.064
 2288SOL    HW1 7763   6.916   6.549   2.971
 2288SOL    HW2 7764   6.996   6.480   3.095
 2289SOL     OW 7765   0.532   5.433   1.702
 2289SOL    HW1 7766   0.587   5.350   1.696
 2289SOL    HW2 7767   0.480   5.445   1.617
 2290SOL     OW 7768   0.295   6.060   0.566
 2290SOL    HW1 7769   0.378   6.108   0.539
 2290SOL    HW2 7770   0.292   5.970   0.521
 2291SOL     OW 7771   2.381   2.053   6.623
 2291SOL    HW1 7772   2.403   1.956   6.609
 2291SOL    HW2 7773   2.342   2.065   6.714
 2292SOL     OW 7774   1.296   1.450   4.898
 2292SOL    HW1 7775   1.250   1.500   4.826
 2292SOL    HW2 7776   1.367   1.392   4.859
 2293SOL     OW 7777   5.513   5.025   2.404
 2293SOL    HW1 7778   5.532   4.951   2.340
 2293SOL    HW2 7779   5.544   4.999   2.495
 2294SOL     OW 7780   3.388   6.515   6.650
 2294SOL    HW1 7781   3.318   6.566   6.699
 2294SOL    HW2 7782   3.349   6.430   6.614
 2295SOL     OW 7783   0.978   2.445   1.424
 2295SOL    HW1 7784   0.957   2.540   1.446
 2295SOL    HW2 7785   0.895   2.390   1.428
 2296SOL     OW 7786   3.162   6.526   0.102
 2296SOL    HW1 7787   3.139   6.506   0.198
 2296SOL    HW2 7788   3.139   6.622   0.082
 2297SOL     OW 7789   4.744   5.948   5.652
 2297SOL    HW1 7790   4.679   5.918   5.582
 2297SOL    HW2 7791   4.831   5.900   5.641
 2298SOL     OW 7792   3.766   3.001   0.005
 2298SOL    HW1 7793   3.844   2.942   7.006
 2298SOL    HW2 7794   3.732   2.980   0.097
 2299SOL     OW 7795   4.642   5.955   0.330
 2299SOL    HW1 7796   4.667   5.863   0.298
 2299SOL    HW2 7797   4.636   6.017   0.252
 2300SOL     OW 7798   1.672   5.193   1.146
 2300SOL    HW1 7799   1.734   5.187   1.224
 2300SOL    HW2 7800   1.724   5.187   1.061
 2301SOL     OW 7801   4.059   3.321   2.452
 2301SOL    HW1 7802   4.086   3.375   2.532
 2301SOL    HW2 7803   4.038   3.383   2.376
 2302SOL     OW 7804   2.921   5.344   2.861
 2302SOL    HW1 7805   3.008   5.339   2.910
 2302SOL    HW2 7806   2.939   5.362   2.764
 2303SOL     OW 7807   1.423   2.974   4.482
 2303SOL    HW1 7808   1.487   3.050   4.471
 2303SOL    HW2 7809   1.417   2.924   4.396
 2304SOL     OW 7810   2.369   1.088   3.790
 2304SOL    HW1 7811   2.407   1.075   3.882
 2304SOL    HW2 7812   2.421   1.159   3.742
 2305SOL     OW 7813   3.950   5.317   1.766
 2305SOL    HW1 7814   3.892   5.239   1.791
 2305SOL    HW2 7815   3.910   5.401   1.802
 2306SOL     OW 7816   0.999   3.735   1.260
 2306SOL    HW1 7817   1.083   3.783   1.285
 2306SOL    HW2 7818   0.923   3.769   1.315
 2307SOL     OW 7819   0.487   2.643   2.921
 2307SOL    HW1 7820   0.582   2.658   2.947
 2307SOL    HW2 7821   0.483   2.589   2.836
 2308SOL     OW 7822   0.420   0.104   0.846
 2308SOL    HW1 7823   0.337   0.150   0.875
 2308SOL    HW2 7824   0.425   0.102   0.746
 2309SOL     OW 7825   3.496   5.445   6.192
 2309SOL    HW1 7826   3.476   5.504   6.270
 2309SOL    HW2 7827   3.471   5.351   6.214
 2310SOL     OW 7828   5.765   0.626   2.133
 2310SOL    HW1 7829   5.796   0.690   2.203
 2310SOL    HW2 7830   5.668   0.641   2.114
 2311SOL     OW 7831   3.483   0.206   2.806
 2311SOL    HW1 7832   3.467   0.154   2.722
 2311SOL    HW2 7833   3.493   0.142   2.883
 2312SOL     OW 7834   3.532   1.102   2.652
 2312SOL    HW1 7835   3.590   1.039   2.600
 2312SOL    HW2 7836   3.585   1.143   2.726
 2313SOL     OW 7837   5.124   3.900   1.703
 2313SOL    HW1 7838   5.176   3.964   1.646
 2313SOL    HW2 7839   5.111   3.939   1.794
 2314SOL     OW 7840   6.183   0.158   2.874
 2314SOL    HW1 7841   6.184   0.258   2.870
 2314SOL    HW2 7842   6.204   0.128   2.966
 2315SOL     OW 7843   4.393   5.267   5.630
 2315SOL    HW1 7844   4.294   5.275   5.646
 2315SOL    HW2 7845   4.434   5.358   5.633
 2316SOL     OW 7846   3.317   1.687   5.963
 2316SOL    HW1 7847   3.326   1.613   6.031
 2316SOL    HW2 7848   3.232   1.675   5.912
 2317SOL     OW 7849   6.468   5.626   3.666
 2317SOL    HW1 7850   6.530   5.691   3.621
 2317SOL    HW2 7851   6.378   5.668   3.675
 2318SOL     OW 7852   1.672   4.739   4.983
 2318SOL    HW1 7853   1.693   4.745   4.885
 2318SOL    HW2 7854   1.755   4.718   5.034
 2319SOL     OW 7855   2.645   4.997   4.023
 2319SOL    HW1 7856   2.644   4.900   4.048
 2319SOL    HW2 7857   2.736   5.034   4.039
 2320SOL     OW 7858   1.615   3.467   4.940
 2320SOL    HW1 7859   1.692   3.409   4.915
 2320SOL    HW2 7860   1.530   3.425   4.908
 2321SOL     OW 7861   2.921   5.219   5.865
 2321SOL    HW1 7862   2.864   5.264   5.796
 2321SOL    HW2 7863   2.913   5.120   5.855
 2322SOL     OW 7864   1.048   3.470   2.167
 2322SOL    HW1 7865   1.093   3.426   2.244
 2322SOL    HW2 7866   1.116   3.513   2.108
 2323SOL     OW 7867   2.262   4.853   1.752
 2323SOL    HW1 7868   2.249   4.754   1.746
 2323SOL    HW2 7869   2.360   4.874   1.753
 2324SOL     OW 7870   0.128   5.824   1.601
 2324SOL    HW1 7871   0.057   5.888   1.629
 2324SOL    HW2 7872   0.127   5.745   1.662
 2325SOL     OW 7873   6.702   5.429   2.133
 2325SOL    HW1 7874   6.769   5.499   2.160
 2325SOL    HW2 7875   6.717   5.402   2.038
 2326SOL     OW 7876   1.133   0.873   6.602
 2326SOL    HW1 7877   1.197   0.817   6.549
 2326SOL    HW2 7878   1.160   0.872   6.698
 2327SOL     OW 7879   6.616   0.524   2.716
 2327SOL    HW1 7880   6.600   0.561   2.625
 2327SOL    HW2 7881   6.624   0.600   2.782
 2328SOL     OW 7882   2.012   2.570   2.436
 2328SOL    HW1 7883   1.926   2.520   2.441
 2328SOL    HW2 7884   2.059   2.563   2.524
 2329SOL     OW 7885   0.504   5.954   3.782
 2329SOL    HW1 7886   0.476   6.050   3.778
 2329SOL    HW2 7887   0.518   5.928   3.878
 2330SOL     OW 7888   6.283   2.720   0.023
 2330SOL    HW1 7889   6.313   2.721   6.948
 2330SOL    HW2 7890   6.210   2.652   0.034
 2331SOL     OW 7891   4.023   6.030   0.233
 2331SOL    HW1 7892   4.098   5.981   0.188
 2331SOL    HW2 7893   4.047   6.047   0.328
 2332SOL     OW 7894   5.706   6.585   6.327
 2332SOL    HW1 7895   5.761   6.546   6.401
 2332SOL    HW2 7896   5.639   6.649   6.366
 2333SOL     OW 7897   0.279   5.115   2.277
 2333SOL    HW1 7898   0.268   5.033   2.333
 2333SOL    HW2 7899   0.358   5.168   2.310
 2334SOL     OW 7900   2.647   0.653   5.744
 2334SOL    HW1 7901   2.638   0.688   5.837
 2334SOL    HW2 7902   2.666   0.728   5.681
 2335SOL     OW 7903   6.278   1.294   3.698
 2335SOL    HW1 7904   6.317   1.230   3.632
 2335SOL    HW2 7905   6.178   1.290   3.693
 2336SOL     OW 7906   2.233   1.563   2.476
 2336SOL    HW1 7907   2.173   1.508   2.534
 2336SOL    HW2 7908   2.293   1.502   2.424
 2337SOL     OW 7909   4.030   1.867   1.739
 2337SOL    HW1 7910   3.993   1.850   1.830
 2337SOL    HW2 7911   3.989   1.950   1.701
 2338SOL     OW 7912   0.407   4.098   3.993
 2338SOL    HW1 7913   0.423   4.195   4.013
 2338SOL    HW2 7914   0.329   4.090   3.931
 2339SOL     OW 7915   3.282   3.067   2.580
 2339SOL    HW1 7916   3.232   3.103   2.659
 2339SOL    HW2 7917   3.219   3.053   2.504
 2340SOL     OW 7918   1.036   4.983   6.325
 2340SOL    HW1 7919   1.080   4.984   6.235
 2340SOL    HW2 7920   1.045   4.892   6.365
 2341SOL     OW 7921   2.547   4.532   3.352
 2341SOL    HW1 7922   2.525   4.567   3.261
 2341SOL    HW2 7923   2.599   4.447   3.344
 2342SOL     OW 7924   3.318   6.844   3.899
 2342SOL    HW1 7925   3.350   6.870   3.990
 2342SOL    HW2 7926   3.352   6.753   3.876
 2343SOL     OW 7927   1.738   6.406   2.600
 2343SOL    HW1 7928   1.657   6.421   2.544
 2343SOL    HW2 7929   1.811   6.466   2.569
 2344SOL     OW 7930   6.196   4.442   0.945
 2344SOL    HW1 7931   6.189   4.362   0.886
 2344SOL    HW2 7932   6.164   4.418   1.037
 2345SOL     OW 7933   2.772   6.007   4.961
 2345SOL    HW1 7934   2.692   5.960   4.924
 2345SOL    HW2 7935   2.744   6.068   5.035
 2346SOL     OW 7936   3.731   3.846   6.160
 2346SOL    HW1 7937   3.692   3.935   6.187
 2346SOL    HW2 7938   3.807   3.861   6.097
 2347SOL     OW 7939   0.948   2.375   1.904
 2347SOL    HW1 7940   0.991   2.415   1.824
 2347SOL    HW2 7941   0.856   2.344   1.881
 2348SOL     OW 7942   1.102   5.353   3.052
 2348SOL    HW1 7943   1.102   5.283   3.124
 2348SOL    HW2 7944   1.073   5.441   3.091
 2349SOL     OW 7945   0.365   4.621   6.449
 2349SOL    HW1 7946   0.314   4.685   6.506
 2349SOL    HW2 7947   0.461   4.622   6.476
 2350SOL     OW 7948   6.649   4.441   6.283
 2350SOL    HW1 7949   6.599   4.436   6.369
 2350SOL    HW2 7950   6.628   4.527   6.237
 2351SOL     OW 7951   2.765   4.803   3.066
 2351SOL    HW1 7952   2.732   4.711   3.042
 2351SOL    HW2 7953   2.759   4.816   3.165
 2352SOL     OW 7954   0.150   3.040   3.379
 2352SOL    HW1 7955   0.135   2.942   3.370
 2352SOL    HW2 7956   0.079   3.080   3.437
 2353SOL     OW 7957   4.400   5.602   5.387
 2353SOL    HW1 7958   4.500   5.605   5.384
 2353SOL    HW2 7959   4.363   5.645   5.305
 2354SOL     OW 7960   2.698   1.571   4.387
 2354SOL    HW1 7961   2.634   1.524   4.448
 2354SOL    HW2 7962   2.719   1.661   4.425
 2355SOL     OW 7963   2.095   6.262   4.860
 2355SOL    HW1 7964   2.117   6.323   4.936
 2355SOL    HW2 7965   2.151   6.179   4.866
 2356SOL     OW 7966   0.367   3.127   6.547
 2356SOL    HW1 7967   0.428   3.057   6.582
 2356SOL    HW2 7968   0.311   3.163   6.621
 2357SOL     OW 7969   3.021   0.579   2.363
 2357SOL    HW1 7970   2.973   0.667   2.362
 2357SOL    HW2 7971   3.112   0.592   2.403
 2358SOL     OW 7972   3.525   4.721   6.459
 2358SOL    HW1 7973   3.567   4.774   6.533
 2358SOL    HW2 7974   3.430   4.700   6.484
 2359SOL     OW 7975   0.960   0.602   5.351
 2359SOL    HW1 7976   0.866   0.636   5.355
 2359SOL    HW2 7977   0.974   0.550   5.267
 2360SOL     OW 7978   6.414   3.275   0.901
 2360SOL    HW1 7979   6.505   3.257   0.864
 2360SOL    HW2 7980   6.351   3.204   0.869
 2361SOL     OW 7981   3.481   1.829   5.809
 2361SOL    HW1 7982   3.433   1.888   5.744
 2361SOL    HW2 7983   3.415   1.768   5.853
 2362SOL     OW 7984   3.552   5.244   3.632
 2362SOL    HW1 7985   3.522   5.182   3.705
 2362SOL    HW2 7986   3.537   5.202   3.543
 2363SOL     OW 7987   3.870   1.439   4.009
 2363SOL    HW1 7988   3.782   1.419   4.052
 2363SOL    HW2 7989   3.883   1.381   3.929
 2364SOL     OW 7990   1.192   2.262   1.336
 2364SOL    HW1 7991   1.285   2.299   1.327
 2364SOL    HW2 7992   1.128   2.337   1.348
 2365SOL     OW 7993   5.859   2.101   6.996
 2365SOL    HW1 7994   5.768   2.128   0.004
 2365SOL    HW2 7995   5.927   2.135   0.040
 2366SOL     OW 7996   3.822   5.492   1.044
 2366SOL    HW1 7997   3.812   5.403   1.088
 2366SOL    HW2 7998   3.912   5.529   1.065
 2367SOL     OW 7999   1.914   3.348   6.685
 2367SOL    HW1 8000   1.872   3.434   6.656
 2367SOL    HW2 8001   1.860   3.307   6.758
 2368SOL     OW 8002   5.815   6.867   3.750
 2368SOL    HW1 8003   5.731   6.848   3.699
 2368SOL    HW2 8004   5.794   6.868   3.848
 2369SOL     OW 8005   1.775   0.339   3.890
 2369SOL    HW1 8006   1.791   0.411   3.823
 2369SOL    HW2 8007   1.829   0.357   3.973
 2370SOL     OW 8008   5.424   2.920   6.558
 2370SOL    HW1 8009   5.518   2.909   6.587
 2370SOL    HW2 8010   5.417   2.901   6.460
 2371SOL     OW 8011   2.781   0.346   1.633
 2371SOL    HW1 8012   2.769   0.385   1.724
 2371SOL    HW2 8013   2.859   0.283   1.633
 2372SOL     OW 8014   6.775   2.814   2.034
 2372SOL    HW1 8015   6.735   2.813   1.942
 2372SOL    HW2 8016   6.775   2.721   2.071
 2373SOL     OW 8017   1.746   3.410   5.890
 2373SOL    HW1 8018   1.713   3.444   5.802
 2373SOL    HW2 8019   1.684   3.340   5.924
 2374SOL     OW 8020   6.115   2.216   4.867
 2374SOL    HW1 8021   6.168   2.164   4.934
 2374SOL    HW2 8022   6.052   2.277   4.915
 2375SOL     OW 8023   3.482   5.750   5.490
 2375SOL    HW1 8024   3.508   5.727   5.397
 2375SOL    HW2 8025   3.530   5.833   5.519
 2376SOL     OW 8026   6.278   3.008   3.880
 2376SOL    HW1 8027   6.211   2.947   3.923
 2376SOL    HW2 8028   6.314   2.965   3.797
 2377SOL     OW 8029   3.090   3.113   3.990
 2377SOL    HW1 8030   3.027   3.081   3.919
 2377SOL    HW2 8031   3.038   3.154   4.065
 2378SOL     OW 8032   5.311   2.562   6.851
 2378SOL    HW1 8033   5.279   2.532   6.761
 2378SOL    HW2 8034   5.340   2.658   6.846
 2379SOL     OW 8035   6.498   0.462   0.952
 2379SOL    HW1 8036   6.432   0.395   0.918
 2379SOL    HW2 8037   6.471   0.492   1.044
 2380SOL     OW 8038   5.785   2.611   1.014
 2380SOL    HW1 8039   5.841   2.528   1.013
 2380SOL    HW2 8040   5.703   2.596   1.069
 2381SOL     OW 8041   1.937   6.105   2.985
 2381SOL    HW1 8042   1.934   6.174   2.912
 2381SOL    HW2 8043   2.012   6.041   2.966
 2382SOL     OW 8044   2.130   3.096   5.040
 2382SOL    HW1 8045   2.132   3.149   4.955
 2382SOL    HW2 8046   2.223   3.073   5.067
 2383SOL     OW 8047   6.965   6.040   1.619
 2383SOL    HW1 8048   6.930   6.130   1.645
 2383SOL    HW2 8049   6.889   5.978   1.602
 2384SOL     OW 8050   4.842   2.033   2.028
 2384SOL    HW1 8051   4.782   2.082   2.091
 2384SOL    HW2 8052   4.929   2.014   2.073
 2385SOL     OW 8053   0.354   1.351   0.048
 2385SOL    HW1 8054   0.336   1.412   0.125
 2385SOL    HW2 8055   0.306   1.385   6.988
 2386SOL     OW 8056   5.375   5.680   5.151
 2386SOL    HW1 8057   5.428   5.602   5.118
 2386SOL    HW2 8058   5.278   5.656   5.154
 2387SOL     OW 8059   2.145   0.988   3.899
 2387SOL    HW1 8060   2.227   0.999   3.844
 2387SOL    HW2 8061   2.074   1.051   3.867
 2388SOL     OW 8062   6.577   2.932   3.536
 2388SOL    HW1 8063   6.556   2.868   3.610
 2388SOL    HW2 8064   6.494   2.951   3.483
 2389SOL     OW 8065   4.026   4.847   3.305
 2389SOL    HW1 8066   3.961   4.922   3.321
 2389SOL    HW2 8067   3.980   4.760   3.322
 2390SOL     OW 8068   3.578   4.081   2.762
 2390SOL    HW1 8069   3.485   4.099   2.730
 2390SOL    HW2 8070   3.639   4.071   2.684
 2391SOL     OW 8071   4.650   5.162   6.126
 2391SOL    HW1 8072   4.654   5.255   6.088
 2391SOL    HW2 8073   4.600   5.103   6.063
 2392SOL     OW 8074   3.128   0.307   6.660
 2392SOL    HW1 8075   3.169   0.357   6.737
 2392SOL    HW2 8076   3.077   0.228   6.694
 2393SOL     OW 8077   4.232   4.641   6.014
 2393SOL    HW1 8078   4.301   4.652   6.085
 2393SOL    HW2 8079   4.226   4.545   5.987
 2394SOL     OW 8080   0.261   4.079   4.765
 2394SOL    HW1 8081   0.231   4.171   4.792
 2394SOL    HW2 8082   0.360   4.078   4.754
 2395SOL     OW 8083   4.019   6.455   5.851
 2395SOL    HW1 8084   4.033   6.553   5.867
 2395SOL    HW2 8085   4.107   6.408   5.857
 2396SOL     OW 8086   4.103   4.591   0.137
 2396SOL    HW1 8087   4.172   4.575   0.208
 2396SOL    HW2 8088   4.140   4.652   0.067
 2397SOL     OW 8089   0.656   4.232   4.486
 2397SOL    HW1 8090   0.629   4.313   4.537
 2397SOL    HW2 8091   0.754   4.235   4.467
 2398SOL     OW 8092   4.553   4.740   5.846
 2398SOL    HW1 8093   4.476   4.698   5.893
 2398SOL    HW2 8094   4.637   4.723   5.899
 2399SOL     OW 8095   4.781   1.857   1.815
 2399SOL    HW1 8096   4.839   1.887   1.740
 2399SOL    HW2 8097   4.790   1.920   1.892
 2400SOL     OW 8098   2.480   4.922   0.908
 2400SOL    HW1 8099   2.507   4.964   0.995
 2400SOL    HW2 8100   2.549   4.855   0.880
 2401SOL     OW 8101   6.327   5.903   6.086
 2401SOL    HW1 8102   6.421   5.937   6.090
 2401SOL    HW2 8103   6.274   5.944   6.160
 2402SOL     OW 8104   0.436   6.885   4.299
 2402SOL    HW1 8105   0.407   6.926   4.212
 2402SOL    HW2 8106   0.409   6.789   4.300
 2403SOL     OW 8107   0.693   2.624   5.019
 2403SOL    HW1 8108   0.625   2.628   4.945
 2403SOL    HW2 8109   0.760   2.552   4.998
 2404SOL     OW 8110   1.757   0.861   0.784
 2404SOL    HW1 8111   1.685   0.793   0.802
 2404SOL    HW2 8112   1.832   0.818   0.735
 2405SOL     OW 8113   3.234   4.116   2.334
 2405SOL    HW1 8114   3.183   4.072   2.408
 2405SOL    HW2 8115   3.319   4.155   2.370
 2406SOL     OW 8116   4.338   1.806   0.397
 2406SOL    HW1 8117   4.367   1.893   0.436
 2406SOL    HW2 8118   4.398   1.733   0.430
 2407SOL     OW 8119   6.013   1.333   3.716
 2407SOL    HW1 8120   5.961   1.252   3.688
 2407SOL    HW2 8121   6.002   1.347   3.814
 2408SOL     OW 8122   4.693   4.449   1.822
 2408SOL    HW1 8123   4.645   4.464   1.735
 2408SOL    HW2 8124   4.634   4.400   1.885
 2409SOL     OW 8125   2.139   3.819   0.582
 2409SOL    HW1 8126   2.087   3.782   0.504
 2409SOL    HW2 8127   2.193   3.745   0.622
 2410SOL     OW 8128   3.314   3.218   3.480
 2410SOL    HW1 8129   3.322   3.244   3.384
 2410SOL    HW2 8130   3.278   3.295   3.533
 2411SOL     OW 8131   5.560   0.097   4.983
 2411SOL    HW1 8132   5.480   0.143   4.944
 2411SOL    HW2 8133   5.643   0.146   4.955
 2412SOL     OW 8134   4.727   3.422   1.005
 2412SOL    HW1 8135   4.737   3.477   1.087
 2412SOL    HW2 8136   4.817   3.398   0.969
 2413SOL     OW 8137   5.221   0.711   1.915
 2413SOL    HW1 8138   5.142   0.667   1.957
 2413SOL    HW2 8139   5.271   0.764   1.983
 2414SOL     OW 8140   4.949   3.334   3.948
 2414SOL    HW1 8141   4.929   3.380   3.862
 2414SOL    HW2 8142   5.011   3.258   3.932
 2415SOL     OW 8143   4.676   1.135   3.210
 2415SOL    HW1 8144   4.655   1.118   3.114
 2415SOL    HW2 8145   4.754   1.197   3.217
 2416SOL     OW 8146   5.234   1.502   5.812
 2416SOL    HW1 8147   5.287   1.435   5.759
 2416SOL    HW2 8148   5.275   1.592   5.802
 2417SOL     OW 8149   3.221   2.954   4.627
 2417SOL    HW1 8150   3.280   3.031   4.650
 2417SOL    HW2 8151   3.268   2.868   4.649
 2418SOL     OW 8152   3.496   2.828   3.061
 2418SOL    HW1 8153   3.401   2.856   3.054
 2418SOL    HW2 8154   3.542   2.883   3.131
 2419SOL     OW 8155   0.322   0.062   2.488
 2419SOL    HW1 8156   0.289   0.156   2.493
 2419SOL    HW2 8157   0.398   0.057   2.424
 2420SOL     OW 8158   2.229   6.773   1.692
 2420SOL    HW1 8159   2.174   6.804   1.769
 2420SOL    HW2 8160   2.270   6.853   1.647
 2421SOL     OW 8161   2.235   2.090   5.071
 2421SOL    HW1 8162   2.195   2.178   5.043
 2421SOL    HW2 8163   2.251   2.090   5.170
 2422SOL     OW 8164   5.193   1.533   1.002
 2422SOL    HW1 8165   5.245   1.610   0.967
 2422SOL    HW2 8166   5.106   1.526   0.953
 2423SOL     OW 8167   2.363   5.734   2.605
 2423SOL    HW1 8168   2.399   5.662   2.663
 2423SOL    HW2 8169   2.281   5.701   2.558
 2424SOL     OW 8170   6.093   1.053   0.562
 2424SOL    HW1 8171   6.114   0.956   0.546
 2424SOL    HW2 8172   6.175   1.100   0.592
 2425SOL     OW 8173   6.646   0.388   4.215
 2425SOL    HW1 8174   6.744   0.394   4.196
 2425SOL    HW2 8175   6.601   0.471   4.182
 2426SOL     OW 8176   2.399   4.715   3.956
 2426SOL    HW1 8177   2.436   4.756   4.039
 2426SOL    HW2 8178   2.340   4.781   3.910
 2427SOL     OW 8179   6.187   6.797   6.014
 2427SOL    HW1 8180   6.250   6.730   5.975
 2427SOL    HW2 8181   6.205   6.887   5.973
 2428SOL     OW 8182   0.320   0.687   0.559
 2428SOL    HW1 8183   0.224   0.712   0.571
 2428SOL    HW2 8184   0.376   0.735   0.627
 2429SOL     OW 8185   5.325   5.983   2.200
 2429SOL    HW1 8186   5.296   5.889   2.217
 2429SOL    HW2 8187   5.341   5.996   2.102
 2430SOL     OW 8188   5.926   0.993   2.713
 2430SOL    HW1 8189   6.000   1.016   2.776
 2430SOL    HW2 8190   5.907   0.894   2.718
 2431SOL     OW 8191   4.055   0.454   2.065
 2431SOL    HW1 8192   4.141   0.417   2.098
 2431SOL    HW2 8193   4.055   0.454   1.965
 2432SOL     OW 8194   2.885   6.332   2.165
 2432SOL    HW1 8195   2.897   6.416   2.217
 2432SOL    HW2 8196   2.871   6.256   2.228
 2433SOL     OW 8197   4.190   6.884   0.329
 2433SOL    HW1 8198   4.250   6.964   0.334
 2433SOL    HW2 8199   4.210   6.823   0.406
 2434SOL     OW 8200   4.238   2.412   5.960
 2434SOL    HW1 8201   4.176   2.486   5.987
 2434SOL    HW2 8202   4.301   2.392   6.035
 2435SOL     OW 8203   5.827   5.406   4.962
 2435SOL    HW1 8204   5.895   5.459   4.912
 2435SOL    HW2 8205   5.873   5.347   5.028
 2436SOL     OW 8206   2.943   5.565   0.075
 2436SOL    HW1 8207   2.860   5.595   0.122
 2436SOL    HW2 8208   3.012   5.636   0.081
 2437SOL     OW 8209   7.001   0.281   6.126
 2437SOL    HW1 8210   6.984   0.191   6.168
 2437SOL    HW2 8211   0.048   0.271   6.054
 2438SOL     OW 8212   2.961   2.847   1.301
 2438SOL    HW1 8213   2.916   2.758   1.306
 2438SOL    HW2 8214   2.893   2.920   1.310
 2439SOL     OW 8215   6.034   4.310   5.265
 2439SOL    HW1 8216   5.982   4.393   5.245
 2439SOL    HW2 8217   5.987   4.258   5.336
 2440SOL     OW 8218   5.868   4.901   6.242
 2440SOL    HW1 8219   5.897   4.927   6.150
 2440SOL    HW2 8220   5.925   4.947   6.310
 2441SOL     OW 8221   5.889   2.359   0.978
 2441SOL    HW1 8222   5.967   2.363   0.915
 2441SOL    HW2 8223   5.916   2.311   1.061
 2442SOL     OW 8224   6.728   3.749   4.350
 2442SOL    HW1 8225   6.649   3.805   4.323
 2442SOL    HW2 8226   6.743   3.759   4.448
 2443SOL     OW 8227   2.994   4.832   5.993
 2443SOL    HW1 8228   2.960   4.918   5.955
 2443SOL    HW2 8229   3.083   4.811   5.954
 2444SOL     OW 8230   2.838   3.464   5.106
 2444SOL    HW1 8231   2.779   3.426   5.177
 2444SOL    HW2 8232   2.933   3.435   5.123
 2445SOL     OW 8233   0.703   0.557   0.971
 2445SOL    HW1 8234   0.658   0.602   1.048
 2445SOL    HW2 8235   0.768   0.620   0.928
 2446SOL     OW 8236   5.712   3.617   6.152
 2446SOL    HW1 8237   5.804   3.643   6.122
 2446SOL    HW2 8238   5.700   3.518   6.140
 2447SOL     OW 8239   0.370   1.863   6.965
 2447SOL    HW1 8240   0.383   1.779   7.017
 2447SOL    HW2 8241   0.413   1.939   7.014
 2448SOL     OW 8242   0.786   0.129   4.540
 2448SOL    HW1 8243   0.720   0.055   4.525
 2448SOL    HW2 8244   0.741   0.217   4.524
 2449SOL     OW 8245   0.228   2.665   4.880
 2449SOL    HW1 8246   0.158   2.608   4.836
 2449SOL    HW2 8247   0.211   2.668   4.979
 2450SOL     OW 8248   1.982   3.413   2.456
 2450SOL    HW1 8249   2.055   3.429   2.522
 2450SOL    HW2 8250   2.001   3.464   2.372
 2451SOL     OW 8251   2.622   6.499   4.295
 2451SOL    HW1 8252   2.558   6.422   4.283
 2451SOL    HW2 8253   2.656   6.528   4.206
 2452SOL     OW 8254   1.498   2.436   4.177
 2452SOL    HW1 8255   1.418   2.472   4.129
 2452SOL    HW2 8256   1.508   2.481   4.266
 2453SOL     OW 8257   7.010   3.381   1.167
 2453SOL    HW1 8258   7.017   3.400   1.265
 2453SOL    HW2 8259   6.971   3.289   1.154
 2454SOL     OW 8260   2.265   0.496   2.583
 2454SOL    HW1 8261   2.266   0.398   2.569
 2454SOL    HW2 8262   2.343   0.538   2.537
 2455SOL     OW 8263   5.023   4.268   0.462
 2455SOL    HW1 8264   4.991   4.183   0.421
 2455SOL    HW2 8265   5.122   4.275   0.451
 2456SOL     OW 8266   3.255   6.309   1.106
 2456SOL    HW1 8267   3.263   6.210   1.092
 2456SOL    HW2 8268   3.170   6.341   1.064
 2457SOL     OW 8269   6.050   6.229   1.187
 2457SOL    HW1 8270   6.068   6.297   1.258
 2457SOL    HW2 8271   5.957   6.240   1.152
 2458SOL     OW 8272   0.350   6.053   3.160
 2458SOL    HW1 8273   0.308   6.059   3.251
 2458SOL    HW2 8274   0.279   6.033   3.092
 2459SOL     OW 8275   1.101   0.596   0.616
 2459SOL    HW1 8276   1.019   0.574   0.563
 2459SOL    HW2 8277   1.086   0.571   0.712
 2460SOL     OW 8278   3.582   5.170   1.598
 2460SOL    HW1 8279   3.498   5.184   1.547
 2460SOL    HW2 8280   3.560   5.143   1.692
 2461SOL     OW 8281   5.169   1.202   3.343
 2461SOL    HW1 8282   5.172   1.166   3.437
 2461SOL    HW2 8283   5.262   1.213   3.309
 2462SOL     OW 8284   2.768   4.750   6.522
 2462SOL    HW1 8285   2.748   4.755   6.424
 2462SOL    HW2 8286   2.854   4.703   6.536
 2463SOL     OW 8287   0.165   1.962   4.282
 2463SOL    HW1 8288   0.237   1.901   4.249
 2463SOL    HW2 8289   0.127   1.927   4.367
 2464SOL     OW 8290   1.080   3.255   1.416
 2464SOL    HW1 8291   1.112   3.273   1.509
 2464SOL    HW2 8292   1.145   3.195   1.370
 2465SOL     OW 8293   6.217   4.768   3.181
 2465SOL    HW1 8294   6.229   4.685   3.126
 2465SOL    HW2 8295   6.287   4.772   3.252
 2466SOL     OW 8296   3.422   1.643   2.167
 2466SOL    HW1 8297   3.503   1.626   2.223
 2466SOL    HW2 8298   3.395   1.559   2.121
 2467SOL     OW 8299   6.825   1.530   5.662
 2467SOL    HW1 8300   6.741   1.477   5.664
 2467SOL    HW2 8301   6.805   1.624   5.632
 2468SOL     OW 8302   6.859   4.164   0.260
 2468SOL    HW1 8303   6.779   4.214   0.226
 2468SOL    HW2 8304   6.895   4.105   0.188
 2469SOL     OW 8305   3.230   3.185   5.514
 2469SOL    HW1 8306   3.220   3.234   5.601
 2469SOL    HW2 8307   3.224   3.250   5.438
 2470SOL     OW 8308   5.701   2.888   0.575
 2470SOL    HW1 8309   5.689   2.943   0.493
 2470SOL    HW2 8310   5.612   2.869   0.617
 2471SOL     OW 8311   0.260   0.299   3.567
 2471SOL    HW1 8312   0.273   0.236   3.490
 2471SOL    HW2 8313   0.204   0.255   3.637
 2472SOL     OW 8314   5.609   1.483   3.725
 2472SOL    HW1 8315   5.546   1.558   3.703
 2472SOL    HW2 8316   5.557   1.405   3.760
 2473SOL     OW 8317   0.276   7.019   5.756
 2473SOL    HW1 8318   0.371   0.024   5.741
 2473SOL    HW2 8319   0.233   0.063   5.818
 2474SOL     OW 8320   6.243   5.756   4.700
 2474SOL    HW1 8321   6.198   5.801   4.623
 2474SOL    HW2 8322   6.198   5.783   4.785
 2475SOL     OW 8323   4.693   2.546   6.220
 2475SOL    HW1 8324   4.632   2.496   6.281
 2475SOL    HW2 8325   4.734   2.623   6.269
 2476SOL     OW 8326   0.644   1.577   3.522
 2476SOL    HW1 8327   0.704   1.613   3.594
 2476SOL    HW2 8328   0.678   1.605   3.433
 2477SOL     OW 8329   4.616   5.108   2.745
 2477SOL    HW1 8330   4.707   5.082   2.776
 2477SOL    HW2 8331   4.608   5.091   2.647
 2478SOL     OW 8332   6.526   6.817   3.357
 2478SOL    HW1 8333   6.607   6.858   3.399
 2478SOL    HW2 8334   6.500   6.868   3.275
 2479SOL     OW 8335   0.427   2.347   7.020
 2479SOL    HW1 8336   0.471   2.399   0.072
 2479SOL    HW2 8337   0.455   2.382   6.931
 2480SOL     OW 8338   0.797   4.787   2.134
 2480SOL    HW1 8339   0.854   4.744   2.064
 2480SOL    HW2 8340   0.703   4.755   2.125
 2481SOL     OW 8341   3.943   4.832   2.638
 2481SOL    HW1 8342   3.963   4.815   2.541
 2481SOL    HW2 8343   3.854   4.877   2.646
 2482SOL     OW 8344   4.708   2.565   3.863
 2482SOL    HW1 8345   4.691   2.630   3.788
 2482SOL    HW2 8346   4.804   2.538   3.861
 2483SOL     OW 8347   0.528   2.941   6.802
 2483SOL    HW1 8348   0.432   2.929   6.824
 2483SOL    HW2 8349   0.557   2.869   6.738
 2484SOL     OW 8350   3.748   3.035   6.272
 2484SOL    HW1 8351   3.836   3.004   6.307
 2484SOL    HW2 8352   3.761   3.081   6.185
 2485SOL     OW 8353   1.194   5.947   1.051
 2485SOL    HW1 8354   1.275   5.890   1.058
 2485SOL    HW2 8355   1.219   6.043   1.059
 2486SOL     OW 8356   0.658   5.132   3.333
 2486SOL    HW1 8357   0.574   5.176   3.303
 2486SOL    HW2 8358   0.648   5.033   3.328
 2487SOL     OW 8359   2.932   1.078   1.006
 2487SOL    HW1 8360   2.867   1.005   0.986
 2487SOL    HW2 8361   2.908   1.122   1.092
 2488SOL     OW 8362   3.092   6.591   6.481
 2488SOL    HW1 8363   3.122   6.532   6.406
 2488SOL    HW2 8364   3.114   6.547   6.568
 2489SOL     OW 8365   6.613   5.996   4.660
 2489SOL    HW1 8366   6.539   6.028   4.601
 2489SOL    HW2 8367   6.609   5.896   4.667
 2490SOL     OW 8368   5.366   3.096   1.683
 2490SOL    HW1 8369   5.293   3.044   1.727
 2490SOL    HW2 8370   5.400   3.165   1.747
 2491SOL     OW 8371   6.894   4.189   2.574
 2491SOL    HW1 8372   6.801   4.181   2.610
 2491SOL    HW2 8373   6.943   4.103   2.591
 2492SOL     OW 8374   4.168   1.780   6.014
 2492SOL    HW1 8375   4.096   1.713   5.996
 2492SOL    HW2 8376   4.184   1.786   6.112
 2493SOL     OW 8377   6.638   1.092   4.736
 2493SOL    HW1 8378   6.657   0.999   4.770
 2493SOL    HW2 8379   6.724   1.143   4.732
 2494SOL     OW 8380   4.503   4.331   1.171
 2494SOL    HW1 8381   4.518   4.400   1.100
 2494SOL    HW2 8382   4.552   4.358   1.254
 2495SOL     OW 8383   6.530   0.865   3.348
 2495SOL    HW1 8384   6.586   0.823   3.276
 2495SOL    HW2 8385   6.588   0.926   3.402
 2496SOL     OW 8386   1.890   5.678   6.804
 2496SOL    HW1 8387   1.982   5.654   6.835
 2496SOL    HW2 8388   1.892   5.767   6.758
 2497SOL     OW 8389   5.478   0.661   6.946
 2497SOL    HW1 8390   5.502   0.595   7.017
 2497SOL    HW2 8391   5.489   0.754   6.983
 2498SOL     OW 8392   0.534   3.061   4.961
 2498SOL    HW1 8393   0.548   2.979   5.016
 2498SOL    HW2 8394   0.591   3.135   4.996
 2499SOL     OW 8395   5.230   0.368   0.007
 2499SOL    HW1 8396   5.216   0.465   0.030
 2499SOL    HW2 8397   5.296   0.328   0.071
 2500SOL     OW 8398   4.214   3.487   6.601
 2500SOL    HW1 8399   4.290   3.485   6.535
 2500SOL    HW2 8400   4.158   3.568   6.585
 2501SOL     OW 8401   6.289   4.932   1.026
 2501SOL    HW1 8402   6.347   4.900   1.101
 2501SOL    HW2 8403   6.280   4.861   0.957
 2502SOL     OW 8404   1.085   6.454   2.861
 2502SOL    HW1 8405   1.030   6.500   2.792
 2502SOL    HW2 8406   1.096   6.513   2.941
 2503SOL     OW 8407   4.892   0.075   4.384
 2503SOL    HW1 8408   4.951   0.010   4.335
 2503SOL    HW2 8409   4.944   0.118   4.458
 2504SOL     OW 8410   2.066   4.198   3.006
 2504SOL    HW1 8411   2.019   4.232   2.925
 2504SOL    HW2 8412   2.089   4.101   2.993
 2505SOL     OW 8413   5.224   4.288   4.822
 2505SOL    HW1 8414   5.164   4.363   4.796
 2505SOL    HW2 8415   5.222   4.276   4.921
 2506SOL     OW 8416   0.889   1.962   1.064
 2506SOL    HW1 8417   0.876   1.864   1.078
 2506SOL    HW2 8418   0.954   1.997   1.130
 2507SOL     OW 8419   6.738   6.331   0.578
 2507SOL    HW1 8420   6.765   6.273   0.655
 2507SOL    HW2 8421   6.648   6.371   0.596
 2508SOL     OW 8422   2.304   2.425   1.884
 2508SOL    HW1 8423   2.268   2.448   1.794
 2508SOL    HW2 8424   2.398   2.392   1.876
 2509SOL     OW 8425   5.407   1.108   3.738
 2509SOL    HW1 8426   5.490   1.086   3.687
 2509SOL    HW2 8427   5.418   1.197   3.782
 2510SOL     OW 8428   3.774   6.207   2.308
 2510SOL    HW1 8429   3.870   6.225   2.328
 2510SOL    HW2 8430   3.716   6.269   2.361
 2511SOL     OW 8431   0.638   6.592   3.562
 2511SOL    HW1 8432   0.653   6.605   3.660
 2511SOL    HW2 8433   0.664   6.676   3.513
 2512SOL     OW 8434   5.541   2.714   4.288
 2512SOL    HW1 8435   5.583   2.651   4.353
 2512SOL    HW2 8436   5.606   2.787   4.265
 2513SOL     OW 8437   0.267   4.729   1.158
 2513SOL    HW1 8438   0.277   4.828   1.145
 2513SOL    HW2 8439   0.192   4.695   1.102
 2514SOL     OW 8440   0.723   2.663   3.291
 2514SOL    HW1 8441   0.723   2.661   3.191
 2514SOL    HW2 8442   0.689   2.752   3.323
 2515SOL     OW 8443   1.026   4.861   0.083
 2515SOL    HW1 8444   1.010   4.763   0.079
 2515SOL    HW2 8445   1.109   4.883   0.031
 2516SOL     OW 8446   5.322   6.029   4.288
 2516SOL    HW1 8447   5.418   6.046   4.265
 2516SOL    HW2 8448   5.284   6.109   4.334
 2517SOL     OW 8449   2.840   5.580   0.754
 2517SOL    HW1 8450   2.766   5.524   0.716
 2517SOL    HW2 8451   2.873   5.642   0.683
 2518SOL     OW 8452   1.825   3.173   6.481
 2518SOL    HW1 8453   1.802   3.079   6.506
 2518SOL    HW2 8454   1.880   3.215   6.553
 2519SOL     OW 8455   5.575   4.037   5.269
 2519SOL    HW1 8456   5.530   3.959   5.313
 2519SOL    HW2 8457   5.636   4.003   5.197
 2520SOL     OW 8458   3.402   5.602   1.701
 2520SOL    HW1 8459   3.431   5.660   1.777
 2520SOL    HW2 8460   3.474   5.598   1.633
 2521SOL     OW 8461   5.839   0.112   5.797
 2521SOL    HW1 8462   5.794   0.133   5.710
 2521SOL    HW2 8463   5.869   0.017   5.797
 2522SOL     OW 8464   2.078   4.624   4.082
 2522SOL    HW1 8465   2.087   4.678   3.998
 2522SOL    HW2 8466   2.107   4.679   4.160
 2523SOL     OW 8467   0.748   2.557   5.485
 2523SOL    HW1 8468   0.767   2.465   5.452
 2523SOL    HW2 8469   0.813   2.580   5.558
 2524SOL     OW 8470   0.915   6.957   5.102
 2524SOL    HW1 8471   0.937   7.004   5.187
 2524SOL    HW2 8472   0.999   6.941   5.050
 2525SOL     OW 8473   1.931   4.255   2.735
 2525SOL    HW1 8474   1.834   4.278   2.746
 2525SOL    HW2 8475   1.940   4.173   2.678
 2526SOL     OW 8476   1.240   2.576   4.938
 2526SOL    HW1 8477   1.175   2.588   4.864
 2526SOL    HW2 8478   1.269   2.481   4.943
 2527SOL     OW 8479   6.521   6.851   3.750
 2527SOL    HW1 8480   6.514   6.950   3.741
 2527SOL    HW2 8481   6.443   6.817   3.804
 2528SOL     OW 8482   5.853   5.254   0.091
 2528SOL    HW1 8483   5.845   5.182   0.159
 2528SOL    HW2 8484   5.928   5.232   0.028
 2529SOL     OW 8485   5.383   3.857   5.102
 2529SOL    HW1 8486   5.299   3.893   5.144
 2529SOL    HW2 8487   5.393   3.760   5.126
 2530SOL     OW 8488   0.692   6.304   3.825
 2530SOL    HW1 8489   0.608   6.255   3.848
 2530SOL    HW2 8490   0.744   6.251   3.757
 2531SOL     OW 8491   4.855   1.294   0.128
 2531SOL    HW1 8492   4.882   1.249   0.213
 2531SOL    HW2 8493   4.807   1.379   0.149
 2532SOL     OW 8494   0.778   4.697   6.140
 2532SOL    HW1 8495   0.716   4.745   6.077
 2532SOL    HW2 8496   0.871   4.700   6.104
 2533SOL     OW 8497   6.143   6.854   5.687
 2533SOL    HW1 8498   6.106   6.863   5.780
 2533SOL    HW2 8499   6.082   6.900   5.623
 2534SOL     OW 8500   0.168   1.648   2.709
 2534SOL    HW1 8501   0.213   1.710   2.772
 2534SOL    HW2 8502   0.147   1.696   2.624
 2535SOL     OW 8503   2.010   1.393   3.111
 2535SOL    HW1 8504   1.957   1.478   3.104
 2535SOL    HW2 8505   1.957   1.318   3.071
 2536SOL     OW 8506   0.710   0.450   3.910
 2536SOL    HW1 8507   0.640   0.380   3.900
 2536SOL    HW2 8508   0.688   0.509   3.988
 2537SOL     OW 8509   3.880   5.595   2.182
 2537SOL    HW1 8510   3.937   5.670   2.149
 2537SOL    HW2 8511   3.816   5.630   2.252
 2538SOL     OW 8512   1.345   4.384   4.704
 2538SOL    HW1 8513   1.443   4.382   4.722
 2538SOL    HW2 8514   1.295   4.380   4.790
 2539SOL     OW 8515   2.702   0.873   5.583
 2539SOL    HW1 8516   2.707   0.954   5.525
 2539SOL    HW2 8517   2.765   0.882   5.660
 2540SOL     OW 8518   5.404   1.919   2.468
 2540SOL    HW1 8519   5.398   2.016   2.446
 2540SOL    HW2 8520   5.482   1.903   2.529
 2541SOL     OW 8521   0.353   0.754   6.232
 2541SOL    HW1 8522   0.380   0.725   6.324
 2541SOL    HW2 8523   0.405   0.702   6.164
 2542SOL     OW 8524   4.013   2.186   3.443
 2542SOL    HW1 8525   3.997   2.265   3.502
 2542SOL    HW2 8526   3.930   2.165   3.392
 2543SOL     OW 8527   6.986   1.485   4.218
 2543SOL    HW1 8528   6.896   1.449   4.194
 2543SOL    HW2 8529   7.002   1.472   4.316
 2544SOL     OW 8530   6.967   5.947   1.910
 2544SOL    HW1 8531   6.956   5.982   1.816
 2544SOL    HW2 8532   0.025   5.992   1.952
 2545SOL     OW 8533   6.166   2.008   0.383
 2545SOL    HW1 8534   6.193   2.100   0.410
 2545SOL    HW2 8535   6.106   2.013   0.302
 2546SOL     OW 8536   6.366   3.102   1.768
 2546SOL    HW1 8537   6.273   3.126   1.798
 2546SOL    HW2 8538   6.421   3.076   1.847
 2547SOL     OW 8539   5.428   4.144   1.074
 2547SOL    HW1 8540   5.396   4.092   0.995
 2547SOL    HW2 8541   5.356   4.205   1.106
 2548SOL     OW 8542   5.830   0.399   5.857
 2548SOL    HW1 8543   5.874   0.437   5.939
 2548SOL    HW2 8544   5.842   0.300   5.855
 2549SOL     OW 8545   2.593   4.473   0.640
 2549SOL    HW1 8546   2.546   4.393   0.678
 2549SOL    HW2 8547   2.537   4.555   0.655
 2550SOL     OW 8548   3.743   6.197   0.594
 2550SOL    HW1 8549   3.716   6.293   0.598
 2550SOL    HW2 8550   3.684   6.143   0.653
 2551SOL     OW 8551   3.814   4.961   1.236
 2551SOL    HW1 8552   3.760   4.938   1.318
 2551SOL    HW2 8553   3.801   4.890   1.167
 2552SOL     OW 8554   2.446   4.399   1.845
 2552SOL    HW1 8555   2.530   4.411   1.792
 2552SOL    HW2 8556   2.436   4.475   1.909
 2553SOL     OW 8557   4.562   1.446   0.188
 2553SOL    HW1 8558   4.629   1.493   0.131
 2553SOL    HW2 8559   4.548   1.353   0.155
 2554SOL     OW 8560   1.705   5.369   0.812
 2554SOL    HW1 8561   1.685   5.460   0.850
 2554SOL    HW2 8562   1.619   5.321   0.794
 2555SOL     OW 8563   6.391   0.203   5.182
 2555SOL    HW1 8564   6.337   0.125   5.150
 2555SOL    HW2 8565   6.482   0.173   5.208
 2556SOL     OW 8566   4.579   6.714   0.704
 2556SOL    HW1 8567   4.581   6.743   0.608
 2556SOL    HW2 8568   4.508   6.645   0.717
 2557SOL     OW 8569   2.888   0.803   6.745
 2557SOL    HW1 8570   2.892   0.821   6.647
 2557SOL    HW2 8571   2.834   0.720   6.762
 2558SOL     OW 8572   5.352   1.732   1.774
 2558SOL    HW1 8573   5.424   1.766   1.835
 2558SOL    HW2 8574   5.342   1.795   1.697
 2559SOL     OW 8575   0.253   5.145   2.848
 2559SOL    HW1 8576   0.205   5.127   2.762
 2559SOL    HW2 8577   0.308   5.229   2.839
 2560SOL     OW 8578   5.225   2.343   2.810
 2560SOL    HW1 8579   5.181   2.271   2.862
 2560SOL    HW2 8580   5.185   2.349   2.719
 2561SOL     OW 8581   3.219   0.124   4.369
 2561SOL    HW1 8582   3.180   0.167   4.287
 2561SOL    HW2 8583   3.208   0.185   4.447
 2562SOL     OW 8584   1.558   6.937   5.193
 2562SOL    HW1 8585   1.652   6.963   5.217
 2562SOL    HW2 8586   1.528   6.862   5.252
 2563SOL     OW 8587   3.496   2.695   6.637
 2563SOL    HW1 8588   3.514   2.783   6.593
 2563SOL    HW2 8589   3.516   2.702   6.735
 2564SOL     OW 8590   1.179   2.303   0.245
 2564SOL    HW1 8591   1.188   2.313   0.146
 2564SOL    HW2 8592   1.104   2.361   0.278
 2565SOL     OW 8593   0.867   0.725   0.828
 2565SOL    HW1 8594   0.961   0.690   0.817
 2565SOL    HW2 8595   0.857   0.810   0.777
 2566SOL     OW 8596   2.912   0.722   0.943
 2566SOL    HW1 8597   2.962   0.679   1.019
 2566SOL    HW2 8598   2.833   0.771   0.979
 2567SOL     OW 8599   1.324   0.756   6.461
 2567SOL    HW1 8600   1.333   0.759   6.362
 2567SOL    HW2 8601   1.415   0.749   6.503
 2568SOL     OW 8602   2.123   5.603   1.162
 2568SOL    HW1 8603   2.052   5.535   1.142
 2568SOL    HW2 8604   2.129   5.615   1.261
 2569SOL     OW 8605   1.915   0.319   0.163
 2569SOL    HW1 8606   1.990   0.375   0.129
 2569SOL    HW2 8607   1.915   0.230   0.118
 2570SOL     OW 8608   0.581   6.006   4.505
 2570SOL    HW1 8609   0.570   5.951   4.423
 2570SOL    HW2 8610   0.670   6.052   4.502
 2571SOL     OW 8611   3.337   4.184   3.595
 2571SOL    HW1 8612   3.419   4.193   3.652
 2571SOL    HW2 8613   3.269   4.129   3.642
 2572SOL     OW 8614   2.415   4.891   2.395
 2572SOL    HW1 8615   2.332   4.901   2.449
 2572SOL    HW2 8616   2.444   4.795   2.396
 2573SOL     OW 8617   6.916   1.497   3.028
 2573SOL    HW1 8618   7.006   1.542   3.023
 2573SOL    HW2 8619   6.867   1.529   3.109
 2574SOL     OW 8620   0.586   3.367   1.948
 2574SOL    HW1 8621   0.501   3.352   1.897
 2574SOL    HW2 8622   0.663   3.332   1.895
 2575SOL     OW 8623   4.753   3.487   6.169
 2575SOL    HW1 8624   4.684   3.477   6.098
 2575SOL    HW2 8625   4.828   3.423   6.153
 2576SOL     OW 8626   1.496   0.005   3.355
 2576SOL    HW1 8627   1.513   0.061   3.274
 2576SOL    HW2 8628   1.421   0.046   3.408
 2577SOL     OW 8629   1.838   5.323   1.312
 2577SOL    HW1 8630   1.747   5.337   1.352
 2577SOL    HW2 8631   1.903   5.301   1.385
 2578SOL     OW 8632   4.521   2.176   4.605
 2578SOL    HW1 8633   4.488   2.167   4.511
 2578SOL    HW2 8634   4.454   2.137   4.668
 2579SOL     OW 8635   6.869   1.466   6.510
 2579SOL    HW1 8636   6.948   1.507   6.465
 2579SOL    HW2 8637   6.879   1.476   6.609
 2580SOL     OW 8638   1.188   1.336   6.053
 2580SOL    HW1 8639   1.248   1.357   6.130
 2580SOL    HW2 8640   1.125   1.412   6.038
 2581SOL     OW 8641   6.326   6.732   4.941
 2581SOL    HW1 8642   6.261   6.808   4.948
 2581SOL    HW2 8643   6.328   6.698   4.847
 2582SOL     OW 8644   0.580   5.174   2.673
 2582SOL    HW1 8645   0.492   5.202   2.633
 2582SOL    HW2 8646   0.642   5.252   2.674
 2583SOL     OW 8647   2.351   0.966   6.424
 2583SOL    HW1 8648   2.372   0.868   6.420
 2583SOL    HW2 8649   2.252   0.978   6.433
 2584SOL     OW 8650   4.914   0.154   2.606
 2584SOL    HW1 8651   4.984   0.134   2.674
 2584SOL    HW2 8652   4.954   0.154   2.515
 2585SOL     OW 8653   4.161   1.491   2.113
 2585SOL    HW1 8654   4.080   1.450   2.156
 2585SOL    HW2 8655   4.139   1.516   2.019
 2586SOL     OW 8656   6.749   1.257   4.472
 2586SOL    HW1 8657   6.758   1.167   4.429
 2586SOL    HW2 8658   6.793   1.255   4.562
 2587SOL     OW 8659   6.802   5.931   2.729
 2587SOL    HW1 8660   6.898   5.953   2.711
 2587SOL    HW2 8661   6.746   5.966   2.654
 2588SOL     OW 8662   4.895   0.062   1.790
 2588SOL    HW1 8663   4.809   0.068   1.740
 2588SOL    HW2 8664   4.900   6.996   1.837
 2589SOL     OW 8665   5.213   5.855   0.714
 2589SOL    HW1 8666   5.179   5.858   0.620
 2589SOL    HW2 8667   5.138   5.836   0.776
 2590SOL     OW 8668   3.231   6.301   3.120
 2590SOL    HW1 8669   3.275   6.385   3.153
 2590SOL    HW2 8670   3.148   6.325   3.069
 2591SOL     OW 8671   6.515   0.032   1.162
 2591SOL    HW1 8672   6.544   0.008   1.069
 2591SOL    HW2 8673   6.460   6.978   1.199
 2592SOL     OW 8674   3.216   4.831   1.637
 2592SOL    HW1 8675   3.267   4.865   1.559
 2592SOL    HW2 8676   3.222   4.731   1.640
 2593SOL     OW 8677   3.758   0.182   2.768
 2593SOL    HW1 8678   3.677   0.143   2.812
 2593SOL    HW2 8679   3.739   0.195   2.670
 2594SOL     OW 8680   1.243   6.061   6.503
 2594SOL    HW1 8681   1.282   6.111   6.581
 2594SOL    HW2 8682   1.155   6.101   6.479
 2595SOL     OW 8683   6.388   2.543   3.824
 2595SOL    HW1 8684   6.405   2.591   3.910
 2595SOL    HW2 8685   6.334   2.461   3.842
 2596SOL     OW 8686   4.120   2.341   1.367
 2596SOL    HW1 8687   4.023   2.340   1.393
 2596SOL    HW2 8688   4.157   2.432   1.383
 2597SOL     OW 8689   2.081   2.089   6.546
 2597SOL    HW1 8690   2.180   2.089   6.561
 2597SOL    HW2 8691   2.060   2.138   6.461
 2598SOL     OW 8692   6.410   1.421   2.570
 2598SOL    HW1 8693   6.391   1.439   2.474
 2598SOL    HW2 8694   6.328   1.384   2.614
 2599SOL     OW 8695   4.374   4.889   6.413
 2599SOL    HW1 8696   4.297   4.950   6.393
 2599SOL    HW2 8697   4.459   4.930   6.379
 2600SOL     OW 8698   6.560   2.754   4.124
 2600SOL    HW1 8699   6.588   2.691   4.052
 2600SOL    HW2 8700   6.609   2.841   4.114
 2601SOL     OW 8701   3.772   3.705   4.766
 2601SOL    HW1 8702   3.738   3.720   4.858
 2601SOL    HW2 8703   3.866   3.737   4.759
 2602SOL     OW 8704   6.488   5.736   5.798
 2602SOL    HW1 8705   6.398   5.780   5.808
 2602SOL    HW2 8706   6.486   5.677   5.718
 2603SOL     OW 8707   1.843   2.338   6.802
 2603SOL    HW1 8708   1.817   2.377   6.890
 2603SOL    HW2 8709   1.875   2.411   6.741
 2604SOL     OW 8710   6.124   1.287   0.901
 2604SOL    HW1 8711   6.084   1.343   0.829
 2604SOL    HW2 8712   6.149   1.197   0.864
 2605SOL     OW 8713   5.137   3.581   3.961
 2605SOL    HW1 8714   5.055   3.601   4.013
 2605SOL    HW2 8715   5.211   3.556   4.023
 2606SOL     OW 8716   6.577   4.531   1.339
 2606SOL    HW1 8717   6.609   4.478   1.261
 2606SOL    HW2 8718   6.478   4.546   1.330
 2607SOL     OW 8719   1.183   1.897   4.328
 2607SOL    HW1 8720   1.246   1.937   4.394
 2607SOL    HW2 8721   1.190   1.797   4.332
 2608SOL     OW 8722   5.172   0.038   0.491
 2608SOL    HW1 8723   5.203   0.047   0.585
 2608SOL    HW2 8724   5.153   0.129   0.453
 2609SOL     OW 8725   0.756   2.920   3.649
 2609SOL    HW1 8726   0.819   2.911   3.726
 2609SOL    HW2 8727   0.667   2.881   3.675
 2610SOL     OW 8728   5.601   5.387   4.720
 2610SOL    HW1 8729   5.690   5.389   4.765
 2610SOL    HW2 8730   5.571   5.292   4.709
 2611SOL     OW 8731   3.006   5.661   2.272
 2611SOL    HW1 8732   3.090   5.608   2.280
 2611SOL    HW2 8733   3.024   5.757   2.296
 2612SOL     OW 8734   6.718   6.912   4.949
 2612SOL    HW1 8735   6.697   6.855   4.870
 2612SOL    HW2 8736   6.809   6.953   4.938
 2613SOL     OW 8737   3.393   0.940   0.328
 2613SOL    HW1 8738   3.316   1.004   0.325
 2613SOL    HW2 8739   3.367   0.858   0.379
 2614SOL     OW 8740   6.113   6.031   7.004
 2614SOL    HW1 8741   6.140   5.938   6.981
 2614SOL    HW2 8742   6.182   6.096   6.971
 2615SOL     OW 8743   5.482   4.850   2.138
 2615SOL    HW1 8744   5.478   4.756   2.172
 2615SOL    HW2 8745   5.406   4.867   2.076
 2616SOL     OW 8746   4.052   3.504   2.189
 2616SOL    HW1 8747   4.079   3.521   2.094
 2616SOL    HW2 8748   3.956   3.475   2.191
 2617SOL     OW 8749   2.942   0.352   0.849
 2617SOL    HW1 8750   3.027   0.388   0.889
 2617SOL    HW2 8751   2.921   0.263   0.889
 2618SOL     OW 8752   1.281   7.018   0.502
 2618SOL    HW1 8753   1.222   0.078   0.506
 2618SOL    HW2 8754   1.367   0.020   0.457
 2619SOL     OW 8755   5.695   1.601   1.060
 2619SOL    HW1 8756   5.722   1.538   1.133
 2619SOL    HW2 8757   5.761   1.595   0.985
 2620SOL     OW 8758   1.582   5.298   3.886
 2620SOL    HW1 8759   1.491   5.337   3.875
 2620SOL    HW2 8760   1.598   5.278   3.983
 2621SOL     OW 8761   0.487   5.540   3.769
 2621SOL    HW1 8762   0.402   5.570   3.726
 2621SOL    HW2 8763   0.534   5.475   3.709
 2622SOL     OW 8764   2.403   3.022   5.737
 2622SOL    HW1 8765   2.395   2.982   5.645
 2622SOL    HW2 8766   2.489   3.073   5.744
 2623SOL     OW 8767   3.306   0.899   6.657
 2623SOL    HW1 8768   3.270   0.806   6.647
 2623SOL    HW2 8769   3.367   0.903   6.736
 2624SOL     OW 8770   6.472   1.959   3.923
 2624SOL    HW1 8771   6.452   1.892   3.994
 2624SOL    HW2 8772   6.506   2.043   3.966
 2625SOL     OW 8773   4.270   0.135   5.596
 2625SOL    HW1 8774   4.287   0.099   5.688
 2625SOL    HW2 8775   4.202   0.077   5.550
 2626SOL     OW 8776   2.517   6.876   2.369
 2626SOL    HW1 8777   2.567   6.953   2.409
 2626SOL    HW2 8778   2.578   6.824   2.309
 2627SOL     OW 8779   0.639   1.303   4.478
 2627SOL    HW1 8780   0.661   1.258   4.565
 2627SOL    HW2 8781   0.547   1.275   4.449
 2628SOL     OW 8782   3.673   6.059   6.444
 2628SOL    HW1 8783   3.688   6.129   6.374
 2628SOL    HW2 8784   3.612   6.095   6.515
 2629SOL     OW 8785   3.060   3.731   1.167
 2629SOL    HW1 8786   2.972   3.705   1.208
 2629SOL    HW2 8787   3.117   3.775   1.236
 2630SOL     OW 8788   2.637   2.404   2.153
 2630SOL    HW1 8789   2.727   2.368   2.130
 2630SOL    HW2 8790   2.598   2.450   2.073
 2631SOL     OW 8791   4.577   6.734   4.737
 2631SOL    HW1 8792   4.582   6.636   4.718
 2631SOL    HW2 8793   4.645   6.783   4.682
 2632SOL     OW 8794   5.465   1.140   1.045
 2632SOL    HW1 8795   5.412   1.124   0.961
 2632SOL    HW2 8796   5.460   1.236   1.070
 2633SOL     OW 8797   0.105   2.924   6.086
 2633SOL    HW1 8798   0.037   2.996   6.071
 2633SOL    HW2 8799   0.119   2.912   6.184
 2634SOL     OW 8800   3.194   5.072   1.266
 2634SOL    HW1 8801   3.262   5.069   1.193
 2634SOL    HW2 8802   3.102   5.072   1.227
 2635SOL     OW 8803   5.980   4.654   3.483
 2635SOL    HW1 8804   5.983   4.740   3.433
 2635SOL    HW2 8805   5.885   4.627   3.499
 2636SOL     OW 8806   5.778   0.210   4.833
 2636SOL    HW1 8807   5.820   0.300   4.825
 2636SOL    HW2 8808   5.843   0.146   4.875
 2637SOL     OW 8809   4.821   6.641   2.672
 2637SOL    HW1 8810   4.817   6.719   2.609
 2637SOL    HW2 8811   4.886   6.573   2.638
 2638SOL     OW 8812   5.383   5.628   0.807
 2638SOL    HW1 8813   5.328   5.707   0.779
 2638SOL    HW2 8814   5.459   5.658   0.863
 2639SOL     OW 8815   6.528   6.470   6.955
 2639SOL    HW1 8816   6.559   6.377   6.937
 2639SOL    HW2 8817   6.548   6.495   0.028
 2640SOL     OW 8818   5.876   6.919   6.235
 2640SOL    HW1 8819   5.804   6.929   6.304
 2640SOL    HW2 8820   5.873   6.826   6.198
 2641SOL     OW 8821   5.825   5.129   0.348
 2641SOL    HW1 8822   5.788   5.199   0.409
 2641SOL    HW2 8823   5.851   5.049   0.402
 2642SOL     OW 8824   6.554   0.076   3.621
 2642SOL    HW1 8825   6.624   0.055   3.553
 2642SOL    HW2 8826   6.535   0.174   3.620
 2643SOL     OW 8827   1.341   0.879   2.124
 2643SOL    HW1 8828   1.275   0.891   2.199
 2643SOL    HW2 8829   1.358   0.968   2.081
 2644SOL     OW 8830   6.986   5.600   5.864
 2644SOL    HW1 8831   0.059   5.572   5.845
 2644SOL    HW2 8832   6.924   5.555   5.801
 2645SOL     OW 8833   6.116   5.402   6.135
 2645SOL    HW1 8834   6.133   5.314   6.179
 2645SOL    HW2 8835   6.197   5.460   6.144
 2646SOL     OW 8836   6.310   6.207   6.914
 2646SOL    HW1 8837   6.276   6.283   6.858
 2646SOL    HW2 8838   6.337   6.242   7.004
 2647SOL     OW 8839   3.362   3.007   0.418
 2647SOL    HW1 8840   3.390   3.103   0.420
 2647SOL    HW2 8841   3.400   2.959   0.497
 2648SOL     OW 8842   3.893   0.883   3.544
 2648SOL    HW1 8843   3.841   0.802   3.516
 2648SOL    HW2 8844   3.839   0.965   3.526
 2649SOL     OW 8845   3.290   2.822   5.145
 2649SOL    HW1 8846   3.313   2.871   5.229
 2649SOL    HW2 8847   3.291   2.723   5.163
 2650SOL     OW 8848   6.851   6.340   2.401
 2650SOL    HW1 8849   6.857   6.418   2.338
 2650SOL    HW2 8850   6.905   6.264   2.365
 2651SOL     OW 8851   0.629   0.103   3.671
 2651SOL    HW1 8852   0.670   0.189   3.640
 2651SOL    HW2 8853   0.617   0.042   3.592
 2652SOL     OW 8854   3.405   3.251   2.796
 2652SOL    HW1 8855   3.483   3.192   2.775
 2652SOL    HW2 8856   3.437   3.345   2.810
 2653SOL     OW 8857   6.124   5.374   0.230
 2653SOL    HW1 8858   6.151   5.422   0.313
 2653SOL    HW2 8859   6.068   5.294   0.254
 2654SOL     OW 8860   5.770   1.519   6.004
 2654SOL    HW1 8861   5.788   1.463   6.084
 2654SOL    HW2 8862   5.856   1.562   5.973
 2655SOL     OW 8863   4.609   5.341   5.349
 2655SOL    HW1 8864   4.590   5.366   5.254
 2655SOL    HW2 8865   4.548   5.266   5.376
 2656SOL     OW 8866   5.185   3.601   4.421
 2656SOL    HW1 8867   5.194   3.618   4.323
 2656SOL    HW2 8868   5.114   3.533   4.437
 2657SOL     OW 8869   2.869   2.310   5.821
 2657SOL    HW1 8870   2.861   2.389   5.881
 2657SOL    HW2 8871   2.910   2.234   5.872
 2658SOL     OW 8872   5.736   4.426   5.426
 2658SOL    HW1 8873   5.796   4.486   5.374
 2658SOL    HW2 8874   5.771   4.417   5.519
 2659SOL     OW 8875   6.698   1.684   2.923
 2659SOL    HW1 8876   6.707   1.613   2.853
 2659SOL    HW2 8877   6.674   1.771   2.880
 2660SOL     OW 8878   6.557   1.859   2.738
 2660SOL    HW1 8879   6.548   1.950   2.778
 2660SOL    HW2 8880   6.470   1.831   2.698
 2661SOL     OW 8881   3.669   6.533   1.894
 2661SOL    HW1 8882   3.716   6.607   1.941
 2661SOL    HW2 8883   3.626   6.568   1.811
 2662SOL     OW 8884   3.820   0.011   3.542
 2662SOL    HW1 8885   3.808   0.002   3.641
 2662SOL    HW2 8886   3.787   0.101   3.512
 2663SOL     OW 8887   0.831   4.471   3.277
 2663SOL    HW1 8888   0.798   4.411   3.349
 2663SOL    HW2 8889   0.845   4.563   3.314
 2664SOL     OW 8890   4.129   3.820   1.824
 2664SOL    HW1 8891   4.175   3.897   1.781
 2664SOL    HW2 8892   4.073   3.852   1.900
 2665SOL     OW 8893   4.426   0.964   4.738
 2665SOL    HW1 8894   4.464   0.963   4.646
 2665SOL    HW2 8895   4.476   0.897   4.795
 2666SOL     OW 8896   5.060   5.949   1.946
 2666SOL    HW1 8897   5.035   5.949   2.043
 2666SOL    HW2 8898   4.992   6.002   1.895
 2667SOL     OW 8899   1.553   5.005   3.607
 2667SOL    HW1 8900   1.636   5.018   3.661
 2667SOL    HW2 8901   1.572   4.944   3.530
 2668SOL     OW 8902   6.157   2.509   5.811
 2668SOL    HW1 8903   6.229   2.474   5.871
 2668SOL    HW2 8904   6.190   2.589   5.763
 2669SOL     OW 8905   3.938   5.410   5.505
 2669SOL    HW1 8906   3.961   5.326   5.456
 2669SOL    HW2 8907   3.944   5.394   5.604
 2670SOL     OW 8908   1.851   7.015   5.691
 2670SOL    HW1 8909   1.884   0.034   5.605
 2670SOL    HW2 8910   1.756   6.985   5.679
 2671SOL     OW 8911   3.431   4.358   5.966
 2671SOL    HW1 8912   3.414   4.260   5.981
 2671SOL    HW2 8913   3.348   4.401   5.930
 2672SOL     OW 8914   1.012   4.137   0.650
 2672SOL    HW1 8915   0.999   4.114   0.747
 2672SOL    HW2 8916   1.081   4.076   0.610
 2673SOL     OW 8917   4.434   2.447   3.869
 2673SOL    HW1 8918   4.392   2.460   3.959
 2673SOL    HW2 8919   4.521   2.496   3.865
 2674SOL     OW 8920   5.953   5.269   5.535
 2674SOL    HW1 8921   6.052   5.268   5.523
 2674SOL    HW2 8922   5.908   5.286   5.447
 2675SOL     OW 8923   0.458   3.852   4.825
 2675SOL    HW1 8924   0.488   3.901   4.743
 2675SOL    HW2 8925   0.413   3.767   4.798
 2676SOL     OW 8926   4.521   0.440   1.984
 2676SOL    HW1 8927   4.486   0.367   2.042
 2676SOL    HW2 8928   4.474   0.526   2.006
 2677SOL     OW 8929   2.848   4.761   2.448
 2677SOL    HW1 8930   2.833   4.662   2.441
 2677SOL    HW2 8931   2.864   4.799   2.357
 2678SOL     OW 8932   0.131   6.364   6.456
 2678SOL    HW1 8933   0.071   6.292   6.421
 2678SOL    HW2 8934   0.137   6.358   6.555
 2679SOL     OW 8935   2.884   4.859   1.017
 2679SOL    HW1 8936   2.942   4.789   1.058
 2679SOL    HW2 8937   2.790   4.848   1.049
 2680SOL     OW 8938   1.334   1.876   2.031
 2680SOL    HW1 8939   1.240   1.855   2.057
 2680SOL    HW2 8940   1.356   1.833   1.944
 2681SOL     OW 8941   1.528   1.306   2.795
 2681SOL    HW1 8942   1.509   1.303   2.697
 2681SOL    HW2 8943   1.481   1.384   2.836
 2682SOL     OW 8944   6.634   2.365   3.415
 2682SOL    HW1 8945   6.568   2.332   3.483
 2682SOL    HW2 8946   6.630   2.307   3.334
 2683SOL     OW 8947   1.600   0.183   1.880
 2683SOL    HW1 8948   1.614   0.144   1.971
 2683SOL    HW2 8949   1.617   0.113   1.810
 2684SOL     OW 8950   2.695   5.677   3.108
 2684SOL    HW1 8951   2.777   5.707   3.155
 2684SOL    HW2 8952   2.644   5.613   3.167
 2685SOL     OW 8953   5.784   6.194   5.235
 2685SOL    HW1 8954   5.769   6.207   5.333
 2685SOL    HW2 8955   5.740   6.110   5.205
 2686SOL     OW 8956   1.194   3.061   4.634
 2686SOL    HW1 8957   1.236   3.150   4.655
 2686SOL    HW2 8958   1.265   2.998   4.602
 2687SOL     OW 8959   4.841   4.632   3.265
 2687SOL    HW1 8960   4.774   4.703   3.288
 2687SOL    HW2 8961   4.816   4.588   3.179
 2688SOL     OW 8962   3.693   5.215   5.890
 2688SOL    HW1 8963   3.723   5.186   5.980
 2688SOL    HW2 8964   3.702   5.139   5.825
 2689SOL     OW 8965   0.388   3.110   4.024
 2689SOL    HW1 8966   0.356   3.042   3.958
 2689SOL    HW2 8967   0.487   3.103   4.034
 2690SOL     OW 8968   2.876   3.382   2.864
 2690SOL    HW1 8969   2.964   3.339   2.884
 2690SOL    HW2 8970   2.816   3.374   2.944
 2691SOL     OW 8971   1.594   5.745   1.451
 2691SOL    HW1 8972   1.523   5.816   1.453
 2691SOL    HW2 8973   1.676   5.781   1.407
 2692SOL     OW 8974   6.995   5.402   3.195
 2692SOL    HW1 8975   6.965   5.455   3.115
 2692SOL    HW2 8976   0.014   5.316   3.164
 2693SOL     OW 8977   1.806   3.651   3.170
 2693SOL    HW1 8978   1.878   3.720   3.166
 2693SOL    HW2 8979   1.778   3.637   3.265
 2694SOL     OW 8980   2.229   0.533   2.880
 2694SOL    HW1 8981   2.308   0.592   2.896
 2694SOL    HW2 8982   2.222   0.513   2.782
 2695SOL     OW 8983   4.066   2.113   3.016
 2695SOL    HW1 8984   4.047   2.016   3.028
 2695SOL    HW2 8985   4.116   2.148   3.095
 2696SOL     OW 8986   4.141   3.695   5.075
 2696SOL    HW1 8987   4.098   3.773   5.119
 2696SOL    HW2 8988   4.205   3.651   5.139
 2697SOL     OW 8989   2.335   1.996   4.269
 2697SOL    HW1 8990   2.329   1.972   4.366
 2697SOL    HW2 8991   2.260   2.058   4.246
 2698SOL     OW 8992   2.154   3.417   6.779
 2698SOL    HW1 8993   2.218   3.453   6.711
 2698SOL    HW2 8994   2.063   3.409   6.739
 2699SOL     OW 8995   3.139   5.857   2.451
 2699SOL    HW1 8996   3.188   5.938   2.418
 2699SOL    HW2 8997   3.204   5.784   2.472
 2700SOL     OW 8998   1.165   3.874   2.788
 2700SOL    HW1 8999   1.122   3.951   2.742
 2700SOL    HW2 9000   1.197   3.904   2.879
 2701SOL     OW 9001   3.195   0.213   5.866
 2701SOL    HW1 9002   3.231   0.134   5.916
 2701SOL    HW2 9003   3.206   0.295   5.921
 2702SOL     OW 9004   6.990   6.956   2.820
 2702SOL    HW1 9005   7.016   6.860   2.834
 2702SOL    HW2 9006   0.042   7.016   2.851
 2703SOL     OW 9007   1.234   1.731   3.094
 2703SOL    HW1 9008   1.269   1.658   3.151
 2703SOL    HW2 9009   1.237   1.818   3.145
 2704SOL     OW 9010   1.920   5.910   0.395
 2704SOL    HW1 9011   1.957   5.963   0.472
 2704SOL    HW2 9012   1.895   5.819   0.427
 2705SOL     OW 9013   0.311   4.868   2.403
 2705SOL    HW1 9014   0.302   4.769   2.410
 2705SOL    HW2 9015   0.333   4.906   2.493
 2706SOL     OW 9016   6.818   2.162   2.075
 2706SOL    HW1 9017   6.749   2.093   2.100
 2706SOL    HW2 9018   6.853   2.143   1.983
 2707SOL     OW 9019   2.004   1.593   5.750
 2707SOL    HW1 9020   2.002   1.669   5.815
 2707SOL    HW2 9021   2.028   1.509   5.798
 2708SOL     OW 9022   1.974   3.531   0.630
 2708SOL    HW1 9023   1.903   3.602   0.626
 2708SOL    HW2 9024   1.932   3.441   0.639
 2709SOL     OW 9025   4.248   0.087   1.732
 2709SOL    HW1 9026   4.278   0.180   1.715
 2709SOL    HW2 9027   4.150   0.079   1.712
 2710SOL     OW 9028   6.031   4.297   2.685
 2710SOL    HW1 9029   6.121   4.333   2.711
 2710SOL    HW2 9030   5.978   4.370   2.642
 2711SOL     OW 9031   1.370   6.807   1.694
 2711SOL    HW1 9032   1.277   6.841   1.710
 2711SOL    HW2 9033   1.366   6.709   1.675
 2712SOL     OW 9034   3.031   5.521   1.683
 2712SOL    HW1 9035   3.102   5.451   1.681
 2712SOL    HW2 9036   2.942   5.479   1.663
 2713SOL     OW 9037   2.140   2.339   5.010
 2713SOL    HW1 9038   2.047   2.372   4.994
 2713SOL    HW2 9039   2.184   2.318   4.922
 2714SOL     OW 9040   5.532   6.530   5.673
 2714SOL    HW1 9041   5.497   6.593   5.742
 2714SOL    HW2 9042   5.540   6.438   5.713
 2715SOL     OW 9043   6.800   0.445   0.021
 2715SOL    HW1 9044   6.770   0.493   0.104
 2715SOL    HW2 9045   6.766   0.495   6.962
 2716SOL     OW 9046   0.235   6.734   2.974
 2716SOL    HW1 9047   0.171   6.699   2.906
 2716SOL    HW2 9048   0.283   6.658   3.017
 2717SOL     OW 9049   1.336   0.821   2.924
 2717SOL    HW1 9050   1.329   0.850   3.020
 2717SOL    HW2 9051   1.390   0.888   2.873
 2718SOL     OW 9052   1.180   4.513   3.155
 2718SOL    HW1 9053   1.089   4.537   3.189
 2718SOL    HW2 9054   1.174   4.431   3.099
 2719SOL     OW 9055   4.002   4.811   2.900
 2719SOL    HW1 9056   3.952   4.894   2.926
 2719SOL    HW2 9057   3.992   4.796   2.802
 2720SOL     OW 9058   0.437   5.977   4.074
 2720SOL    HW1 9059   0.385   5.891   4.079
 2720SOL    HW2 9060   0.499   5.983   4.152
 2721SOL     OW 9061   5.064   0.185   4.846
 2721SOL    HW1 9062   5.004   0.107   4.866
 2721SOL    HW2 9063   5.068   0.245   4.926
 2722SOL     OW 9064   1.564   5.571   1.209
 2722SOL    HW1 9065   1.479   5.524   1.187
 2722SOL    HW2 9066   1.559   5.609   1.301
 2723SOL     OW 9067   1.671   1.158   5.284
 2723SOL    HW1 9068   1.742   1.170   5.355
 2723SOL    HW2 9069   1.701   1.089   5.219
 2724SOL     OW 9070   3.042   5.576   6.387
 2724SOL    HW1 9071   3.074   5.521   6.464
 2724SOL    HW2 9072   3.119   5.603   6.329
 2725SOL     OW 9073   3.217   4.962   3.327
 2725SOL    HW1 9074   3.185   4.871   3.353
 2725SOL    HW2 9075   3.140   5.025   3.325
 2726SOL     OW 9076   4.862   6.287   2.428
 2726SOL    HW1 9077   4.916   6.305   2.346
 2726SOL    HW2 9078   4.794   6.216   2.408
 2727SOL     OW 9079   1.826   5.549   3.161
 2727SOL    HW1 9080   1.859   5.643   3.150
 2727SOL    HW2 9081   1.849   5.496   3.080
 2728SOL     OW 9082   3.783   6.867   5.125
 2728SOL    HW1 9083   3.717   6.927   5.169
 2728SOL    HW2 9084   3.875   6.906   5.135
 2729SOL     OW 9085   6.678   5.141   2.410
 2729SOL    HW1 9086   6.729   5.104   2.332
 2729SOL    HW2 9087   6.611   5.207   2.377
 2730SOL     OW 9088   1.444   4.414   1.322
 2730SOL    HW1 9089   1.350   4.438   1.296
 2730SOL    HW2 9090   1.508   4.475   1.275
 2731SOL     OW 9091   2.910   3.649   1.918
 2731SOL    HW1 9092   2.973   3.571   1.922
 2731SOL    HW2 9093   2.954   3.729   1.958
 2732SOL     OW 9094   5.406   2.474   4.031
 2732SOL    HW1 9095   5.439   2.408   3.963
 2732SOL    HW2 9096   5.429   2.443   4.123
 2733SOL     OW 9097   1.943   0.842   5.851
 2733SOL    HW1 9098   2.041   0.832   5.868
 2733SOL    HW2 9099   1.906   0.757   5.813
 2734SOL     OW 9100   2.224   6.259   3.606
 2734SOL    HW1 9101   2.230   6.194   3.682
 2734SOL    HW2 9102   2.262   6.218   3.523
 2735SOL     OW 9103   2.301   4.993   1.355
 2735SOL    HW1 9104   2.332   5.017   1.263
 2735SOL    HW2 9105   2.366   4.929   1.396
 2736SOL     OW 9106   3.427   7.004   6.647
 2736SOL    HW1 9107   3.491   6.961   6.583
 2736SOL    HW2 9108   3.442   0.081   6.649
 2737SOL     OW 9109   4.290   3.467   5.569
 2737SOL    HW1 9110   4.308   3.411   5.488
 2737SOL    HW2 9111   4.195   3.500   5.566
 2738SOL     OW 9112   6.003   4.443   4.263
 2738SOL    HW1 9113   5.946   4.448   4.181
 2738SOL    HW2 9114   5.987   4.356   4.309
 2739SOL     OW 9115   5.601   3.711   0.722
 2739SOL    HW1 9116   5.630   3.766   0.800
 2739SOL    HW2 9117   5.671   3.642   0.703
 2740SOL     OW 9118   6.753   2.817   3.026
 2740SOL    HW1 9119   6.703   2.730   3.026
 2740SOL    HW2 9120   6.800   2.827   2.938
 2741SOL     OW 9121   1.252   2.555   5.732
 2741SOL    HW1 9122   1.347   2.585   5.746
 2741SOL    HW2 9123   1.211   2.608   5.658
 2742SOL     OW 9124   2.693   6.481   5.261
 2742SOL    HW1 9125   2.645   6.451   5.343
 2742SOL    HW2 9126   2.746   6.563   5.282
 2743SOL     OW 9127   6.237   4.493   0.592
 2743SOL    HW1 9128   6.219   4.552   0.670
 2743SOL    HW2 9129   6.153   4.479   0.540
 2744SOL     OW 9130   4.247   0.228   6.979
 2744SOL    HW1 9131   4.264   0.281   6.896
 2744SOL    HW2 9132   4.312   0.254   0.029
 2745SOL     OW 9133   2.494   5.883   1.504
 2745SOL    HW1 9134   2.591   5.902   1.489
 2745SOL    HW2 9135   2.439   5.947   1.450
 2746SOL     OW 9136   1.134   2.365   6.294
 2746SOL    HW1 9137   1.111   2.318   6.379
 2746SOL    HW2 9138   1.188   2.305   6.235
 2747SOL     OW 9139   5.442   5.572   3.944
 2747SOL    HW1 9140   5.499   5.520   3.880
 2747SOL    HW2 9141   5.497   5.600   4.022
 2748SOL     OW 9142   4.196   1.416   4.716
 2748SOL    HW1 9143   4.194   1.317   4.731
 2748SOL    HW2 9144   4.239   1.461   4.794
 2749SOL     OW 9145   4.872   4.216   3.543
 2749SOL    HW1 9146   4.822   4.135   3.573
 2749SOL    HW2 9147   4.966   4.212   3.577
 2750SOL     OW 9148   0.027   6.058   1.358
 2750SOL    HW1 9149   7.007   6.045   1.448
 2750SOL    HW2 9150   0.095   6.131   1.362
 2751SOL     OW 9151   1.503   0.303   0.517
 2751SOL    HW1 9152   1.487   0.389   0.565
 2751SOL    HW2 9153   1.594   0.304   0.475
 2752SOL     OW 9154   6.581   6.442   5.809
 2752SOL    HW1 9155   6.634   6.482   5.734
 2752SOL    HW2 9156   6.631   6.364   5.847
 2753SOL     OW 9157   2.961   5.418   5.070
 2753SOL    HW1 9158   3.046   5.453   5.030
 2753SOL    HW2 9159   2.978   5.386   5.163
 2754SOL     OW 9160   0.829   6.082   4.383
 2754SOL    HW1 9161   0.794   6.125   4.299
 2754SOL    HW2 9162   0.860   5.989   4.363
 2755SOL     OW 9163   4.001   5.415   2.375
 2755SOL    HW1 9164   3.944   5.480   2.325
 2755SOL    HW2 9165   4.092   5.454   2.390
 2756SOL     OW 9166   6.984   3.680   5.094
 2756SOL    HW1 9167   0.050   3.726   5.109
 2756SOL    HW2 9168   6.941   3.716   5.011
 2757SOL     OW 9169   4.536   3.840   6.675
 2757SOL    HW1 9170   4.488   3.834   6.588
 2757SOL    HW2 9171   4.490   3.904   6.736
 2758SOL     OW 9172   0.240   6.659   1.926
 2758SOL    HW1 9173   0.316   6.615   1.975
 2758SOL    HW2 9174   0.160   6.662   1.986
 2759SOL     OW 9175   3.799   3.564   5.256
 2759SOL    HW1 9176   3.740   3.627   5.206
 2759SOL    HW2 9177   3.865   3.615   5.310
 2760SOL     OW 9178   5.911   5.858   2.579
 2760SOL    HW1 9179   5.858   5.786   2.535
 2760SOL    HW2 9180   5.994   5.875   2.527
 2761SOL     OW 9181   1.427   3.198   3.310
 2761SOL    HW1 9182   1.422   3.297   3.313
 2761SOL    HW2 9183   1.507   3.166   3.360
 2762SOL     OW 9184   3.103   1.908   0.815
 2762SOL    HW1 9185   3.179   1.871   0.762
 2762SOL    HW2 9186   3.138   1.951   0.898
 2763SOL     OW 9187   6.392   1.713   4.587
 2763SOL    HW1 9188   6.392   1.626   4.635
 2763SOL    HW2 9189   6.471   1.717   4.525
 2764SOL     OW 9190   0.072   3.238   3.214
 2764SOL    HW1 9191   0.009   3.293   3.269
 2764SOL    HW2 9192   0.115   3.169   3.272
 2765SOL     OW 9193   5.622   6.470   6.059
 2765SOL    HW1 9194   5.531   6.429   6.069
 2765SOL    HW2 9195   5.647   6.518   6.143
 2766SOL     OW 9196   4.488   6.976   7.007
 2766SOL    HW1 9197   4.394   6.970   6.973
 2766SOL    HW2 9198   4.538   0.022   6.954
 2767SOL     OW 9199   0.888   5.497   6.723
 2767SOL    HW1 9200   0.834   5.579   6.705
 2767SOL    HW2 9201   0.933   5.468   6.639
 2768SOL     OW 9202   4.168   0.013   1.439
 2768SOL    HW1 9203   4.225   6.957   1.408
 2768SOL    HW2 9204   4.074   7.003   1.452
 2769SOL     OW 9205   1.193   4.927   5.451
 2769SOL    HW1 9206   1.241   4.945   5.365
 2769SOL    HW2 9207   1.169   5.014   5.494
 2770SOL     OW 9208   2.241   6.822   0.602
 2770SOL    HW1 9209   2.171   6.807   0.672
 2770SOL    HW2 9210   2.297   6.740   0.593
 2771SOL     OW 9211   4.342   0.223   5.324
 2771SOL    HW1 9212   4.289   0.146   5.360
 2771SOL    HW2 9213   4.389   0.269   5.399
 2772SOL     OW 9214   4.730   1.372   3.923
 2772SOL    HW1 9215   4.692   1.297   3.977
 2772SOL    HW2 9216   4.661   1.442   3.909
 2773SOL     OW 9217   6.287   2.533   4.688
 2773SOL    HW1 9218   6.331   2.458   4.640
 2773SOL    HW2 9219   6.343   2.616   4.679
 2774SOL     OW 9220   5.956   1.681   4.134
 2774SOL    HW1 9221   5.955   1.651   4.230
 2774SOL    HW2 9222   5.905   1.615   4.078
 2775SOL     OW 9223   6.929   3.544   4.049
 2775SOL    HW1 9224   7.015   3.582   4.084
 2775SOL    HW2 9225   6.852   3.584   4.100
 2776SOL     OW 9226   4.809   4.709   6.020
 2776SOL    HW1 9227   4.871   4.634   6.043
 2776SOL    HW2 9228   4.741   4.720   6.092
 2777SOL     OW 9229   1.928   2.067   6.776
 2777SOL    HW1 9230   1.875   2.151   6.765
 2777SOL    HW2 9231   1.999   2.062   6.705
 2778SOL     OW 9232   2.808   0.803   6.156
 2778SOL    HW1 9233   2.896   0.772   6.120
 2778SOL    HW2 9234   2.822   0.887   6.210
 2779SOL     OW 9235   4.768   0.988   1.622
 2779SOL    HW1 9236   4.837   0.979   1.551
 2779SOL    HW2 9237   4.763   1.084   1.651
 2780SOL     OW 9238   6.893   1.206   4.710
 2780SOL    HW1 9239   6.946   1.123   4.697
 2780SOL    HW2 9240   6.937   1.263   4.780
 2781SOL     OW 9241   6.064   1.082   3.406
 2781SOL    HW1 9242   6.140   1.066   3.469
 2781SOL    HW2 9243   6.085   1.161   3.348
 2782SOL     OW 9244   5.274   0.683   5.952
 2782SOL    HW1 9245   5.371   0.688   5.977
 2782SOL    HW2 9246   5.225   0.758   5.995
 2783SOL     OW 9247   5.697   3.621   1.609
 2783SOL    HW1 9248   5.755   3.590   1.533
 2783SOL    HW2 9249   5.624   3.555   1.625
 2784SOL     OW 9250   0.402   3.251   1.051
 2784SOL    HW1 9251   0.496   3.238   1.018
 2784SOL    HW2 9252   0.356   3.162   1.056
 2785SOL     OW 9253   5.976   3.207   2.345
 2785SOL    HW1 9254   5.917   3.258   2.283
 2785SOL    HW2 9255   5.986   3.113   2.312
 2786SOL     OW 9256   1.329   6.447   6.937
 2786SOL    HW1 9257   1.351   6.520   7.002
 2786SOL    HW2 9258   1.231   6.429   6.939
 2787SOL     OW 9259   0.329   5.863   6.771
 2787SOL    HW1 9260   0.277   5.863   6.685
 2787SOL    HW2 9261   0.270   5.830   6.845
 2788SOL     OW 9262   2.392   0.012   6.419
 2788SOL    HW1 9263   2.319   0.073   6.388
 2788SOL    HW2 9264   2.355   6.941   6.432
 2789SOL     OW 9265   1.033   2.599   4.754
 2789SOL    HW1 9266   0.983   2.681   4.727
 2789SOL    HW2 9267   1.057   2.546   4.672
 2790SOL     OW 9268   0.398   5.520   1.459
 2790SOL    HW1 9269   0.307   5.504   1.497
 2790SOL    HW2 9270   0.405   5.615   1.429
 2791SOL     OW 9271   1.618   3.098   4.322
 2791SOL    HW1 9272   1.668   3.165   4.268
 2791SOL    HW2 9273   1.677   3.019   4.340
 2792SOL     OW 9274   3.629   1.630   6.063
 2792SOL    HW1 9275   3.625   1.696   5.987
 2792SOL    HW2 9276   3.674   1.673   6.141
 2793SOL     OW 9277   3.558   3.742   0.346
 2793SOL    HW1 9278   3.511   3.705   0.266
 2793SOL    HW2 9279   3.650   3.772   0.320
 2794SOL     OW 9280   1.521   2.351   0.215
 2794SOL    HW1 9281   1.549   2.445   0.238
 2794SOL    HW2 9282   1.600   2.290   0.227
 2795SOL     OW 9283   1.745   6.096   0.878
 2795SOL    HW1 9284   1.664   6.104   0.936
 2795SOL    HW2 9285   1.755   6.002   0.846
 2796SOL     OW 9286   1.670   6.026   6.625
 2796SOL    HW1 9287   1.627   5.942   6.594
 2796SOL    HW2 9288   1.664   6.096   6.553
 2797SOL     OW 9289   5.308   5.056   3.416
 2797SOL    HW1 9290   5.377   4.983   3.414
 2797SOL    HW2 9291   5.320   5.111   3.498
 2798SOL     OW 9292   5.656   1.319   1.911
 2798SOL    HW1 9293   5.650   1.220   1.895
 2798SOL    HW2 9294   5.718   1.360   1.844
 2799SOL     OW 9295   3.644   6.527   4.690
 2799SOL    HW1 9296   3.737   6.562   4.696
 2799SOL    HW2 9297   3.622   6.473   4.771
 2800SOL     OW 9298   4.729   0.511   6.259
 2800SOL    HW1 9299   4.825   0.540   6.259
 2800SOL    HW2 9300   4.724   0.413   6.236
 2801SOL     OW 9301   0.153   4.658   3.946
 2801SOL    HW1 9302   0.169   4.590   4.018
 2801SOL    HW2 9303   0.231   4.659   3.884
 2802SOL     OW 9304   1.853   5.142   4.775
 2802SOL    HW1 9305   1.872   5.045   4.762
 2802SOL    HW2 9306   1.936   5.189   4.804
 2803SOL     OW 9307   3.431   2.421   6.478
 2803SOL    HW1 9308   3.476   2.501   6.518
 2803SOL    HW2 9309   3.501   2.360   6.439
 2804SOL     OW 9310   6.804   2.808   3.318
 2804SOL    HW1 9311   6.801   2.898   3.363
 2804SOL    HW2 9312   6.784   2.820   3.220
 2805SOL     OW 9313   3.842   4.507   0.663
 2805SOL    HW1 9314   3.814   4.442   0.734
 2805SOL    HW2 9315   3.922   4.558   0.695
 2806SOL     OW 9316   0.139   2.896   5.355
 2806SOL    HW1 9317   0.231   2.933   5.364
 2806SOL    HW2 9318   0.072   2.970   5.365
 2807SOL     OW 9319   4.428   0.967   4.032
 2807SOL    HW1 9320   4.390   0.995   4.120
 2807SOL    HW2 9321   4.374   1.005   3.958
 2808SOL     OW 9322   0.793   5.770   5.694
 2808SOL    HW1 9323   0.766   5.679   5.727
 2808SOL    HW2 9324   0.801   5.832   5.772
 2809SOL     OW 9325   0.490   5.971   2.064
 2809SOL    HW1 9326   0.527   5.972   1.971
 2809SOL    HW2 9327   0.549   5.915   2.123
 2810SOL     OW 9328   1.555   6.440   2.927
 2810SOL    HW1 9329   1.539   6.366   2.993
 2810SOL    HW2 9330   1.653   6.452   2.914
 2811SOL     OW 9331   1.291   1.253   1.167
 2811SOL    HW1 9332   1.198   1.219   1.154
 2811SOL    HW2 9333   1.356   1.179   1.149
 2812SOL     OW 9334   1.335   2.245   0.450
 2812SOL    HW1 9335   1.287   2.272   0.366
 2812SOL    HW2 9336   1.394   2.167   0.431
 2813SOL     OW 9337   0.792   3.479   1.412
 2813SOL    HW1 9338   0.835   3.544   1.475
 2813SOL    HW2 9339   0.859   3.410   1.384
 2814SOL     OW 9340   2.695   4.291   6.854
 2814SOL    HW1 9341   2.771   4.346   6.820
 2814SOL    HW2 9342   2.701   4.199   6.816
 2815SOL     OW 9343   6.684   5.552   4.528
 2815SOL    HW1 9344   6.729   5.543   4.617
 2815SOL    HW2 9345   6.609   5.486   4.522
 2816SOL     OW 9346   0.912   5.328   4.635
 2816SOL    HW1 9347   0.976   5.271   4.686
 2816SOL    HW2 9348   0.824   5.331   4.683
 2817SOL     OW 9349   3.287   0.969   2.216
 2817SOL    HW1 9350   3.373   1.018   2.228
 2817SOL    HW2 9351   3.224   0.996   2.289
 2818SOL     OW 9352   1.513   0.799   0.278
 2818SOL    HW1 9353   1.448   0.766   0.347
 2818SOL    HW2 9354   1.592   0.840   0.323
 2819SOL     OW 9355   0.842   0.155   6.764
 2819SOL    HW1 9356   0.810   0.247   6.786
 2819SOL    HW2 9357   0.789   0.118   6.688
 2820SOL     OW 9358   1.329   2.006   6.995
 2820SOL    HW1 9359   1.398   1.935   7.004
 2820SOL    HW2 9360   1.372   2.096   7.001
 2821SOL     OW 9361   3.095   3.226   6.078
 2821SOL    HW1 9362   3.102   3.325   6.089
 2821SOL    HW2 9363   3.020   3.204   6.016
 2822SOL     OW 9364   4.853   2.827   0.464
 2822SOL    HW1 9365   4.805   2.791   0.544
 2822SOL    HW2 9366   4.878   2.753   0.403
 2823SOL     OW 9367   4.870   3.552   1.538
 2823SOL    HW1 9368   4.779   3.514   1.553
 2823SOL    HW2 9369   4.899   3.603   1.620
 2824SOL     OW 9370   0.932   4.546   4.748
 2824SOL    HW1 9371   0.979   4.578   4.830
 2824SOL    HW2 9372   0.901   4.452   4.762
 2825SOL     OW 9373   5.320   1.412   6.056
 2825SOL    HW1 9374   5.259   1.436   5.980
 2825SOL    HW2 9375   5.344   1.315   6.050
 2826SOL     OW 9376   2.824   2.989   6.640
 2826SOL    HW1 9377   2.863   3.078   6.663
 2826SOL    HW2 9378   2.727   2.989   6.665
 2827SOL     OW 9379   5.870   1.776   6.358
 2827SOL    HW1 9380   5.949   1.765   6.418
 2827SOL    HW2 9381   5.878   1.862   6.308
 2828SOL     OW 9382   1.409   3.735   1.388
 2828SOL    HW1 9383   1.469   3.815   1.399
 2828SOL    HW2 9384   1.428   3.691   1.301
 2829SOL     OW 9385   3.696   3.450   1.939
 2829SOL    HW1 9386   3.666   3.358   1.965
 2829SOL    HW2 9387   3.713   3.453   1.841
 2830SOL     OW 9388   2.915   5.758   4.963
 2830SOL    HW1 9389   2.876   5.850   4.957
 2830SOL    HW2 9390   2.844   5.690   4.943
 2831SOL     OW 9391   6.848   1.691   1.550
 2831SOL    HW1 9392   6.909   1.615   1.572
 2831SOL    HW2 9393   6.786   1.707   1.626
 2832SOL     OW 9394   0.730   3.815   2.579
 2832SOL    HW1 9395   0.765   3.812   2.673
 2832SOL    HW2 9396   0.706   3.722   2.550
 2833SOL     OW 9397   0.384   2.211   2.487
 2833SOL    HW1 9398   0.406   2.124   2.531
 2833SOL    HW2 9399   0.389   2.285   2.555
 2834SOL     OW 9400   3.805   0.056   3.826
 2834SOL    HW1 9401   3.843   0.148   3.819
 2834SOL    HW2 9402   3.779   0.038   3.921
 2835SOL     OW 9403   6.733   0.525   6.773
 2835SOL    HW1 9404   6.748   0.620   6.744
 2835SOL    HW2 9405   6.639   0.498   6.752
 2836SOL     OW 9406   3.407   5.519   2.957
 2836SOL    HW1 9407   3.430   5.612   2.986
 2836SOL    HW2 9408   3.343   5.523   2.880
 2837SOL     OW 9409   5.132   4.230   1.854
 2837SOL    HW1 9410   5.143   4.289   1.934
 2837SOL    HW2 9411   5.106   4.138   1.884
 2838SOL     OW 9412   6.807   4.017   6.084
 2838SOL    HW1 9413   6.730   3.985   6.028
 2838SOL    HW2 9414   6.788   4.109   6.118
 2839SOL     OW 9415   5.938   3.285   5.354
 2839SOL    HW1 9416   5.908   3.363   5.409
 2839SOL    HW2 9417   5.976   3.318   5.268
 2840SOL     OW 9418   6.256   6.313   4.561
 2840SOL    HW1 9419   6.353   6.336   4.565
 2840SOL    HW2 9420   6.209   6.351   4.641
 2841SOL     OW 9421   5.736   4.106   2.480
 2841SOL    HW1 9422   5.699   4.177   2.540
 2841SOL    HW2 9423   5.797   4.148   2.413
 2842SOL     OW 9424   0.777   6.803   3.433
 2842SOL    HW1 9425   0.759   6.902   3.431
 2842SOL    HW2 9426   0.872   6.787   3.457
 2843SOL     OW 9427   2.231   2.744   3.342
 2843SOL    HW1 9428   2.315   2.737   3.395
 2843SOL    HW2 9429   2.210   2.841   3.326
 2844SOL     OW 9430   5.267   3.394   0.594
 2844SOL    HW1 9431   5.316   3.440   0.669
 2844SOL    HW2 9432   5.191   3.451   0.564
 2845SOL     OW 9433   2.828   1.692   1.520
 2845SOL    HW1 9434   2.844   1.783   1.484
 2845SOL    HW2 9435   2.734   1.664   1.500
 2846SOL     OW 9436   6.071   7.008   6.910
 2846SOL    HW1 9437   6.165   0.018   6.922
 2846SOL    HW2 9438   6.023   7.010   6.997
 2847SOL     OW 9439   4.481   5.259   0.805
 2847SOL    HW1 9440   4.501   5.173   0.853
 2847SOL    HW2 9441   4.392   5.251   0.760
 2848SOL     OW 9442   0.425   4.149   6.141
 2848SOL    HW1 9443   0.492   4.101   6.197
 2848SOL    HW2 9444   0.467   4.232   6.103
 2849SOL     OW 9445   5.206   1.041   1.419
 2849SOL    HW1 9446   5.258   0.967   1.461
 2849SOL    HW2 9447   5.186   1.111   1.487
 2850SOL     OW 9448   1.032   0.447   2.020
 2850SOL    HW1 9449   0.976   0.365   2.035
 2850SOL    HW2 9450   1.127   0.420   2.007
 2851SOL     OW 9451   3.417   2.870   1.466
 2851SOL    HW1 9452   3.358   2.926   1.408
 2851SOL    HW2 9453   3.360   2.814   1.527
 2852SOL     OW 9454   0.464   5.559   5.601
 2852SOL    HW1 9455   0.489   5.646   5.558
 2852SOL    HW2 9456   0.520   5.544   5.683
 2853SOL     OW 9457   0.494   4.289   5.390
 2853SOL    HW1 9458   0.400   4.255   5.380
 2853SOL    HW2 9459   0.524   4.329   5.303
 2854SOL     OW 9460   2.747   0.478   6.206
 2854SOL    HW1 9461   2.791   0.462   6.294
 2854SOL    HW2 9462   2.769   0.570   6.174
 2855SOL     OW 9463   2.431   1.411   4.426
 2855SOL    HW1 9464   2.457   1.390   4.332
 2855SOL    HW2 9465   2.333   1.435   4.428
 2856SOL     OW 9466   0.336   5.824   4.420
 2856SOL    HW1 9467   0.333   5.915   4.461
 2856SOL    HW2 9468   0.257   5.771   4.452
 2857SOL     OW 9469   6.659   4.416   1.101
 2857SOL    HW1 9470   6.572   4.450   1.066
 2857SOL    HW2 9471   6.734   4.447   1.041
 2858SOL     OW 9472   5.177   4.303   2.416
 2858SOL    HW1 9473   5.139   4.322   2.325
 2858SOL    HW2 9474   5.142   4.216   2.449
 2859SOL     OW 9475   6.001   4.791   1.652
 2859SOL    HW1 9476   5.922   4.730   1.660
 2859SOL    HW2 9477   6.045   4.800   1.741
 2860SOL     OW 9478   1.283   0.320   2.859
 2860SOL    HW1 9479   1.270   0.222   2.846
 2860SOL    HW2 9480   1.229   0.370   2.791
 2861SOL     OW 9481   5.027   4.275   5.908
 2861SOL    HW1 9482   5.026   4.344   5.981
 2861SOL    HW2 9483   4.945   4.219   5.914
 2862SOL     OW 9484   4.951   1.585   0.888
 2862SOL    HW1 9485   4.957   1.670   0.836
 2862SOL    HW2 9486   4.855   1.563   0.905
 2863SOL     OW 9487   5.859   2.163   5.515
 2863SOL    HW1 9488   5.779   2.214   5.483
 2863SOL    HW2 9489   5.927   2.227   5.551
 2864SOL     OW 9490   3.650   4.174   0.882
 2864SOL    HW1 9491   3.677   4.088   0.924
 2864SOL    HW2 9492   3.624   4.159   0.787
 2865SOL     OW 9493   5.619   5.203   5.340
 2865SOL    HW1 9494   5.674   5.283   5.318
 2865SOL    HW2 9495   5.674   5.138   5.393
 2866SOL     OW 9496   3.720   4.704   0.500
 2866SOL    HW1 9497   3.751   4.633   0.563
 2866SOL    HW2 9498   3.705   4.789   0.551
 2867SOL     OW 9499   5.938   6.344   3.243
 2867SOL    HW1 9500   5.948   6.412   3.315
 2867SOL    HW2 9501   6.011   6.356   3.175
 2868SOL     OW 9502   0.183   0.213   5.895
 2868SOL    HW1 9503   0.242   0.199   5.975
 2868SOL    HW2 9504   0.232   0.267   5.827
 2869SOL     OW 9505   6.281   4.488   4.155
 2869SOL    HW1 9506   6.207   4.445   4.207
 2869SOL    HW2 9507   6.301   4.578   4.194
 2870SOL     OW 9508   6.989   2.165   1.840
 2870SOL    HW1 9509   6.992   2.065   1.831
 2870SOL    HW2 9510   0.061   2.201   1.836
 2871SOL     OW 9511   5.167   1.463   2.955
 2871SOL    HW1 9512   5.151   1.487   3.051
 2871SOL    HW2 9513   5.079   1.445   2.910
 2872SOL     OW 9514   2.439   2.163   2.688
 2872SOL    HW1 9515   2.370   2.204   2.629
 2872SOL    HW2 9516   2.400   2.149   2.779
 2873SOL     OW 9517   1.245   7.003   1.408
 2873SOL    HW1 9518   1.211   6.966   1.495
 2873SOL    HW2 9519   1.328   6.954   1.382
 2874SOL     OW 9520   2.059   1.676   3.298
 2874SOL    HW1 9521   2.026   1.770   3.309
 2874SOL    HW2 9522   2.145   1.676   3.247
 2875SOL     OW 9523   2.533   6.891   3.128
 2875SOL    HW1 9524   2.607   6.828   3.104
 2875SOL    HW2 9525   2.445   6.848   3.106
 2876SOL     OW 9526   1.497   6.088   1.003
 2876SOL    HW1 9527   1.439   6.147   1.059
 2876SOL    HW2 9528   1.474   5.992   1.020
 2877SOL     OW 9529   1.601   2.695   5.289
 2877SOL    HW1 9530   1.650   2.735   5.212
 2877SOL    HW2 9531   1.596   2.762   5.363
 2878SOL     OW 9532   4.049   3.182   4.513
 2878SOL    HW1 9533   4.087   3.192   4.421
 2878SOL    HW2 9534   4.087   3.252   4.573
 2879SOL     OW 9535   5.246   4.586   0.106
 2879SOL    HW1 9536   5.275   4.574   0.011
 2879SOL    HW2 9537   5.312   4.644   0.154
 2880SOL     OW 9538   1.884   1.401   3.689
 2880SOL    HW1 9539   1.945   1.447   3.624
 2880SOL    HW2 9540   1.794   1.389   3.649
 2881SOL     OW 9541   5.307   4.791   0.536
 2881SOL    HW1 9542   5.213   4.781   0.503
 2881SOL    HW2 9543   5.325   4.887   0.556
 2882SOL     OW 9544   4.552   6.687   0.032
 2882SOL    HW1 9545   4.575   6.784   0.042
 2882SOL    HW2 9546   4.487   6.676   6.977
 2883SOL     OW 9547   5.634   6.637   3.830
 2883SOL    HW1 9548   5.584   6.654   3.745
 2883SOL    HW2 9549   5.580   6.671   3.908
 2884SOL     OW 9550   6.167   5.629   3.692
 2884SOL    HW1 9551   6.143   5.677   3.776
 2884SOL    HW2 9552   6.106   5.657   3.618
 2885SOL     OW 9553   1.539   2.704   3.881
 2885SOL    HW1 9554   1.454   2.756   3.875
 2885SOL    HW2 9555   1.612   2.755   3.835
 2886SOL     OW 9556   2.276   4.752   5.487
 2886SOL    HW1 9557   2.241   4.742   5.580
 2886SOL    HW2 9558   2.375   4.765   5.490
 2887SOL     OW 9559   6.910   5.761   3.072
 2887SOL    HW1 9560   6.919   5.861   3.067
 2887SOL    HW2 9561   6.918   5.723   2.980
 2888SOL     OW 9562   4.939   0.056   6.172
 2888SOL    HW1 9563   4.895   0.024   6.089
 2888SOL    HW2 9564   4.889   0.021   6.252
 2889SOL     OW 9565   4.639   6.283   4.383
 2889SOL    HW1 9566   4.589   6.366   4.409
 2889SOL    HW2 9567   4.614   6.209   4.445
 2890SOL     OW 9568   0.995   2.441   0.423
 2890SOL    HW1 9569   1.029   2.355   0.462
 2890SOL    HW2 9570   0.912   2.469   0.471
 2891SOL     OW 9571   0.497   1.859   5.375
 2891SOL    HW1 9572   0.416   1.822   5.330
 2891SOL    HW2 9573   0.577   1.802   5.353
 2892SOL     OW 9574   5.294   4.507   1.656
 2892SOL    HW1 9575   5.368   4.479   1.717
 2892SOL    HW2 9576   5.209   4.518   1.708
 2893SOL     OW 9577   6.900   5.489   5.051
 2893SOL    HW1 9578   6.940   5.450   5.133
 2893SOL    HW2 9579   6.951   5.458   4.971
 2894SOL     OW 9580   2.445   5.287   1.425
 2894SOL    HW1 9581   2.499   5.370   1.438
 2894SOL    HW2 9582   2.496   5.223   1.368
 2895SOL     OW 9583   3.881   6.934   5.724
 2895SOL    HW1 9584   3.910   0.006   5.747
 2895SOL    HW2 9585   3.874   6.926   5.624
 2896SOL     OW 9586   6.119   0.475   4.856
 2896SOL    HW1 9587   6.091   0.570   4.862
 2896SOL    HW2 9588   6.214   0.466   4.887
 2897SOL     OW 9589   3.545   5.219   3.282
 2897SOL    HW1 9590   3.626   5.265   3.244
 2897SOL    HW2 9591   3.464   5.273   3.264
 2898SOL     OW 9592   4.841   2.438   2.322
 2898SOL    HW1 9593   4.829   2.346   2.358
 2898SOL    HW2 9594   4.932   2.447   2.282
 2899SOL     OW 9595   6.827   3.567   0.827
 2899SOL    HW1 9596   6.794   3.561   0.921
 2899SOL    HW2 9597   6.926   3.553   0.825
 2900SOL     OW 9598   2.208   2.598   6.114
 2900SOL    HW1 9599   2.159   2.614   6.029
 2900SOL    HW2 9600   2.303   2.628   6.104
 2901SOL     OW 9601   0.860   3.866   2.805
 2901SOL    HW1 9602   0.957   3.843   2.810
 2901SOL    HW2 9603   0.806   3.795   2.851
 2902SOL     OW 9604   5.866   5.200   3.715
 2902SOL    HW1 9605   5.789   5.214   3.653
 2902SOL    HW2 9606   5.935   5.271   3.699
 2903SOL     OW 9607   6.314   4.755   0.510
 2903SOL    HW1 9608   6.239   4.691   0.529
 2903SOL    HW2 9609   6.349   4.739   0.418
 2904SOL     OW 9610   2.498   4.572   4.918
 2904SOL    HW1 9611   2.588   4.531   4.935
 2904SOL    HW2 9612   2.454   4.524   4.842
 2905SOL     OW 9613   1.932   5.405   1.067
 2905SOL    HW1 9614   1.908   5.379   1.160
 2905SOL    HW2 9615   1.996   5.338   1.029
 2906SOL     OW 9616   6.287   6.142   5.170
 2906SOL    HW1 9617   6.225   6.210   5.131
 2906SOL    HW2 9618   6.282   6.144   5.270
 2907SOL     OW 9619   0.703   1.038   5.126
 2907SOL    HW1 9620   0.685   1.095   5.045
 2907SOL    HW2 9621   0.802   1.033   5.141
 2908SOL     OW 9622   4.086   0.069   3.544
 2908SOL    HW1 9623   4.098   0.030   3.635
 2908SOL    HW2 9624   3.992   0.055   3.514
 2909SOL     OW 9625   0.032   6.709   1.570
 2909SOL    HW1 9626   7.020   6.697   1.476
 2909SOL    HW2 9627   0.070   6.623   1.603
 2910SOL     OW 9628   0.734   1.227   4.217
 2910SOL    HW1 9629   0.696   1.274   4.296
 2910SOL    HW2 9630   0.782   1.144   4.246
 2911SOL     OW 9631   0.269   4.354   5.701
 2911SOL    HW1 9632   0.366   4.378   5.706
 2911SOL    HW2 9633   0.254   4.266   5.746
 2912SOL     OW 9634   1.040   1.025   1.379
 2912SOL    HW1 9635   1.097   1.061   1.452
 2912SOL    HW2 9636   1.094   0.965   1.320
 2913SOL     OW 9637   1.894   6.379   3.137
 2913SOL    HW1 9638   1.970   6.367   3.201
 2913SOL    HW2 9639   1.842   6.294   3.131
 2914SOL     OW 9640   3.836   5.222   1.202
 2914SOL    HW1 9641   3.833   5.122   1.210
 2914SOL    HW2 9642   3.814   5.263   1.291
 2915SOL     OW 9643   2.659   0.128   3.771
 2915SOL    HW1 9644   2.702   0.047   3.730
 2915SOL    HW2 9645   2.727   0.179   3.823
 2916SOL     OW 9646   1.307   5.576   0.166
 2916SOL    HW1 9647   1.309   5.674   0.143
 2916SOL    HW2 9648   1.380   5.556   0.230
 2917SOL     OW 9649   2.714   6.821   2.771
 2917SOL    HW1 9650   2.615   6.833   2.768
 2917SOL    HW2 9651   2.754   6.842   2.682
 2918SOL     OW 9652   5.549   2.502   1.701
 2918SOL    HW1 9653   5.534   2.596   1.732
 2918SOL    HW2 9654   5.633   2.467   1.741
 2919SOL     OW 9655   6.989   6.080   4.790
 2919SOL    HW1 9656   6.947   6.170   4.789
 2919SOL    HW2 9657   6.955   6.027   4.868
 2920SOL     OW 9658   2.649   2.219   1.581
 2920SOL    HW1 9659   2.650   2.288   1.509
 2920SOL    HW2 9660   2.741   2.212   1.621
 2921SOL     OW 9661   1.580   6.002   3.590
 2921SOL    HW1 9662   1.485   6.021   3.613
 2921SOL    HW2 9663   1.634   6.086   3.601
 2922SOL     OW 9664   4.155   5.179   4.180
 2922SOL    HW1 9665   4.229   5.115   4.158
 2922SOL    HW2 9666   4.111   5.209   4.095
 2923SOL     OW 9667   0.515   5.689   4.800
 2923SOL    HW1 9668   0.423   5.709   4.834
 2923SOL    HW2 9669   0.582   5.748   4.846
 2924SOL     OW 9670   5.588   1.935   6.298
 2924SOL    HW1 9671   5.665   1.904   6.353
 2924SOL    HW2 9672   5.616   1.942   6.202
 2925SOL     OW 9673   5.834   6.608   4.795
 2925SOL    HW1 9674   5.796   6.591   4.887
 2925SOL    HW2 9675   5.796   6.541   4.731
 2926SOL     OW 9676   6.438   2.237   3.973
 2926SOL    HW1 9677   6.348   2.196   3.991
 2926SOL    HW2 9678   6.458   2.305   4.043
 2927SOL     OW 9679   1.244   2.120   2.194
 2927SOL    HW1 9680   1.281   2.204   2.155
 2927SOL    HW2 9681   1.267   2.043   2.135
 2928SOL     OW 9682   5.862   3.073   0.215
 2928SOL    HW1 9683   5.923   3.050   0.139
 2928SOL    HW2 9684   5.894   3.156   0.260
 2929SOL     OW 9685   1.849   2.255   4.111
 2929SOL    HW1 9686   1.888   2.347   4.103
 2929SOL    HW2 9687   1.899   2.204   4.181
 2930SOL     OW 9688   0.336   3.886   4.172
 2930SOL    HW1 9689   0.350   3.966   4.114
 2930SOL    HW2 9690   0.409   3.882   4.240
 2931SOL     OW 9691   5.608   4.747   5.832
 2931SOL    HW1 9692   5.613   4.775   5.928
 2931SOL    HW2 9693   5.565   4.820   5.778
 2932SOL     OW 9694   5.952   5.065   1.507
 2932SOL    HW1 9695   5.981   4.990   1.566
 2932SOL    HW2 9696   6.032   5.105   1.461
 2933SOL     OW 9697   1.056   6.958   0.310
 2933SOL    HW1 9698   1.146   6.986   0.277
 2933SOL    HW2 9699   0.989   0.007   0.288
 2934SOL     OW 9700   4.507   5.253   1.754
 2934SOL    HW1 9701   4.553   5.193   1.820
 2934SOL    HW2 9702   4.451   5.197   1.693
 2935SOL     OW 9703   0.856   2.650   5.768
 2935SOL    HW1 9704   0.768   2.696   5.783
 2935SOL    HW2 9705   0.928   2.719   5.757
 2936SOL     OW 9706   4.817   7.004   2.182
 2936SOL    HW1 9707   4.865   0.069   2.163
 2936SOL    HW2 9708   4.762   6.979   2.102
 2937SOL     OW 9709   5.692   4.067   3.033
 2937SOL    HW1 9710   5.631   4.145   3.050
 2937SOL    HW2 9711   5.787   4.096   3.041
 2938SOL     OW 9712   0.478   5.630   6.753
 2938SOL    HW1 9713   0.412   5.704   6.741
 2938SOL    HW2 9714   0.558   5.647   6.695
 2939SOL     OW 9715   0.197   5.844   1.339
 2939SOL    HW1 9716   0.140   5.923   1.317
 2939SOL    HW2 9717   0.202   5.833   1.439
 2940SOL     OW 9718   4.742   6.425   3.758
 2940SOL    HW1 9719   4.737   6.357   3.831
 2940SOL    HW2 9720   4.832   6.421   3.714
 2941SOL     OW 9721   2.329   4.735   2.781
 2941SOL    HW1 9722   2.336   4.640   2.752
 2941SOL    HW2 9723   2.276   4.787   2.713
 2942SOL     OW 9724   3.441   2.048   1.796
 2942SOL    HW1 9725   3.537   2.028   1.815
 2942SOL    HW2 9726   3.407   1.985   1.726
 2943SOL     OW 9727   5.971   3.799   3.199
 2943SOL    HW1 9728   6.027   3.817   3.118
 2943SOL    HW2 9729   6.027   3.753   3.268
 2944SOL     OW 9730   2.035   5.948   2.282
 2944SOL    HW1 9731   2.073   5.946   2.374
 2944SOL    HW2 9732   1.956   6.009   2.279
 2945SOL     OW 9733   5.225   3.705   1.529
 2945SOL    HW1 9734   5.187   3.783   1.580
 2945SOL    HW2 9735   5.283   3.650   1.590
 2946SOL     OW 9736   3.718   2.894   4.219
 2946SOL    HW1 9737   3.648   2.921   4.153
 2946SOL    HW2 9738   3.788   2.839   4.174
 2947SOL     OW 9739   6.054   5.366   0.978
 2947SOL    HW1 9740   5.993   5.445   0.978
 2947SOL    HW2 9741   6.049   5.321   1.067
 2948SOL     OW 9742   0.109   3.771   1.843
 2948SOL    HW1 9743   0.137   3.724   1.927
 2948SOL    HW2 9744   0.176   3.842   1.821
 2949SOL     OW 9745   2.215   6.207   0.503
 2949SOL    HW1 9746   2.270   6.252   0.573
 2949SOL    HW2 9747   2.197   6.272   0.428
 2950SOL     OW 9748   6.158   5.901   2.467
 2950SOL    HW1 9749   6.244   5.920   2.515
 2950SOL    HW2 9750   6.160   5.807   2.431
 2951SOL     OW 9751   0.947   1.799   1.374
 2951SOL    HW1 9752   1.003   1.876   1.403
 2951SOL    HW2 9753   0.852   1.815   1.401
 2952SOL     OW 9754   0.065   1.896   5.313
 2952SOL    HW1 9755   0.019   1.975   5.274
 2952SOL    HW2 9756   0.084   1.913   5.410
 2953SOL     OW 9757   1.538   5.268   3.104
 2953SOL    HW1 9758   1.482   5.235   3.180
 2953SOL    HW2 9759   1.479   5.310   3.035
 2954SOL     OW 9760   0.570   4.018   6.350
 2954SOL    HW1 9761   0.609   4.090   6.407
 2954SOL    HW2 9762   0.541   3.941   6.407
 2955SOL     OW 9763   1.427   4.508   6.148
 2955SOL    HW1 9764   1.511   4.462   6.175
 2955SOL    HW2 9765   1.351   4.443   6.150
 2956SOL     OW 9766   5.243   4.657   4.390
 2956SOL    HW1 9767   5.258   4.560   4.368
 2956SOL    HW2 9768   5.144   4.674   4.395
 2957SOL     OW 9769   2.336   5.656   1.579
 2957SOL    HW1 9770   2.382   5.744   1.574
 2957SOL    HW2 9771   2.347   5.618   1.671
 2958SOL     OW 9772   1.545   3.881   2.371
 2958SOL    HW1 9773   1.588   3.958   2.419
 2958SOL    HW2 9774   1.450   3.903   2.352
 2959SOL     OW 9775   0.172   3.549   3.851
 2959SOL    HW1 9776   0.161   3.549   3.950
 2959SOL    HW2 9777   0.181   3.644   3.819
 2960SOL     OW 9778   5.128   6.776   1.309
 2960SOL    HW1 9779   5.072   6.857   1.321
 2960SOL    HW2 9780   5.099   6.706   1.374
 2961SOL     OW 9781   5.807   2.435   1.787
 2961SOL    HW1 9782   5.856   2.415   1.702
 2961SOL    HW2 9783   5.873   2.461   1.858
 2962SOL     OW 9784   6.838   0.133   3.775
 2962SOL    HW1 9785   6.900   0.160   3.701
 2962SOL    HW2 9786   6.744   0.153   3.748
 2963SOL     OW 9787   1.741   0.987   5.068
 2963SOL    HW1 9788   1.684   0.932   5.008
 2963SOL    HW2 9789   1.837   0.980   5.039
 2964SOL     OW 9790   1.596   0.703   6.581
 2964SOL    HW1 9791   1.578   0.646   6.661
 2964SOL    HW2 9792   1.663   0.658   6.522
 2965SOL     OW 9793   6.187   0.421   6.338
 2965SOL    HW1 9794   6.240   0.441   6.256
 2965SOL    HW2 9795   6.227   0.343   6.385
 2966SOL     OW 9796   2.798   5.468   2.287
 2966SOL    HW1 9797   2.717   5.519   2.258
 2966SOL    HW2 9798   2.870   5.533   2.312
 2967SOL     OW 9799   5.693   6.802   5.261
 2967SOL    HW1 9800   5.751   6.865   5.209
 2967SOL    HW2 9801   5.717   6.806   5.358
 2968SOL     OW 9802   0.981   3.733   0.884
 2968SOL    HW1 9803   1.021   3.667   0.947
 2968SOL    HW2 9804   0.882   3.740   0.900
 2969SOL     OW 9805   4.606   2.797   4.939
 2969SOL    HW1 9806   4.629   2.705   4.970
 2969SOL    HW2 9807   4.517   2.795   4.892
 2970SOL     OW 9808   2.652   2.650   5.679
 2970SOL    HW1 9809   2.712   2.677   5.604
 2970SOL    HW2 9810   2.633   2.552   5.673
 2971SOL     OW 9811   4.725   3.204   6.922
 2971SOL    HW1 9812   4.815   3.192   6.879
 2971SOL    HW2 9813   4.737   3.238   7.015
 2972SOL     OW 9814   6.937   5.499   6.110
 2972SOL    HW1 9815   7.005   5.430   6.083
 2972SOL    HW2 9816   6.918   5.559   6.032
 2973SOL     OW 9817   5.236   0.974   4.548
 2973SOL    HW1 9818   5.194   1.063   4.569
 2973SOL    HW2 9819   5.223   0.953   4.451
 2974SOL     OW 9820   4.880   6.829   1.870
 2974SOL    HW1 9821   4.908   6.749   1.924
 2974SOL    HW2 9822   4.814   6.801   1.800
 2975SOL     OW 9823   6.216   3.533   4.775
 2975SOL    HW1 9824   6.244   3.591   4.699
 2975SOL    HW2 9825   6.130   3.566   4.813
 2976SOL     OW 9826   3.418   1.354   1.443
 2976SOL    HW1 9827   3.361   1.317   1.517
 2976SOL    HW2 9828   3.416   1.290   1.366
 2977SOL     OW 9829   1.416   0.602   1.693
 2977SOL    HW1 9830   1.321   0.629   1.676
 2977SOL    HW2 9831   1.422   0.502   1.697
 2978SOL     OW 9832   4.064   5.458   6.635
 2978SOL    HW1 9833   4.073   5.553   6.665
 2978SOL    HW2 9834   4.017   5.405   6.705
 2979SOL     OW 9835   3.136   0.858   4.852
 2979SOL    HW1 9836   3.218   0.913   4.843
 2979SOL    HW2 9837   3.062   0.899   4.798
 2980SOL     OW 9838   3.315   2.968   4.291
 2980SOL    HW1 9839   3.346   3.062   4.276
 2980SOL    HW2 9840   3.240   2.969   4.358
 2981SOL     OW 9841   2.305   1.523   1.356
 2981SOL    HW1 9842   2.253   1.575   1.424
 2981SOL    HW2 9843   2.301   1.425   1.378
 2982SOL     OW 9844   1.965   0.785   1.210
 2982SOL    HW1 9845   1.943   0.835   1.294
 2982SOL    HW2 9846   1.968   0.848   1.133
 2983SOL     OW 9847   6.457   3.353   5.774
 2983SOL    HW1 9848   6.555   3.368   5.765
 2983SOL    HW2 9849   6.415   3.434   5.816
 2984SOL     OW 9850   0.474   6.046   1.459
 2984SOL    HW1 9851   0.477   5.970   1.394
 2984SOL    HW2 9852   0.388   6.043   1.510
 2985SOL     OW 9853   5.965   0.504   6.831
 2985SOL    HW1 9854   5.963   0.596   6.791
 2985SOL    HW2 9855   5.878   0.458   6.814
 2986SOL     OW 9856   3.624   3.191   2.006
 2986SOL    HW1 9857   3.650   3.096   1.986
 2986SOL    HW2 9858   3.573   3.194   2.092
 2987SOL     OW 9859   2.566   6.267   4.593
 2987SOL    HW1 9860   2.665   6.281   4.594
 2987SOL    HW2 9861   2.541   6.215   4.511
 2988SOL     OW 9862   6.484   1.847   5.615
 2988SOL    HW1 9863   6.418   1.795   5.670
 2988SOL    HW2 9864   6.434   1.901   5.547
 2989SOL     OW 9865   5.622   3.441   4.558
 2989SOL    HW1 9866   5.542   3.470   4.611
 2989SOL    HW2 9867   5.705   3.460   4.611
 2990SOL     OW 9868   5.246   2.088   5.031
 2990SOL    HW1 9869   5.325   2.112   5.086
 2990SOL    HW2 9870   5.180   2.164   5.032
 2991SOL     OW 9871   0.279   3.372   0.422
 2991SOL    HW1 9872   0.199   3.423   0.453
 2991SOL    HW2 9873   0.335   3.430   0.364
 2992SOL     OW 9874   0.666   3.691   4.651
 2992SOL    HW1 9875   0.623   3.605   4.680
 2992SOL    HW2 9876   0.714   3.677   4.564
 2993SOL     OW 9877   3.293   4.626   1.157
 2993SOL    HW1 9878   3.280   4.534   1.195
 2993SOL    HW2 9879   3.387   4.656   1.176
 2994SOL     OW 9880   2.923   5.316   4.588
 2994SOL    HW1 9881   2.852   5.245   4.581
 2994SOL    HW2 9882   2.997   5.282   4.646
 2995SOL     OW 9883   4.553   0.947   1.479
 2995SOL    HW1 9884   4.631   0.981   1.532
 2995SOL    HW2 9885   4.563   0.849   1.465
 2996SOL     OW 9886   6.469   0.849   3.672
 2996SOL    HW1 9887   6.537   0.850   3.745
 2996SOL    HW2 9888   6.452   0.755   3.644
 2997SOL     OW 9889   5.007   6.125   4.304
 2997SOL    HW1 9890   4.960   6.120   4.216
 2997SOL    HW2 9891   5.066   6.206   4.305
 2998SOL     OW 9892   2.613   1.075   1.715
 2998SOL    HW1 9893   2.547   1.150   1.705
 2998SOL    HW2 9894   2.571   1.001   1.768
 2999SOL     OW 9895   1.843   4.245   1.109
 2999SOL    HW1 9896   1.901   4.167   1.135
 2999SOL    HW2 9897   1.808   4.230   1.017
 3000SOL     OW 9898   2.139   4.287   5.381
 3000SOL    HW1 9899   2.125   4.237   5.466
 3000SOL    HW2 9900   2.219   4.250   5.333
 3001SOL     OW 9901   4.141   0.842   6.229
 3001SOL    HW1 9902   4.133   0.765   6.166
 3001SOL    HW2 9903   4.067   0.838   6.297
 3002SOL     OW 9904   1.855   1.931   1.885
 3002SOL    HW1 9905   1.954   1.929   1.888
 3002SOL    HW2 9906   1.818   1.873   1.958
 3003SOL     OW 9907   1.368   6.115   0.747
 3003SOL    HW1 9908   1.403   6.120   0.841
 3003SOL    HW2 9909   1.442   6.088   0.685
 3004SOL     OW 9910   2.803   6.936   3.695
 3004SOL    HW1 9911   2.889   6.885   3.699
 3004SOL    HW2 9912   2.753   6.912   3.612
 3005SOL     OW 9913   2.198   1.780   0.848
 3005SOL    HW1 9914   2.257   1.783   0.768
 3005SOL    HW2 9915   2.237   1.837   0.920
 3006SOL     OW 9916   5.359   1.270   5.674
 3006SOL    HW1 9917   5.412   1.219   5.742
 3006SOL    HW2 9918   5.398   1.253   5.583
 3007SOL     OW 9919   6.347   5.475   6.317
 3007SOL    HW1 9920   6.292   5.544   6.363
 3007SOL    HW2 9921   6.296   5.389   6.314
 3008SOL     OW 9922   4.899   3.851   5.485
 3008SOL    HW1 9923   4.824   3.853   5.419
 3008SOL    HW2 9924   4.959   3.774   5.465
 3009SOL     OW 9925   5.538   3.242   2.228
 3009SOL    HW1 9926   5.615   3.296   2.194
 3009SOL    HW2 9927   5.467   3.303   2.264
 3010SOL     OW 9928   4.681   5.003   1.982
 3010SOL    HW1 9929   4.625   5.043   2.054
 3010SOL    HW2 9930   4.623   4.946   1.923
 3011SOL     OW 9931   6.350   0.226   0.320
 3011SOL    HW1 9932   6.350   0.126   0.324
 3011SOL    HW2 9933   6.256   0.259   0.332
 3012SOL     OW 9934   1.970   1.657   5.031
 3012SOL    HW1 9935   1.991   1.666   5.128
 3012SOL    HW2 9936   1.898   1.722   5.007
 3013SOL     OW 9937   0.791   4.673   5.660
 3013SOL    HW1 9938   0.704   4.721   5.674
 3013SOL    HW2 9939   0.849   4.727   5.600
 3014SOL     OW 9940   4.979   0.315   6.505
 3014SOL    HW1 9941   4.919   0.234   6.507
 3014SOL    HW2 9942   4.925   0.397   6.523
 3015SOL     OW 9943   2.116   0.613   5.923
 3015SOL    HW1 9944   2.203   0.637   5.880
 3015SOL    HW2 9945   2.108   0.661   6.011
 3016SOL     OW 9946   1.959   0.372   4.087
 3016SOL    HW1 9947   1.999   0.464   4.080
 3016SOL    HW2 9948   1.983   0.332   4.176
 3017SOL     OW 9949   1.365   5.786   0.548
 3017SOL    HW1 9950   1.341   5.851   0.476
 3017SOL    HW2 9951   1.281   5.753   0.591
 3018SOL     OW 9952   3.417   1.807   1.651
 3018SOL    HW1 9953   3.339   1.781   1.594
 3018SOL    HW2 9954   3.440   1.731   1.712
 3019SOL     OW 9955   1.615   0.025   5.981
 3019SOL    HW1 9956   1.659   0.083   5.913
 3019SOL    HW2 9957   1.610   0.075   6.068
 3020SOL     OW 9958   5.208   4.951   6.975
 3020SOL    HW1 9959   5.296   4.998   6.987
 3020SOL    HW2 9960   5.168   4.930   0.043
 3021SOL     OW 9961   4.605   0.629   4.567
 3021SOL    HW1 9962   4.611   0.693   4.490
 3021SOL    HW2 9963   4.674   0.652   4.635
 3022SOL     OW 9964   4.140   5.959   3.826
 3022SOL    HW1 9965   4.089   6.041   3.802
 3022SOL    HW2 9966   4.119   5.932   3.920
 3023SOL     OW 9967   5.967   4.550   4.927
 3023SOL    HW1 9968   5.886   4.555   4.868
 3023SOL    HW2 9969   6.013   4.462   4.912
 3024SOL     OW 9970   0.125   0.805   0.179
 3024SOL    HW1 9971   0.050   0.807   0.113
 3024SOL    HW2 9972   0.133   0.895   0.223
 3025SOL     OW 9973   4.286   5.462   0.667
 3025SOL    HW1 9974   4.386   5.473   0.671
 3025SOL    HW2 9975   4.247   5.533   0.609
 3026SOL     OW 9976   0.535   0.537   1.961
 3026SOL    HW1 9977   0.446   0.583   1.958
 3026SOL    HW2 9978   0.607   0.604   1.947
 3027SOL     OW 9979   3.930   6.805   0.511
 3027SOL    HW1 9980   3.932   6.854   0.424
 3027SOL    HW2 9981   3.991   6.726   0.508
 3028SOL     OW 9982   3.295   3.462   4.659
 3028SOL    HW1 9983   3.226   3.488   4.592
 3028SOL    HW2 9984   3.386   3.484   4.623
 3029SOL     OW 9985   6.577   3.787   4.678
 3029SOL    HW1 9986   6.634   3.705   4.681
 3029SOL    HW2 9987   6.532   3.800   4.766
 3030SOL     OW 9988   1.623   2.864   6.514
 3030SOL    HW1 9989   1.580   2.848   6.603
 3030SOL    HW2 9990   1.630   2.778   6.464
 3031SOL     OW 9991   0.843   5.216   0.849
 3031SOL    HW1 9992   0.857   5.295   0.790
 3031SOL    HW2 9993   0.763   5.232   0.908
 3032SOL     OW 9994   2.616   6.584   3.405
 3032SOL    HW1 9995   2.559   6.667   3.405
 3032SOL    HW2 9996   2.707   6.607   3.372
 3033SOL     OW 9997   1.434   1.875   5.881
 3033SOL    HW1 9998   1.450   1.953   5.942
 3033SOL    HW2 9999   1.350   1.828   5.908
 3034SOL     OW10000   5.285   3.058   2.956
 3034SOL    HW110001   5.326   3.148   2.964
 3034SOL    HW210002   5.357   2.988   2.955
 3035SOL     OW10003   0.294   3.519   0.030
 3035SOL    HW110004   0.271   3.589   6.983
 3035SOL    HW210005   0.221   3.451   0.034
 3036SOL     OW10006   3.463   2.779   6.021
 3036SOL    HW110007   3.389   2.809   5.961
 3036SOL    HW210008   3.427   2.717   6.090
 3037SOL     OW10009   1.334   5.365   6.640
 3037SOL    HW110010   1.287   5.450   6.665
 3037SOL    HW210011   1.295   5.329   6.556
 3038SOL     OW10012   6.109   5.272   6.388
 3038SOL    HW110013   6.114   5.311   6.479
 3038SOL    HW210014   6.047   5.193   6.388
 3039SOL     OW10015   5.851   3.979   5.939
 3039SOL    HW110016   5.868   3.893   5.892
 3039SOL    HW210017   5.808   4.044   5.877
 3040SOL     OW10018   4.682   5.973   5.927
 3040SOL    HW110019   4.673   6.007   5.833
 3040SOL    HW210020   4.708   6.048   5.987
 3041SOL     OW10021   0.985   4.594   5.824
 3041SOL    HW110022   0.896   4.621   5.787
 3041SOL    HW210023   1.058   4.625   5.762
 3042SOL     OW10024   0.182   5.162   3.732
 3042SOL    HW110025   0.136   5.220   3.800
 3042SOL    HW210026   0.202   5.073   3.772
 3043SOL     OW10027   2.791   4.894   1.407
 3043SOL    HW110028   2.839   4.937   1.484
 3043SOL    HW210029   2.810   4.796   1.407
 3044SOL     OW10030   3.795   3.247   4.615
 3044SOL    HW110031   3.876   3.190   4.601
 3044SOL    HW210032   3.771   3.247   4.712
 3045SOL     OW10033   5.492   1.535   2.353
 3045SOL    HW110034   5.586   1.550   2.385
 3045SOL    HW210035   5.454   1.456   2.401
 3046SOL     OW10036   5.878   6.686   1.731
 3046SOL    HW110037   5.907   6.724   1.818
 3046SOL    HW210038   5.801   6.624   1.745
 3047SOL     OW10039   6.470   1.318   4.516
 3047SOL    HW110040   6.555   1.265   4.518
 3047SOL    HW210041   6.393   1.256   4.504
 3048SOL     OW10042   4.487   4.807   1.540
 3048SOL    HW110043   4.497   4.713   1.572
 3048SOL    HW210044   4.565   4.832   1.483
 3049SOL     OW10045   1.011   1.862   2.404
 3049SOL    HW110046   1.014   1.959   2.431
 3049SOL    HW210047   0.916   1.835   2.387
 3050SOL     OW10048   3.301   2.082   6.758
 3050SOL    HW110049   3.365   2.158   6.767
 3050SOL    HW210050   3.346   2.007   6.710
 3051SOL     OW10051   2.390   5.328   5.531
 3051SOL    HW110052   2.363   5.331   5.628
 3051SOL    HW210053   2.411   5.420   5.500
 3052SOL     OW10054   7.020   6.475   3.883
 3052SOL    HW110055   0.036   6.527   3.805
 3052SOL    HW210056   6.922   6.462   3.871
 3053SOL     OW10057   0.638   4.076   6.736
 3053SOL    HW110058   0.727   4.083   6.692
 3053SOL    HW210059   0.581   4.154   6.709
 3054SOL     OW10060   5.294   0.381   3.113
 3054SOL    HW110061   5.363   0.310   3.122
 3054SOL    HW210062   5.334   0.470   3.138
 3055SOL     OW10063   5.719   6.438   0.479
 3055SOL    HW110064   5.804   6.390   0.461
 3055SOL    HW210065   5.732   6.502   0.555
 3056SOL     OW10066   3.988   1.456   6.388
 3056SOL    HW110067   4.038   1.537   6.358
 3056SOL    HW210068   3.905   1.447   6.333
 3057SOL     OW10069   5.232   3.703   3.201
 3057SOL    HW110070   5.158   3.687   3.268
 3057SOL    HW210071   5.240   3.624   3.141
 3058SOL     OW10072   0.245   5.500   5.940
 3058SOL    HW110073   0.330   5.473   5.986
 3058SOL    HW210074   0.177   5.428   5.950
 3059SOL     OW10075   1.512   2.082   1.990
 3059SOL    HW110076   1.452   2.157   1.963
 3059SOL    HW210077   1.458   1.999   2.004
 3060SOL     OW10078   5.519   4.189   3.624
 3060SOL    HW110079   5.495   4.101   3.663
 3060SOL    HW210080   5.556   4.176   3.532
 3061SOL     OW10081   5.615   6.843   3.542
 3061SOL    HW110082   5.668   6.818   3.461
 3061SOL    HW210083   5.529   6.791   3.543
 3062SOL     OW10084   3.823   5.314   1.484
 3062SOL    HW110085   3.896   5.294   1.549
 3062SOL    HW210086   3.735   5.282   1.520
 3063SOL     OW10087   6.694   4.694   1.687
 3063SOL    HW110088   6.701   4.599   1.656
 3063SOL    HW210089   6.661   4.696   1.782
 3064SOL     OW10090   4.965   2.231   6.549
 3064SOL    HW110091   4.898   2.293   6.589
 3064SOL    HW210092   4.991   2.264   6.458
 3065SOL     OW10093   5.682   1.114   6.494
 3065SOL    HW110094   5.688   1.206   6.533
 3065SOL    HW210095   5.646   1.051   6.563
 3066SOL     OW10096   5.255   0.239   5.294
 3066SOL    HW110097   5.321   0.223   5.367
 3066SOL    HW210098   5.203   0.322   5.315
 3067SOL     OW10099   1.277   2.265   4.962
 3067SOL    HW110100   1.333   2.196   5.008
 3067SOL    HW210101   1.191   2.276   5.012
 3068SOL     OW10102   6.516   0.357   0.512
 3068SOL    HW110103   6.602   0.322   0.475
 3068SOL    HW210104   6.443   0.346   0.444
 3069SOL     OW10105   5.372   6.228   3.922
 3069SOL    HW110106   5.338   6.321   3.905
 3069SOL    HW210107   5.295   6.168   3.943
 3070SOL     OW10108   2.321   0.909   1.352
 3070SOL    HW110109   2.235   0.954   1.377
 3070SOL    HW210110   2.389   0.979   1.327
 3071SOL     OW10111   5.900   4.579   5.268
 3071SOL    HW110112   5.834   4.576   5.193
 3071SOL    HW210113   5.961   4.657   5.256
 3072SOL     OW10114   1.912   6.690   6.044
 3072SOL    HW110115   1.830   6.668   5.991
 3072SOL    HW210116   1.887   6.751   6.119
 3073SOL     OW10117   0.044   5.627   1.809
 3073SOL    HW110118   0.110   5.696   1.836
 3073SOL    HW210119   0.053   5.547   1.869
 3074SOL     OW10120   3.457   2.619   1.589
 3074SOL    HW110121   3.499   2.661   1.509
 3074SOL    HW210122   3.521   2.555   1.631
 3075SOL     OW10123   4.037   4.931   1.464
 3075SOL    HW110124   4.016   4.868   1.539
 3075SOL    HW210125   3.961   4.935   1.401
 3076SOL     OW10126   1.044   1.387   4.551
 3076SOL    HW110127   1.064   1.464   4.612
 3076SOL    HW210128   1.129   1.351   4.514
 3077SOL     OW10129   6.347   3.635   1.674
 3077SOL    HW110130   6.386   3.568   1.610
 3077SOL    HW210131   6.409   3.647   1.751
 3078SOL     OW10132   0.087   3.269   1.799
 3078SOL    HW110133   0.046   3.357   1.825
 3078SOL    HW210134   0.017   3.197   1.806
 3079SOL     OW10135   2.225   4.264   4.523
 3079SOL    HW110136   2.131   4.298   4.521
 3079SOL    HW210137   2.272   4.293   4.440
 3080SOL     OW10138   4.413   5.053   1.344
 3080SOL    HW110139   4.449   4.991   1.275
 3080SOL    HW210140   4.488   5.104   1.385
 3081SOL     OW10141   2.309   3.910   6.211
 3081SOL    HW110142   2.370   3.845   6.165
 3081SOL    HW210143   2.344   3.929   6.303
 3082SOL     OW10144   5.350   4.489   5.011
 3082SOL    HW110145   5.389   4.491   4.919
 3082SOL    HW210146   5.340   4.394   5.041
 3083SOL     OW10147   3.886   5.534   1.914
 3083SOL    HW110148   3.852   5.563   2.003
 3083SOL    HW210149   3.833   5.579   1.842
 3084SOL     OW10150   6.955   5.141   3.490
 3084SOL    HW110151   6.999   5.190   3.565
 3084SOL    HW210152   6.884   5.199   3.449
 3085SOL     OW10153   5.693   5.458   0.192
 3085SOL    HW110154   5.753   5.388   0.153
 3085SOL    HW210155   5.598   5.427   0.187
 3086SOL     OW10156   6.273   6.027   6.346
 3086SOL    HW110157   6.258   6.064   6.438
 3086SOL    HW210158   6.242   5.932   6.344
 3087SOL     OW10159   3.738   0.226   2.512
 3087SOL    HW110160   3.812   0.294   2.513
 3087SOL    HW210161   3.654   0.269   2.478
 3088SOL     OW10162   2.022   3.972   5.782
 3088SOL    HW110163   2.084   4.034   5.735
 3088SOL    HW210164   2.073   3.916   5.847
 3089SOL     OW10165   4.483   5.495   5.746
 3089SOL    HW110166   4.541   5.517   5.668
 3089SOL    HW210167   4.539   5.495   5.829
 3090SOL     OW10168   0.467   2.585   2.154
 3090SOL    HW110169   0.563   2.572   2.129
 3090SOL    HW210170   0.451   2.681   2.177
 3091SOL     OW10171   1.163   2.879   0.993
 3091SOL    HW110172   1.072   2.853   1.025
 3091SOL    HW210173   1.226   2.803   1.006
 3092SOL     OW10174   6.170   1.289   1.986
 3092SOL    HW110175   6.106   1.222   2.024
 3092SOL    HW210176   6.186   1.267   1.889
 3093SOL     OW10177   6.574   5.646   6.633
 3093SOL    HW110178   6.613   5.673   6.545
 3093SOL    HW210179   6.600   5.713   6.703
 3094SOL     OW10180   2.328   1.751   6.548
 3094SOL    HW110181   2.298   1.773   6.455
 3094SOL    HW210182   2.254   1.704   6.597
 3095SOL     OW10183   1.418   3.863   5.136
 3095SOL    HW110184   1.486   3.789   5.143
 3095SOL    HW210185   1.447   3.940   5.193
 3096SOL     OW10186   1.379   3.316   4.253
 3096SOL    HW110187   1.427   3.280   4.334
 3096SOL    HW210188   1.435   3.302   4.172
 3097SOL     OW10189   5.661   2.767   5.103
 3097SOL    HW110190   5.729   2.839   5.086
 3097SOL    HW210191   5.605   2.793   5.181
 3098SOL     OW10192   1.790   3.113   2.639
 3098SOL    HW110193   1.784   3.132   2.737
 3098SOL    HW210194   1.839   3.027   2.626
 3099SOL     OW10195   0.278   0.118   5.336
 3099SOL    HW110196   0.180   0.120   5.357
 3099SOL    HW210197   0.292   0.094   5.240
 3100SOL     OW10198   5.549   4.865   1.741
 3100SOL    HW110199   5.613   4.942   1.743
 3100SOL    HW210200   5.600   4.780   1.751
 3101SOL     OW10201   5.093   6.957   5.257
 3101SOL    HW110202   5.080   6.861   5.234
 3101SOL    HW210203   5.007   6.994   5.293
 3102SOL     OW10204   6.012   4.536   2.098
 3102SOL    HW110205   5.934   4.553   2.159
 3102SOL    HW210206   6.015   4.606   2.027
 3103SOL     OW10207   2.258   2.039   1.560
 3103SOL    HW110208   2.337   2.045   1.622
 3103SOL    HW210209   2.176   2.072   1.607
 3104SOL     OW10210   5.406   2.610   5.262
 3104SOL    HW110211   5.371   2.663   5.184
 3104SOL    HW210212   5.394   2.662   5.346
 3105SOL     OW10213   5.409   3.816   0.549
 3105SOL    HW110214   5.472   3.748   0.587
 3105SOL    HW210215   5.352   3.774   0.479
 3106SOL     OW10216   5.371   1.776   5.559
 3106SOL    HW110217   5.354   1.691   5.508
 3106SOL    HW210218   5.383   1.755   5.656
 3107SOL     OW10219   3.472   1.730   5.187
 3107SOL    HW110220   3.463   1.664   5.113
 3107SOL    HW210221   3.558   1.781   5.176
 3108SOL     OW10222   2.255   4.086   3.483
 3108SOL    HW110223   2.253   4.146   3.563
 3108SOL    HW210224   2.309   4.129   3.410
 3109SOL     OW10225   6.880   6.424   3.518
 3109SOL    HW110226   6.980   6.423   3.510
 3109SOL    HW210227   6.851   6.350   3.579
 3110SOL     OW10228   0.860   5.565   3.403
 3110SOL    HW110229   0.892   5.603   3.490
 3110SOL    HW210230   0.859   5.465   3.409
 3111SOL     OW10231   5.958   3.956   3.847
 3111SOL    HW110232   6.008   4.042   3.847
 3111SOL    HW210233   5.864   3.971   3.816
 3112SOL     OW10234   3.877   1.183   6.791
 3112SOL    HW110235   3.800   1.246   6.804
 3112SOL    HW210236   3.886   1.161   6.694
 3113SOL     OW10237   1.663   6.565   3.400
 3113SOL    HW110238   1.574   6.521   3.389
 3113SOL    HW210239   1.694   6.601   3.312
 3114SOL     OW10240   4.480   0.353   5.518
 3114SOL    HW110241   4.518   0.261   5.525
 3114SOL    HW210242   4.435   0.377   5.604
 3115SOL     OW10243   5.535   5.472   5.083
 3115SOL    HW110244   5.634   5.468   5.078
 3115SOL    HW210245   5.496   5.390   5.042
 3116SOL     OW10246   0.696   1.164   6.658
 3116SOL    HW110247   0.772   1.156   6.594
 3116SOL    HW210248   0.729   1.198   6.745
 3117SOL     OW10249   4.553   6.865   0.918
 3117SOL    HW110250   4.546   6.804   0.839
 3117SOL    HW210251   4.493   6.834   0.991
 3118SOL     OW10252   1.882   1.593   3.872
 3118SOL    HW110253   1.894   1.515   3.810
 3118SOL    HW210254   1.933   1.577   3.956
 3119SOL     OW10255   4.808   5.786   4.734
 3119SOL    HW110256   4.806   5.833   4.646
 3119SOL    HW210257   4.903   5.770   4.762
 3120SOL     OW10258   2.126   5.078   6.739
 3120SOL    HW110259   2.185   5.007   6.700
 3120SOL    HW210260   2.127   5.159   6.679
 3121SOL     OW10261   4.421   2.460   4.244
 3121SOL    HW110262   4.344   2.416   4.198
 3121SOL    HW210263   4.469   2.519   4.179
 3122SOL     OW10264   5.642   5.202   5.791
 3122SOL    HW110265   5.655   5.299   5.771
 3122SOL    HW210266   5.679   5.181   5.881
 3123SOL     OW10267   1.363   1.536   3.254
 3123SOL    HW110268   1.405   1.534   3.345
 3123SOL    HW210269   1.430   1.565   3.187
 3124SOL     OW10270   4.634   0.129   4.877
 3124SOL    HW110271   4.605   0.159   4.968
 3124SOL    HW210272   4.685   0.044   4.885
 3125SOL     OW10273   1.905   1.218   5.974
 3125SOL    HW110274   1.817   1.260   5.952
 3125SOL    HW210275   1.890   1.131   6.021
 3126SOL     OW10276   5.024   4.543   5.765
 3126SOL    HW110277   5.107   4.599   5.761
 3126SOL    HW210278   5.044   4.459   5.814
 3127SOL     OW10279   0.037   1.410   5.343
 3127SOL    HW110280   0.064   1.474   5.415
 3127SOL    HW210281   6.996   1.456   5.280
 3128SOL     OW10282   3.434   0.425   0.697
 3128SOL    HW110283   3.501   0.371   0.748
 3128SOL    HW210284   3.343   0.409   0.734
 3129SOL     OW10285   4.326   3.846   0.080
 3129SOL    HW110286   4.243   3.835   0.136
 3129SOL    HW210287   4.405   3.813   0.132
 3130SOL     OW10288   0.255   5.464   2.509
 3130SOL    HW110289   0.262   5.555   2.549
 3130SOL    HW210290   0.272   5.468   2.411
 3131SOL     OW10291   6.537   4.243   3.015
 3131SOL    HW110292   6.608   4.172   3.013
 3131SOL    HW210293   6.457   4.212   2.966
 3132SOL     OW10294   4.936   4.028   0.296
 3132SOL    HW110295   4.976   4.083   0.223
 3132SOL    HW210296   4.924   3.934   0.263
 3133SOL     OW10297   4.976   0.243   4.595
 3133SOL    HW110298   5.015   0.223   4.684
 3133SOL    HW210299   4.906   0.314   4.604
 3134SOL     OW10300   6.031   4.884   2.899
 3134SOL    HW110301   6.084   4.872   2.982
 3134SOL    HW210302   6.076   4.836   2.823
 3135SOL     OW10303   3.676   5.885   6.860
 3135SOL    HW110304   3.763   5.932   6.844
 3135SOL    HW210305   3.684   5.789   6.831
 3136SOL     OW10306   5.996   0.617   3.156
 3136SOL    HW110307   6.026   0.712   3.161
 3136SOL    HW210308   5.896   0.614   3.151
 3137SOL     OW10309   4.496   5.662   0.341
 3137SOL    HW110310   4.593   5.672   0.319
 3137SOL    HW210311   4.483   5.580   0.397
 3138SOL     OW10312   6.654   6.670   5.212
 3138SOL    HW110313   6.659   6.579   5.170
 3138SOL    HW210314   6.604   6.732   5.151
 3139SOL     OW10315   2.156   5.044   1.564
 3139SOL    HW110316   2.205   4.988   1.632
 3139SOL    HW210317   2.193   5.027   1.473
 3140SOL     OW10318   6.705   6.039   0.371
 3140SOL    HW110319   6.771   6.109   0.401
 3140SOL    HW210320   6.688   6.050   0.274
 3141SOL     OW10321   5.743   1.889   6.702
 3141SOL    HW110322   5.834   1.878   6.741
 3141SOL    HW210323   5.675   1.891   6.776
 3142SOL     OW10324   4.568   0.987   3.699
 3142SOL    HW110325   4.507   0.944   3.632
 3142SOL    HW210326   4.640   0.922   3.724
 3143SOL     OW10327   6.912   1.240   0.906
 3143SOL    HW110328   6.833   1.188   0.939
 3143SOL    HW210329   6.903   1.254   0.807
 3144SOL     OW10330   3.345   4.341   0.210
 3144SOL    HW110331   3.343   4.423   0.152
 3144SOL    HW210332   3.420   4.349   0.275
 3145SOL     OW10333   0.517   6.238   0.251
 3145SOL    HW110334   0.491   6.292   0.331
 3145SOL    HW210335   0.611   6.262   0.224
 3146SOL     OW10336   6.800   1.757   4.241
 3146SOL    HW110337   6.853   1.674   4.222
 3146SOL    HW210338   6.793   1.769   4.340
 3147SOL     OW10339   4.160   6.594   0.204
 3147SOL    HW110340   4.231   6.595   0.275
 3147SOL    HW210341   4.083   6.537   0.234
 3148SOL     OW10342   6.732   5.113   1.479
 3148SOL    HW110343   6.752   5.135   1.384
 3148SOL    HW210344   6.786   5.034   1.507
 3149SOL     OW10345   3.481   2.468   6.966
 3149SOL    HW110346   3.517   2.561   6.961
 3149SOL    HW210347   3.407   2.464   0.011
 3150SOL     OW10348   6.678   6.954   5.758
 3150SOL    HW110349   6.587   6.959   5.716
 3150SOL    HW210350   6.717   6.863   5.744
 3151SOL     OW10351   0.002   0.730   5.494
 3151SOL    HW110352   0.080   0.682   5.534
 3151SOL    HW210353   0.017   0.829   5.500
 3152SOL     OW10354   1.961   2.506   5.316
 3152SOL    HW110355   2.012   2.459   5.388
 3152SOL    HW210356   1.943   2.600   5.345
 3153SOL     OW10357   5.387   5.349   1.888
 3153SOL    HW110358   5.356   5.411   1.960
 3153SOL    HW210359   5.390   5.256   1.924
 3154SOL     OW10360   3.997   1.405   0.815
 3154SOL    HW110361   3.953   1.493   0.835
 3154SOL    HW210362   3.958   1.335   0.874
 3155SOL     OW10363   0.908   4.820   6.826
 3155SOL    HW110364   0.962   4.881   6.768
 3155SOL    HW210365   0.938   4.828   6.921
 3156SOL     OW10366   4.405   4.489   0.776
 3156SOL    HW110367   4.326   4.430   0.795
 3156SOL    HW210368   4.384   4.550   0.701
 3157SOL     OW10369   1.351   1.045   4.864
 3157SOL    HW110370   1.309   1.042   4.773
 3157SOL    HW210371   1.389   1.136   4.880
 3158SOL     OW10372   2.041   0.940   5.546
 3158SOL    HW110373   1.961   0.942   5.606
 3158SOL    HW210374   2.078   1.032   5.536
 3159SOL     OW10375   4.831   0.123   0.835
 3159SOL    HW110376   4.852   0.188   0.762
 3159SOL    HW210377   4.733   0.108   0.838
 3160SOL     OW10378   1.986   0.917   4.994
 3160SOL    HW110379   2.066   0.875   5.037
 3160SOL    HW210380   2.000   0.921   4.895
 3161SOL     OW10381   2.051   3.035   2.206
 3161SOL    HW110382   2.100   2.967   2.260
 3161SOL    HW210383   1.960   3.050   2.245
 3162SOL     OW10384   0.999   5.559   1.582
 3162SOL    HW110385   1.020   5.478   1.637
 3162SOL    HW210386   0.904   5.586   1.598
 3163SOL     OW10387   4.347   4.306   0.407
 3163SOL    HW110388   4.270   4.261   0.452
 3163SOL    HW210389   4.375   4.252   0.328
 3164SOL     OW10390   2.338   6.961   4.071
 3164SOL    HW110391   2.387   6.924   4.150
 3164SOL    HW210392   2.394   0.009   4.026
 3165SOL     OW10393   1.200   6.051   6.092
 3165SOL    HW110394   1.146   6.027   6.011
 3165SOL    HW210395   1.168   6.138   6.130
 3166SOL     OW10396   4.583   1.034   5.293
 3166SOL    HW110397   4.551   1.110   5.236
 3166SOL    HW210398   4.507   0.971   5.311
 3167SOL     OW10399   5.728   3.168   1.085
 3167SOL    HW110400   5.771   3.230   1.150
 3167SOL    HW210401   5.724   3.076   1.123
 3168SOL     OW10402   4.552   1.617   0.455
 3168SOL    HW110403   4.544   1.539   0.393
 3168SOL    HW210404   4.589   1.586   0.543
 3169SOL     OW10405   1.642   4.212   1.636
 3169SOL    HW110406   1.661   4.205   1.734
 3169SOL    HW210407   1.718   4.258   1.591
 3170SOL     OW10408   2.129   3.909   3.768
 3170SOL    HW110409   2.081   3.900   3.855
 3170SOL    HW210410   2.132   3.820   3.722
 3171SOL     OW10411   5.320   1.578   3.946
 3171SOL    HW110412   5.236   1.572   3.892
 3171SOL    HW210413   5.299   1.618   4.036
 3172SOL     OW10414   5.444   4.521   1.437
 3172SOL    HW110415   5.426   4.599   1.377
 3172SOL    HW210416   5.371   4.514   1.505
 3173SOL     OW10417   4.979   2.164   0.704
 3173SOL    HW110418   5.043   2.111   0.760
 3173SOL    HW210419   4.886   2.139   0.728
 3174SOL     OW10420   3.595   2.222   6.406
 3174SOL    HW110421   3.615   2.286   6.331
 3174SOL    HW210422   3.540   2.146   6.371
 3175SOL     OW10423   5.403   0.196   5.716
 3175SOL    HW110424   5.478   0.131   5.715
 3175SOL    HW210425   5.421   0.269   5.650
 3176SOL     OW10426   0.132   5.007   3.350
 3176SOL    HW110427   0.224   5.024   3.384
 3176SOL    HW210428   0.065   5.040   3.417
 3177SOL     OW10429   5.252   2.903   3.665
 3177SOL    HW110430   5.222   2.994   3.636
 3177SOL    HW210431   5.277   2.850   3.584
 3178SOL     OW10432   0.749   0.758   2.021
 3178SOL    HW110433   0.815   0.740   1.949
 3178SOL    HW210434   0.783   0.720   2.107
 3179SOL     OW10435   0.768   2.630   2.589
 3179SOL    HW110436   0.677   2.653   2.555
 3179SOL    HW210437   0.809   2.711   2.631
 3180SOL     OW10438   6.917   5.928   6.949
 3180SOL    HW110439   6.929   5.969   0.018
 3180SOL    HW210440   6.948   5.833   6.951
 3181SOL     OW10441   0.816   6.466   5.569
 3181SOL    HW110442   0.746   6.440   5.502
 3181SOL    HW210443   0.807   6.563   5.592
 3182SOL     OW10444   1.846   0.354   1.031
 3182SOL    HW110445   1.841   0.420   0.956
 3182SOL    HW210446   1.821   0.263   0.998
 3183SOL     OW10447   4.083   3.030   1.188
 3183SOL    HW110448   4.101   3.020   1.286
 3183SOL    HW210449   4.110   3.122   1.158
 3184SOL     OW10450   6.551   1.554   4.395
 3184SOL    HW110451   6.557   1.530   4.298
 3184SOL    HW210452   6.532   1.472   4.449
 3185SOL     OW10453   0.523   6.160   6.562
 3185SOL    HW110454   0.547   6.138   6.657
 3185SOL    HW210455   0.426   6.139   6.547
 3186SOL     OW10456   0.319   2.712   6.524
 3186SOL    HW110457   0.309   2.695   6.622
 3186SOL    HW210458   0.308   2.627   6.474
 3187SOL     OW10459   5.147   6.661   2.867
 3187SOL    HW110460   5.137   6.725   2.792
 3187SOL    HW210461   5.110   6.572   2.840
 3188SOL     OW10462   1.982   6.089   0.611
 3188SOL    HW110463   2.061   6.131   0.566
 3188SOL    HW210464   1.914   6.159   0.633
 3189SOL     OW10465   3.485   1.382   5.669
 3189SOL    HW110466   3.531   1.353   5.754
 3189SOL    HW210467   3.511   1.476   5.648
 3190SOL     OW10468   5.912   6.168   4.448
 3190SOL    HW110469   5.876   6.230   4.378
 3190SOL    HW210470   5.949   6.086   4.404
 3191SOL     OW10471   3.756   5.739   1.253
 3191SOL    HW110472   3.823   5.672   1.286
 3191SOL    HW210473   3.707   5.702   1.175
 3192SOL     OW10474   5.636   1.033   2.832
 3192SOL    HW110475   5.731   1.034   2.799
 3192SOL    HW210476   5.595   1.122   2.817
 3193SOL     OW10477   3.259   6.374   5.061
 3193SOL    HW110478   3.223   6.400   4.972
 3193SOL    HW210479   3.252   6.275   5.074
 3194SOL     OW10480   1.648   7.003   6.476
 3194SOL    HW110481   1.737   6.970   6.508
 3194SOL    HW210482   1.579   6.933   6.492
 3195SOL     OW10483   1.191   0.900   1.054
 3195SOL    HW110484   1.250   0.928   1.129
 3195SOL    HW210485   1.114   0.965   1.046
 3196SOL     OW10486   5.537   6.791   3.129
 3196SOL    HW110487   5.572   6.706   3.168
 3196SOL    HW210488   5.612   6.842   3.087
 3197SOL     OW10489   2.159   0.108   6.281
 3197SOL    HW110490   2.084   0.153   6.232
 3197SOL    HW210491   2.141   0.010   6.285
 3198SOL     OW10492   5.931   2.422   3.731
 3198SOL    HW110493   5.893   2.352   3.671
 3198SOL    HW210494   5.876   2.429   3.814
 3199SOL     OW10495   4.851   3.723   2.635
 3199SOL    HW110496   4.891   3.673   2.559
 3199SOL    HW210497   4.916   3.791   2.668
 3200SOL     OW10498   5.333   3.458   4.087
 3200SOL    HW110499   5.415   3.410   4.117
 3200SOL    HW210500   5.302   3.419   4.000
 3201SOL     OW10501   5.890   4.236   2.309
 3201SOL    HW110502   5.970   4.242   2.369
 3201SOL    HW210503   5.920   4.213   2.216
 3202SOL     OW10504   2.531   3.353   6.924
 3202SOL    HW110505   2.555   3.405   7.006
 3202SOL    HW210506   2.465   3.404   6.870
 3203SOL     OW10507   3.419   6.573   1.628
 3203SOL    HW110508   3.337   6.594   1.574
 3203SOL    HW210509   3.392   6.530   1.714
 3204SOL     OW10510   3.782   1.237   4.552
 3204SOL    HW110511   3.708   1.303   4.539
 3204SOL    HW210512   3.745   1.144   4.547
 3205SOL     OW10513   4.807   3.247   6.012
 3205SOL    HW110514   4.721   3.271   5.968
 3205SOL    HW210515   4.790   3.184   6.088
 3206SOL     OW10516   2.865   3.810   1.348
 3206SOL    HW110517   2.920   3.877   1.298
 3206SOL    HW210518   2.907   3.794   1.438
 3207SOL     OW10519   2.025   5.759   5.054
 3207SOL    HW110520   2.026   5.749   5.153
 3207SOL    HW210521   2.016   5.669   5.011
 3208SOL     OW10522   6.495   4.950   6.570
 3208SOL    HW110523   6.481   5.038   6.525
 3208SOL    HW210524   6.581   4.910   6.540
 3209SOL     OW10525   5.240   6.510   6.249
 3209SOL    HW110526   5.228   6.427   6.304
 3209SOL    HW210527   5.152   6.534   6.206
 3210SOL     OW10528   5.188   5.741   1.848
 3210SOL    HW110529   5.140   5.822   1.883
 3210SOL    HW210530   5.278   5.768   1.814
 3211SOL     OW10531   1.988   6.453   6.316
 3211SOL    HW110532   2.050   6.504   6.256
 3211SOL    HW210533   1.900   6.440   6.270
 3212SOL     OW10534   2.750   6.885   3.426
 3212SOL    HW110535   2.830   6.828   3.407
 3212SOL    HW210536   2.750   6.963   3.363
 3213SOL     OW10537   1.272   6.509   6.170
 3213SOL    HW110538   1.201   6.439   6.176
 3213SOL    HW210539   1.234   6.597   6.200
 3214SOL     OW10540   3.762   0.690   2.937
 3214SOL    HW110541   3.675   0.726   2.970
 3214SOL    HW210542   3.798   0.625   3.004
 3215SOL     OW10543   1.827   3.320   1.858
 3215SOL    HW110544   1.853   3.414   1.880
 3215SOL    HW210545   1.898   3.257   1.890
 3216SOL     OW10546   6.051   4.705   1.233
 3216SOL    HW110547   6.028   4.616   1.273
 3216SOL    HW210548   6.150   4.709   1.218
 3217SOL     OW10549   0.081   5.844   2.463
 3217SOL    HW110550   0.034   5.756   2.452
 3217SOL    HW210551   0.178   5.832   2.443
 3218SOL     OW10552   5.552   1.286   2.844
 3218SOL    HW110553   5.588   1.377   2.828
 3218SOL    HW210554   5.468   1.293   2.898
 3219SOL     OW10555   6.631   1.648   4.962
 3219SOL    HW110556   6.609   1.650   5.060
 3219SOL    HW210557   6.661   1.556   4.938
 3220SOL     OW10558   6.957   4.407   6.118
 3220SOL    HW110559   6.933   4.386   6.213
 3220SOL    HW210560   6.972   4.321   6.068
 3221SOL     OW10561   3.473   1.601   1.811
 3221SOL    HW110562   3.379   1.570   1.828
 3221SOL    HW210563   3.536   1.524   1.818
 3222SOL     OW10564   3.138   1.239   3.261
 3222SOL    HW110565   3.092   1.156   3.229
 3222SOL    HW210566   3.093   1.271   3.345
 3223SOL     OW10567   1.450   5.100   0.379
 3223SOL    HW110568   1.386   5.176   0.366
 3223SOL    HW210569   1.420   5.043   0.455
 3224SOL     OW10570   3.993   1.663   4.080
 3224SOL    HW110571   3.935   1.583   4.064
 3224SOL    HW210572   3.961   1.711   4.162
 3225SOL     OW10573   4.193   1.123   4.694
 3225SOL    HW110574   4.126   1.062   4.736
 3225SOL    HW210575   4.285   1.084   4.703
 3226SOL     OW10576   5.834   0.461   0.868
 3226SOL    HW110577   5.747   0.503   0.845
 3226SOL    HW210578   5.820   0.365   0.892
 3227SOL     OW10579   5.689   4.567   5.103
 3227SOL    HW110580   5.684   4.468   5.097
 3227SOL    HW210581   5.620   4.601   5.166
 3228SOL     OW10582   2.613   4.294   0.391
 3228SOL    HW110583   2.664   4.208   0.395
 3228SOL    HW210584   2.644   4.354   0.465
 3229SOL     OW10585   1.574   2.057   0.438
 3229SOL    HW110586   1.615   2.146   0.421
 3229SOL    HW210587   1.587   2.032   0.534
 3230SOL     OW10588   3.133   6.084   5.542
 3230SOL    HW110589   3.137   6.010   5.476
 3230SOL    HW210590   3.089   6.163   5.501
 3231SOL     OW10591   1.840   2.267   3.127
 3231SOL    HW110592   1.931   2.306   3.108
 3231SOL    HW210593   1.770   2.330   3.094
 3232SOL     OW10594   3.812   4.993   4.689
 3232SOL    HW110595   3.713   5.004   4.698
 3232SOL    HW210596   3.856   5.013   4.776
 3233SOL     OW10597   1.050   0.373   0.320
 3233SOL    HW110598   1.123   0.349   0.256
 3233SOL    HW210599   1.015   0.463   0.297
 3234SOL     OW10600   3.050   3.148   0.621
 3234SOL    HW110601   2.980   3.194   0.566
 3234SOL    HW210602   3.061   3.054   0.590
 3235SOL     OW10603   1.095   0.595   3.450
 3235SOL    HW110604   0.996   0.582   3.448
 3235SOL    HW210605   1.132   0.588   3.357
 3236SOL     OW10606   4.425   1.112   0.424
 3236SOL    HW110607   4.485   1.061   0.362
 3236SOL    HW210608   4.343   1.058   0.442
 3237SOL     OW10609   5.880   1.462   5.427
 3237SOL    HW110610   5.889   1.521   5.347
 3237SOL    HW210611   5.794   1.483   5.474
 3238SOL     OW10612   6.501   4.866   1.549
 3238SOL    HW110613   6.465   4.952   1.585
 3238SOL    HW210614   6.575   4.833   1.608
 3239SOL     OW10615   6.918   0.309   4.942
 3239SOL    HW110616   6.913   0.232   4.879
 3239SOL    HW210617   7.008   0.351   4.937
 3240SOL     OW10618   0.142   0.524   0.150
 3240SOL    HW110619   0.165   0.622   0.152
 3240SOL    HW210620   0.129   0.495   0.055
 3241SOL     OW10621   6.549   3.085   5.321
 3241SOL    HW110622   6.517   3.160   5.263
 3241SOL    HW210623   6.569   3.121   5.413
 3242SOL     OW10624   6.027   3.747   4.579
 3242SOL    HW110625   6.125   3.758   4.559
 3242SOL    HW210626   5.974   3.803   4.516
 3243SOL     OW10627   5.825   4.483   4.038
 3243SOL    HW110628   5.905   4.526   3.997
 3243SOL    HW210629   5.787   4.415   3.974
 3244SOL     OW10630   5.009   6.869   0.387
 3244SOL    HW110631   5.066   6.860   0.305
 3244SOL    HW210632   5.052   6.934   0.451
 3245SOL     OW10633   3.763   6.855   4.855
 3245SOL    HW110634   3.757   6.946   4.814
 3245SOL    HW210635   3.757   6.862   4.954
 3246SOL     OW10636   0.230   0.320   2.461
 3246SOL    HW110637   0.173   0.390   2.502
 3246SOL    HW210638   0.220   0.322   2.361
 3247SOL     OW10639   0.744   4.356   3.494
 3247SOL    HW110640   0.691   4.412   3.557
 3247SOL    HW210641   0.714   4.260   3.501
 3248SOL     OW10642   5.522   2.095   3.629
 3248SOL    HW110643   5.582   2.015   3.634
 3248SOL    HW210644   5.471   2.092   3.542
 3249SOL     OW10645   2.930   3.720   3.366
 3249SOL    HW110646   2.836   3.746   3.387
 3249SOL    HW210647   2.994   3.785   3.407
 3250SOL     OW10648   4.729   5.452   2.930
 3250SOL    HW110649   4.639   5.428   2.893
 3250SOL    HW210650   4.764   5.376   2.985
 3251SOL     OW10651   2.781   1.758   2.716
 3251SOL    HW110652   2.752   1.796   2.804
 3251SOL    HW210653   2.783   1.830   2.647
 3252SOL     OW10654   1.738   1.221   3.120
 3252SOL    HW110655   1.669   1.250   3.054
 3252SOL    HW210656   1.716   1.130   3.154
 3253SOL     OW10657   6.562   3.564   0.008
 3253SOL    HW110658   6.564   3.529   0.101
 3253SOL    HW210659   6.468   3.569   6.996
 3254SOL     OW10660   6.395   6.460   1.142
 3254SOL    HW110661   6.304   6.478   1.179
 3254SOL    HW210662   6.428   6.372   1.176
 3255SOL     OW10663   4.878   6.301   2.013
 3255SOL    HW110664   4.779   6.317   2.022
 3255SOL    HW210665   4.895   6.203   2.004
 3256SOL     OW10666   4.935   2.619   1.081
 3256SOL    HW110667   4.911   2.675   1.160
 3256SOL    HW210668   4.905   2.524   1.096
 3257SOL     OW10669   2.981   1.600   2.809
 3257SOL    HW110670   2.901   1.643   2.767
 3257SOL    HW210671   2.983   1.620   2.907
 3258SOL     OW10672   1.438   5.481   4.135
 3258SOL    HW110673   1.382   5.483   4.218
 3258SOL    HW210674   1.521   5.536   4.149
 3259SOL     OW10675   5.284   4.000   3.992
 3259SOL    HW110676   5.291   4.099   3.976
 3259SOL    HW210677   5.290   3.982   4.090
 3260SOL     OW10678   1.414   4.503   3.279
 3260SOL    HW110679   1.430   4.448   3.361
 3260SOL    HW210680   1.322   4.485   3.244
 3261SOL     OW10681   5.498   6.812   4.484
 3261SOL    HW110682   5.427   6.882   4.470
 3261SOL    HW210683   5.527   6.814   4.580
 3262SOL     OW10684   2.971   1.671   3.351
 3262SOL    HW110685   2.986   1.572   3.361
 3262SOL    HW210686   2.895   1.687   3.289
 3263SOL     OW10687   0.081   0.990   2.035
 3263SOL    HW110688   0.054   0.978   1.939
 3263SOL    HW210689   0.122   1.080   2.048
 3264SOL     OW10690   1.755   4.812   6.839
 3264SOL    HW110691   1.669   4.842   6.880
 3264SOL    HW210692   1.738   4.731   6.783
 3265SOL     OW10693   6.757   5.296   0.063
 3265SOL    HW110694   6.827   5.312   7.014
 3265SOL    HW210695   6.782   5.216   0.117
 3266SOL     OW10696   3.284   5.062   5.738
 3266SOL    HW110697   3.263   4.964   5.741
 3266SOL    HW210698   3.322   5.085   5.648
 3267SOL     OW10699   3.619   6.829   0.312
 3267SOL    HW110700   3.556   6.753   0.330
 3267SOL    HW210701   3.646   6.870   0.399
 3268SOL     OW10702   5.678   5.410   1.929
 3268SOL    HW110703   5.730   5.375   2.007
 3268SOL    HW210704   5.601   5.465   1.962
 3269SOL     OW10705   1.376   4.929   1.232
 3269SOL    HW110706   1.409   4.886   1.316
 3269SOL    HW210707   1.343   4.858   1.170
 3270SOL     OW10708   0.454   2.881   5.599
 3270SOL    HW110709   0.414   2.789   5.599
 3270SOL    HW210710   0.460   2.915   5.505
 3271SOL     OW10711   1.002   3.511   1.646
 3271SOL    HW110712   0.986   3.532   1.742
 3271SOL    HW210713   1.062   3.430   1.639
 3272SOL     OW10714   4.697   6.067   1.064
 3272SOL    HW110715   4.638   6.102   1.137
 3272SOL    HW210716   4.640   6.038   0.987
 3273SOL     OW10717   4.006   3.696   6.619
 3273SOL    HW110718   3.951   3.687   6.702
 3273SOL    HW210719   3.946   3.721   6.542
 3274SOL     OW10720   5.646   0.020   1.934
 3274SOL    HW110721   5.660   0.086   1.860
 3274SOL    HW210722   5.713   0.037   2.007
 3275SOL     OW10723   5.034   0.776   1.504
 3275SOL    HW110724   5.005   0.872   1.496
 3275SOL    HW210725   5.114   0.770   1.564
 3276SOL     OW10726   5.654   6.471   6.799
 3276SOL    HW110727   5.696   6.487   6.888
 3276SOL    HW210728   5.593   6.548   6.777
 3277SOL     OW10729   3.079   2.005   2.525
 3277SOL    HW110730   3.164   2.021   2.475
 3277SOL    HW210731   3.085   1.918   2.574
 3278SOL     OW10732   5.796   0.807   6.484
 3278SOL    HW110733   5.884   0.814   6.437
 3278SOL    HW210734   5.763   0.898   6.507
 3279SOL     OW10735   3.394   0.433   1.431
 3279SOL    HW110736   3.334   0.471   1.501
 3279SOL    HW210737   3.411   0.501   1.360
 3280SOL     OW10738   6.407   3.568   4.206
 3280SOL    HW110739   6.329   3.510   4.230
 3280SOL    HW210740   6.390   3.661   4.239
 3281SOL     OW10741   6.056   3.099   1.643
 3281SOL    HW110742   6.052   3.021   1.705
 3281SOL    HW210743   6.088   3.068   1.553
 3282SOL     OW10744   7.008   5.110   5.051
 3282SOL    HW110745   0.072   5.146   5.012
 3282SOL    HW210746   6.980   5.029   5.000
 3283SOL     OW10747   3.194   2.084   0.080
 3283SOL    HW110748   3.286   2.123   0.068
 3283SOL    HW210749   3.182   2.056   0.175
 3284SOL     OW10750   2.378   6.712   4.444
 3284SOL    HW110751   2.392   6.618   4.412
 3284SOL    HW210752   2.432   6.775   4.388
 3285SOL     OW10753   3.939   2.137   4.406
 3285SOL    HW110754   4.000   2.212   4.432
 3285SOL    HW210755   3.869   2.126   4.477
 3286SOL     OW10756   1.345   2.319   2.633
 3286SOL    HW110757   1.336   2.241   2.694
 3286SOL    HW210758   1.415   2.300   2.564
 3287SOL     OW10759   2.334   6.994   0.835
 3287SOL    HW110760   2.423   6.978   0.793
 3287SOL    HW210761   2.269   6.926   0.801
 3288SOL     OW10762   2.570   5.978   1.771
 3288SOL    HW110763   2.570   5.900   1.708
 3288SOL    HW210764   2.540   5.947   1.861
 3289SOL     OW10765   4.126   0.909   6.653
 3289SOL    HW110766   4.174   0.996   6.643
 3289SOL    HW210767   4.178   0.849   6.714
 3290SOL     OW10768   0.423   5.837   0.413
 3290SOL    HW110769   0.482   5.756   0.407
 3290SOL    HW210770   0.328   5.810   0.404
 3291SOL     OW10771   5.293   6.586   5.037
 3291SOL    HW110772   5.309   6.569   4.939
 3291SOL    HW210773   5.363   6.650   5.071
 3292SOL     OW10774   6.891   2.327   0.395
 3292SOL    HW110775   6.832   2.376   0.459
 3292SOL    HW210776   6.942   2.393   0.339
 3293SOL     OW10777   6.196   5.346   3.727
 3293SOL    HW110778   6.151   5.327   3.640
 3293SOL    HW210779   6.219   5.443   3.732
 3294SOL     OW10780   5.101   3.131   5.298
 3294SOL    HW110781   5.055   3.044   5.283
 3294SOL    HW210782   5.200   3.115   5.303
 3295SOL     OW10783   0.818   2.127   2.469
 3295SOL    HW110784   0.755   2.159   2.398
 3295SOL    HW210785   0.911   2.125   2.431
 3296SOL     OW10786   1.871   0.977   6.079
 3296SOL    HW110787   1.868   0.923   5.995
 3296SOL    HW210788   1.802   0.943   6.143
 3297SOL     OW10789   3.631   1.114   5.323
 3297SOL    HW110790   3.574   1.096   5.403
 3297SOL    HW210791   3.702   1.181   5.347
 3298SOL     OW10792   4.618   3.784   6.080
 3298SOL    HW110793   4.663   3.702   6.046
 3298SOL    HW210794   4.633   3.859   6.016
 3299SOL     OW10795   2.426   5.302   4.033
 3299SOL    HW110796   2.456   5.294   3.938
 3299SOL    HW210797   2.416   5.211   4.073
 3300SOL     OW10798   2.237   0.322   3.879
 3300SOL    HW110799   2.281   0.410   3.894
 3300SOL    HW210800   2.138   0.333   3.881
 3301SOL     OW10801   0.870   1.153   3.209
 3301SOL    HW110802   0.851   1.235   3.156
 3301SOL    HW210803   0.920   1.177   3.292
 3302SOL     OW10804   1.469   5.444   5.015
 3302SOL    HW110805   1.527   5.522   4.989
 3302SOL    HW210806   1.456   5.443   5.114
 3303SOL     OW10807   3.208   3.372   0.138
 3303SOL    HW110808   3.227   3.379   0.236
 3303SOL    HW210809   3.269   3.303   0.098
 3304SOL     OW10810   2.272   4.284   6.912
 3304SOL    HW110811   2.335   4.220   6.955
 3304SOL    HW210812   2.247   4.355   6.977
 3305SOL     OW10813   3.377   2.929   0.698
 3305SOL    HW110814   3.339   3.019   0.723
 3305SOL    HW210815   3.364   2.865   0.774
 3306SOL     OW10816   2.097   0.841   6.949
 3306SOL    HW110817   2.141   0.810   6.864
 3306SOL    HW210818   2.102   0.941   6.954
 3307SOL     OW10819   1.636   6.135   4.953
 3307SOL    HW110820   1.682   6.046   4.941
 3307SOL    HW210821   1.605   6.144   5.047
 3308SOL     OW10822   4.071   4.785   0.848
 3308SOL    HW110823   4.082   4.783   0.749
 3308SOL    HW210824   4.129   4.858   0.886
 3309SOL     OW10825   5.580   3.144   3.144
 3309SOL    HW110826   5.618   3.166   3.054
 3309SOL    HW210827   5.635   3.072   3.187
 3310SOL     OW10828   6.454   4.656   6.216
 3310SOL    HW110829   6.435   4.558   6.213
 3310SOL    HW210830   6.374   4.704   6.254
 3311SOL     OW10831   2.637   3.682   0.309
 3311SOL    HW110832   2.548   3.669   0.352
 3311SOL    HW210833   2.649   3.778   0.285
 3312SOL     OW10834   4.557   3.015   6.392
 3312SOL    HW110835   4.488   3.015   6.320
 3312SOL    HW210836   4.517   2.978   6.476
 3313SOL     OW10837   6.930   0.445   4.145
 3313SOL    HW110838   7.003   0.447   4.212
 3313SOL    HW210839   6.916   0.536   4.107
 3314SOL     OW10840   3.748   5.705   2.402
 3314SOL    HW110841   3.801   5.788   2.420
 3314SOL    HW210842   3.718   5.666   2.488
 3315SOL     OW10843   0.515   5.643   4.544
 3315SOL    HW110844   0.459   5.722   4.519
 3315SOL    HW210845   0.517   5.635   4.644
 3316SOL     OW10846   4.788   2.414   6.624
 3316SOL    HW110847   4.735   2.449   6.701
 3316SOL    HW210848   4.879   2.456   6.625
 3317SOL     OW10849   5.160   2.776   2.012
 3317SOL    HW110850   5.194   2.743   1.924
 3317SOL    HW210851   5.062   2.760   2.018
 3318SOL     OW10852   3.097   2.949   0.460
 3318SOL    HW110853   3.068   2.859   0.428
 3318SOL    HW210854   3.191   2.966   0.432
 3319SOL     OW10855   6.633   5.807   3.547
 3319SOL    HW110856   6.718   5.833   3.592
 3319SOL    HW210857   6.648   5.804   3.448
 3320SOL     OW10858   6.132   6.616   1.674
 3320SOL    HW110859   6.047   6.668   1.678
 3320SOL    HW210860   6.164   6.597   1.766
 3321SOL     OW10861   4.735   2.199   0.282
 3321SOL    HW110862   4.660   2.238   0.337
 3321SOL    HW210863   4.697   2.133   0.218
 3322SOL     OW10864   6.175   3.178   0.553
 3322SOL    HW110865   6.150   3.177   0.650
 3322SOL    HW210866   6.191   3.084   0.522
 3323SOL     OW10867   1.642   2.495   1.144
 3323SOL    HW110868   1.688   2.581   1.167
 3323SOL    HW210869   1.692   2.419   1.186
 3324SOL     OW10870   5.220   5.514   5.533
 3324SOL    HW110871   5.293   5.454   5.500
 3324SOL    HW210872   5.255   5.572   5.607
 3325SOL     OW10873   2.057   4.594   5.361
 3325SOL    HW110874   2.081   4.501   5.387
 3325SOL    HW210875   2.136   4.654   5.373
 3326SOL     OW10876   3.596   1.856   2.514
 3326SOL    HW110877   3.683   1.886   2.554
 3326SOL    HW210878   3.554   1.932   2.465
 3327SOL     OW10879   0.648   5.303   6.206
 3327SOL    HW110880   0.721   5.371   6.207
 3327SOL    HW210881   0.680   5.220   6.160
 3328SOL     OW10882   4.832   2.421   5.686
 3328SOL    HW110883   4.867   2.437   5.594
 3328SOL    HW210884   4.770   2.342   5.684
 3329SOL     OW10885   6.537   6.017   5.740
 3329SOL    HW110886   6.608   6.059   5.796
 3329SOL    HW210887   6.558   5.919   5.728
 3330SOL     OW10888   0.059   3.557   2.884
 3330SOL    HW110889   6.992   3.599   2.907
 3330SOL    HW210890   0.060   3.462   2.918
 3331SOL     OW10891   2.077   3.136   0.046
 3331SOL    HW110892   2.128   3.192   0.113
 3331SOL    HW210893   2.136   3.118   6.988
 3332SOL     OW10894   6.563   4.169   1.803
 3332SOL    HW110895   6.588   4.095   1.740
 3332SOL    HW210896   6.516   4.241   1.752
 3333SOL     OW10897   3.841   5.382   6.473
 3333SOL    HW110898   3.930   5.409   6.510
 3333SOL    HW210899   3.779   5.460   6.474
 3334SOL     OW10900   2.132   3.854   1.629
 3334SOL    HW110901   2.174   3.875   1.717
 3334SOL    HW210902   2.182   3.779   1.586
 3335SOL     OW10903   5.864   3.919   4.426
 3335SOL    HW110904   5.794   3.974   4.471
 3335SOL    HW210905   5.931   3.978   4.382
 3336SOL     OW10906   2.776   5.781   6.058
 3336SOL    HW110907   2.772   5.838   6.140
 3336SOL    HW210908   2.861   5.800   6.009
 3337SOL     OW10909   3.820   1.682   0.682
 3337SOL    HW110910   3.905   1.693   0.734
 3337SOL    HW210911   3.842   1.670   0.585
 3338SOL     OW10912   6.731   4.325   0.446
 3338SOL    HW110913   6.820   4.307   0.487
 3338SOL    HW210914   6.701   4.417   0.470
 3339SOL     OW10915   0.544   5.979   6.332
 3339SOL    HW110916   0.531   6.027   6.245
 3339SOL    HW210917   0.544   6.045   6.407
 3340SOL     OW10918   3.954   0.172   1.860
 3340SOL    HW110919   3.904   0.199   1.942
 3340SOL    HW210920   4.017   0.246   1.833
 3341SOL     OW10921   0.955   6.980   2.129
 3341SOL    HW110922   1.034   6.963   2.071
 3341SOL    HW210923   0.874   6.935   2.091
 3342SOL     OW10924   3.027   0.589   4.806
 3342SOL    HW110925   2.942   0.620   4.762
 3342SOL    HW210926   3.082   0.668   4.832
 3343SOL     OW10927   6.300   2.132   1.548
 3343SOL    HW110928   6.374   2.094   1.603
 3343SOL    HW210929   6.269   2.064   1.482
 3344SOL     OW10930   6.988   3.104   5.405
 3344SOL    HW110931   0.023   3.125   5.485
 3344SOL    HW210932   6.996   3.178   5.339
 3345SOL     OW10933   3.142   3.497   6.112
 3345SOL    HW110934   3.188   3.519   6.198
 3345SOL    HW210935   3.069   3.564   6.095
 3346SOL     OW10936   1.888   5.521   2.490
 3346SOL    HW110937   1.848   5.525   2.582
 3346SOL    HW210938   1.869   5.607   2.442
 3347SOL     OW10939   5.697   4.065   4.610
 3347SOL    HW110940   5.657   3.981   4.648
 3347SOL    HW210941   5.664   4.144   4.661
 3348SOL     OW10942   3.919   3.988   3.138
 3348SOL    HW110943   3.972   3.996   3.223
 3348SOL    HW210944   3.829   3.948   3.159
 3349SOL     OW10945   6.237   3.853   5.838
 3349SOL    HW110946   6.144   3.820   5.850
 3349SOL    HW210947   6.301   3.784   5.873
 3350SOL     OW10948   1.630   2.449   0.880
 3350SOL    HW110949   1.640   2.464   0.979
 3350SOL    HW210950   1.543   2.487   0.849
 3351SOL     OW10951   5.243   1.796   0.552
 3351SOL    HW110952   5.173   1.775   0.483
 3351SOL    HW210953   5.264   1.894   0.548
 3352SOL     OW10954   0.623   2.939   0.534
 3352SOL    HW110955   0.551   2.995   0.491
 3352SOL    HW210956   0.692   2.999   0.573
 3353SOL     OW10957   1.711   6.464   6.169
 3353SOL    HW110958   1.686   6.515   6.087
 3353SOL    HW210959   1.665   6.502   6.248
 3354SOL     OW10960   1.199   1.365   2.513
 3354SOL    HW110961   1.276   1.372   2.578
 3354SOL    HW210962   1.176   1.269   2.500
 3355SOL     OW10963   6.622   1.435   2.771
 3355SOL    HW110964   6.548   1.414   2.707
 3355SOL    HW210965   6.598   1.400   2.862
 3356SOL     OW10966   2.272   3.577   6.343
 3356SOL    HW110967   2.179   3.612   6.338
 3356SOL    HW210968   2.333   3.638   6.292
 3357SOL     OW10969   2.326   5.104   2.128
 3357SOL    HW110970   2.391   5.135   2.059
 3357SOL    HW210971   2.277   5.024   2.094
 3358SOL     OW10972   6.566   4.506   3.048
 3358SOL    HW110973   6.599   4.539   3.136
 3358SOL    HW210974   6.538   4.410   3.056
 3359SOL     OW10975   1.229   1.351   1.893
 3359SOL    HW110976   1.252   1.292   1.971
 3359SOL    HW210977   1.269   1.314   1.810
 3360SOL     OW10978   1.524   0.385   6.240
 3360SOL    HW110979   1.562   0.478   6.239
 3360SOL    HW210980   1.444   0.383   6.301
 3361SOL     OW10981   4.859   0.668   3.098
 3361SOL    HW110982   4.901   0.742   3.046
 3361SOL    HW210983   4.884   0.580   3.057
 3362SOL     OW10984   2.126   1.322   5.341
 3362SOL    HW110985   2.083   1.260   5.275
 3362SOL    HW210986   2.060   1.347   5.411
 3363SOL     OW10987   0.216   1.369   6.831
 3363SOL    HW110988   0.116   1.373   6.832
 3363SOL    HW210989   0.246   1.315   6.752
 3364SOL     OW10990   1.957   4.625   5.813
 3364SOL    HW110991   1.884   4.652   5.876
 3364SOL    HW210992   1.968   4.526   5.816
 3365SOL     OW10993   5.816   1.877   5.459
 3365SOL    HW110994   5.816   1.847   5.554
 3365SOL    HW210995   5.863   1.965   5.452
 3366SOL     OW10996   5.366   1.130   6.033
 3366SOL    HW110997   5.445   1.106   6.089
 3366SOL    HW210998   5.283   1.093   6.075
 3367SOL     OW10999   1.481   0.553   2.305
 3367SOL    HW111000   1.508   0.626   2.368
 3367SOL    HW211001   1.460   0.593   2.215
 3368SOL     OW11002   6.396   0.571   5.593
 3368SOL    HW111003   6.399   0.541   5.688
 3368SOL    HW211004   6.355   0.500   5.536
 3369SOL     OW11005   3.519   6.181   5.801
 3369SOL    HW111006   3.421   6.162   5.798
 3369SOL    HW211007   3.540   6.264   5.749
 3370SOL     OW11008   4.763   0.406   4.904
 3370SOL    HW111009   4.816   0.423   4.988
 3370SOL    HW211010   4.753   0.308   4.891
 3371SOL     OW11011   7.007   5.197   1.547
 3371SOL    HW111012   6.975   5.172   1.639
 3371SOL    HW211013   0.017   5.114   1.500
 3372SOL     OW11014   0.132   1.724   2.462
 3372SOL    HW111015   0.219   1.691   2.425
 3372SOL    HW211016   0.072   1.753   2.388
 3373SOL     OW11017   0.365   2.202   5.836
 3373SOL    HW111018   0.398   2.293   5.811
 3373SOL    HW211019   0.389   2.137   5.763
 3374SOL     OW11020   3.260   5.175   5.333
 3374SOL    HW111021   3.316   5.136   5.260
 3374SOL    HW211022   3.166   5.185   5.301
 3375SOL     OW11023   4.091   3.926   5.216
 3375SOL    HW111024   4.187   3.926   5.244
 3375SOL    HW211025   4.050   4.015   5.237
 3376SOL     OW11026   3.213   3.703   2.244
 3376SOL    HW111027   3.205   3.658   2.333
 3376SOL    HW211028   3.307   3.733   2.231
 3377SOL     OW11029   3.083   5.760   5.643
 3377SOL    HW111030   3.090   5.813   5.559
 3377SOL    HW211031   3.171   5.718   5.664
 3378SOL     OW11032   1.017   1.243   1.220
 3378SOL    HW111033   1.028   1.171   1.289
 3378SOL    HW211034   1.022   1.332   1.265
 3379SOL     OW11035   1.177   4.591   6.637
 3379SOL    HW111036   1.088   4.562   6.672
 3379SOL    HW211037   1.165   4.637   6.549
 3380SOL     OW11038   0.801   3.912   6.162
 3380SOL    HW111039   0.729   3.949   6.222
 3380SOL    HW211040   0.762   3.887   6.074
 3381SOL     OW11041   3.188   3.097   0.843
 3381SOL    HW111042   3.117   3.108   0.773
 3381SOL    HW211043   3.144   3.091   0.933
 3382SOL     OW11044   6.686   6.638   0.374
 3382SOL    HW111045   6.719   6.630   0.468
 3382SOL    HW211046   6.756   6.681   0.317
 3383SOL     OW11047   0.079   4.343   2.687
 3383SOL    HW111048   0.078   4.308   2.781
 3383SOL    HW211049   7.016   4.316   2.640
 3384SOL     OW11050   3.552   2.844   4.706
 3384SOL    HW111051   3.546   2.831   4.607
 3384SOL    HW211052   3.635   2.800   4.741
 3385SOL     OW11053   6.411   4.003   3.238
 3385SOL    HW111054   6.491   3.961   3.194
 3385SOL    HW211055   6.429   4.014   3.335
 3386SOL     OW11056   6.268   4.137   5.059
 3386SOL    HW111057   6.235   4.044   5.047
 3386SOL    HW211058   6.213   4.200   5.004
 3387SOL     OW11059   2.913   1.952   2.992
 3387SOL    HW111060   2.995   1.976   2.940
 3387SOL    HW211061   2.895   2.023   3.061
 3388SOL     OW11062   5.112   2.933   2.251
 3388SOL    HW111063   5.172   3.011   2.267
 3388SOL    HW211064   5.132   2.893   2.161
 3389SOL     OW11065   5.351   4.618   3.442
 3389SOL    HW111066   5.437   4.595   3.397
 3389SOL    HW211067   5.283   4.642   3.373
 3390SOL     OW11068   5.138   2.969   5.944
 3390SOL    HW111069   5.238   2.972   5.953
 3390SOL    HW211070   5.103   2.886   5.988
 3391SOL     OW11071   3.547   1.613   4.327
 3391SOL    HW111072   3.536   1.713   4.324
 3391SOL    HW211073   3.458   1.571   4.344
 3392SOL     OW11074   4.620   5.943   3.818
 3392SOL    HW111075   4.644   6.040   3.822
 3392SOL    HW211076   4.543   5.925   3.880
 3393SOL     OW11077   6.100   0.453   0.066
 3393SOL    HW111078   6.039   0.506   0.007
 3393SOL    HW211079   6.185   0.433   0.017
 3394SOL     OW11080   5.677   1.930   1.474
 3394SOL    HW111081   5.659   1.857   1.539
 3394SOL    HW211082   5.621   2.010   1.497
 3395SOL     OW11083   1.169   3.714   4.753
 3395SOL    HW111084   1.144   3.632   4.702
 3395SOL    HW211085   1.186   3.690   4.849
 3396SOL     OW11086   0.099   3.950   4.324
 3396SOL    HW111087   0.095   4.047   4.347
 3396SOL    HW211088   0.173   3.934   4.259
 3397SOL     OW11089   3.304   6.550   6.096
 3397SOL    HW111090   3.382   6.602   6.133
 3397SOL    HW211091   3.318   6.536   5.998
 3398SOL     OW11092   6.803   6.952   4.229
 3398SOL    HW111093   6.865   6.989   4.160
 3398SOL    HW211094   6.746   0.005   4.265
 3399SOL     OW11095   4.568   5.288   4.652
 3399SOL    HW111096   4.585   5.211   4.713
 3399SOL    HW211097   4.570   5.374   4.704
 3400SOL     OW11098   4.568   2.400   6.455
 3400SOL    HW111099   4.505   2.333   6.493
 3400SOL    HW211100   4.658   2.391   6.498
 3401SOL     OW11101   6.078   4.989   0.029
 3401SOL    HW111102   6.008   4.930   0.067
 3401SOL    HW211103   6.155   4.934   7.019
 3402SOL     OW11104   4.811   5.585   2.013
 3402SOL    HW111105   4.816   5.524   2.091
 3402SOL    HW211106   4.792   5.678   2.044
 3403SOL     OW11107   2.918   1.626   5.234
 3403SOL    HW111108   2.882   1.713   5.201
 3403SOL    HW211109   3.014   1.638   5.261
 3404SOL     OW11110   4.372   0.705   1.188
 3404SOL    HW111111   4.273   0.718   1.198
 3404SOL    HW211112   4.417   0.794   1.188
 3405SOL     OW11113   5.934   3.790   0.609
 3405SOL    HW111114   5.868   3.860   0.637
 3405SOL    HW211115   6.027   3.825   0.619
 3406SOL     OW11116   1.437   4.775   1.959
 3406SOL    HW111117   1.518   4.832   1.963
 3406SOL    HW211118   1.464   4.678   1.957
 3407SOL     OW11119   1.569   5.690   2.577
 3407SOL    HW111120   1.561   5.669   2.674
 3407SOL    HW211121   1.592   5.606   2.527
 3408SOL     OW11122   5.119   3.860   2.721
 3408SOL    HW111123   5.199   3.896   2.672
 3408SOL    HW211124   5.135   3.866   2.820
 3409SOL     OW11125   2.998   0.282   5.454
 3409SOL    HW111126   3.014   0.210   5.522
 3409SOL    HW211127   2.905   0.318   5.465
 3410SOL     OW11128   6.607   0.159   6.786
 3410SOL    HW111129   6.669   0.081   6.777
 3410SOL    HW211130   6.628   0.227   6.715
 3411SOL     OW11131   5.065   2.321   2.087
 3411SOL    HW111132   5.055   2.245   2.152
 3411SOL    HW211133   4.983   2.326   2.030
 3412SOL     OW11134   3.795   4.398   0.170
 3412SOL    HW111135   3.822   4.419   0.264
 3412SOL    HW211136   3.711   4.448   0.148
 3413SOL     OW11137   3.882   2.183   2.813
 3413SOL    HW111138   3.786   2.202   2.836
 3413SOL    HW211139   3.933   2.165   2.898
 3414SOL     OW11140   3.353   2.077   5.699
 3414SOL    HW111141   3.274   2.069   5.759
 3414SOL    HW211142   3.326   2.057   5.605
 3415SOL     OW11143   0.246   5.473   3.957
 3415SOL    HW111144   0.244   5.498   3.860
 3415SOL    HW211145   0.167   5.416   3.978
 3416SOL     OW11146   1.856   4.307   5.387
 3416SOL    HW111147   1.956   4.305   5.383
 3416SOL    HW211148   1.819   4.240   5.322
 3417SOL     OW11149   5.599   0.427   2.305
 3417SOL    HW111150   5.600   0.427   2.205
 3417SOL    HW211151   5.515   0.382   2.337
 3418SOL     OW11152   3.136   1.491   6.265
 3418SOL    HW111153   3.145   1.419   6.333
 3418SOL    HW211154   3.227   1.516   6.230
 3419SOL     OW11155   4.243   3.885   0.377
 3419SOL    HW111156   4.196   3.910   0.462
 3419SOL    HW211157   4.341   3.875   0.396
 3420SOL     OW11158   4.252   2.312   4.064
 3420SOL    HW111159   4.192   2.297   3.986
 3420SOL    HW211160   4.222   2.254   4.140
 3421SOL     OW11161   0.441   6.317   4.301
 3421SOL    HW111162   0.450   6.218   4.316
 3421SOL    HW211163   0.505   6.365   4.361
 3422SOL     OW11164   2.926   1.194   1.851
 3422SOL    HW111165   2.894   1.280   1.811
 3422SOL    HW211166   3.006   1.211   1.909
 3423SOL     OW11167   2.738   0.554   1.198
 3423SOL    HW111168   2.820   0.551   1.254
 3423SOL    HW211169   2.757   0.515   1.108
 3424SOL     OW11170   4.205   1.542   2.758
 3424SOL    HW111171   4.120   1.490   2.763
 3424SOL    HW211172   4.276   1.485   2.715
 3425SOL     OW11173   4.480   4.536   1.616
 3425SOL    HW111174   4.446   4.528   1.709
 3425SOL    HW211175   4.427   4.476   1.556
 3426SOL     OW11176   4.414   3.282   0.505
 3426SOL    HW111177   4.458   3.225   0.576
 3426SOL    HW211178   4.382   3.367   0.546
 3427SOL     OW11179   6.941   2.006   0.053
 3427SOL    HW111180   0.002   1.986   0.000
 3427SOL    HW211181   6.913   1.925   0.104
 3428SOL     OW11182   4.528   4.538   3.158
 3428SOL    HW111183   4.567   4.614   3.209
 3428SOL    HW211184   4.563   4.452   3.195
 3429SOL     OW11185   0.953   3.242   6.838
 3429SOL    HW111186   0.929   3.319   6.897
 3429SOL    HW211187   0.879   3.175   6.838
 3430SOL     OW11188   1.521   6.312   0.060
 3430SOL    HW111189   1.507   6.398   0.010
 3430SOL    HW211190   1.547   6.240   7.017
 3431SOL     OW11191   0.713   5.947   0.279
 3431SOL    HW111192   0.677   5.972   0.189
 3431SOL    HW211193   0.731   6.030   0.332
 3432SOL     OW11194   3.150   1.776   6.789
 3432SOL    HW111195   3.076   1.825   6.835
 3432SOL    HW211196   3.228   1.838   6.776
 3433SOL     OW11197   3.972   0.654   5.146
 3433SOL    HW111198   4.042   0.594   5.185
 3433SOL    HW211199   3.985   0.747   5.179
 3434SOL     OW11200   4.379   1.992   2.693
 3434SOL    HW111201   4.387   1.963   2.788
 3434SOL    HW211202   4.294   2.043   2.680
 3435SOL     OW11203   0.585   0.960   0.220
 3435SOL    HW111204   0.674   0.940   0.178
 3435SOL    HW211205   0.529   0.877   0.221
 3436SOL     OW11206   4.065   6.560   3.329
 3436SOL    HW111207   3.990   6.510   3.374
 3436SOL    HW211208   4.102   6.628   3.392
 3437SOL     OW11209   3.591   6.883   6.466
 3437SOL    HW111210   3.585   6.784   6.472
 3437SOL    HW211211   3.683   6.913   6.493
 3438SOL     OW11212   1.315   3.652   6.731
 3438SOL    HW111213   1.350   3.626   6.641
 3438SOL    HW211214   1.247   3.585   6.761
 3439SOL     OW11215   2.933   5.549   3.755
 3439SOL    HW111216   2.852   5.508   3.712
 3439SOL    HW211217   2.907   5.589   3.843
 3440SOL     OW11218   4.622   2.086   0.748
 3440SOL    HW111219   4.612   2.172   0.799
 3440SOL    HW211220   4.584   2.011   0.802
 3441SOL     OW11221   3.042   0.313   3.671
 3441SOL    HW111222   3.101   0.379   3.719
 3441SOL    HW211223   3.097   0.256   3.611
 3442SOL     OW11224   1.993   4.772   3.222
 3442SOL    HW111225   1.920   4.703   3.233
 3442SOL    HW211226   2.055   4.767   3.300
 3443SOL     OW11227   6.158   0.909   3.634
 3443SOL    HW111228   6.253   0.940   3.636
 3443SOL    HW211229   6.114   0.931   3.721
 3444SOL     OW11230   4.367   5.353   0.059
 3444SOL    HW111231   4.287   5.304   0.026
 3444SOL    HW211232   4.341   5.445   0.087
 3445SOL     OW11233   6.019   4.145   4.345
 3445SOL    HW111234   6.010   4.189   4.434
 3445SOL    HW211235   6.110   4.163   4.308
 3446SOL     OW11236   3.589   6.674   2.757
 3446SOL    HW111237   3.499   6.673   2.714
 3446SOL    HW211238   3.600   6.591   2.812
 3447SOL     OW11239   5.514   5.486   6.335
 3447SOL    HW111240   5.501   5.387   6.322
 3447SOL    HW211241   5.449   5.536   6.278
 3448SOL     OW11242   3.788   2.281   1.072
 3448SOL    HW111243   3.722   2.239   1.135
 3448SOL    HW211244   3.738   2.336   1.005
 3449SOL     OW11245   6.404   5.970   3.910
 3449SOL    HW111246   6.410   5.957   3.811
 3449SOL    HW211247   6.474   6.035   3.940
 3450SOL     OW11248   1.276   1.561   1.447
 3450SOL    HW111249   1.270   1.660   1.456
 3450SOL    HW211250   1.184   1.521   1.452
 3451SOL     OW11251   1.003   5.207   4.400
 3451SOL    HW111252   0.964   5.246   4.483
 3451SOL    HW211253   0.942   5.222   4.323
 3452SOL     OW11254   6.026   2.059   6.774
 3452SOL    HW111255   6.065   2.131   6.717
 3452SOL    HW211256   5.957   2.099   6.835
 3453SOL     OW11257   5.661   5.480   5.738
 3453SOL    HW111258   5.731   5.452   5.672
 3453SOL    HW211259   5.637   5.576   5.721
 3454SOL     OW11260   0.639   0.556   0.559
 3454SOL    HW111261   0.599   0.635   0.603
 3454SOL    HW211262   0.626   0.562   0.460
 3455SOL     OW11263   1.854   2.610   4.629
 3455SOL    HW111264   1.874   2.533   4.569
 3455SOL    HW211265   1.876   2.585   4.723
 3456SOL     OW11266   6.314   6.955   1.753
 3456SOL    HW111267   6.404   6.964   1.710
 3456SOL    HW211268   6.282   6.861   1.743
 3457SOL     OW11269   2.182   5.223   3.220
 3457SOL    HW111270   2.186   5.323   3.222
 3457SOL    HW211271   2.154   5.188   3.309
 3458SOL     OW11272   5.121   5.541   1.019
 3458SOL    HW111273   5.082   5.534   1.110
 3458SOL    HW211274   5.118   5.451   0.974
 3459SOL     OW11275   6.408   6.249   3.681
 3459SOL    HW111276   6.501   6.260   3.648
 3459SOL    HW211277   6.352   6.207   3.609
 3460SOL     OW11278   3.995   3.289   6.609
 3460SOL    HW111279   3.954   3.284   6.700
 3460SOL    HW211280   4.075   3.350   6.612
 3461SOL     OW11281   3.336   5.677   2.517
 3461SOL    HW111282   3.420   5.717   2.554
 3461SOL    HW211283   3.359   5.608   2.448
 3462SOL     OW11284   5.124   3.182   3.245
 3462SOL    HW111285   5.095   3.227   3.161
 3462SOL    HW211286   5.146   3.087   3.227
 3463SOL     OW11287   2.220   2.877   1.107
 3463SOL    HW111288   2.162   2.928   1.044
 3463SOL    HW211289   2.315   2.907   1.096
 3464SOL     OW11290   4.543   2.627   6.777
 3464SOL    HW111291   4.452   2.636   6.817
 3464SOL    HW211292   4.604   2.696   6.816
 3465SOL     OW11293   2.040   3.504   2.218
 3465SOL    HW111294   2.103   3.482   2.143
 3465SOL    HW211295   1.947   3.512   2.182
 3466SOL     OW11296   6.006   4.603   3.887
 3466SOL    HW111297   5.968   4.662   3.815
 3466SOL    HW211298   6.071   4.539   3.846
 3467SOL     OW11299   3.175   2.644   1.278
 3467SOL    HW111300   3.129   2.724   1.316
 3467SOL    HW211301   3.169   2.568   1.342
 3468SOL     OW11302   3.528   1.750   0.953
 3468SOL    HW111303   3.620   1.738   0.992
 3468SOL    HW211304   3.518   1.844   0.919
 3469SOL     OW11305   4.063   6.112   5.676
 3469SOL    HW111306   4.111   6.046   5.617
 3469SOL    HW211307   3.998   6.165   5.621
 3470SOL     OW11308   0.769   2.843   1.716
 3470SOL    HW111309   0.823   2.836   1.799
 3470SOL    HW211310   0.816   2.902   1.650
 3471SOL     OW11311   5.024   2.934   3.450
 3471SOL    HW111312   5.086   2.856   3.462
 3471SOL    HW211313   5.072   3.018   3.474
 3472SOL     OW11314   4.326   1.409   3.500
 3472SOL    HW111315   4.311   1.500   3.461
 3472SOL    HW211316   4.329   1.416   3.600
 3473SOL     OW11317   0.177   4.271   1.918
 3473SOL    HW111318   0.211   4.305   1.831
 3473SOL    HW211319   0.238   4.300   1.992
 3474SOL     OW11320   5.755   5.223   3.970
 3474SOL    HW111321   5.810   5.203   3.889
 3474SOL    HW211322   5.815   5.237   4.048
 3475SOL     OW11323   6.905   4.195   4.120
 3475SOL    HW111324   6.823   4.231   4.077
 3475SOL    HW211325   6.981   4.197   4.055
 3476SOL     OW11326   1.223   0.932   3.382
 3476SOL    HW111327   1.181   0.864   3.322
 3476SOL    HW211328   1.198   0.912   3.477
 3477SOL     OW11329   0.408   4.188   2.146
 3477SOL    HW111330   0.445   4.159   2.058
 3477SOL    HW211331   0.326   4.135   2.167
 3478SOL     OW11332   2.002   0.803   0.645
 3478SOL    HW111333   1.986   0.812   0.546
 3478SOL    HW211334   2.074   0.735   0.660
 3479SOL     OW11335   1.383   4.139   4.099
 3479SOL    HW111336   1.434   4.188   4.028
 3479SOL    HW211337   1.422   4.160   4.188
 3480SOL     OW11338   1.323   4.739   0.021
 3480SOL    HW111339   1.397   4.806   0.016
 3480SOL    HW211340   1.316   4.703   0.114
 3481SOL     OW11341   5.945   1.063   4.980
 3481SOL    HW111342   5.977   0.969   4.995
 3481SOL    HW211343   5.857   1.076   5.024
 3482SOL     OW11344   5.939   4.020   5.221
 3482SOL    HW111345   5.879   4.075   5.164
 3482SOL    HW211346   6.030   4.063   5.225
 3483SOL     OW11347   5.254   3.013   4.748
 3483SOL    HW111348   5.197   2.987   4.826
 3483SOL    HW211349   5.327   2.945   4.736
 3484SOL     OW11350   2.173   3.408   5.213
 3484SOL    HW111351   2.242   3.343   5.244
 3484SOL    HW211352   2.108   3.425   5.287
 3485SOL     OW11353   0.320   2.501   6.349
 3485SOL    HW111354   0.247   2.447   6.307
 3485SOL    HW211355   0.357   2.565   6.281
 3486SOL     OW11356   1.888   6.877   4.817
 3486SOL    HW111357   1.930   6.921   4.738
 3486SOL    HW211358   1.910   6.779   4.816
 3487SOL     OW11359   4.959   1.594   6.728
 3487SOL    HW111360   4.932   1.518   6.787
 3487SOL    HW211361   5.002   1.558   6.645
 3488SOL     OW11362   5.613   0.819   4.522
 3488SOL    HW111363   5.640   0.870   4.440
 3488SOL    HW211364   5.626   0.877   4.603
 3489SOL     OW11365   3.449   6.625   0.374
 3489SOL    HW111366   3.424   6.552   0.310
 3489SOL    HW211367   3.388   6.622   0.453
 3490SOL     OW11368   3.431   5.638   0.054
 3490SOL    HW111369   3.412   5.595   6.986
 3490SOL    HW211370   3.449   5.735   0.041
 3491SOL     OW11371   4.949   4.732   6.366
 3491SOL    HW111372   4.965   4.783   6.451
 3491SOL    HW211373   4.960   4.634   6.384
 3492SOL     OW11374   5.870   4.659   2.896
 3492SOL    HW111375   5.918   4.747   2.898
 3492SOL    HW211376   5.937   4.585   2.898
 3493SOL     OW11377   5.994   3.287   5.092
 3493SOL    HW111378   5.978   3.197   5.053
 3493SOL    HW211379   5.915   3.345   5.075
 3494SOL     OW11380   4.134   1.599   1.867
 3494SOL    HW111381   4.068   1.666   1.900
 3494SOL    HW211382   4.204   1.645   1.812
 3495SOL     OW11383   0.649   2.948   2.552
 3495SOL    HW111384   0.570   2.901   2.591
 3495SOL    HW211385   0.730   2.929   2.607
 3496SOL     OW11386   5.403   5.326   1.288
 3496SOL    HW111387   5.381   5.411   1.240
 3496SOL    HW211388   5.469   5.345   1.360
 3497SOL     OW11389   3.396   0.052   2.582
 3497SOL    HW111390   3.350   6.989   2.612
 3497SOL    HW211391   3.327   0.121   2.558
 3498SOL     OW11392   2.371   2.349   1.447
 3498SOL    HW111393   2.400   2.254   1.432
 3498SOL    HW211394   2.421   2.409   1.386
 3499SOL     OW11395   6.357   5.416   5.822
 3499SOL    HW111396   6.405   5.473   5.756
 3499SOL    HW211397   6.291   5.472   5.873
 3500SOL     OW11398   1.688   1.766   4.089
 3500SOL    HW111399   1.727   1.752   3.998
 3500SOL    HW211400   1.591   1.743   4.087
 3501SOL     OW11401   1.287   0.173   5.743
 3501SOL    HW111402   1.331   0.091   5.707
 3501SOL    HW211403   1.337   0.206   5.823
 3502SOL     OW11404   4.840   3.060   2.272
 3502SOL    HW111405   4.802   3.046   2.181
 3502SOL    HW211406   4.939   3.053   2.268
 3503SOL     OW11407   6.177   5.718   6.954
 3503SOL    HW111408   6.219   5.641   6.907
 3503SOL    HW211409   6.112   5.685   0.001
 3504SOL     OW11410   1.509   1.012   0.914
 3504SOL    HW111411   1.526   0.966   1.001
 3504SOL    HW211412   1.578   1.083   0.900
 3505SOL     OW11413   5.639   4.796   6.095
 3505SOL    HW111414   5.724   4.825   6.138
 3505SOL    HW211415   5.562   4.842   6.140
 3506SOL     OW11416   4.928   4.540   4.900
 3506SOL    HW111417   4.961   4.447   4.884
 3506SOL    HW211418   4.965   4.601   4.829
 3507SOL     OW11419   3.241   6.635   0.569
 3507SOL    HW111420   3.248   6.580   0.653
 3507SOL    HW211421   3.179   6.712   0.585
 3508SOL     OW11422   3.066   2.309   5.387
 3508SOL    HW111423   3.106   2.327   5.477
 3508SOL    HW211424   3.121   2.354   5.316
 3509SOL     OW11425   4.254   5.270   6.547
 3509SOL    HW111426   4.215   5.193   6.497
 3509SOL    HW211427   4.211   5.355   6.516
 3510SOL     OW11428   2.967   0.671   0.686
 3510SOL    HW111429   2.939   0.704   0.776
 3510SOL    HW211430   2.946   0.739   0.617
 3511SOL     OW11431   2.688   4.508   1.687
 3511SOL    HW111432   2.734   4.521   1.775
 3511SOL    HW211433   2.724   4.573   1.620
 3512SOL     OW11434   0.199   4.777   6.609
 3512SOL    HW111435   0.159   4.722   6.683
 3512SOL    HW211436   0.131   4.840   6.573
 3513SOL     OW11437   6.094   2.194   0.112
 3513SOL    HW111438   6.142   2.278   0.086
 3513SOL    HW211439   6.159   2.117   0.110
 3514SOL     OW11440   3.991   1.442   2.493
 3514SOL    HW111441   4.062   1.380   2.528
 3514SOL    HW211442   3.971   1.419   2.398
 3515SOL     OW11443   6.261   5.448   4.358
 3515SOL    HW111444   6.299   5.462   4.267
 3515SOL    HW211445   6.328   5.401   4.415
 3516SOL     OW11446   4.841   0.332   1.350
 3516SOL    HW111447   4.875   0.297   1.263
 3516SOL    HW211448   4.902   0.304   1.424
 3517SOL     OW11449   6.172   0.634   1.042
 3517SOL    HW111450   6.189   0.732   1.051
 3517SOL    HW211451   6.244   0.582   1.088
 3518SOL     OW11452   5.200   1.380   5.474
 3518SOL    HW111453   5.251   1.316   5.532
 3518SOL    HW211454   5.104   1.379   5.499
 3519SOL     OW11455   3.381   1.106   0.671
 3519SOL    HW111456   3.459   1.057   0.634
 3519SOL    HW211457   3.300   1.048   0.668
 3520SOL     OW11458   2.682   6.520   4.890
 3520SOL    HW111459   2.720   6.516   4.982
 3520SOL    HW211460   2.750   6.487   4.825
 3521SOL     OW11461   2.514   2.738   0.322
 3521SOL    HW111462   2.580   2.741   0.397
 3521SOL    HW211463   2.469   2.649   0.320
 3522SOL     OW11464   0.206   5.811   6.523
 3522SOL    HW111465   0.204   5.908   6.500
 3522SOL    HW211466   0.191   5.757   6.440
 3523SOL     OW11467   1.277   5.225   6.402
 3523SOL    HW111468   1.339   5.276   6.342
 3523SOL    HW211469   1.185   5.263   6.394
 3524SOL     OW11470   5.625   1.397   3.315
 3524SOL    HW111471   5.665   1.396   3.406
 3524SOL    HW211472   5.693   1.367   3.248
 3525SOL     OW11473   6.287   4.335   3.445
 3525SOL    HW111474   6.251   4.404   3.509
 3525SOL    HW211475   6.256   4.245   3.473
 3526SOL     OW11476   1.014   6.184   2.886
 3526SOL    HW111477   1.020   6.282   2.865
 3526SOL    HW211478   1.060   6.132   2.814
 3527SOL     OW11479   6.411   2.421   5.685
 3527SOL    HW111480   6.414   2.369   5.600
 3527SOL    HW211481   6.423   2.518   5.665
 3528SOL     OW11482   2.224   6.604   4.682
 3528SOL    HW111483   2.260   6.655   4.605
 3528SOL    HW211484   2.295   6.547   4.722
 3529SOL     OW11485   4.242   5.202   0.630
 3529SOL    HW111486   4.174   5.163   0.568
 3529SOL    HW211487   4.226   5.301   0.639
 3530SOL     OW11488   7.019   0.397   1.734
 3530SOL    HW111489   6.955   0.333   1.691
 3530SOL    HW211490   7.019   0.483   1.684
 3531SOL     OW11491   5.375   1.568   0.617
 3531SOL    HW111492   5.419   1.573   0.708
 3531SOL    HW211493   5.322   1.652   0.602
 3532SOL     OW11494   1.752   1.514   1.878
 3532SOL    HW111495   1.669   1.531   1.824
 3532SOL    HW211496   1.765   1.588   1.943
 3533SOL     OW11497   0.428   1.007   2.717
 3533SOL    HW111498   0.457   1.082   2.776
 3533SOL    HW211499   0.424   1.038   2.622
 3534SOL     OW11500   0.139   0.772   1.127
 3534SOL    HW111501   0.142   0.693   1.066
 3534SOL    HW211502   0.179   0.851   1.081
 3535SOL     OW11503   2.708   5.976   4.549
 3535SOL    HW111504   2.734   6.060   4.598
 3535SOL    HW211505   2.749   5.897   4.595
 3536SOL     OW11506   3.388   2.100   2.703
 3536SOL    HW111507   3.422   2.116   2.610
 3536SOL    HW211508   3.297   2.139   2.712
 3537SOL     OW11509   1.648   5.816   3.180
 3537SOL    HW111510   1.701   5.781   3.257
 3537SOL    HW211511   1.554   5.836   3.210
 3538SOL     OW11512   3.207   5.659   3.946
 3538SOL    HW111513   3.195   5.608   3.861
 3538SOL    HW211514   3.262   5.606   4.009
 3539SOL     OW11515   3.716   3.932   4.137
 3539SOL    HW111516   3.720   3.988   4.055
 3539SOL    HW211517   3.634   3.874   4.134
 3540SOL     OW11518   1.784   1.833   3.823
 3540SOL    HW111519   1.803   1.735   3.821
 3540SOL    HW211520   1.869   1.884   3.830
 3541SOL     OW11521   2.979   3.981   4.751
 3541SOL    HW111522   2.896   3.983   4.807
 3541SOL    HW211523   2.989   3.891   4.709
 3542SOL     OW11524   0.276   5.275   1.685
 3542SOL    HW111525   0.212   5.238   1.618
 3542SOL    HW211526   0.253   5.370   1.704
 3543SOL     OW11527   5.991   2.874   4.548
 3543SOL    HW111528   5.987   2.788   4.598
 3543SOL    HW211529   6.070   2.927   4.578
 3544SOL     OW11530   1.949   5.275   6.199
 3544SOL    HW111531   1.853   5.271   6.170
 3544SOL    HW211532   2.007   5.297   6.120
 3545SOL     OW11533   4.024   5.119   6.724
 3545SOL    HW111534   4.041   5.032   6.769
 3545SOL    HW211535   4.112   5.160   6.698
 3546SOL     OW11536   6.293   5.092   3.101
 3546SOL    HW111537   6.243   5.083   3.188
 3546SOL    HW211538   6.324   5.186   3.090
 3547SOL     OW11539   5.373   5.006   4.344
 3547SOL    HW111540   5.283   4.963   4.341
 3547SOL    HW211541   5.369   5.096   4.301
 3548SOL     OW11542   4.730   3.027   5.370
 3548SOL    HW111543   4.818   3.005   5.328
 3548SOL    HW211544   4.656   2.998   5.309
 3549SOL     OW11545   5.721   4.412   2.861
 3549SOL    HW111546   5.742   4.509   2.847
 3549SOL    HW211547   5.806   4.361   2.874
 3550SOL     OW11548   5.712   2.344   2.287
 3550SOL    HW111549   5.802   2.372   2.318
 3550SOL    HW211550   5.644   2.369   2.357
 3551SOL     OW11551   2.822   6.570   3.211
 3551SOL    HW111552   2.755   6.497   3.199
 3551SOL    HW211553   2.815   6.635   3.136
 3552SOL     OW11554   6.451   4.989   2.871
 3552SOL    HW111555   6.453   5.016   2.775
 3552SOL    HW211556   6.357   4.986   2.903
 3553SOL     OW11557   6.046   1.564   2.670
 3553SOL    HW111558   6.069   1.659   2.693
 3553SOL    HW211559   6.042   1.554   2.571
 3554SOL     OW11560   4.171   5.064   6.344
 3554SOL    HW111561   4.071   5.070   6.350
 3554SOL    HW211562   4.203   5.122   6.269
 3555SOL     OW11563   1.416   2.932   3.480
 3555SOL    HW111564   1.497   2.990   3.476
 3555SOL    HW211565   1.439   2.841   3.446
 3556SOL     OW11566   3.856   0.575   6.565
 3556SOL    HW111567   3.772   0.525   6.587
 3556SOL    HW211568   3.920   0.515   6.517
 3557SOL     OW11569   1.228   0.677   5.108
 3557SOL    HW111570   1.319   0.638   5.116
 3557SOL    HW211571   1.216   0.748   5.179
 3558SOL     OW11572   0.112   5.566   1.342
 3558SOL    HW111573   0.105   5.666   1.338
 3558SOL    HW211574   0.144   5.531   1.254
 3559SOL     OW11575   0.662   0.848   5.654
 3559SOL    HW111576   0.692   0.778   5.589
 3559SOL    HW211577   0.584   0.897   5.616
 3560SOL     OW11578   6.897   6.407   1.335
 3560SOL    HW111579   6.921   6.501   1.310
 3560SOL    HW211580   6.980   6.353   1.347
 3561SOL     OW11581   4.736   4.944   5.033
 3561SOL    HW111582   4.821   4.946   5.087
 3561SOL    HW211583   4.657   4.948   5.095
 3562SOL     OW11584   4.496   1.270   2.892
 3562SOL    HW111585   4.541   1.344   2.942
 3562SOL    HW211586   4.558   1.193   2.884
 3563SOL     OW11587   4.761   0.946   1.134
 3563SOL    HW111588   4.708   0.904   1.060
 3563SOL    HW211589   4.781   1.041   1.110
 3564SOL     OW11590   0.140   4.375   3.141
 3564SOL    HW111591   0.131   4.295   3.082
 3564SOL    HW211592   0.171   4.453   3.087
 3565SOL     OW11593   2.063   0.319   4.726
 3565SOL    HW111594   2.113   0.239   4.691
 3565SOL    HW211595   2.034   0.300   4.820
 3566SOL     OW11596   0.648   3.766   5.374
 3566SOL    HW111597   0.672   3.757   5.277
 3566SOL    HW211598   0.641   3.863   5.397
 3567SOL     OW11599   0.055   3.202   0.821
 3567SOL    HW111600   0.023   3.257   0.744
 3567SOL    HW211601   0.110   3.258   0.882
 3568SOL     OW11602   5.007   3.690   3.400
 3568SOL    HW111603   4.955   3.666   3.482
 3568SOL    HW211604   4.984   3.783   3.372
 3569SOL     OW11605   3.717   3.274   3.789
 3569SOL    HW111606   3.770   3.189   3.785
 3569SOL    HW211607   3.777   3.352   3.769
 3570SOL     OW11608   0.042   2.436   5.944
 3570SOL    HW111609   6.970   2.436   5.907
 3570SOL    HW211610   0.087   2.522   5.921
 3571SOL     OW11611   2.227   6.735   4.937
 3571SOL    HW111612   2.228   6.739   4.837
 3571SOL    HW211613   2.156   6.671   4.967
 3572SOL     OW11614   4.714   4.656   1.997
 3572SOL    HW111615   4.756   4.621   2.081
 3572SOL    HW211616   4.706   4.583   1.930
 3573SOL     OW11617   0.025   3.679   3.320
 3573SOL    HW111618   6.968   3.741   3.326
 3573SOL    HW211619   0.012   3.603   3.383
 3574SOL     OW11620   2.107   2.382   5.544
 3574SOL    HW111621   2.151   2.371   5.633
 3574SOL    HW211622   2.008   2.380   5.556
 3575SOL     OW11623   5.354   0.236   0.229
 3575SOL    HW111624   5.286   0.237   0.303
 3575SOL    HW211625   5.408   0.152   0.235
 3576SOL     OW11626   1.671   3.184   1.114
 3576SOL    HW111627   1.572   3.189   1.102
 3576SOL    HW211628   1.707   3.276   1.132
 3577SOL     OW11629   2.666   3.134   5.666
 3577SOL    HW111630   2.691   3.123   5.569
 3577SOL    HW211631   2.749   3.148   5.720
 3578SOL     OW11632   3.112   3.050   6.301
 3578SOL    HW111633   3.115   3.132   6.245
 3578SOL    HW211634   3.047   2.985   6.261
 3579SOL     OW11635   0.441   2.967   1.915
 3579SOL    HW111636   0.349   2.972   1.876
 3579SOL    HW211637   0.507   2.994   1.846
 3580SOL     OW11638   0.489   4.110   1.888
 3580SOL    HW111639   0.562   4.054   1.847
 3580SOL    HW211640   0.509   4.207   1.873
 3581SOL     OW11641   1.709   6.866   2.873
 3581SOL    HW111642   1.716   6.776   2.915
 3581SOL    HW211643   1.791   6.885   2.819
 3582SOL     OW11644   3.811   4.726   6.439
 3582SOL    HW111645   3.714   4.741   6.456
 3582SOL    HW211646   3.849   4.666   6.509
 3583SOL     OW11647   0.829   4.968   0.716
 3583SOL    HW111648   0.812   5.052   0.768
 3583SOL    HW211649   0.842   4.892   0.779
 3584SOL     OW11650   6.188   4.674   5.020
 3584SOL    HW111651   6.103   4.634   4.987
 3584SOL    HW211652   6.180   4.774   5.021
 3585SOL     OW11653   3.269   1.666   2.915
 3585SOL    HW111654   3.298   1.761   2.902
 3585SOL    HW211655   3.225   1.656   3.005
 3586SOL     OW11656   6.547   2.640   5.152
 3586SOL    HW111657   6.612   2.629   5.226
 3586SOL    HW211658   6.555   2.731   5.112
 3587SOL     OW11659   2.770   6.882   6.381
 3587SOL    HW111660   2.743   6.791   6.414
 3587SOL    HW211661   2.740   6.952   6.445
 3588SOL     OW11662   6.344   4.760   4.530
 3588SOL    HW111663   6.348   4.858   4.549
 3588SOL    HW211664   6.350   4.744   4.432
 3589SOL     OW11665   0.082   0.515   6.236
 3589SOL    HW111666   0.037   0.432   6.205
 3589SOL    HW211667   0.049   0.593   6.183
 3590SOL     OW11668   6.360   5.122   0.237
 3590SOL    HW111669   6.266   5.132   0.270
 3590SOL    HW211670   6.391   5.208   0.198
 3591SOL     OW11671   5.714   1.644   6.522
 3591SOL    HW111672   5.730   1.695   6.607
 3591SOL    HW211673   5.772   1.682   6.450
 3592SOL     OW11674   1.716   6.210   1.422
 3592SOL    HW111675   1.624   6.172   1.417
 3592SOL    HW211676   1.738   6.255   1.335
 3593SOL     OW11677   4.322   3.062   5.335
 3593SOL    HW111678   4.367   3.006   5.265
 3593SOL    HW211679   4.341   3.023   5.425
 3594SOL     OW11680   4.483   4.644   5.227
 3594SOL    HW111681   4.410   4.626   5.162
 3594SOL    HW211682   4.569   4.605   5.192
 3595SOL     OW11683   5.489   6.414   4.857
 3595SOL    HW111684   5.556   6.434   4.929
 3595SOL    HW211685   5.407   6.374   4.898
 3596SOL     OW11686   4.080   2.112   3.852
 3596SOL    HW111687   4.112   2.187   3.793
 3596SOL    HW211688   4.078   2.027   3.800
 3597SOL     OW11689   2.694   3.325   5.308
 3597SOL    HW111690   2.616   3.271   5.278
 3597SOL    HW211691   2.742   3.277   5.381
 3598SOL     OW11692   1.437   5.851   5.148
 3598SOL    HW111693   1.386   5.819   5.228
 3598SOL    HW211694   1.384   5.921   5.101
 3599SOL     OW11695   3.687   1.180   4.986
 3599SOL    HW111696   3.656   1.090   4.954
 3599SOL    HW211697   3.775   1.171   5.031
 3600SOL     OW11698   3.274   3.454   0.385
 3600SOL    HW111699   3.250   3.483   0.478
 3600SOL    HW211700   3.349   3.388   0.390
 3601SOL     OW11701   4.961   0.697   5.063
 3601SOL    HW111702   5.010   0.780   5.089
 3601SOL    HW211703   4.888   0.720   4.998
 3602SOL     OW11704   2.367   2.105   1.255
 3602SOL    HW111705   2.333   2.075   1.344
 3602SOL    HW211706   2.303   2.172   1.217
 3603SOL     OW11707   2.791   0.653   5.436
 3603SOL    HW111708   2.890   0.653   5.420
 3603SOL    HW211709   2.766   0.731   5.493
 3604SOL     OW11710   6.896   0.409   3.053
 3604SOL    HW111711   6.944   0.430   3.138
 3604SOL    HW211712   6.813   0.357   3.074
 3605SOL     OW11713   1.212   6.293   3.963
 3605SOL    HW111714   1.247   6.224   3.899
 3605SOL    HW211715   1.285   6.322   4.025
 3606SOL     OW11716   2.734   6.566   2.414
 3606SOL    HW111717   2.675   6.534   2.340
 3606SOL    HW211718   2.722   6.506   2.494
 3607SOL     OW11719   5.872   1.977   2.941
 3607SOL    HW111720   5.905   2.062   2.982
 3607SOL    HW211721   5.784   1.952   2.981
 3608SOL     OW11722   2.567   2.195   6.084
 3608SOL    HW111723   2.598   2.103   6.061
 3608SOL    HW211724   2.593   2.258   6.011
 3609SOL     OW11725   2.962   0.981   4.652
 3609SOL    HW111726   3.042   0.981   4.592
 3609SOL    HW211727   2.891   1.039   4.613
 3610SOL     OW11728   1.652   0.225   4.992
 3610SOL    HW111729   1.599   0.159   5.044
 3610SOL    HW211730   1.668   0.190   4.900
 3611SOL     OW11731   5.501   5.194   3.167
 3611SOL    HW111732   5.507   5.273   3.227
 3611SOL    HW211733   5.406   5.180   3.139
 3612SOL     OW11734   6.150   1.336   0.013
 3612SOL    HW111735   6.159   1.295   0.104
 3612SOL    HW211736   6.165   1.434   0.020
 3613SOL     OW11737   4.517   6.191   2.119
 3613SOL    HW111738   4.454   6.157   2.050
 3613SOL    HW211739   4.562   6.274   2.085
 3614SOL     OW11740   3.655   5.221   6.598
 3614SOL    HW111741   3.643   5.233   6.696
 3614SOL    HW211742   3.742   5.262   6.570
 3615SOL     OW11743   5.633   2.228   6.075
 3615SOL    HW111744   5.652   2.274   5.988
 3615SOL    HW211745   5.690   2.147   6.083
 3616SOL     OW11746   1.141   2.018   0.162
 3616SOL    HW111747   1.148   2.106   0.208
 3616SOL    HW211748   1.200   2.018   0.081
 3617SOL     OW11749   3.842   5.819   5.608
 3617SOL    HW111750   3.919   5.878   5.584
 3617SOL    HW211751   3.766   5.875   5.641
 3618SOL     OW11752   1.134   5.465   4.315
 3618SOL    HW111753   1.099   5.432   4.228
 3618SOL    HW211754   1.076   5.431   4.389
 3619SOL     OW11755   5.713   3.812   1.875
 3619SOL    HW111756   5.645   3.796   1.946
 3619SOL    HW211757   5.771   3.731   1.865
 3620SOL     OW11758   5.996   5.856   4.876
 3620SOL    HW111759   6.021   5.943   4.834
 3620SOL    HW211760   5.994   5.785   4.805
 3621SOL     OW11761   3.300   2.984   3.190
 3621SOL    HW111762   3.308   2.978   3.290
 3621SOL    HW211763   3.360   3.057   3.156
 3622SOL     OW11764   1.370   5.967   6.280
 3622SOL    HW111765   1.342   6.029   6.353
 3622SOL    HW211766   1.315   5.985   6.198
 3623SOL     OW11767   1.005   5.675   6.304
 3623SOL    HW111768   1.063   5.718   6.374
 3623SOL    HW211769   1.041   5.697   6.213
 3624SOL     OW11770   2.891   2.615   1.432
 3624SOL    HW111771   2.941   2.530   1.415
 3624SOL    HW211772   2.901   2.641   1.528
 3625SOL     OW11773   6.774   2.115   0.621
 3625SOL    HW111774   6.680   2.094   0.646
 3625SOL    HW211775   6.778   2.140   0.524
 3626SOL     OW11776   1.658   2.986   5.180
 3626SOL    HW111777   1.601   3.001   5.099
 3626SOL    HW211778   1.753   3.011   5.160
 3627SOL     OW11779   3.412   1.934   2.108
 3627SOL    HW111780   3.503   1.975   2.116
 3627SOL    HW211781   3.420   1.834   2.109
 3628SOL     OW11782   6.763   2.188   1.475
 3628SOL    HW111783   6.701   2.144   1.409
 3628SOL    HW211784   6.836   2.124   1.499
 3629SOL     OW11785   1.213   1.622   4.317
 3629SOL    HW111786   1.154   1.586   4.244
 3629SOL    HW211787   1.272   1.549   4.351
 3630SOL     OW11788   0.038   2.658   1.758
 3630SOL    HW111789   0.050   2.567   1.718
 3630SOL    HW211790   0.062   2.656   1.855
 3631SOL     OW11791   1.892   0.053   2.394
 3631SOL    HW111792   1.933   0.012   2.313
 3631SOL    HW211793   1.839   7.005   2.443
 3632SOL     OW11794   4.530   3.855   1.665
 3632SOL    HW111795   4.531   3.761   1.633
 3632SOL    HW211796   4.436   3.889   1.665
 3633SOL     OW11797   3.744   4.090   6.822
 3633SOL    HW111798   3.706   4.174   6.782
 3633SOL    HW211799   3.730   4.090   6.921
 3634SOL     OW11800   3.385   5.561   6.437
 3634SOL    HW111801   3.333   5.486   6.479
 3634SOL    HW211802   3.362   5.647   6.483
 3635SOL     OW11803   1.605   5.905   2.245
 3635SOL    HW111804   1.544   5.955   2.306
 3635SOL    HW211805   1.618   5.958   2.161
 3636SOL     OW11806   0.448   5.288   6.408
 3636SOL    HW111807   0.526   5.310   6.350
 3636SOL    HW211808   0.456   5.193   6.441
 3637SOL     OW11809   6.375   3.334   0.173
 3637SOL    HW111810   6.382   3.342   0.272
 3637SOL    HW211811   6.292   3.380   0.141
 3638SOL     OW11812   6.209   3.394   2.798
 3638SOL    HW111813   6.267   3.418   2.720
 3638SOL    HW211814   6.115   3.419   2.779
 3639SOL     OW11815   3.873   2.992   3.478
 3639SOL    HW111816   3.883   2.997   3.379
 3639SOL    HW211817   3.785   2.950   3.501
 3640SOL     OW11818   4.350   2.040   1.978
 3640SOL    HW111819   4.276   2.093   2.019
 3640SOL    HW211820   4.374   1.963   2.038
 3641SOL     OW11821   5.991   4.070   2.841
 3641SOL    HW111822   6.045   4.103   2.918
 3641SOL    HW211823   5.979   4.144   2.775
 3642SOL     OW11824   5.251   3.315   6.107
 3642SOL    HW111825   5.188   3.243   6.136
 3642SOL    HW211826   5.210   3.368   6.033
 3643SOL     OW11827   4.207   6.001   5.270
 3643SOL    HW111828   4.264   5.935   5.221
 3643SOL    HW211829   4.205   5.978   5.367
 3644SOL     OW11830   2.967   0.690   1.676
 3644SOL    HW111831   2.872   0.669   1.651
 3644SOL    HW211832   2.998   0.770   1.626
 3645SOL     OW11833   1.371   4.103   3.349
 3645SOL    HW111834   1.416   4.070   3.266
 3645SOL    HW211835   1.432   4.163   3.399
 3646SOL     OW11836   1.628   4.441   5.523
 3646SOL    HW111837   1.721   4.439   5.487
 3646SOL    HW211838   1.563   4.444   5.447
 3647SOL     OW11839   2.633   0.188   6.388
 3647SOL    HW111840   2.534   0.172   6.394
 3647SOL    HW211841   2.665   0.169   6.295
 3648SOL     OW11842   4.746   5.470   3.513
 3648SOL    HW111843   4.710   5.524   3.589
 3648SOL    HW211844   4.842   5.495   3.496
 3649SOL     OW11845   5.658   2.844   0.244
 3649SOL    HW111846   5.730   2.905   0.212
 3649SOL    HW211847   5.695   2.781   0.312
 3650SOL     OW11848   5.521   6.047   6.547
 3650SOL    HW111849   5.462   6.126   6.533
 3650SOL    HW211850   5.582   6.065   6.625
 3651SOL     OW11851   0.662   1.881   5.827
 3651SOL    HW111852   0.689   1.861   5.733
 3651SOL    HW211853   0.563   1.881   5.834
 3652SOL     OW11854   4.325   1.451   1.598
 3652SOL    HW111855   4.290   1.545   1.598
 3652SOL    HW211856   4.331   1.418   1.504
 3653SOL     OW11857   1.241   1.798   1.129
 3653SOL    HW111858   1.219   1.714   1.081
 3653SOL    HW211859   1.331   1.791   1.172
 3654SOL     OW11860   4.410   6.384   1.610
 3654SOL    HW111861   4.321   6.412   1.648
 3654SOL    HW211862   4.398   6.300   1.557
 3655SOL     OW11863   1.210   1.275   4.141
 3655SOL    HW111864   1.235   1.178   4.148
 3655SOL    HW211865   1.110   1.283   4.138
 3656SOL     OW11866   0.595   0.195   1.650
 3656SOL    HW111867   0.596   0.223   1.746
 3656SOL    HW211868   0.503   0.208   1.613
 3657SOL     OW11869   6.135   5.568   5.898
 3657SOL    HW111870   6.115   5.665   5.904
 3657SOL    HW211871   6.082   5.518   5.967
 3658SOL     OW11872   1.600   5.231   5.567
 3658SOL    HW111873   1.546   5.156   5.606
 3658SOL    HW211874   1.650   5.198   5.487
 3659SOL     OW11875   0.150   2.325   6.202
 3659SOL    HW111876   0.195   2.236   6.199
 3659SOL    HW211877   0.106   2.342   6.114
 3660SOL     OW11878   5.172   5.684   5.970
 3660SOL    HW111879   5.228   5.766   5.957
 3660SOL    HW211880   5.076   5.707   5.957
 3661SOL     OW11881   0.324   1.832   4.693
 3661SOL    HW111882   0.318   1.867   4.786
 3661SOL    HW211883   0.419   1.823   4.666
 3662SOL     OW11884   2.911   1.742   5.555
 3662SOL    HW111885   2.852   1.758   5.475
 3662SOL    HW211886   2.869   1.782   5.636
 3663SOL     OW11887   2.409   2.664   6.727
 3663SOL    HW111888   2.345   2.590   6.707
 3663SOL    HW211889   2.501   2.638   6.697
 3664SOL     OW11890   3.367   1.987   1.283
 3664SOL    HW111891   3.317   1.933   1.215
 3664SOL    HW211892   3.428   1.928   1.335
 3665SOL     OW11893   0.748   5.751   6.023
 3665SOL    HW111894   0.656   5.733   6.056
 3665SOL    HW211895   0.751   5.841   5.980
 3666SOL     OW11896   2.160   3.054   4.720
 3666SOL    HW111897   2.096   3.004   4.662
 3666SOL    HW211898   2.230   2.991   4.754
 3667SOL     OW11899   1.700   6.564   0.919
 3667SOL    HW111900   1.766   6.604   0.982
 3667SOL    HW211901   1.618   6.535   0.969
 3668SOL     OW11902   6.662   1.101   1.025
 3668SOL    HW111903   6.668   1.011   1.067
 3668SOL    HW211904   6.582   1.149   1.061
 3669SOL     OW11905   0.895   1.285   3.645
 3669SOL    HW111906   0.990   1.305   3.670
 3669SOL    HW211907   0.879   1.187   3.650
 3670SOL     OW11908   2.587   6.996   1.647
 3670SOL    HW111909   2.606   6.981   1.744
 3670SOL    HW211910   2.627   0.063   1.619
 3671SOL     OW11911   6.873   0.548   4.429
 3671SOL    HW111912   6.950   0.606   4.456
 3671SOL    HW211913   6.892   0.453   4.454
 3672SOL     OW11914   3.689   6.680   3.685
 3672SOL    HW111915   3.646   6.766   3.712
 3672SOL    HW211916   3.620   6.618   3.647
 3673SOL     OW11917   3.511   0.007   1.064
 3673SOL    HW111918   3.580   7.003   1.132
 3673SOL    HW211919   3.540   6.997   0.973
 3674SOL     OW11920   0.718   4.612   6.772
 3674SOL    HW111921   0.779   4.690   6.790
 3674SOL    HW211922   0.678   4.581   6.858
 3675SOL     OW11923   1.136   0.499   4.366
 3675SOL    HW111924   1.182   0.411   4.351
 3675SOL    HW211925   1.041   0.492   4.337
 3676SOL     OW11926   3.649   1.432   4.869
 3676SOL    HW111927   3.711   1.445   4.791
 3676SOL    HW211928   3.664   1.342   4.909
 3677SOL     OW11929   1.459   1.145   4.554
 3677SOL    HW111930   1.386   1.085   4.521
 3677SOL    HW211931   1.519   1.094   4.615
 3678SOL     OW11932   1.471   0.974   3.764
 3678SOL    HW111933   1.417   0.891   3.759
 3678SOL    HW211934   1.410   1.054   3.764
 3679SOL     OW11935   4.293   0.383   2.197
 3679SOL    HW111936   4.281   0.466   2.251
 3679SOL    HW211937   4.316   0.307   2.257
 3680SOL     OW11938   3.062   1.947   4.407
 3680SOL    HW111939   3.080   2.036   4.450
 3680SOL    HW211940   3.141   1.919   4.353
 3681SOL     OW11941   0.902   6.419   3.995
 3681SOL    HW111942   0.969   6.351   4.025
 3681SOL    HW211943   0.858   6.386   3.911
 3682SOL     OW11944   5.378   1.999   1.007
 3682SOL    HW111945   5.428   1.915   1.028
 3682SOL    HW211946   5.444   2.072   0.985
 3683SOL     OW11947   6.240   1.588   0.084
 3683SOL    HW111948   6.216   1.680   0.051
 3683SOL    HW211949   6.263   1.593   0.181
 3684SOL     OW11950   2.416   6.515   5.151
 3684SOL    HW111951   2.403   6.416   5.141
 3684SOL    HW211952   2.514   6.535   5.152
 3685SOL     OW11953   1.787   6.036   4.609
 3685SOL    HW111954   1.692   6.006   4.616
 3685SOL    HW211955   1.847   5.970   4.655
 3686SOL     OW11956   0.527   3.633   1.161
 3686SOL    HW111957   0.608   3.582   1.133
 3686SOL    HW211958   0.473   3.578   1.225
 3687SOL     OW11959   6.062   4.275   4.943
 3687SOL    HW111960   6.033   4.209   4.873
 3687SOL    HW211961   6.000   4.269   5.021
 3688SOL     OW11962   6.338   2.534   1.299
 3688SOL    HW111963   6.345   2.620   1.349
 3688SOL    HW211964   6.282   2.548   1.217
 3689SOL     OW11965   1.001   0.152   6.301
 3689SOL    HW111966   1.088   0.136   6.255
 3689SOL    HW211967   1.015   0.204   6.384
 3690SOL     OW11968   5.349   5.384   1.633
 3690SOL    HW111969   5.365   5.407   1.729
 3690SOL    HW211970   5.436   5.391   1.582
 3691SOL     OW11971   1.850   2.942   0.498
 3691SOL    HW111972   1.836   2.938   0.399
 3691SOL    HW211973   1.781   2.886   0.545
 3692SOL     OW11974   1.107   2.885   5.195
 3692SOL    HW111975   1.191   2.830   5.195
 3692SOL    HW211976   1.034   2.834   5.150
 3693SOL     OW11977   0.473   1.364   2.310
 3693SOL    HW111978   0.434   1.419   2.384
 3693SOL    HW211979   0.440   1.397   2.222
 3694SOL     OW11980   6.480   0.296   2.925
 3694SOL    HW111981   6.545   0.360   2.883
 3694SOL    HW211982   6.420   0.259   2.854
 3695SOL     OW11983   5.712   3.587   3.118
 3695SOL    HW111984   5.641   3.545   3.176
 3695SOL    HW211985   5.801   3.551   3.144
 3696SOL     OW11986   4.226   0.678   4.671
 3696SOL    HW111987   4.170   0.685   4.754
 3696SOL    HW211988   4.277   0.593   4.672
 3697SOL     OW11989   6.316   6.473   3.245
 3697SOL    HW111990   6.299   6.495   3.341
 3697SOL    HW211991   6.397   6.522   3.213
 3698SOL     OW11992   1.533   0.385   2.913
 3698SOL    HW111993   1.433   0.378   2.912
 3698SOL    HW211994   1.573   0.304   2.869
 3699SOL     OW11995   2.351   2.404   3.171
 3699SOL    HW111996   2.382   2.334   3.236
 3699SOL    HW211997   2.395   2.388   3.082
 3700SOL     OW11998   0.657   5.184   4.898
 3700SOL    HW111999   0.622   5.203   4.806
 3700SOL    HW212000   0.585   5.142   4.953
 3701SOL     OW12001   0.609   1.028   2.245
 3701SOL    HW112002   0.630   1.017   2.148
 3701SOL    HW212003   0.570   0.943   2.281
 3702SOL     OW12004   5.996   3.982   3.510
 3702SOL    HW112005   6.045   3.898   3.490
 3702SOL    HW212006   5.918   3.963   3.570
 3703SOL     OW12007   1.176   1.654   3.452
 3703SOL    HW112008   1.253   1.714   3.434
 3703SOL    HW212009   1.101   1.676   3.390
 3704SOL     OW12010   6.431   0.827   0.789
 3704SOL    HW112011   6.528   0.849   0.778
 3704SOL    HW212012   6.407   0.750   0.730
 3705SOL     OW12013   5.780   4.345   3.599
 3705SOL    HW112014   5.763   4.443   3.606
 3705SOL    HW212015   5.713   4.304   3.537
 3706SOL     OW12016   1.215   4.354   6.141
 3706SOL    HW112017   1.210   4.388   6.047
 3706SOL    HW212018   1.129   4.310   6.165
 3707SOL     OW12019   1.091   4.829   3.459
 3707SOL    HW112020   1.151   4.761   3.501
 3707SOL    HW212021   1.102   4.917   3.506
 3708SOL     OW12022   2.409   6.154   1.112
 3708SOL    HW112023   2.407   6.082   1.043
 3708SOL    HW212024   2.319   6.161   1.155
 3709SOL     OW12025   1.410   1.286   1.679
 3709SOL    HW112026   1.359   1.298   1.594
 3709SOL    HW212027   1.450   1.194   1.681
 3710SOL     OW12028   1.185   4.219   5.097
 3710SOL    HW112029   1.146   4.267   5.176
 3710SOL    HW212030   1.241   4.143   5.129
 3711SOL     OW12031   0.838   5.738   4.728
 3711SOL    HW112032   0.828   5.796   4.809
 3711SOL    HW212033   0.760   5.674   4.724
 3712SOL     OW12034   2.250   5.748   4.414
 3712SOL    HW112035   2.288   5.758   4.322
 3712SOL    HW212036   2.192   5.827   4.434
 3713SOL     OW12037   6.085   0.550   4.388
 3713SOL    HW112038   6.158   0.615   4.367
 3713SOL    HW212039   6.110   0.497   4.469
 3714SOL     OW12040   0.622   4.365   0.748
 3714SOL    HW112041   0.575   4.298   0.692
 3714SOL    HW212042   0.558   4.407   0.812
 3715SOL     OW12043   5.846   4.805   3.774
 3715SOL    HW112044   5.776   4.860   3.820
 3715SOL    HW212045   5.899   4.864   3.712
 3716SOL     OW12046   5.431   5.628   4.790
 3716SOL    HW112047   5.511   5.580   4.827
 3716SOL    HW212048   5.393   5.575   4.714
 3717SOL     OW12049   4.816   0.979   0.666
 3717SOL    HW112050   4.864   0.973   0.579
 3717SOL    HW212051   4.872   1.031   0.731
 3718SOL     OW12052   6.016   6.635   6.529
 3718SOL    HW112053   6.090   6.688   6.571
 3718SOL    HW212054   5.928   6.667   6.563
 3719SOL     OW12055   3.477   4.022   0.160
 3719SOL    HW112056   3.480   4.106   0.105
 3719SOL    HW212057   3.476   3.942   0.100
 3720SOL     OW12058   0.328   3.032   0.695
 3720SOL    HW112059   0.247   3.071   0.652
 3720SOL    HW212060   0.390   3.106   0.723
 3721SOL     OW12061   6.385   0.065   5.552
 3721SOL    HW112062   6.324   0.142   5.574
 3721SOL    HW212063   6.359   0.026   5.464
 3722SOL     OW12064   5.809   0.064   2.402
 3722SOL    HW112065   5.859   0.104   2.478
 3722SOL    HW212066   5.714   0.051   2.427
 3723SOL     OW12067   4.306   3.450   6.847
 3723SOL    HW112068   4.400   3.417   6.840
 3723SOL    HW212069   4.269   3.465   6.755
 3724SOL     OW12070   0.510   4.446   4.617
 3724SOL    HW112071   0.438   4.490   4.563
 3724SOL    HW212072   0.576   4.515   4.647
 3725SOL     OW12073   1.525   6.097   0.536
 3725SOL    HW112074   1.566   6.032   0.472
 3725SOL    HW212075   1.533   6.189   0.500
 3726SOL     OW12076   6.225   4.223   5.846
 3726SOL    HW112077   6.207   4.207   5.749
 3726SOL    HW212078   6.184   4.149   5.900
 3727SOL     OW12079   6.569   2.753   3.753
 3727SOL    HW112080   6.492   2.689   3.759
 3727SOL    HW212081   6.651   2.709   3.790
 3728SOL     OW12082   2.407   3.982   0.790
 3728SOL    HW112083   2.330   4.034   0.827
 3728SOL    HW212084   2.455   3.936   0.865
 3729SOL     OW12085   0.175   0.912   6.098
 3729SOL    HW112086   0.245   0.866   6.152
 3729SOL    HW212087   0.215   0.992   6.052
 3730SOL     OW12088   5.201   5.291   4.705
 3730SOL    HW112089   5.251   5.329   4.783
 3730SOL    HW212090   5.238   5.200   4.684
 3731SOL     OW12091   6.735   1.998   0.311
 3731SOL    HW112092   6.729   1.906   0.271
 3731SOL    HW212093   6.828   2.015   0.341
 3732SOL     OW12094   3.507   2.991   6.961
 3732SOL    HW112095   3.605   2.993   6.984
 3732SOL    HW212096   3.454   2.970   0.022
 3733SOL     OW12097   1.562   0.275   3.761
 3733SOL    HW112098   1.630   0.289   3.833
 3733SOL    HW212099   1.606   0.230   3.683
 3734SOL     OW12100   4.043   0.406   1.140
 3734SOL    HW112101   4.014   0.495   1.106
 3734SOL    HW212102   3.964   0.345   1.147
 3735SOL     OW12103   4.761   6.572   2.946
 3735SOL    HW112104   4.764   6.622   2.860
 3735SOL    HW212105   4.680   6.599   2.998
 3736SOL     OW12106   6.904   1.159   6.928
 3736SOL    HW112107   6.980   1.136   6.988
 3736SOL    HW212108   6.818   1.139   6.973
 3737SOL     OW12109   6.288   1.976   2.512
 3737SOL    HW112110   6.203   2.010   2.471
 3737SOL    HW212111   6.266   1.912   2.586
 3738SOL     OW12112   0.245   0.181   1.484
 3738SOL    HW112113   0.209   0.240   1.411
 3738SOL    HW212114   0.256   0.234   1.568
 3739SOL     OW12115   3.218   3.642   6.975
 3739SOL    HW112116   3.186   3.577   6.906
 3739SOL    HW212117   3.143   3.665   0.016
 3740SOL     OW12118   4.500   5.867   6.754
 3740SOL    HW112119   4.432   5.794   6.762
 3740SOL    HW212120   4.591   5.827   6.742
 3741SOL     OW12121   5.610   3.157   0.466
 3741SOL    HW112122   5.655   3.147   0.555
 3741SOL    HW212123   5.511   3.157   0.479
 3742SOL     OW12124   4.545   5.848   1.485
 3742SOL    HW112125   4.592   5.928   1.523
 3742SOL    HW212126   4.541   5.857   1.385
 3743SOL     OW12127   3.583   4.183   1.206
 3743SOL    HW112128   3.501   4.203   1.152
 3743SOL    HW212129   3.599   4.084   1.208
 3744SOL     OW12130   6.711   6.305   2.644
 3744SOL    HW112131   6.623   6.344   2.618
 3744SOL    HW212132   6.776   6.318   2.569
 3745SOL     OW12133   4.746   2.825   2.379
 3745SOL    HW112134   4.768   2.920   2.356
 3745SOL    HW212135   4.828   2.779   2.412
 3746SOL     OW12136   6.354   0.645   4.549
 3746SOL    HW112137   6.422   0.717   4.542
 3746SOL    HW212138   6.398   0.556   4.534
 3747SOL     OW12139   3.616   5.976   5.610
 3747SOL    HW112140   3.639   6.051   5.549
 3747SOL    HW212141   3.585   6.013   5.698
 3748SOL     OW12142   4.991   2.471   3.548
 3748SOL    HW112143   4.982   2.444   3.644
 3748SOL    HW212144   4.955   2.398   3.490
 3749SOL     OW12145   6.261   6.325   2.427
 3749SOL    HW112146   6.293   6.344   2.520
 3749SOL    HW212147   6.336   6.339   2.362
 3750SOL     OW12148   5.206   3.989   0.924
 3750SOL    HW112149   5.158   3.969   1.010
 3750SOL    HW212150   5.202   3.909   0.864
 3751SOL     OW12151   1.048   4.408   2.053
 3751SOL    HW112152   1.132   4.362   2.081
 3751SOL    HW212153   0.969   4.361   2.094
 3752SOL     OW12154   0.384   6.293   6.060
 3752SOL    HW112155   0.404   6.214   6.118
 3752SOL    HW212156   0.450   6.297   5.985
 3753SOL     OW12157   6.951   0.950   4.676
 3753SOL    HW112158   6.863   0.903   4.686
 3753SOL    HW212159   6.985   0.938   4.583
 3754SOL     OW12160   6.651   6.459   1.873
 3754SOL    HW112161   6.587   6.431   1.801
 3754SOL    HW212162   6.641   6.398   1.952
 3755SOL     OW12163   5.197   2.609   2.848
 3755SOL    HW112164   5.189   2.613   2.948
 3755SOL    HW212165   5.198   2.513   2.819
 3756SOL     OW12166   3.251   0.462   6.826
 3756SOL    HW112167   3.191   0.489   6.901
 3756SOL    HW212168   3.346   0.470   6.854
 3757SOL     OW12169   3.568   4.664   6.812
 3757SOL    HW112170   3.665   4.652   6.832
 3757SOL    HW212171   3.544   4.761   6.824
 3758SOL     OW12172   0.452   0.681   3.285
 3758SOL    HW112173   0.398   0.713   3.206
 3758SOL    HW212174   0.416   0.723   3.368
 3759SOL     OW12175   4.892   5.102   0.175
 3759SOL    HW112176   4.972   5.045   0.196
 3759SOL    HW212177   4.847   5.068   0.093
 3760SOL     OW12178   2.351   2.407   5.443
 3760SOL    HW112179   2.388   2.499   5.459
 3760SOL    HW212180   2.256   2.404   5.471
 3761SOL     OW12181   0.078   6.776   4.227
 3761SOL    HW112182   0.026   6.698   4.194
 3761SOL    HW212183   0.121   6.754   4.314
 3762SOL     OW12184   0.785   3.464   6.734
 3762SOL    HW112185   0.849   3.435   6.663
 3762SOL    HW212186   0.835   3.508   6.808
 3763SOL     OW12187   6.392   3.594   5.886
 3763SOL    HW112188   6.384   3.609   5.985
 3763SOL    HW212189   6.484   3.618   5.856
 3764SOL     OW12190   2.201   6.932   3.813
 3764SOL    HW112191   2.216   6.905   3.908
 3764SOL    HW212192   2.105   6.915   3.789
 3765SOL     OW12193   6.360   1.103   3.513
 3765SOL    HW112194   6.384   1.009   3.537
 3765SOL    HW212195   6.440   1.151   3.479
 3766SOL     OW12196   1.406   0.356   4.866
 3766SOL    HW112197   1.474   0.305   4.919
 3766SOL    HW212198   1.452   0.405   4.792
 3767SOL     OW12199   1.434   3.916   0.997
 3767SOL    HW112200   1.484   3.954   1.074
 3767SOL    HW212201   1.357   3.976   0.975
 3768SOL     OW12202   4.657   6.461   0.949
 3768SOL    HW112203   4.676   6.553   0.914
 3768SOL    HW212204   4.743   6.414   0.968
 3769SOL     OW12205   4.607   6.383   5.118
 3769SOL    HW112206   4.641   6.298   5.079
 3769SOL    HW212207   4.524   6.411   5.070
 3770SOL     OW12208   2.259   1.206   0.535
 3770SOL    HW112209   2.302   1.256   0.459
 3770SOL    HW212210   2.246   1.268   0.612
 3771SOL     OW12211   4.894   1.510   5.370
 3771SOL    HW112212   4.856   1.521   5.278
 3771SOL    HW212213   4.862   1.424   5.410
 3772SOL     OW12214   4.940   1.082   2.833
 3772SOL    HW112215   4.880   1.156   2.862
 3772SOL    HW212216   4.968   1.097   2.738
 3773SOL     OW12217   6.589   2.564   6.639
 3773SOL    HW112218   6.687   2.547   6.632
 3773SOL    HW212219   6.541   2.478   6.652
 3774SOL     OW12220   0.878   1.752   1.881
 3774SOL    HW112221   0.920   1.815   1.817
 3774SOL    HW212222   0.867   1.797   1.970
 3775SOL     OW12223   5.840   2.987   3.618
 3775SOL    HW112224   5.905   3.061   3.600
 3775SOL    HW212225   5.772   3.017   3.684
 3776SOL     OW12226   3.159   2.651   6.447
 3776SOL    HW112227   3.192   2.743   6.468
 3776SOL    HW212228   3.076   2.657   6.392
 3777SOL     OW12229   1.536   4.269   3.479
 3777SOL    HW112230   1.588   4.261   3.394
 3777SOL    HW212231   1.599   4.262   3.557
 3778SOL     OW12232   2.442   6.720   2.066
 3778SOL    HW112233   2.367   6.785   2.075
 3778SOL    HW212234   2.424   6.657   1.991
 3779SOL     OW12235   2.994   5.044   6.735
 3779SOL    HW112236   2.978   5.058   6.637
 3779SOL    HW212237   3.092   5.040   6.752
 3780SOL     OW12238   2.712   0.267   4.744
 3780SOL    HW112239   2.625   0.305   4.712
 3780SOL    HW212240   2.718   0.276   4.844
 3781SOL     OW12241   2.856   5.592   4.559
 3781SOL    HW112242   2.893   5.500   4.576
 3781SOL    HW212243   2.930   5.659   4.564
 3782SOL     OW12244   2.280   1.469   3.175
 3782SOL    HW112245   2.333   1.474   3.090
 3782SOL    HW212246   2.184   1.451   3.154
 3783SOL     OW12247   4.903   5.769   5.855
 3783SOL    HW112248   4.827   5.833   5.865
 3783SOL    HW212249   4.877   5.695   5.793
 3784SOL     OW12250   4.568   1.606   3.834
 3784SOL    HW112251   4.543   1.643   3.745
 3784SOL    HW212252   4.651   1.652   3.868
 3785SOL     OW12253   1.503   1.530   1.725
 3785SOL    HW112254   1.458   1.444   1.750
 3785SOL    HW212255   1.492   1.546   1.627
 3786SOL     OW12256   3.620   5.486   2.753
 3786SOL    HW112257   3.698   5.441   2.796
 3786SOL    HW212258   3.545   5.492   2.818
 3787SOL     OW12259   4.146   1.238   4.424
 3787SOL    HW112260   4.167   1.240   4.521
 3787SOL    HW212261   4.086   1.314   4.400
 3788SOL     OW12262   5.815   3.489   1.865
 3788SOL    HW112263   5.772   3.407   1.903
 3788SOL    HW212264   5.872   3.463   1.787
 3789SOL     OW12265   0.918   4.936   2.755
 3789SOL    HW112266   0.932   5.028   2.792
 3789SOL    HW212267   0.957   4.931   2.663
 3790SOL     OW12268   2.251   3.014   3.716
 3790SOL    HW112269   2.311   2.975   3.646
 3790SOL    HW212270   2.223   2.942   3.779
 3791SOL     OW12271   5.352   0.369   2.671
 3791SOL    HW112272   5.341   0.465   2.644
 3791SOL    HW212273   5.348   0.311   2.590
 3792SOL     OW12274   0.098   6.902   6.018
 3792SOL    HW112275   0.068   6.910   5.923
 3792SOL    HW212276   0.030   6.851   6.070
 3793SOL     OW12277   2.132   6.413   2.948
 3793SOL    HW112278   2.038   6.399   2.918
 3793SOL    HW212279   2.185   6.329   2.935
 3794SOL     OW12280   4.147   6.002   2.463
 3794SOL    HW112281   4.193   5.962   2.384
 3794SOL    HW212282   4.209   6.067   2.508
 3795SOL     OW12283   4.864   0.367   0.647
 3795SOL    HW112284   4.775   0.365   0.600
 3795SOL    HW212285   4.912   0.451   0.624
 3796SOL     OW12286   2.005   2.541   1.342
 3796SOL    HW112287   1.987   2.456   1.392
 3796SOL    HW212288   2.028   2.613   1.408
 3797SOL     OW12289   0.338   5.231   2.578
 3797SOL    HW112290   0.270   5.171   2.537
 3797SOL    HW212291   0.310   5.327   2.566
 3798SOL     OW12292   0.937   4.425   1.526
 3798SOL    HW112293   0.846   4.426   1.484
 3798SOL    HW212294   1.007   4.426   1.454
 3799SOL     OW12295   1.501   0.650   5.149
 3799SOL    HW112296   1.566   0.587   5.107
 3799SOL    HW212297   1.497   0.735   5.096
 3800SOL     OW12298   5.077   2.296   5.061
 3800SOL    HW112299   5.092   2.324   5.155
 3800SOL    HW212300   5.032   2.371   5.012
 3801SOL     OW12301   6.755   0.328   6.469
 3801SOL    HW112302   6.781   0.380   6.388
 3801SOL    HW212303   6.777   0.381   6.551
 3802SOL     OW12304   1.626   2.468   5.960
 3802SOL    HW112305   1.683   2.480   5.879
 3802SOL    HW212306   1.595   2.558   5.992
 3803SOL     OW12307   3.804   1.485   1.266
 3803SOL    HW112308   3.726   1.496   1.327
 3803SOL    HW212309   3.888   1.478   1.320
 3804SOL     OW12310   4.685   2.739   5.453
 3804SOL    HW112311   4.724   2.827   5.479
 3804SOL    HW212312   4.585   2.744   5.457
 3805SOL     OW12313   2.097   3.869   1.102
 3805SOL    HW112314   2.072   3.954   1.147
 3805SOL    HW212315   2.097   3.883   1.003
 3806SOL     OW12316   3.083   1.540   0.528
 3806SOL    HW112317   3.022   1.619   0.536
 3806SOL    HW212318   3.029   1.456   0.530
 3807SOL     OW12319   1.335   6.870   3.161
 3807SOL    HW112320   1.397   6.796   3.134
 3807SOL    HW212321   1.377   6.958   3.141
 3808SOL     OW12322   3.424   0.670   0.556
 3808SOL    HW112323   3.473   0.737   0.612
 3808SOL    HW212324   3.424   0.582   0.602
 3809SOL     OW12325   4.434   0.447   6.157
 3809SOL    HW112326   4.532   0.428   6.155
 3809SOL    HW212327   4.412   0.499   6.240
 3810SOL     OW12328   2.914   3.271   5.489
 3810SOL    HW112329   2.968   3.187   5.487
 3810SOL    HW212330   2.974   3.350   5.483
 3811SOL     OW12331   0.142   0.609   6.486
 3811SOL    HW112332   0.118   0.587   6.392
 3811SOL    HW212333   0.219   0.673   6.487
 3812SOL     OW12334   5.649   1.529   5.568
 3812SOL    HW112335   5.626   1.459   5.636
 3812SOL    HW212336   5.576   1.535   5.500
 3813SOL     OW12337   3.910   4.893   2.017
 3813SOL    HW112338   3.980   4.854   2.077
 3813SOL    HW212339   3.838   4.825   2.002
 3814SOL     OW12340   1.496   6.449   2.468
 3814SOL    HW112341   1.457   6.452   2.376
 3814SOL    HW212342   1.425   6.420   2.533
 3815SOL     OW12343   5.801   2.159   1.970
 3815SOL    HW112344   5.708   2.155   2.007
 3815SOL    HW212345   5.866   2.167   2.046
 3816SOL     OW12346   0.594   6.609   1.742
 3816SOL    HW112347   0.538   6.620   1.660
 3816SOL    HW212348   0.558   6.666   1.815
 3817SOL     OW12349   5.431   1.537   5.383
 3817SOL    HW112350   5.353   1.474   5.387
 3817SOL    HW212351   5.454   1.554   5.287
 3818SOL     OW12352   4.892   5.395   2.721
 3818SOL    HW112353   4.985   5.401   2.755
 3818SOL    HW212354   4.828   5.410   2.796
 3819SOL     OW12355   5.807   4.287   6.258
 3819SOL    HW112356   5.803   4.334   6.169
 3819SOL    HW212357   5.894   4.240   6.267
 3820SOL     OW12358   5.514   6.178   4.184
 3820SOL    HW112359   5.483   6.232   4.263
 3820SOL    HW212360   5.472   6.214   4.101
 3821SOL     OW12361   0.811   4.050   1.535
 3821SOL    HW112362   0.715   4.073   1.519
 3821SOL    HW212363   0.866   4.080   1.457
 3822SOL     OW12364   1.723   4.830   1.992
 3822SOL    HW112365   1.796   4.880   1.946
 3822SOL    HW212366   1.740   4.732   1.984
 3823SOL     OW12367   2.779   2.762   5.434
 3823SOL    HW112368   2.777   2.862   5.436
 3823SOL    HW212369   2.865   2.731   5.392
 3824SOL     OW12370   6.686   2.212   6.764
 3824SOL    HW112371   6.598   2.255   6.744
 3824SOL    HW212372   6.745   2.219   6.684
 3825SOL     OW12373   6.489   6.810   6.058
 3825SOL    HW112374   6.583   6.786   6.034
 3825SOL    HW212375   6.481   6.909   6.067
 3826SOL     OW12376   6.613   2.458   0.811
 3826SOL    HW112377   6.635   2.369   0.850
 3826SOL    HW212378   6.645   2.530   0.873
 3827SOL     OW12379   4.979   2.903   1.068
 3827SOL    HW112380   5.071   2.942   1.068
 3827SOL    HW212381   4.980   2.813   1.025
 3828SOL     OW12382   4.070   0.722   1.757
 3828SOL    HW112383   4.161   0.681   1.757
 3828SOL    HW212384   4.075   0.816   1.790
 3829SOL     OW12385   0.796   5.442   3.971
 3829SOL    HW112386   0.792   5.527   3.919
 3829SOL    HW212387   0.733   5.375   3.930
 3830SOL     OW12388   3.321   0.692   4.698
 3830SOL    HW112389   3.389   0.628   4.731
 3830SOL    HW212390   3.293   0.754   4.772
 3831SOL     OW12391   4.141   1.980   2.414
 3831SOL    HW112392   4.122   1.885   2.439
 3831SOL    HW212393   4.238   1.990   2.392
 3832SOL     OW12394   5.550   0.032   2.472
 3832SOL    HW112395   5.497   0.078   2.400
 3832SOL    HW212396   5.525   6.957   2.475
 3833SOL     OW12397   1.499   5.508   0.328
 3833SOL    HW112398   1.565   5.561   0.381
 3833SOL    HW212399   1.440   5.455   0.389
 3834SOL     OW12400   2.517   2.365   0.682
 3834SOL    HW112401   2.535   2.322   0.594
 3834SOL    HW212402   2.540   2.462   0.676
 3835SOL     OW12403   3.578   6.001   4.326
 3835SOL    HW112404   3.652   5.934   4.335
 3835SOL    HW212405   3.551   6.033   4.417
 3836SOL     OW12406   1.788   3.359   5.300
 3836SOL    HW112407   1.810   3.452   5.268
 3836SOL    HW212408   1.824   3.293   5.235
 3837SOL     OW12409   3.232   3.887   0.241
 3837SOL    HW112410   3.281   3.800   0.244
 3837SOL    HW212411   3.297   3.963   0.237
 3838SOL     OW12412   5.667   3.555   5.319
 3838SOL    HW112413   5.740   3.538   5.385
 3838SOL    HW212414   5.583   3.510   5.350
 3839SOL     OW12415   6.223   6.258   6.197
 3839SOL    HW112416   6.198   6.341   6.247
 3839SOL    HW212417   6.239   6.184   6.262
 3840SOL     OW12418   2.571   0.558   3.652
 3840SOL    HW112419   2.566   0.478   3.593
 3840SOL    HW212420   2.666   0.585   3.666
 3841SOL     OW12421   0.646   4.096   5.157
 3841SOL    HW112422   0.645   4.060   5.250
 3841SOL    HW212423   0.553   4.097   5.121
 3842SOL     OW12424   1.559   4.655   6.343
 3842SOL    HW112425   1.514   4.616   6.263
 3842SOL    HW212426   1.490   4.685   6.409
 3843SOL     OW12427   5.808   3.911   0.241
 3843SOL    HW112428   5.788   3.817   0.269
 3843SOL    HW212429   5.844   3.911   0.148
 3844SOL     OW12430   2.535   3.781   6.109
 3844SOL    HW112431   2.593   3.707   6.144
 3844SOL    HW212432   2.533   3.775   6.009
 3845SOL     OW12433   3.165   3.445   3.609
 3845SOL    HW112434   3.246   3.503   3.622
 3845SOL    HW212435   3.131   3.456   3.516
 3846SOL     OW12436   0.064   4.015   3.972
 3846SOL    HW112437   0.117   3.940   3.930
 3846SOL    HW212438   0.028   3.985   4.060
 3847SOL     OW12439   0.851   6.842   0.911
 3847SOL    HW112440   0.938   6.832   0.862
 3847SOL    HW212441   0.810   6.930   0.888
 3848SOL     OW12442   2.970   5.288   0.986
 3848SOL    HW112443   3.032   5.341   1.045
 3848SOL    HW212444   2.990   5.308   0.890
 3849SOL     OW12445   2.049   1.796   5.920
 3849SOL    HW112446   2.124   1.782   5.985
 3849SOL    HW212447   2.005   1.883   5.939
 3850SOL     OW12448   2.426   3.560   1.317
 3850SOL    HW112449   2.457   3.606   1.234
 3850SOL    HW212450   2.334   3.592   1.341
 3851SOL     OW12451   2.308   2.980   1.449
 3851SOL    HW112452   2.275   3.010   1.538
 3851SOL    HW212453   2.242   3.006   1.378
 3852SOL     OW12454   4.722   1.063   5.825
 3852SOL    HW112455   4.633   1.098   5.855
 3852SOL    HW212456   4.748   1.107   5.739
 3853SOL     OW12457   1.434   2.873   2.196
 3853SOL    HW112458   1.521   2.854   2.153
 3853SOL    HW212459   1.373   2.794   2.187
 3854SOL     OW12460   1.813   3.262   4.871
 3854SOL    HW112461   1.784   3.183   4.817
 3854SOL    HW212462   1.906   3.289   4.845
 3855SOL     OW12463   6.947   1.791   5.046
 3855SOL    HW112464   6.977   1.792   5.141
 3855SOL    HW212465   6.937   1.884   5.012
 3856SOL     OW12466   0.549   0.047   5.729
 3856SOL    HW112467   0.619   0.103   5.773
 3856SOL    HW212468   0.548   0.067   5.631
 3857SOL     OW12469   1.131   6.854   6.819
 3857SOL    HW112470   1.043   6.809   6.803
 3857SOL    HW212471   1.163   6.897   6.734
 3858SOL     OW12472   2.352   5.175   6.928
 3858SOL    HW112473   2.291   5.149   6.853
 3858SOL    HW212474   2.369   5.274   6.925
 3859SOL     OW12475   6.598   2.482   1.245
 3859SOL    HW112476   6.633   2.533   1.324
 3859SOL    HW212477   6.498   2.491   1.241
 3860SOL     OW12478   2.072   6.521   5.004
 3860SOL    HW112479   1.989   6.550   4.957
 3860SOL    HW212480   2.048   6.482   5.093
 3861SOL     OW12481   4.111   4.083   7.012
 3861SOL    HW112482   4.100   4.181   6.993
 3861SOL    HW212483   4.091   4.030   6.930
 3862SOL     OW12484   0.798   5.264   5.867
 3862SOL    HW112485   0.880   5.267   5.924
 3862SOL    HW212486   0.789   5.172   5.828
 3863SOL     OW12487   2.830   3.553   0.713
 3863SOL    HW112488   2.853   3.466   0.668
 3863SOL    HW212489   2.758   3.599   0.661
 3864SOL     OW12490   2.858   1.463   0.260
 3864SOL    HW112491   2.808   1.415   0.188
 3864SOL    HW212492   2.954   1.474   0.232
 3865SOL     OW12493   4.226   0.983   2.480
 3865SOL    HW112494   4.289   0.989   2.402
 3865SOL    HW212495   4.264   0.919   2.547
 3866SOL     OW12496   3.522   6.335   6.375
 3866SOL    HW112497   3.464   6.324   6.295
 3866SOL    HW212498   3.470   6.313   6.458
 3867SOL     OW12499   1.680   4.280   3.248
 3867SOL    HW112500   1.756   4.217   3.232
 3867SOL    HW212501   1.716   4.373   3.257
 3868SOL     OW12502   1.827   5.265   2.621
 3868SOL    HW112503   1.888   5.343   2.606
 3868SOL    HW212504   1.882   5.183   2.637
 3869SOL     OW12505   1.419   1.745   3.708
 3869SOL    HW112506   1.423   1.663   3.765
 3869SOL    HW212507   1.418   1.827   3.767
 3870SOL     OW12508   4.150   3.988   0.600
 3870SOL    HW112509   4.174   3.971   0.695
 3870SOL    HW212510   4.115   4.081   0.590
 3871SOL     OW12511   2.982   1.576   4.360
 3871SOL    HW112512   3.008   1.494   4.411
 3871SOL    HW212513   2.886   1.597   4.376
 3872SOL     OW12514   4.178   3.510   0.502
 3872SOL    HW112515   4.134   3.583   0.449
 3872SOL    HW212516   4.117   3.431   0.507
 3873SOL     OW12517   5.028   4.503   1.791
 3873SOL    HW112518   5.000   4.417   1.834
 3873SOL    HW212519   4.950   4.542   1.741
 3874SOL     OW12520   4.887   6.060   6.417
 3874SOL    HW112521   4.968   6.006   6.440
 3874SOL    HW212522   4.871   6.128   6.489
 3875SOL     OW12523   2.232   4.151   0.260
 3875SOL    HW112524   2.223   4.132   0.358
 3875SOL    HW212525   2.236   4.065   0.210
 3876SOL     OW12526   5.530   4.077   2.253
 3876SOL    HW112527   5.571   3.987   2.241
 3876SOL    HW212528   5.524   4.099   2.350
 3877SOL     OW12529   5.408   1.440   1.922
 3877SOL    HW112530   5.505   1.431   1.902
 3877SOL    HW212531   5.361   1.483   1.845
 3878SOL     OW12532   4.563   6.056   4.536
 3878SOL    HW112533   4.601   6.094   4.620
 3878SOL    HW212534   4.543   5.958   4.549
 3879SOL     OW12535   2.823   5.657   1.292
 3879SOL    HW112536   2.872   5.649   1.205
 3879SOL    HW212537   2.825   5.569   1.339
 3880SOL     OW12538   5.557   2.335   4.237
 3880SOL    HW112539   5.557   2.265   4.166
 3880SOL    HW212540   5.650   2.371   4.249
 3881SOL     OW12541   1.226   5.235   0.918
 3881SOL    HW112542   1.231   5.334   0.935
 3881SOL    HW212543   1.273   5.187   0.992
 3882SOL     OW12544   0.947   5.875   6.657
 3882SOL    HW112545   0.954   5.823   6.742
 3882SOL    HW212546   0.937   5.972   6.677
 3883SOL     OW12547   3.068   2.207   6.283
 3883SOL    HW112548   3.001   2.258   6.229
 3883SOL    HW212549   3.098   2.263   6.360
 3884SOL     OW12550   1.848   5.012   5.613
 3884SOL    HW112551   1.899   4.930   5.588
 3884SOL    HW212552   1.837   5.016   5.712
 3885SOL     OW12553   0.234   2.070   5.084
 3885SOL    HW112554   0.174   2.096   5.008
 3885SOL    HW212555   0.188   2.088   5.171
 3886SOL     OW12556   0.217   6.283   5.454
 3886SOL    HW112557   0.262   6.246   5.373
 3886SOL    HW212558   0.211   6.382   5.447
 3887SOL     OW12559   5.693   2.952   4.772
 3887SOL    HW112560   5.651   2.955   4.681
 3887SOL    HW212561   5.701   2.857   4.803
 3888SOL     OW12562   5.974   2.153   2.178
 3888SOL    HW112563   5.994   2.200   2.264
 3888SOL    HW212564   5.996   2.055   2.187
 3889SOL     OW12565   6.500   5.746   6.983
 3889SOL    HW112566   6.560   5.778   6.909
 3889SOL    HW212567   6.438   5.676   6.946
 3890SOL     OW12568   6.406   3.031   2.599
 3890SOL    HW112569   6.320   3.071   2.567
 3890SOL    HW212570   6.480   3.059   2.538
 3891SOL     OW12571   5.494   5.074   6.171
 3891SOL    HW112572   5.407   5.102   6.132
 3891SOL    HW212573   5.486   5.063   6.270
 3892SOL     OW12574   5.609   5.650   4.124
 3892SOL    HW112575   5.676   5.724   4.135
 3892SOL    HW212576   5.534   5.663   4.189
 3893SOL     OW12577   3.008   6.393   4.150
 3893SOL    HW112578   2.965   6.332   4.217
 3893SOL    HW212579   2.938   6.441   4.099
 3894SOL     OW12580   5.030   5.535   6.934
 3894SOL    HW112581   5.014   5.554   0.009
 3894SOL    HW212582   5.101   5.597   6.899
 3895SOL     OW12583   1.961   2.056   5.746
 3895SOL    HW112584   2.024   1.981   5.728
 3895SOL    HW212585   1.906   2.036   5.827
 3896SOL     OW12586   6.488   3.055   6.666
 3896SOL    HW112587   6.583   3.028   6.684
 3896SOL    HW212588   6.456   3.115   6.740
 3897SOL     OW12589   3.328   6.547   3.201
 3897SOL    HW112590   3.369   6.592   3.281
 3897SOL    HW212591   3.343   6.604   3.121
 3898SOL     OW12592   3.108   3.217   4.387
 3898SOL    HW112593   3.048   3.176   4.455
 3898SOL    HW212594   3.152   3.298   4.426
 3899SOL     OW12595   4.173   1.791   5.564
 3899SOL    HW112596   4.198   1.808   5.659
 3899SOL    HW212597   4.241   1.731   5.522
 3900SOL     OW12598   7.001   2.815   3.965
 3900SOL    HW112599   7.015   2.868   4.049
 3900SOL    HW212600   0.046   2.845   3.896
 3901SOL     OW12601   2.625   5.376   5.314
 3901SOL    HW112602   2.670   5.288   5.301
 3901SOL    HW212603   2.544   5.381   5.256
 3902SOL     OW12604   4.313   4.698   3.061
 3902SOL    HW112605   4.294   4.731   3.153
 3902SOL    HW212606   4.395   4.641   3.062
 3903SOL     OW12607   4.389   3.657   6.023
 3903SOL    HW112608   4.450   3.728   6.058
 3903SOL    HW212609   4.443   3.583   5.984
 3904SOL     OW12610   2.027   6.637   0.241
 3904SOL    HW112611   2.100   6.705   0.243
 3904SOL    HW212612   1.963   6.654   0.316
 3905SOL     OW12613   5.743   0.466   6.262
 3905SOL    HW112614   5.712   0.381   6.220
 3905SOL    HW212615   5.839   0.482   6.240
 3906SOL     OW12616   0.115   6.358   4.584
 3906SOL    HW112617   0.060   6.366   4.668
 3906SOL    HW212618   0.211   6.346   4.609
 3907SOL     OW12619   0.628   1.690   5.002
 3907SOL    HW112620   0.540   1.735   4.986
 3907SOL    HW212621   0.696   1.759   5.027
 3908SOL     OW12622   2.519   1.134   4.476
 3908SOL    HW112623   2.441   1.184   4.439
 3908SOL    HW212624   2.486   1.055   4.527
 3909SOL     OW12625   5.241   3.398   1.449
 3909SOL    HW112626   5.192   3.472   1.403
 3909SOL    HW212627   5.190   3.370   1.530
 3910SOL     OW12628   3.021   2.579   1.047
 3910SOL    HW112629   3.078   2.603   1.125
 3910SOL    HW212630   2.978   2.661   1.010
 3911SOL     OW12631   0.186   1.012   1.495
 3911SOL    HW112632   0.117   1.034   1.564
 3911SOL    HW212633   0.267   0.975   1.541
 3912SOL     OW12634   4.432   4.015   6.860
 3912SOL    HW112635   4.493   4.084   6.899
 3912SOL    HW212636   4.402   3.953   6.932
 3913SOL     OW12637   4.275   5.629   1.720
 3913SOL    HW112638   4.224   5.680   1.650
 3913SOL    HW212639   4.280   5.684   1.804
 3914SOL     OW12640   6.425   1.904   0.289
 3914SOL    HW112641   6.446   1.855   0.373
 3914SOL    HW212642   6.327   1.898   0.270
 3915SOL     OW12643   5.114   0.465   5.407
 3915SOL    HW112644   5.103   0.561   5.383
 3915SOL    HW212645   5.167   0.458   5.492
 3916SOL     OW12646   1.727   2.484   2.452
 3916SOL    HW112647   1.653   2.487   2.519
 3916SOL    HW212648   1.695   2.437   2.370
 3917SOL     OW12649   4.095   4.776   2.226
 3917SOL    HW112650   4.002   4.776   2.264
 3917SOL    HW212651   4.161   4.758   2.299
 3918SOL     OW12652   5.224   0.067   0.740
 3918SOL    HW112653   5.274   0.152   0.721
 3918SOL    HW212654   5.260   0.027   0.824
 3919SOL     OW12655   4.990   5.838   3.612
 3919SOL    HW112656   4.918   5.892   3.569
 3919SOL    HW212657   5.077   5.854   3.564
 3920SOL     OW12658   3.429   1.801   5.437
 3920SOL    HW112659   3.329   1.801   5.449
 3920SOL    HW212660   3.451   1.803   5.340
 3921SOL     OW12661   1.492   3.774   5.952
 3921SOL    HW112662   1.520   3.782   5.856
 3921SOL    HW212663   1.406   3.823   5.965
 3922SOL     OW12664   4.726   2.927   3.471
 3922SOL    HW112665   4.814   2.895   3.433
 3922SOL    HW212666   4.691   3.002   3.415
 3923SOL     OW12667   6.102   1.721   1.820
 3923SOL    HW112668   6.125   1.804   1.871
 3923SOL    HW212669   6.091   1.744   1.723
 3924SOL     OW12670   4.905   4.348   4.418
 3924SOL    HW112671   4.969   4.306   4.354
 3924SOL    HW212672   4.811   4.332   4.388
 3925SOL     OW12673   4.010   5.889   1.730
 3925SOL    HW112674   4.101   5.895   1.687
 3925SOL    HW212675   3.948   5.953   1.685
 3926SOL     OW12676   0.846   6.046   5.039
 3926SOL    HW112677   0.837   5.946   5.036
 3926SOL    HW212678   0.794   6.086   4.964
 3927SOL     OW12679   5.917   0.897   5.265
 3927SOL    HW112680   5.978   0.818   5.268
 3927SOL    HW212681   5.970   0.981   5.276
 3928SOL     OW12682   4.213   5.605   2.341
 3928SOL    HW112683   4.238   5.642   2.430
 3928SOL    HW212684   4.215   5.679   2.273
 3929SOL     OW12685   0.761   1.589   5.936
 3929SOL    HW112686   0.749   1.550   5.845
 3929SOL    HW212687   0.712   1.676   5.942
 3930SOL     OW12688   1.650   5.646   4.164
 3930SOL    HW112689   1.737   5.671   4.122
 3930SOL    HW212690   1.638   5.697   4.249
 3931SOL     OW12691   0.580   2.504   0.205
 3931SOL    HW112692   0.643   2.582   0.210
 3931SOL    HW212693   0.567   2.467   0.297
 3932SOL     OW12694   2.385   4.350   2.979
 3932SOL    HW112695   2.399   4.280   3.050
 3932SOL    HW212696   2.289   4.378   2.979
 3933SOL     OW12697   2.146   6.004   1.428
 3933SOL    HW112698   2.157   5.907   1.405
 3933SOL    HW212699   2.122   6.013   1.524
 3934SOL     OW12700   2.344   6.382   1.417
 3934SOL    HW112701   2.395   6.457   1.459
 3934SOL    HW212702   2.246   6.399   1.426
 3935SOL     OW12703   0.053   2.913   4.974
 3935SOL    HW112704   0.078   3.008   4.952
 3935SOL    HW212705   0.135   2.864   5.004
 3936SOL     OW12706   0.194   4.478   4.171
 3936SOL    HW112707   0.227   4.394   4.127
 3936SOL    HW212708   0.235   4.487   4.261
 3937SOL     OW12709   1.038   6.258   0.221
 3937SOL    HW112710   1.112   6.249   0.155
 3937SOL    HW212711   1.071   6.234   0.312
 3938SOL     OW12712   0.512   3.162   0.401
 3938SOL    HW112713   0.442   3.228   0.426
 3938SOL    HW212714   0.601   3.205   0.402
 3939SOL     OW12715   1.433   6.175   3.835
 3939SOL    HW112716   1.395   6.141   3.749
 3939SOL    HW212717   1.474   6.266   3.821
 3940SOL     OW12718   2.275   5.841   6.251
 3940SOL    HW112719   2.253   5.934   6.281
 3940SOL    HW212720   2.269   5.837   6.151
 3941SOL     OW12721   5.095   5.510   2.253
 3941SOL    HW112722   5.011   5.485   2.205
 3941SOL    HW212723   5.071   5.548   2.343
 3942SOL     OW12724   6.262   6.152   6.598
 3942SOL    HW112725   6.163   6.144   6.607
 3942SOL    HW212726   6.293   6.235   6.645
 3943SOL     OW12727   1.658   3.787   6.798
 3943SOL    HW112728   1.564   3.817   6.784
 3943SOL    HW212729   1.721   3.863   6.779
 3944SOL     OW12730   4.594   3.388   6.778
 3944SOL    HW112731   4.576   3.347   6.689
 3944SOL    HW212732   4.646   3.324   6.834
 3945SOL     OW12733   5.935   0.739   3.475
 3945SOL    HW112734   5.942   0.684   3.392
 3945SOL    HW212735   6.018   0.730   3.528
 3946SOL     OW12736   0.115   3.054   0.091
 3946SOL    HW112737   0.038   3.030   0.150
 3946SOL    HW212738   0.201   3.038   0.140
 3947SOL     OW12739   5.364   6.466   2.222
 3947SOL    HW112740   5.316   6.552   2.208
 3947SOL    HW212741   5.307   6.403   2.275
 3948SOL     OW12742   2.044   1.750   5.282
 3948SOL    HW112743   2.058   1.727   5.378
 3948SOL    HW212744   2.124   1.723   5.228
 3949SOL     OW12745   6.255   6.989   2.428
 3949SOL    HW112746   6.291   6.947   2.511
 3949SOL    HW212747   6.235   0.064   2.444
 3950SOL     OW12748   3.083   4.536   1.594
 3950SOL    HW112749   3.182   4.552   1.598
 3950SOL    HW212750   3.047   4.530   1.687
 3951SOL     OW12751   0.540   2.766   3.717
 3951SOL    HW112752   0.499   2.693   3.662
 3951SOL    HW212753   0.604   2.726   3.783
 3952SOL     OW12754   5.596   4.276   0.057
 3952SOL    HW112755   5.571   4.225   6.996
 3952SOL    HW212756   5.613   4.213   0.132
 3953SOL     OW12757   3.149   3.758   5.796
 3953SOL    HW112758   3.205   3.813   5.734
 3953SOL    HW212759   3.054   3.760   5.766
 3954SOL     OW12760   0.109   3.365   4.830
 3954SOL    HW112761   0.150   3.391   4.743
 3954SOL    HW212762   0.137   3.431   4.901
 3955SOL     OW12763   6.454   3.682   0.315
 3955SOL    HW112764   6.421   3.626   0.392
 3955SOL    HW212765   6.448   3.779   0.340
 3956SOL     OW12766   6.286   2.890   5.257
 3956SOL    HW112767   6.233   2.825   5.310
 3956SOL    HW212768   6.381   2.889   5.288
 3957SOL     OW12769   0.992   1.966   1.747
 3957SOL    HW112770   1.011   2.023   1.667
 3957SOL    HW212771   1.036   2.005   1.828
 3958SOL     OW12772   5.420   6.236   1.192
 3958SOL    HW112773   5.414   6.311   1.258
 3958SOL    HW212774   5.361   6.254   1.114
 3959SOL     OW12775   2.339   5.248   1.673
 3959SOL    HW112776   2.407   5.248   1.600
 3959SOL    HW212777   2.281   5.167   1.665
 3960SOL     OW12778   5.320   3.128   0.556
 3960SOL    HW112779   5.292   3.223   0.568
 3960SOL    HW212780   5.255   3.081   0.496
 3961SOL     OW12781   6.658   0.581   1.485
 3961SOL    HW112782   6.665   0.575   1.585
 3961SOL    HW212783   6.603   0.505   1.451
 3962SOL     OW12784   6.777   0.434   6.161
 3962SOL    HW112785   6.789   0.506   6.093
 3962SOL    HW212786   6.845   0.362   6.145
 3963SOL     OW12787   4.838   4.497   3.824
 3963SOL    HW112788   4.923   4.446   3.813
 3963SOL    HW212789   4.760   4.436   3.809
 3964SOL     OW12790   5.706   5.327   0.473
 3964SOL    HW112791   5.740   5.377   0.553
 3964SOL    HW212792   5.711   5.385   0.392
 3965SOL     OW12793   3.650   3.857   1.162
 3965SOL    HW112794   3.685   3.862   1.255
 3965SOL    HW212795   3.578   3.788   1.158
 3966SOL     OW12796   7.020   4.177   5.966
 3966SOL    HW112797   6.991   4.089   6.003
 3966SOL    HW212798   0.092   4.169   5.930
 3967SOL     OW12799   2.060   6.105   0.207
 3967SOL    HW112800   2.103   6.188   0.243
 3967SOL    HW212801   2.008   6.060   0.279
 3968SOL     OW12802   4.642   1.967   1.125
 3968SOL    HW112803   4.640   1.896   1.195
 3968SOL    HW212804   4.584   1.939   1.048
 3969SOL     OW12805   0.039   6.584   0.944
 3969SOL    HW112806   0.058   6.520   0.870
 3969SOL    HW212807   0.101   6.663   0.936
 3970SOL     OW12808   5.147   4.455   3.834
 3970SOL    HW112809   5.220   4.446   3.766
 3970SOL    HW212810   5.177   4.514   3.909
 3971SOL     OW12811   0.053   6.241   4.008
 3971SOL    HW112812   0.146   6.246   4.044
 3971SOL    HW212813   0.028   6.328   3.966
 3972SOL     OW12814   1.088   6.719   6.248
 3972SOL    HW112815   1.008   6.722   6.188
 3972SOL    HW212816   1.161   6.773   6.207
 3973SOL     OW12817   3.577   2.993   2.874
 3973SOL    HW112818   3.567   2.907   2.923
 3973SOL    HW212819   3.584   2.974   2.776
 3974SOL     OW12820   5.060   1.129   6.785
 3974SOL    HW112821   5.047   1.030   6.792
 3974SOL    HW212822   5.134   1.158   6.846
 3975SOL     OW12823   0.242   6.541   5.431
 3975SOL    HW112824   0.239   6.634   5.469
 3975SOL    HW212825   0.171   6.532   5.361
 3976SOL     OW12826   0.604   3.221   6.212
 3976SOL    HW112827   0.565   3.307   6.179
 3976SOL    HW212828   0.621   3.227   6.310
 3977SOL     OW12829   3.125   5.492   4.782
 3977SOL    HW112830   3.035   5.523   4.751
 3977SOL    HW212831   3.187   5.570   4.790
 3978SOL     OW12832   6.357   3.691   6.747
 3978SOL    HW112833   6.341   3.632   6.826
 3978SOL    HW212834   6.278   3.752   6.734
 3979SOL     OW12835   1.026   6.286   3.364
 3979SOL    HW112836   0.945   6.330   3.401
 3979SOL    HW212837   1.035   6.194   3.405
 3980SOL     OW12838   5.118   3.923   3.812
 3980SOL    HW112839   5.189   3.950   3.877
 3980SOL    HW212840   5.160   3.872   3.736
 3981SOL     OW12841   6.713   1.627   6.181
 3981SOL    HW112842   6.756   1.685   6.250
 3981SOL    HW212843   6.751   1.648   6.091
 3982SOL     OW12844   2.329   2.889   4.303
 3982SOL    HW112845   2.299   2.824   4.373
 3982SOL    HW212846   2.381   2.841   4.233
 3983SOL     OW12847   3.097   6.824   3.711
 3983SOL    HW112848   3.111   6.876   3.627
 3983SOL    HW212849   3.174   6.840   3.773
 3984SOL     OW12850   1.988   5.746   2.020
 3984SOL    HW112851   2.067   5.699   1.983
 3984SOL    HW212852   2.018   5.821   2.080
 3985SOL     OW12853   1.680   2.698   1.458
 3985SOL    HW112854   1.698   2.780   1.512
 3985SOL    HW212855   1.643   2.626   1.517
 3986SOL     OW12856   1.126   2.122   2.441
 3986SOL    HW112857   1.145   2.124   2.343
 3986SOL    HW212858   1.211   2.106   2.491
 3987SOL     OW12859   1.810   3.963   4.947
 3987SOL    HW112860   1.839   4.056   4.923
 3987SOL    HW212861   1.798   3.957   5.046
 3988SOL     OW12862   4.984   0.242   1.576
 3988SOL    HW112863   4.945   0.326   1.613
 3988SOL    HW212864   4.940   0.163   1.620
 3989SOL     OW12865   4.085   0.720   5.763
 3989SOL    HW112866   4.111   0.642   5.820
 3989SOL    HW212867   4.026   0.690   5.688
 3990SOL     OW12868   0.030   1.768   3.521
 3990SOL    HW112869   6.999   1.778   3.436
 3990SOL    HW212870   0.065   1.674   3.528
 3991SOL     OW12871   0.570   1.947   3.475
 3991SOL    HW112872   0.471   1.941   3.486
 3991SOL    HW212873   0.598   1.892   3.397
 3992SOL     OW12874   5.857   3.478   6.428
 3992SOL    HW112875   5.805   3.432   6.500
 3992SOL    HW212876   5.796   3.500   6.352
 3993SOL     OW12877   2.058   0.819   4.093
 3993SOL    HW112878   2.002   0.877   4.151
 3993SOL    HW212879   2.088   0.871   4.013
 3994SOL     OW12880   2.933   2.075   3.459
 3994SOL    HW112881   2.883   2.056   3.543
 3994SOL    HW212882   3.012   2.014   3.453
 3995SOL     OW12883   1.488   3.398   1.979
 3995SOL    HW112884   1.583   3.367   1.985
 3995SOL    HW212885   1.481   3.471   1.911
 3996SOL     OW12886   5.966   6.674   5.222
 3996SOL    HW112887   5.913   6.635   5.146
 3996SOL    HW212888   5.938   6.630   5.307
 3997SOL     OW12889   5.343   3.432   3.430
 3997SOL    HW112890   5.348   3.532   3.432
 3997SOL    HW212891   5.275   3.404   3.361
 3998SOL     OW12892   4.637   1.906   3.661
 3998SOL    HW112893   4.631   1.934   3.566
 3998SOL    HW212894   4.550   1.927   3.707
 3999SOL     OW12895   4.168   3.302   1.035
 3999SOL    HW112896   4.223   3.348   1.104
 3999SOL    HW212897   4.153   3.364   0.958
 4000SOL     OW12898   2.056   5.141   2.771
 4000SOL    HW112899   2.121   5.213   2.747
 4000SOL    HW212900   2.103   5.068   2.820
 4001SOL     OW12901   6.817   5.770   4.788
 4001SOL    HW112902   6.856   5.807   4.873
 4001SOL    HW212903   6.856   5.818   4.710
 4002SOL     OW12904   4.121   3.568   4.441
 4002SOL    HW112905   4.182   3.544   4.365
 4002SOL    HW212906   4.043   3.506   4.443
 4003SOL     OW12907   2.166   1.373   4.537
 4003SOL    HW112908   2.165   1.303   4.608
 4003SOL    HW212909   2.146   1.331   4.448
 4004SOL     OW12910   1.464   4.635   4.571
 4004SOL    HW112911   1.423   4.559   4.621
 4004SOL    HW212912   1.563   4.633   4.581
 4005SOL     OW12913   5.055   3.476   0.005
 4005SOL    HW112914   5.082   3.444   6.935
 4005SOL    HW212915   5.050   3.397   0.067
 4006SOL     OW12916   6.920   5.602   2.171
 4006SOL    HW112917   6.999   5.570   2.119
 4006SOL    HW212918   6.919   5.702   2.173
 4007SOL     OW12919   0.047   0.484   2.008
 4007SOL    HW112920   0.032   0.446   1.917
 4007SOL    HW212921   6.985   0.530   2.039
 4008SOL     OW12922   2.638   1.159   0.828
 4008SOL    HW112923   2.623   1.122   0.920
 4008SOL    HW212924   2.570   1.230   0.809
 4009SOL     OW12925   4.281   2.389   0.731
 4009SOL    HW112926   4.275   2.488   0.745
 4009SOL    HW212927   4.224   2.363   0.652
 4010SOL     OW12928   1.744   4.414   1.296
 4010SOL    HW112929   1.769   4.351   1.222
 4010SOL    HW212930   1.786   4.383   1.382
 4011SOL     OW12931   6.224   6.382   5.948
 4011SOL    HW112932   6.239   6.340   6.037
 4011SOL    HW212933   6.283   6.462   5.938
 4012SOL     OW12934   5.754   6.243   2.898
 4012SOL    HW112935   5.793   6.335   2.902
 4012SOL    HW212936   5.794   6.193   2.821
 4013SOL     OW12937   6.705   1.774   6.781
 4013SOL    HW112938   6.690   1.816   6.692
 4013SOL    HW212939   6.698   1.843   6.853
 4014SOL     OW12940   3.502   5.257   2.123
 4014SOL    HW112941   3.598   5.283   2.131
 4014SOL    HW212942   3.483   5.179   2.183
 4015SOL     OW12943   4.285   5.184   6.131
 4015SOL    HW112944   4.330   5.273   6.142
 4015SOL    HW212945   4.354   5.115   6.109
 4016SOL     OW12946   5.336   4.709   4.632
 4016SOL    HW112947   5.301   4.688   4.541
 4016SOL    HW212948   5.403   4.784   4.626
 4017SOL     OW12949   1.182   5.208   5.680
 4017SOL    HW112950   1.262   5.211   5.620
 4017SOL    HW212951   1.169   5.114   5.713
 4018SOL     OW12952   3.955   5.784   0.794
 4018SOL    HW112953   3.944   5.786   0.694
 4018SOL    HW212954   4.033   5.726   0.817
 4019SOL     OW12955   6.424   3.902   2.410
 4019SOL    HW112956   6.401   3.926   2.315
 4019SOL    HW212957   6.523   3.893   2.419
 4020SOL     OW12958   6.591   5.365   4.868
 4020SOL    HW112959   6.523   5.415   4.815
 4020SOL    HW212960   6.679   5.413   4.863
 4021SOL     OW12961   4.431   4.738   6.182
 4021SOL    HW112962   4.397   4.772   6.270
 4021SOL    HW212963   4.531   4.743   6.181
 4022SOL     OW12964   3.091   6.228   1.457
 4022SOL    HW112965   3.107   6.194   1.364
 4022SOL    HW212966   3.030   6.307   1.455
 4023SOL     OW12967   0.610   1.717   4.249
 4023SOL    HW112968   0.643   1.767   4.169
 4023SOL    HW212969   0.686   1.667   4.290
 4024SOL     OW12970   0.757   6.545   5.144
 4024SOL    HW112971   0.803   6.601   5.075
 4024SOL    HW212972   0.719   6.604   5.215
 4025SOL     OW12973   6.867   5.478   4.099
 4025SOL    HW112974   6.800   5.420   4.146
 4025SOL    HW212975   6.855   5.469   4.000
 4026SOL     OW12976   0.347   6.641   4.343
 4026SOL    HW112977   0.277   6.570   4.329
 4026SOL    HW212978   0.371   6.646   4.440
 4027SOL     OW12979   3.536   5.062   4.669
 4027SOL    HW112980   3.480   5.016   4.738
 4027SOL    HW212981   3.492   5.053   4.579
 4028SOL     OW12982   5.152   1.131   3.623
 4028SOL    HW112983   5.099   1.049   3.600
 4028SOL    HW212984   5.235   1.104   3.671
 4029SOL     OW12985   1.809   6.301   0.646
 4029SOL    HW112986   1.865   6.365   0.698
 4029SOL    HW212987   1.770   6.233   0.708
 4030SOL     OW12988   0.835   1.993   2.110
 4030SOL    HW112989   0.844   2.085   2.148
 4030SOL    HW212990   0.926   1.959   2.085
 4031SOL     OW12991   5.865   6.207   0.552
 4031SOL    HW112992   5.965   6.216   0.552
 4031SOL    HW212993   5.830   6.229   0.643
 4032SOL     OW12994   5.021   0.849   2.595
 4032SOL    HW112995   4.995   0.945   2.606
 4032SOL    HW212996   4.948   0.801   2.547
 4033SOL     OW12997   2.254   2.291   2.523
 4033SOL    HW112998   2.250   2.389   2.543
 4033SOL    HW212999   2.290   2.277   2.431
 4034SOL     OW13000   1.511   2.883   4.733
 4034SOL    HW113001   1.477   2.925   4.648
 4034SOL    HW213002   1.505   2.784   4.726
 4035SOL     OW13003   4.800   2.329   1.950
 4035SOL    HW113004   4.742   2.263   1.997
 4035SOL    HW213005   4.745   2.408   1.923
 4036SOL     OW13006   3.040   5.673   3.444
 4036SOL    HW113007   2.969   5.618   3.488
 4036SOL    HW213008   3.110   5.613   3.406
 4037SOL     OW13009   2.282   1.696   6.038
 4037SOL    HW113010   2.345   1.703   5.961
 4037SOL    HW213011   2.277   1.601   6.068
 4038SOL     OW13012   3.681   4.240   5.651
 4038SOL    HW113013   3.674   4.336   5.678
 4038SOL    HW213014   3.605   4.189   5.690
 4039SOL     OW13015   5.446   4.988   1.345
 4039SOL    HW113016   5.499   5.041   1.412
 4039SOL    HW213017   5.376   4.935   1.392
 4040SOL     OW13018   3.313   0.006   5.237
 4040SOL    HW113019   3.319   6.927   5.232
 4040SOL    HW213020   3.226   0.036   5.197
 4041SOL     OW13021   1.423   6.163   1.441
 4041SOL    HW113022   1.333   6.193   1.410
 4041SOL    HW213023   1.415   6.078   1.493
 4042SOL     OW13024   0.391   1.583   2.486
 4042SOL    HW113025   0.356   1.567   2.578
 4042SOL    HW213026   0.464   1.652   2.489
 4043SOL     OW13027   5.067   3.161   6.236
 4043SOL    HW113028   5.116   3.124   6.315
 4043SOL    HW213029   4.969   3.142   6.246
 4044SOL     OW13030   4.790   4.152   2.837
 4044SOL    HW113031   4.834   4.063   2.852
 4044SOL    HW213032   4.728   4.171   2.914
 4045SOL     OW13033   4.801   0.675   5.296
 4045SOL    HW113034   4.844   0.684   5.206
 4045SOL    HW213035   4.778   0.766   5.331
 4046SOL     OW13036   4.910   1.716   3.013
 4046SOL    HW113037   4.849   1.660   2.958
 4046SOL    HW213038   4.897   1.695   3.110
 4047SOL     OW13039   2.973   2.831   6.195
 4047SOL    HW113040   2.945   2.800   6.286
 4047SOL    HW213041   2.900   2.887   6.155
 4048SOL     OW13042   5.245   1.803   2.751
 4048SOL    HW113043   5.190   1.755   2.683
 4048SOL    HW213044   5.194   1.881   2.787
 4049SOL     OW13045   4.434   3.581   0.524
 4049SOL    HW113046   4.465   3.637   0.448
 4049SOL    HW213047   4.335   3.569   0.519
 4050SOL     OW13048   0.766   5.351   2.354
 4050SOL    HW113049   0.806   5.273   2.403
 4050SOL    HW213050   0.747   5.424   2.419
 4051SOL     OW13051   5.434   1.002   5.066
 4051SOL    HW113052   5.411   0.985   5.162
 4051SOL    HW213053   5.457   0.915   5.022
 4052SOL     OW13054   5.521   2.011   3.263
 4052SOL    HW113055   5.507   1.917   3.292
 4052SOL    HW213056   5.453   2.070   3.307
 4053SOL     OW13057   0.797   5.306   4.235
 4053SOL    HW113058   0.798   5.340   4.141
 4053SOL    HW213059   0.748   5.370   4.293
 4054SOL     OW13060   4.054   3.709   1.009
 4054SOL    HW113061   4.099   3.675   1.092
 4054SOL    HW213062   4.017   3.632   0.957
 4055SOL     OW13063   0.438   3.850   0.226
 4055SOL    HW113064   0.442   3.894   0.137
 4055SOL    HW213065   0.530   3.847   0.266
 4056SOL     OW13066   4.680   3.722   0.132
 4056SOL    HW113067   4.659   3.628   0.157
 4056SOL    HW213068   4.778   3.730   0.111
 4057SOL     OW13069   0.053   3.559   0.499
 4057SOL    HW113070   7.006   3.543   0.571
 4057SOL    HW213071   0.085   3.654   0.504
 4058SOL     OW13072   2.497   0.506   5.127
 4058SOL    HW113073   2.593   0.479   5.133
 4058SOL    HW213074   2.482   0.554   5.040
 4059SOL     OW13075   0.590   1.293   3.155
 4059SOL    HW113076   0.593   1.278   3.254
 4059SOL    HW213077   0.682   1.313   3.122
 4060SOL     OW13078   0.080   6.447   4.896
 4060SOL    HW113079   0.014   6.508   4.939
 4060SOL    HW213080   0.152   6.500   4.851
 4061SOL     OW13081   0.697   5.152   1.116
 4061SOL    HW113082   0.788   5.190   1.134
 4061SOL    HW213083   0.629   5.206   1.166
 4062SOL     OW13084   2.208   3.229   1.158
 4062SOL    HW113085   2.150   3.226   1.076
 4062SOL    HW213086   2.161   3.183   1.233
 4063SOL     OW13087   4.840   0.511   0.153
 4063SOL    HW113088   4.754   0.492   0.106
 4063SOL    HW213089   4.820   0.544   0.246
 4064SOL     OW13090   1.637   0.960   6.247
 4064SOL    HW113091   1.551   0.918   6.221
 4064SOL    HW213092   1.619   1.049   6.290
 4065SOL     OW13093   2.658   0.023   1.003
 4065SOL    HW113094   2.618   0.097   1.059
 4065SOL    HW213095   2.639   0.040   0.907
 4066SOL     OW13096   1.048   3.488   3.354
 4066SOL    HW113097   1.095   3.547   3.288
 4066SOL    HW213098   1.099   3.402   3.364
 4067SOL     OW13099   5.482   5.218   0.563
 4067SOL    HW113100   5.571   5.252   0.532
 4067SOL    HW213101   5.493   5.166   0.647
 4068SOL     OW13102   2.218   2.787   5.185
 4068SOL    HW113103   2.277   2.854   5.139
 4068SOL    HW213104   2.259   2.696   5.177
 4069SOL     OW13105   4.518   0.301   6.540
 4069SOL    HW113106   4.607   0.282   6.582
 4069SOL    HW213107   4.520   0.392   6.498
 4070SOL     OW13108   1.569   3.668   3.572
 4070SOL    HW113109   1.498   3.704   3.631
 4070SOL    HW213110   1.644   3.734   3.566
 4071SOL     OW13111   1.708   0.887   4.294
 4071SOL    HW113112   1.703   0.970   4.238
 4071SOL    HW213113   1.737   0.810   4.236
 4072SOL     OW13114   2.390   5.502   3.188
 4072SOL    HW113115   2.427   5.516   3.096
 4072SOL    HW213116   2.290   5.510   3.185
 4073SOL     OW13117   4.452   4.761   6.954
 4073SOL    HW113118   4.352   4.754   6.952
 4073SOL    HW213119   4.485   4.785   6.863
 4074SOL     OW13120   1.339   5.785   2.984
 4074SOL    HW113121   1.248   5.779   3.025
 4074SOL    HW213122   1.399   5.716   3.026
 4075SOL     OW13123   6.847   0.871   1.113
 4075SOL    HW113124   6.882   0.832   1.198
 4075SOL    HW213125   6.831   0.797   1.047
 4076SOL     OW13126   2.191   4.716   4.542
 4076SOL    HW113127   2.179   4.684   4.447
 4076SOL    HW213128   2.226   4.640   4.597
 4077SOL     OW13129   3.249   0.968   1.539
 4077SOL    HW113130   3.157   0.943   1.509
 4077SOL    HW213131   3.253   1.066   1.557
 4078SOL     OW13132   3.397   4.868   2.600
 4078SOL    HW113133   3.352   4.811   2.531
 4078SOL    HW213134   3.364   4.842   2.691
 4079SOL     OW13135   0.785   1.885   4.034
 4079SOL    HW113136   0.718   1.956   4.055
 4079SOL    HW213137   0.877   1.923   4.039
 4080SOL     OW13138   6.634   2.275   5.151
 4080SOL    HW113139   6.561   2.285   5.084
 4080SOL    HW213140   6.716   2.321   5.118
 4081SOL     OW13141   2.103   3.660   3.668
 4081SOL    HW113142   2.134   3.571   3.699
 4081SOL    HW213143   2.008   3.674   3.696
 4082SOL     OW13144   0.820   3.332   0.939
 4082SOL    HW113145   0.867   3.246   0.954
 4082SOL    HW213146   0.825   3.357   0.842
 4083SOL     OW13147   5.800   3.051   4.430
 4083SOL    HW113148   5.717   3.073   4.482
 4083SOL    HW213149   5.859   2.992   4.484
 4084SOL     OW13150   0.278   1.376   4.122
 4084SOL    HW113151   0.378   1.369   4.115
 4084SOL    HW213152   0.253   1.462   4.168
 4085SOL     OW13153   2.760   6.522   0.513
 4085SOL    HW113154   2.791   6.427   0.509
 4085SOL    HW213155   2.693   6.533   0.586
 4086SOL     OW13156   1.034   4.526   0.546
 4086SOL    HW113157   0.992   4.615   0.525
 4086SOL    HW213158   0.979   4.480   0.616
 4087SOL     OW13159   1.807   2.020   2.974
 4087SOL    HW113160   1.709   2.023   2.991
 4087SOL    HW213161   1.850   2.104   3.007
 4088SOL     OW13162   6.325   2.106   0.779
 4088SOL    HW113163   6.246   2.048   0.758
 4088SOL    HW213164   6.299   2.175   0.847
 4089SOL     OW13165   0.998   1.624   5.539
 4089SOL    HW113166   1.062   1.569   5.485
 4089SOL    HW213167   1.049   1.682   5.603
 4090SOL     OW13168   1.867   5.029   5.895
 4090SOL    HW113169   1.834   5.111   5.942
 4090SOL    HW213170   1.967   5.030   5.895
 4091SOL     OW13171   4.425   6.278   0.063
 4091SOL    HW113172   4.414   6.204   7.018
 4091SOL    HW213173   4.518   6.314   0.058
 4092SOL     OW13174   0.358   2.570   4.518
 4092SOL    HW113175   0.330   2.483   4.479
 4092SOL    HW213176   0.277   2.622   4.546
 4093SOL     OW13177   5.855   0.602   5.107
 4093SOL    HW113178   5.937   0.645   5.143
 4093SOL    HW213179   5.777   0.663   5.121
 4094SOL     OW13180   2.911   4.402   5.326
 4094SOL    HW113181   2.919   4.446   5.236
 4094SOL    HW213182   2.961   4.316   5.326
 4095SOL     OW13183   1.861   4.198   6.122
 4095SOL    HW113184   1.956   4.224   6.105
 4095SOL    HW213185   1.842   4.109   6.080
 4096SOL     OW13186   4.203   4.756   1.950
 4096SOL    HW113187   4.214   4.656   1.947
 4096SOL    HW213188   4.167   4.783   2.040
 4097SOL     OW13189   3.108   3.528   4.492
 4097SOL    HW113190   3.068   3.594   4.555
 4097SOL    HW213191   3.102   3.564   4.399
 4098SOL     OW13192   0.422   2.420   2.710
 4098SOL    HW113193   0.415   2.374   2.799
 4098SOL    HW213194   0.516   2.417   2.678
 4099SOL     OW13195   3.613   6.246   2.011
 4099SOL    HW113196   3.635   6.332   1.965
 4099SOL    HW213197   3.685   6.224   2.077
 4100SOL     OW13198   3.730   6.189   3.175
 4100SOL    HW113199   3.669   6.168   3.098
 4100SOL    HW213200   3.818   6.145   3.161
 4101SOL     OW13201   4.744   0.962   6.162
 4101SOL    HW113202   4.830   0.949   6.113
 4101SOL    HW213203   4.684   0.884   6.145
 4102SOL     OW13204   5.674   1.195   0.617
 4102SOL    HW113205   5.686   1.275   0.676
 4102SOL    HW213206   5.759   1.178   0.567
 4103SOL     OW13207   0.501   0.357   2.516
 4103SOL    HW113208   0.404   0.339   2.527
 4103SOL    HW213209   0.545   0.276   2.475
 4104SOL     OW13210   1.696   4.696   2.618
 4104SOL    HW113211   1.651   4.614   2.652
 4104SOL    HW213212   1.633   4.747   2.559
 4105SOL     OW13213   5.066   5.399   0.207
 4105SOL    HW113214   5.131   5.403   0.283
 4105SOL    HW213215   5.082   5.315   0.154
 4106SOL     OW13216   6.527   4.058   4.665
 4106SOL    HW113217   6.507   4.103   4.578
 4106SOL    HW213218   6.573   3.971   4.648
 4107SOL     OW13219   0.011   0.832   1.357
 4107SOL    HW113220   0.058   0.820   1.270
 4107SOL    HW213221   0.057   0.903   1.410
 4108SOL     OW13222   6.660   3.197   5.553
 4108SOL    HW113223   6.649   3.292   5.581
 4108SOL    HW213224   6.754   3.183   5.520
 4109SOL     OW13225   3.186   6.041   2.992
 4109SOL    HW113226   3.210   6.077   2.902
 4109SOL    HW213227   3.229   6.096   3.063
 4110SOL     OW13228   4.633   3.278   5.475
 4110SOL    HW113229   4.713   3.236   5.433
 4110SOL    HW213230   4.563   3.294   5.405
 4111SOL     OW13231   4.515   2.998   6.898
 4111SOL    HW113232   4.514   2.928   6.969
 4111SOL    HW213233   4.581   3.069   6.922
 4112SOL     OW13234   3.660   0.567   4.403
 4112SOL    HW113235   3.735   0.505   4.425
 4112SOL    HW213236   3.575   0.516   4.399
 4113SOL     OW13237   3.490   5.313   4.337
 4113SOL    HW113238   3.496   5.403   4.380
 4113SOL    HW213239   3.582   5.281   4.313
 4114SOL     OW13240   2.687   2.156   2.799
 4114SOL    HW113241   2.747   2.210   2.740
 4114SOL    HW213242   2.601   2.137   2.751
 4115SOL     OW13243   5.058   4.710   1.974
 4115SOL    HW113244   5.133   4.769   1.945
 4115SOL    HW213245   5.017   4.666   1.894
 4116SOL     OW13246   3.157   0.866   1.887
 4116SOL    HW113247   3.074   0.842   1.837
 4116SOL    HW213248   3.218   0.919   1.828
 4117SOL     OW13249   0.996   5.677   2.120
 4117SOL    HW113250   0.915   5.657   2.065
 4117SOL    HW213251   1.078   5.647   2.072
 4118SOL     OW13252   2.566   6.930   0.127
 4118SOL    HW113253   2.628   7.008   0.127
 4118SOL    HW213254   2.600   6.860   0.065
 4119SOL     OW13255   4.305   0.958   3.137
 4119SOL    HW113256   4.210   0.933   3.155
 4119SOL    HW213257   4.329   1.038   3.192
 4120SOL     OW13258   3.866   1.101   1.843
 4120SOL    HW113259   3.957   1.068   1.816
 4120SOL    HW213260   3.876   1.185   1.896
 4121SOL     OW13261   6.567   2.876   4.877
 4121SOL    HW113262   6.588   2.950   4.812
 4121SOL    HW213263   6.630   2.880   4.954
 4122SOL     OW13264   1.655   5.430   6.462
 4122SOL    HW113265   1.618   5.424   6.555
 4122SOL    HW213266   1.751   5.402   6.463
 4123SOL     OW13267   4.924   3.694   6.374
 4123SOL    HW113268   5.001   3.738   6.420
 4123SOL    HW213269   4.861   3.658   6.442
 4124SOL     OW13270   5.049   6.616   3.545
 4124SOL    HW113271   5.083   6.641   3.454
 4124SOL    HW213272   5.034   6.517   3.548
 4125SOL     OW13273   5.413   1.407   1.113
 4125SOL    HW113274   5.445   1.476   1.178
 4125SOL    HW213275   5.321   1.430   1.082
 4126SOL     OW13276   2.147   4.821   4.267
 4126SOL    HW113277   2.244   4.840   4.283
 4126SOL    HW213278   2.099   4.907   4.250
 4127SOL     OW13279   6.523   3.712   5.520
 4127SOL    HW113280   6.570   3.778   5.461
 4127SOL    HW213281   6.554   3.723   5.614
 4128SOL     OW13282   1.152   2.133   2.847
 4128SOL    HW113283   1.087   2.093   2.912
 4128SOL    HW213284   1.226   2.068   2.829
 4129SOL     OW13285   5.781   2.002   6.003
 4129SOL    HW113286   5.837   2.030   5.925
 4129SOL    HW213287   5.838   1.998   6.085
 4130SOL     OW13288   5.691   3.572   1.015
 4130SOL    HW113289   5.707   3.598   1.110
 4130SOL    HW213290   5.778   3.566   0.967
 4131SOL     OW13291   6.564   4.380   3.434
 4131SOL    HW113292   6.472   4.356   3.404
 4131SOL    HW213293   6.628   4.308   3.405
 4132SOL     OW13294   4.867   1.959   4.365
 4132SOL    HW113295   4.781   1.928   4.405
 4132SOL    HW213296   4.861   2.057   4.344
 4133SOL     OW13297   2.782   2.119   1.000
 4133SOL    HW113298   2.870   2.113   1.047
 4133SOL    HW213299   2.708   2.095   1.064
 4134SOL     OW13300   1.029   1.753   6.972
 4134SOL    HW113301   0.948   1.778   6.919
 4134SOL    HW213302   1.069   1.836   7.012
 4135SOL     OW13303   1.277   0.443   1.366
 4135SOL    HW113304   1.355   0.408   1.418
 4135SOL    HW213305   1.218   0.367   1.338
 4136SOL     OW13306   0.882   1.966   3.408
 4136SOL    HW113307   0.783   1.982   3.408
 4136SOL    HW213308   0.909   1.921   3.323
 4137SOL     OW13309   3.210   3.974   5.986
 4137SOL    HW113310   3.152   4.055   5.986
 4137SOL    HW213311   3.169   3.903   5.929
 4138SOL     OW13312   4.132   5.279   2.996
 4138SOL    HW113313   4.167   5.319   3.081
 4138SOL    HW213314   4.180   5.317   2.918
 4139SOL     OW13315   2.033   1.346   0.144
 4139SOL    HW113316   1.994   1.262   0.105
 4139SOL    HW213317   1.971   1.422   0.128
 4140SOL     OW13318   4.586   1.618   5.289
 4140SOL    HW113319   4.615   1.659   5.376
 4140SOL    HW213320   4.657   1.634   5.220
 4141SOL     OW13321   5.101   5.888   0.415
 4141SOL    HW113322   5.005   5.878   0.439
 4141SOL    HW213323   5.111   5.956   0.343
 4142SOL     OW13324   5.972   3.521   1.521
 4142SOL    HW113325   5.920   3.442   1.555
 4142SOL    HW213326   6.042   3.489   1.457
 4143SOL     OW13327   0.624   2.655   1.321
 4143SOL    HW113328   0.538   2.702   1.342
 4143SOL    HW213329   0.611   2.556   1.332
 4144SOL     OW13330   4.768   0.309   2.354
 4144SOL    HW113331   4.703   0.378   2.389
 4144SOL    HW213332   4.722   0.220   2.349
 4145SOL     OW13333   2.966   0.045   2.898
 4145SOL    HW113334   3.019   6.995   2.853
 4145SOL    HW213335   2.943   0.017   2.991
 4146SOL     OW13336   4.563   5.372   0.397
 4146SOL    HW113337   4.632   5.428   0.350
 4146SOL    HW213338   4.547   5.409   0.488
 4147SOL     OW13339   3.538   2.429   5.536
 4147SOL    HW113340   3.545   2.338   5.494
 4147SOL    HW213341   3.534   2.419   5.636
 4148SOL     OW13342   5.830   0.134   3.283
 4148SOL    HW113343   5.784   0.222   3.271
 4148SOL    HW213344   5.929   0.149   3.292
 4149SOL     OW13345   5.355   4.034   1.570
 4149SOL    HW113346   5.357   4.108   1.503
 4149SOL    HW213347   5.427   3.967   1.548
 4150SOL     OW13348   4.768   0.416   5.926
 4150SOL    HW113349   4.858   0.456   5.944
 4150SOL    HW213350   4.712   0.483   5.878
 4151SOL     OW13351   6.765   5.277   0.477
 4151SOL    HW113352   6.756   5.321   0.387
 4151SOL    HW213353   6.680   5.288   0.528
 4152SOL     OW13354   4.052   4.494   1.223
 4152SOL    HW113355   3.985   4.423   1.240
 4152SOL    HW213356   4.045   4.526   1.128
 4153SOL     OW13357   6.706   5.228   6.462
 4153SOL    HW113358   6.747   5.294   6.399
 4153SOL    HW213359   6.616   5.201   6.429
 4154SOL     OW13360   4.855   2.959   5.615
 4154SOL    HW113361   4.873   3.033   5.680
 4154SOL    HW213362   4.808   2.997   5.535
 4155SOL     OW13363   1.000   2.990   1.557
 4155SOL    HW113364   1.008   3.058   1.630
 4155SOL    HW213365   1.009   3.036   1.468
 4156SOL     OW13366   6.150   0.199   5.664
 4156SOL    HW113367   6.079   0.150   5.715
 4156SOL    HW213368   6.107   0.267   5.604
 4157SOL     OW13369   3.360   0.813   5.041
 4157SOL    HW113370   3.405   0.840   5.126
 4157SOL    HW213371   3.264   0.792   5.060
 4158SOL     OW13372   1.269   6.544   3.798
 4158SOL    HW113373   1.267   6.462   3.855
 4158SOL    HW213374   1.181   6.555   3.752
 4159SOL     OW13375   0.833   3.168   5.054
 4159SOL    HW113376   0.889   3.100   5.006
 4159SOL    HW213377   0.852   3.163   5.152
 4160SOL     OW13378   1.473   1.630   0.643
 4160SOL    HW113379   1.418   1.564   0.693
 4160SOL    HW213380   1.570   1.616   0.665
 4161SOL     OW13381   6.131   1.711   0.822
 4161SOL    HW113382   6.099   1.781   0.758
 4161SOL    HW213383   6.178   1.639   0.771
 4162SOL     OW13384   6.736   0.351   5.150
 4162SOL    HW113385   6.673   0.278   5.176
 4162SOL    HW213386   6.790   0.322   5.071
 4163SOL     OW13387   6.062   1.224   4.031
 4163SOL    HW113388   6.001   1.184   4.099
 4163SOL    HW213389   6.104   1.151   3.977
 4164SOL     OW13390   2.228   0.109   5.836
 4164SOL    HW113391   2.283   0.111   5.920
 4164SOL    HW213392   2.289   0.098   5.757
 4165SOL     OW13393   3.508   6.196   2.553
 4165SOL    HW113394   3.481   6.262   2.484
 4165SOL    HW213395   3.555   6.119   2.510
 4166SOL     OW13396   5.751   3.210   0.796
 4166SOL    HW113397   5.820   3.141   0.773
 4166SOL    HW213398   5.723   3.198   0.891
 4167SOL     OW13399   2.055   2.963   1.321
 4167SOL    HW113400   2.113   2.919   1.253
 4167SOL    HW213401   1.961   2.966   1.287
 4168SOL     OW13402   1.361   4.467   0.991
 4168SOL    HW113403   1.445   4.465   1.046
 4168SOL    HW213404   1.378   4.422   0.903
 4169SOL     OW13405   6.199   3.402   4.258
 4169SOL    HW113406   6.225   3.305   4.262
 4169SOL    HW213407   6.140   3.424   4.335
 4170SOL     OW13408   4.861   2.527   5.421
 4170SOL    HW113409   4.804   2.604   5.451
 4170SOL    HW213410   4.806   2.462   5.370
 4171SOL     OW13411   5.277   3.528   1.904
 4171SOL    HW113412   5.330   3.602   1.862
 4171SOL    HW213413   5.246   3.465   1.833
 4172SOL     OW13414   1.937   2.014   0.564
 4172SOL    HW113415   1.915   1.964   0.648
 4172SOL    HW213416   2.033   2.042   0.565
 4173SOL     OW13417   5.288   3.898   5.538
 4173SOL    HW113418   5.360   3.863   5.478
 4173SOL    HW213419   5.311   3.992   5.566
 4174SOL     OW13420   5.109   0.701   4.266
 4174SOL    HW113421   5.141   0.636   4.335
 4174SOL    HW213422   5.153   0.789   4.280
 4175SOL     OW13423   3.490   1.745   3.455
 4175SOL    HW113424   3.549   1.669   3.482
 4175SOL    HW213425   3.445   1.724   3.368
 4176SOL     OW13426   5.978   5.784   2.835
 4176SOL    HW113427   6.050   5.841   2.876
 4176SOL    HW213428   5.952   5.821   2.746
 4177SOL     OW13429   6.906   5.327   2.447
 4177SOL    HW113430   6.806   5.327   2.452
 4177SOL    HW213431   6.940   5.233   2.452
 4178SOL     OW13432   4.420   2.465   5.730
 4178SOL    HW113433   4.362   2.457   5.811
 4178SOL    HW213434   4.489   2.392   5.731
 4179SOL     OW13435   6.093   2.900   6.084
 4179SOL    HW113436   6.048   2.944   6.006
 4179SOL    HW213437   6.135   2.969   6.141
 4180SOL     OW13438   4.323   3.843   1.369
 4180SOL    HW113439   4.420   3.844   1.343
 4180SOL    HW213440   4.289   3.937   1.373
 4181SOL     OW13441   0.146   1.042   0.325
 4181SOL    HW113442   0.122   1.121   0.269
 4181SOL    HW213443   0.219   1.067   0.388
 4182SOL     OW13444   5.755   1.484   3.950
 4182SOL    HW113445   5.717   1.480   3.857
 4182SOL    HW213446   5.749   1.394   3.993
 4183SOL     OW13447   1.541   1.918   1.234
 4183SOL    HW113448   1.557   1.930   1.332
 4183SOL    HW213449   1.628   1.905   1.187
 4184SOL     OW13450   3.892   5.087   0.595
 4184SOL    HW113451   3.817   5.154   0.591
 4184SOL    HW213452   3.968   5.118   0.538
 4185SOL     OW13453   0.125   0.007   4.133
 4185SOL    HW113454   0.120   6.939   4.177
 4185SOL    HW213455   0.050   0.015   4.067
 4186SOL     OW13456   3.850   4.313   1.515
 4186SOL    HW113457   3.808   4.387   1.568
 4186SOL    HW213458   3.841   4.227   1.565
 4187SOL     OW13459   4.157   4.383   6.531
 4187SOL    HW113460   4.217   4.427   6.465
 4187SOL    HW213461   4.094   4.322   6.483
 4188SOL     OW13462   4.883   6.424   4.816
 4188SOL    HW113463   4.815   6.429   4.742
 4188SOL    HW213464   4.891   6.513   4.861
 4189SOL     OW13465   2.053   3.065   3.448
 4189SOL    HW113466   2.036   3.041   3.544
 4189SOL    HW213467   2.105   3.150   3.444
 4190SOL     OW13468   3.473   0.259   1.189
 4190SOL    HW113469   3.436   0.208   1.267
 4190SOL    HW213470   3.495   0.195   1.115
 4191SOL     OW13471   6.853   2.359   2.371
 4191SOL    HW113472   6.811   2.269   2.377
 4191SOL    HW213473   6.937   2.361   2.425
 4192SOL     OW13474   6.171   1.187   2.926
 4192SOL    HW113475   6.111   1.257   2.966
 4192SOL    HW213476   6.201   1.124   2.997
 4193SOL     OW13477   2.187   6.743   2.541
 4193SOL    HW113478   2.238   6.686   2.478
 4193SOL    HW213479   2.201   6.839   2.518
 4194SOL     OW13480   0.498   0.779   3.935
 4194SOL    HW113481   0.435   0.739   3.868
 4194SOL    HW213482   0.592   0.765   3.904
 4195SOL     OW13483   5.271   0.913   2.496
 4195SOL    HW113484   5.328   0.995   2.503
 4195SOL    HW213485   5.175   0.938   2.505
 4196SOL     OW13486   4.711   1.950   3.145
 4196SOL    HW113487   4.772   1.876   3.170
 4196SOL    HW213488   4.646   1.966   3.220
 4197SOL     OW13489   4.691   4.277   4.073
 4197SOL    HW113490   4.706   4.279   3.975
 4197SOL    HW213491   4.726   4.192   4.111
 4198SOL     OW13492   5.539   3.950   5.780
 4198SOL    HW113493   5.457   3.895   5.795
 4198SOL    HW213494   5.535   4.032   5.837
 4199SOL     OW13495   2.979   3.901   5.098
 4199SOL    HW113496   2.908   3.860   5.154
 4199SOL    HW213497   3.038   3.828   5.061
 4200SOL     OW13498   2.294   0.338   6.084
 4200SOL    HW113499   2.305   0.255   6.139
 4200SOL    HW213500   2.215   0.389   6.117
 4201SOL     OW13501   6.416   6.642   4.665
 4201SOL    HW113502   6.401   6.553   4.623
 4201SOL    HW213503   6.410   6.714   4.595
 4202SOL     OW13504   5.586   3.955   4.945
 4202SOL    HW113505   5.518   3.911   5.003
 4202SOL    HW213506   5.553   4.045   4.916
 4203SOL     OW13507   4.994   5.283   3.694
 4203SOL    HW113508   4.977   5.206   3.632
 4203SOL    HW213509   4.973   5.369   3.647
 4204SOL     OW13510   2.783   4.189   0.817
 4204SOL    HW113511   2.815   4.109   0.767
 4204SOL    HW213512   2.824   4.271   0.777
 4205SOL     OW13513   2.808   5.239   3.197
 4205SOL    HW113514   2.804   5.219   3.099
 4205SOL    HW213515   2.875   5.311   3.214
 4206SOL     OW13516   5.555   6.749   4.732
 4206SOL    HW113517   5.635   6.721   4.786
 4206SOL    HW213518   5.490   6.795   4.791
 4207SOL     OW13519   1.023   0.642   1.206
 4207SOL    HW113520   1.115   0.647   1.168
 4207SOL    HW213521   1.027   0.604   1.299
 4208SOL     OW13522   0.940   3.072   1.016
 4208SOL    HW113523   0.855   3.041   1.059
 4208SOL    HW213524   0.950   3.026   0.927
 4209SOL     OW13525   2.825   0.388   4.519
 4209SOL    HW113526   2.810   0.343   4.607
 4209SOL    HW213527   2.799   0.485   4.527
 4210SOL     OW13528   5.134   2.292   0.485
 4210SOL    HW113529   5.100   2.254   0.570
 4210SOL    HW213530   5.057   2.307   0.422
 4211SOL     OW13531   4.908   3.648   3.673
 4211SOL    HW113532   4.885   3.551   3.673
 4211SOL    HW213533   4.892   3.686   3.764
 4212SOL     OW13534   6.066   6.872   3.040
 4212SOL    HW113535   6.115   6.809   2.980
 4212SOL    HW213536   6.127   6.946   3.067
 4213SOL     OW13537   0.965   0.659   1.861
 4213SOL    HW113538   1.019   0.600   1.921
 4213SOL    HW213539   0.901   0.604   1.808
 4214SOL     OW13540   1.967   4.364   4.487
 4214SOL    HW113541   1.916   4.393   4.406
 4214SOL    HW213542   1.914   4.384   4.569
 4215SOL     OW13543   0.622   5.371   5.422
 4215SOL    HW113544   0.695   5.429   5.458
 4215SOL    HW213545   0.538   5.387   5.473
 4216SOL     OW13546   2.576   3.544   5.423
 4216SOL    HW113547   2.582   3.473   5.353
 4216SOL    HW213548   2.642   3.525   5.495
 4217SOL     OW13549   0.243   0.728   3.106
 4217SOL    HW113550   0.254   0.752   3.010
 4217SOL    HW213551   0.156   0.763   3.140
 4218SOL     OW13552   3.178   0.314   3.063
 4218SOL    HW113553   3.159   0.394   3.120
 4218SOL    HW213554   3.128   0.320   2.977
 4219SOL     OW13555   4.669   6.941   3.267
 4219SOL    HW113556   4.749   6.907   3.218
 4219SOL    HW213557   4.698   6.997   3.345
 4220SOL     OW13558   0.750   3.795   3.536
 4220SOL    HW113559   0.794   3.716   3.579
 4220SOL    HW213560   0.652   3.794   3.557
 4221SOL     OW13561   5.288   5.912   5.793
 4221SOL    HW113562   5.280   6.008   5.769
 4221SOL    HW213563   5.381   5.891   5.822
 4222SOL     OW13564   4.030   2.422   0.211
 4222SOL    HW113565   4.025   2.323   0.198
 4222SOL    HW213566   3.982   2.448   0.294
 4223SOL     OW13567   3.118   3.986   2.555
 4223SOL    HW113568   3.089   3.894   2.529
 4223SOL    HW213569   3.051   4.026   2.617
 4224SOL     OW13570   4.078   1.974   5.393
 4224SOL    HW113571   4.048   2.062   5.427
 4224SOL    HW213572   4.094   1.912   5.470
 4225SOL     OW13573   5.462   0.761   4.950
 4225SOL    HW113574   5.481   0.664   4.961
 4225SOL    HW213575   5.405   0.776   4.869
 4226SOL     OW13576   1.649   0.967   3.199
 4226SOL    HW113577   1.689   0.876   3.191
 4226SOL    HW213578   1.553   0.959   3.226
 4227SOL     OW13579   6.347   4.090   0.172
 4227SOL    HW113580   6.391   4.066   0.086
 4227SOL    HW213581   6.374   4.183   0.199
 4228SOL     OW13582   6.011   5.558   2.987
 4228SOL    HW113583   5.935   5.557   3.051
 4228SOL    HW213584   6.006   5.640   2.929
 4229SOL     OW13585   4.910   4.863   5.818
 4229SOL    HW113586   4.894   4.800   5.894
 4229SOL    HW213587   4.992   4.917   5.836
 4230SOL     OW13588   3.137   0.392   4.478
 4230SOL    HW113589   3.194   0.380   4.559
 4230SOL    HW213590   3.042   0.402   4.506
 4231SOL     OW13591   4.111   6.123   4.866
 4231SOL    HW113592   4.073   6.035   4.894
 4231SOL    HW213593   4.172   6.156   4.938
 4232SOL     OW13594   1.958   3.942   1.958
 4232SOL    HW113595   1.942   3.921   2.055
 4232SOL    HW213596   2.056   3.935   1.939
 4233SOL     OW13597   5.731   6.743   1.094
 4233SOL    HW113598   5.803   6.712   1.157
 4233SOL    HW213599   5.667   6.668   1.078
 4234SOL     OW13600   3.214   4.094   5.526
 4234SOL    HW113601   3.125   4.116   5.487
 4234SOL    HW213602   3.279   4.167   5.505
 4235SOL     OW13603   0.204   3.796   5.173
 4235SOL    HW113604   0.272   3.798   5.100
 4235SOL    HW213605   0.233   3.855   5.248
 4236SOL     OW13606   0.984   3.941   5.026
 4236SOL    HW113607   0.986   3.918   4.928
 4236SOL    HW213608   0.981   4.040   5.037
 4237SOL     OW13609   5.432   4.298   4.551
 4237SOL    HW113610   5.374   4.360   4.604
 4237SOL    HW213611   5.399   4.204   4.563
 4238SOL     OW13612   4.242   4.831   4.090
 4238SOL    HW113613   4.314   4.900   4.090
 4238SOL    HW213614   4.276   4.747   4.047
 4239SOL     OW13615   5.240   5.153   5.817
 4239SOL    HW113616   5.206   5.233   5.866
 4239SOL    HW213617   5.291   5.183   5.737
 4240SOL     OW13618   2.527   4.991   6.232
 4240SOL    HW113619   2.614   5.040   6.224
 4240SOL    HW213620   2.466   5.042   6.292
 4241SOL     OW13621   3.989   1.263   0.368
 4241SOL    HW113622   4.081   1.298   0.388
 4241SOL    HW213623   3.970   1.272   0.271
 4242SOL     OW13624   1.665   0.210   2.433
 4242SOL    HW113625   1.658   0.308   2.419
 4242SOL    HW213626   1.756   0.178   2.408
 4243SOL     OW13627   1.459   3.148   3.044
 4243SOL    HW113628   1.447   3.169   3.141
 4243SOL    HW213629   1.477   3.050   3.033
 4244SOL     OW13630   3.078   6.721   0.791
 4244SOL    HW113631   3.003   6.758   0.736
 4244SOL    HW213632   3.050   6.635   0.833
 4245SOL     OW13633   6.371   2.802   1.417
 4245SOL    HW113634   6.424   2.831   1.338
 4245SOL    HW213635   6.425   2.813   1.500
 4246SOL     OW13636   4.575   2.203   3.825
 4246SOL    HW113637   4.494   2.157   3.789
 4246SOL    HW213638   4.567   2.302   3.811
 4247SOL     OW13639   2.268   4.308   6.633
 4247SOL    HW113640   2.274   4.302   6.733
 4247SOL    HW213641   2.227   4.395   6.607
 4248SOL     OW13642   1.799   0.172   2.997
 4248SOL    HW113643   1.714   0.131   2.967
 4248SOL    HW213644   1.866   0.168   2.923
 4249SOL     OW13645   6.311   0.628   5.912
 4249SOL    HW113646   6.394   0.669   5.875
 4249SOL    HW213647   6.334   0.574   5.993
 4250SOL     OW13648   6.517   5.740   4.704
 4250SOL    HW113649   6.542   5.677   4.630
 4250SOL    HW213650   6.418   5.754   4.704
 4251SOL     OW13651   5.307   2.759   5.757
 4251SOL    HW113652   5.313   2.666   5.721
 4251SOL    HW213653   5.256   2.758   5.844
 4252SOL     OW13654   6.783   6.752   0.133
 4252SOL    HW113655   6.860   6.815   0.129
 4252SOL    HW213656   6.788   6.689   0.055
 4253SOL     OW13657   4.870   5.601   3.144
 4253SOL    HW113658   4.803   5.583   3.216
 4253SOL    HW213659   4.829   5.583   3.055
 4254SOL     OW13660   1.953   2.297   5.843
 4254SOL    HW113661   1.949   2.278   5.942
 4254SOL    HW213662   1.954   2.210   5.793
 4255SOL     OW13663   1.185   2.820   3.286
 4255SOL    HW113664   1.230   2.891   3.232
 4255SOL    HW213665   1.108   2.859   3.335
 4256SOL     OW13666   0.341   6.040   1.007
 4256SOL    HW113667   0.413   5.970   1.003
 4256SOL    HW213668   0.358   6.100   1.085
 4257SOL     OW13669   6.793   0.817   3.638
 4257SOL    HW113670   6.764   0.864   3.722
 4257SOL    HW213671   6.781   0.719   3.649
 4258SOL     OW13672   3.102   5.500   1.114
 4258SOL    HW113673   3.034   5.560   1.072
 4258SOL    HW213674   3.075   5.481   1.209
 4259SOL     OW13675   1.029   0.252   0.836
 4259SOL    HW113676   1.032   0.166   0.784
 4259SOL    HW213677   1.117   0.299   0.826
 4260SOL     OW13678   5.907   0.747   4.728
 4260SOL    HW113679   5.876   0.653   4.720
 4260SOL    HW213680   5.829   0.806   4.748
 4261SOL     OW13681   2.886   6.191   4.325
 4261SOL    HW113682   2.880   6.141   4.412
 4261SOL    HW213683   2.814   6.159   4.263
 4262SOL     OW13684   2.629   4.825   5.511
 4262SOL    HW113685   2.687   4.800   5.589
 4262SOL    HW213686   2.573   4.904   5.535
 4263SOL     OW13687   2.464   1.727   3.401
 4263SOL    HW113688   2.532   1.789   3.361
 4263SOL    HW213689   2.400   1.780   3.457
 4264SOL     OW13690   4.790   2.293   5.955
 4264SOL    HW113691   4.710   2.235   5.940
 4264SOL    HW213692   4.869   2.237   5.979
 4265SOL     OW13693   2.450   6.677   5.899
 4265SOL    HW113694   2.433   6.682   5.998
 4265SOL    HW213695   2.373   6.632   5.854
 4266SOL     OW13696   1.490   5.235   1.707
 4266SOL    HW113697   1.510   5.221   1.610
 4266SOL    HW213698   1.402   5.281   1.716
 4267SOL     OW13699   0.889   4.585   4.337
 4267SOL    HW113700   0.876   4.487   4.352
 4267SOL    HW213701   0.985   4.608   4.348
 4268SOL     OW13702   0.966   4.436   6.377
 4268SOL    HW113703   0.950   4.531   6.404
 4268SOL    HW213704   0.962   4.377   6.457
 4269SOL     OW13705   2.815   1.774   4.709
 4269SOL    HW113706   2.807   1.797   4.612
 4269SOL    HW213707   2.795   1.677   4.722
 4270SOL     OW13708   3.758   3.227   0.340
 4270SOL    HW113709   3.806   3.276   0.268
 4270SOL    HW213710   3.824   3.177   0.396
 4271SOL     OW13711   0.022   0.388   1.041
 4271SOL    HW113712   0.011   0.422   1.135
 4271SOL    HW213713   6.955   0.359   1.006
 4272SOL     OW13714   6.739   1.141   5.842
 4272SOL    HW113715   6.709   1.079   5.914
 4272SOL    HW213716   6.713   1.235   5.865
 4273SOL     OW13717   2.689   6.105   4.108
 4273SOL    HW113718   2.636   6.021   4.098
 4273SOL    HW213719   2.652   6.176   4.047
 4274SOL     OW13720   0.953   1.317   1.845
 4274SOL    HW113721   0.920   1.292   1.754
 4274SOL    HW213722   1.051   1.338   1.840
 4275SOL     OW13723   0.094   2.294   3.565
 4275SOL    HW113724   7.018   2.306   3.586
 4275SOL    HW213725   0.109   2.204   3.526
 4276SOL     OW13726   2.319   6.017   3.122
 4276SOL    HW113727   2.315   5.968   3.209
 4276SOL    HW213728   2.267   5.967   3.053
 4277SOL     OW13729   6.806   5.478   3.008
 4277SOL    HW113730   6.747   5.519   3.078
 4277SOL    HW213731   6.839   5.550   2.947
 4278SOL     OW13732   1.002   6.415   1.377
 4278SOL    HW113733   0.951   6.499   1.357
 4278SOL    HW213734   1.090   6.438   1.419
 4279SOL     OW13735   0.732   2.389   3.306
 4279SOL    HW113736   0.740   2.486   3.330
 4279SOL    HW213737   0.694   2.339   3.384
 4280SOL     OW13738   2.025   6.331   6.007
 4280SOL    HW113739   2.074   6.398   6.063
 4280SOL    HW213740   1.946   6.297   6.057
 4281SOL     OW13741   5.966   5.895   3.145
 4281SOL    HW113742   5.871   5.924   3.154
 4281SOL    HW213743   6.015   5.959   3.086
 4282SOL     OW13744   5.040   4.974   2.229
 4282SOL    HW113745   4.980   4.934   2.159
 4282SOL    HW213746   5.089   5.052   2.189
 4283SOL     OW13747   5.704   1.343   4.895
 4283SOL    HW113748   5.699   1.268   4.961
 4283SOL    HW213749   5.612   1.365   4.863
 4284SOL     OW13750   4.610   6.209   6.737
 4284SOL    HW113751   4.589   6.115   6.710
 4284SOL    HW213752   4.525   6.259   6.755
 4285SOL     OW13753   3.452   1.489   6.556
 4285SOL    HW113754   3.384   1.503   6.628
 4285SOL    HW213755   3.408   1.444   6.477
 4286SOL     OW13756   5.279   0.400   6.665
 4286SOL    HW113757   5.205   0.356   6.715
 4286SOL    HW213758   5.242   0.471   6.605
 4287SOL     OW13759   3.455   1.133   0.952
 4287SOL    HW113760   3.486   1.050   0.998
 4287SOL    HW213761   3.404   1.109   0.870
 4288SOL     OW13762   6.648   6.158   1.999
 4288SOL    HW113763   6.580   6.108   1.944
 4288SOL    HW213764   6.677   6.101   2.075
 4289SOL     OW13765   0.448   4.295   4.911
 4289SOL    HW113766   0.514   4.293   4.836
 4289SOL    HW213767   0.363   4.337   4.880
 4290SOL     OW13768   0.330   1.787   2.882
 4290SOL    HW113769   0.272   1.775   2.962
 4290SOL    HW213770   0.415   1.736   2.893
 4291SOL     OW13771   3.910   4.542   6.645
 4291SOL    HW113772   3.865   4.516   6.730
 4291SOL    HW213773   3.982   4.476   6.624
 4292SOL     OW13774   6.563   1.115   1.766
 4292SOL    HW113775   6.659   1.087   1.778
 4292SOL    HW213776   6.523   1.134   1.856
 4293SOL     OW13777   3.908   2.474   0.438
 4293SOL    HW113778   3.907   2.430   0.527
 4293SOL    HW213779   3.869   2.565   0.445
 4294SOL     OW13780   2.822   1.997   6.378
 4294SOL    HW113781   2.795   2.071   6.316
 4294SOL    HW213782   2.909   1.959   6.348
 4295SOL     OW13783   4.600   6.202   3.106
 4295SOL    HW113784   4.615   6.114   3.151
 4295SOL    HW213785   4.607   6.276   3.173
 4296SOL     OW13786   2.540   6.480   2.234
 4296SOL    HW113787   2.542   6.393   2.185
 4296SOL    HW213788   2.525   6.555   2.169
 4297SOL     OW13789   4.793   5.380   0.157
 4297SOL    HW113790   4.817   5.285   0.134
 4297SOL    HW213791   4.871   5.424   0.200
 4298SOL     OW13792   1.466   0.539   0.600
 4298SOL    HW113793   1.420   0.604   0.541
 4298SOL    HW213794   1.517   0.588   0.671
 4299SOL     OW13795   0.750   3.072   6.854
 4299SOL    HW113796   0.667   3.025   6.823
 4299SOL    HW213797   0.755   3.069   6.954
 4300SOL     OW13798   3.277   1.251   1.652
 4300SOL    HW113799   3.366   1.238   1.696
 4300SOL    HW213800   3.231   1.331   1.690
 4301SOL     OW13801   2.198   5.841   5.966
 4301SOL    HW113802   2.124   5.907   5.978
 4301SOL    HW213803   2.201   5.811   5.870
 4302SOL     OW13804   3.487   4.887   5.909
 4302SOL    HW113805   3.531   4.960   5.856
 4302SOL    HW213806   3.461   4.922   5.999
 4303SOL     OW13807   4.416   5.270   3.634
 4303SOL    HW113808   4.359   5.207   3.582
 4303SOL    HW213809   4.512   5.251   3.615
 4304SOL     OW13810   3.432   4.307   1.671
 4304SOL    HW113811   3.506   4.262   1.720
 4304SOL    HW213812   3.435   4.282   1.575
 4305SOL     OW13813   0.853   6.099   6.162
 4305SOL    HW113814   0.866   6.049   6.248
 4305SOL    HW213815   0.895   6.190   6.169
 4306SOL     OW13816   6.028   3.727   5.484
 4306SOL    HW113817   6.121   3.761   5.493
 4306SOL    HW213818   5.964   3.803   5.481
 4307SOL     OW13819   0.416   1.179   6.150
 4307SOL    HW113820   0.481   1.237   6.200
 4307SOL    HW213821   0.362   1.235   6.088
 4308SOL     OW13822   4.301   6.262   6.249
 4308SOL    HW113823   4.387   6.212   6.239
 4308SOL    HW213824   4.228   6.198   6.274
 4309SOL     OW13825   1.505   1.357   0.138
 4309SOL    HW113826   1.427   1.378   0.079
 4309SOL    HW213827   1.515   1.258   0.146
 4310SOL     OW13828   6.460   2.156   2.598
 4310SOL    HW113829   6.420   2.189   2.684
 4310SOL    HW213830   6.392   2.103   2.548
 4311SOL     OW13831   1.002   0.546   1.469
 4311SOL    HW113832   1.007   0.453   1.504
 4311SOL    HW213833   0.908   0.566   1.440
 4312SOL     OW13834   6.636   3.647   2.383
 4312SOL    HW113835   6.664   3.734   2.425
 4312SOL    HW213836   6.538   3.635   2.394
 4313SOL     OW13837   0.864   3.515   6.244
 4313SOL    HW113838   0.785   3.494   6.187
 4313SOL    HW213839   0.946   3.519   6.187
 4314SOL     OW13840   0.817   1.255   6.130
 4314SOL    HW113841   0.847   1.243   6.035
 4314SOL    HW213842   0.750   1.184   6.153
 4315SOL     OW13843   2.927   1.464   5.611
 4315SOL    HW113844   2.931   1.563   5.599
 4315SOL    HW213845   2.996   1.436   5.678
 4316SOL     OW13846   4.435   5.912   1.995
 4316SOL    HW113847   4.429   5.985   1.928
 4316SOL    HW213848   4.376   5.836   1.968
 4317SOL     OW13849   5.133   0.894   5.115
 4317SOL    HW113850   5.081   0.978   5.128
 4317SOL    HW213851   5.164   0.889   5.020
 4318SOL     OW13852   1.392   6.417   4.544
 4318SOL    HW113853   1.440   6.462   4.619
 4318SOL    HW213854   1.373   6.483   4.472
 4319SOL     OW13855   0.841   3.980   2.388
 4319SOL    HW113856   0.792   3.935   2.462
 4319SOL    HW213857   0.777   4.026   2.328
 4320SOL     OW13858   3.091   0.144   0.679
 4320SOL    HW113859   3.138   0.123   0.765
 4320SOL    HW213860   3.007   0.194   0.698
 4321SOL     OW13861   6.797   6.410   3.229
 4321SOL    HW113862   6.855   6.465   3.169
 4321SOL    HW213863   6.854   6.357   3.291
 4322SOL     OW13864   2.046   2.145   4.393
 4322SOL    HW113865   1.980   2.078   4.360
 4322SOL    HW213866   2.100   2.106   4.467
 4323SOL     OW13867   4.557   5.012   0.102
 4323SOL    HW113868   4.509   5.099   0.089
 4323SOL    HW213869   4.493   4.937   0.092
 4324SOL     OW13870   0.633   4.830   5.921
 4324SOL    HW113871   0.585   4.917   5.929
 4324SOL    HW213872   0.579   4.768   5.864
 4325SOL     OW13873   2.059   6.366   1.485
 4325SOL    HW113874   2.031   6.430   1.557
 4325SOL    HW213875   2.016   6.394   1.399
 4326SOL     OW13876   5.051   2.071   2.228
 4326SOL    HW113877   5.007   2.035   2.310
 4326SOL    HW213878   5.150   2.054   2.233
 4327SOL     OW13879   2.212   5.534   3.551
 4327SOL    HW113880   2.284   5.491   3.497
 4327SOL    HW213881   2.189   5.623   3.512
 4328SOL     OW13882   6.160   0.509   3.382
 4328SOL    HW113883   6.224   0.585   3.375
 4328SOL    HW213884   6.104   0.504   3.300
 4329SOL     OW13885   6.644   3.388   6.501
 4329SOL    HW113886   6.726   3.335   6.479
 4329SOL    HW213887   6.590   3.403   6.418
 4330SOL     OW13888   2.326   5.431   4.661
 4330SOL    HW113889   2.230   5.408   4.647
 4330SOL    HW213890   2.360   5.481   4.581
 4331SOL     OW13891   6.015   2.089   2.453
 4331SOL    HW113892   5.994   2.029   2.530
 4331SOL    HW213893   6.039   2.180   2.487
 4332SOL     OW13894   0.578   5.347   1.286
 4332SOL    HW113895   0.530   5.384   1.365
 4332SOL    HW213896   0.618   5.423   1.234
 4333SOL     OW13897   4.001   2.543   6.095
 4333SOL    HW113898   3.964   2.452   6.117
 4333SOL    HW213899   3.968   2.609   6.162
 4334SOL     OW13900   0.319   2.941   3.810
 4334SOL    HW113901   0.239   2.932   3.750
 4334SOL    HW213902   0.398   2.898   3.766
 4335SOL     OW13903   2.491   3.894   1.526
 4335SOL    HW113904   2.579   3.913   1.572
 4335SOL    HW213905   2.438   3.831   1.583
 4336SOL     OW13906   2.431   5.628   5.454
 4336SOL    HW113907   2.382   5.631   5.367
 4336SOL    HW213908   2.530   5.632   5.437
 4337SOL     OW13909   0.230   4.596   3.558
 4337SOL    HW113910   0.241   4.609   3.657
 4337SOL    HW213911   0.286   4.519   3.528
 4338SOL     OW13912   2.865   2.581   5.900
 4338SOL    HW113913   2.930   2.651   5.928
 4338SOL    HW213914   2.791   2.622   5.847
 4339SOL     OW13915   4.096   5.009   5.157
 4339SOL    HW113916   4.119   4.912   5.167
 4339SOL    HW213917   4.178   5.064   5.167
 4340SOL     OW13918   6.744   4.129   1.396
 4340SOL    HW113919   6.757   4.228   1.405
 4340SOL    HW213920   6.817   4.092   1.338
 4341SOL     OW13921   5.383   6.034   1.404
 4341SOL    HW113922   5.425   6.101   1.465
 4341SOL    HW213923   5.397   6.062   1.309
 4342SOL     OW13924   5.423   3.143   2.629
 4342SOL    HW113925   5.330   3.167   2.656
 4342SOL    HW213926   5.431   3.043   2.625
 4343SOL     OW13927   3.551   0.555   6.441
 4343SOL    HW113928   3.478   0.489   6.459
 4343SOL    HW213929   3.611   0.519   6.370
 4344SOL     OW13930   0.258   3.680   3.146
 4344SOL    HW113931   0.287   3.775   3.130
 4344SOL    HW213932   0.163   3.680   3.178
 4345SOL     OW13933   3.551   3.581   2.572
 4345SOL    HW113934   3.570   3.494   2.527
 4345SOL    HW213935   3.473   3.626   2.528
 4346SOL     OW13936   0.590   3.176   2.856
 4346SOL    HW113937   0.508   3.219   2.895
 4346SOL    HW213938   0.648   3.142   2.931
 4347SOL     OW13939   6.187   5.441   0.741
 4347SOL    HW113940   6.224   5.502   0.811
 4347SOL    HW213941   6.131   5.371   0.785
 4348SOL     OW13942   6.034   5.111   5.771
 4348SOL    HW113943   5.996   5.174   5.703
 4348SOL    HW213944   6.133   5.119   5.772
 4349SOL     OW13945   0.498   3.469   4.135
 4349SOL    HW113946   0.539   3.434   4.051
 4349SOL    HW213947   0.404   3.435   4.144
 4350SOL     OW13948   3.898   1.201   4.264
 4350SOL    HW113949   3.888   1.200   4.363
 4350SOL    HW213950   3.902   1.296   4.232
 4351SOL     OW13951   0.662   5.649   0.628
 4351SOL    HW113952   0.679   5.747   0.635
 4351SOL    HW213953   0.671   5.620   0.532
 4352SOL     OW13954   3.661   4.951   2.184
 4352SOL    HW113955   3.641   4.884   2.112
 4352SOL    HW213956   3.743   5.003   2.159
 4353SOL     OW13957   2.812   3.233   0.983
 4353SOL    HW113958   2.795   3.193   0.893
 4353SOL    HW213959   2.905   3.209   1.013
 4354SOL     OW13960   5.832   6.105   2.684
 4354SOL    HW113961   5.839   6.010   2.653
 4354SOL    HW213962   5.920   6.151   2.674
 4355SOL     OW13963   1.947   4.769   2.518
 4355SOL    HW113964   1.865   4.730   2.562
 4355SOL    HW213965   1.923   4.856   2.475
 4356SOL     OW13966   5.897   2.913   5.046
 4356SOL    HW113967   5.881   2.979   5.120
 4356SOL    HW213968   5.964   2.951   4.982
 4357SOL     OW13969   6.064   0.051   1.782
 4357SOL    HW113970   6.058   0.127   1.847
 4357SOL    HW213971   6.159   0.018   1.778
 4358SOL     OW13972   3.008   0.742   0.256
 4358SOL    HW113973   2.936   0.754   0.187
 4358SOL    HW213974   3.081   0.686   0.218
 4359SOL     OW13975   2.538   2.162   0.856
 4359SOL    HW113976   2.626   2.116   0.840
 4359SOL    HW213977   2.520   2.225   0.780
 4360SOL     OW13978   1.828   5.443   4.167
 4360SOL    HW113979   1.805   5.352   4.133
 4360SOL    HW213980   1.747   5.501   4.163
 4361SOL     OW13981   0.578   2.187   0.243
 4361SOL    HW113982   0.530   2.196   0.156
 4361SOL    HW213983   0.643   2.111   0.238
 4362SOL     OW13984   1.037   5.212   3.285
 4362SOL    HW113985   1.097   5.217   3.365
 4362SOL    HW213986   1.058   5.129   3.233
 4363SOL     OW13987   3.778   0.809   1.903
 4363SOL    HW113988   3.830   0.772   1.826
 4363SOL    HW213989   3.777   0.909   1.898
 4364SOL     OW13990   3.908   4.009   2.863
 4364SOL    HW113991   3.927   4.000   2.961
 4364SOL    HW213992   3.836   4.076   2.849
 4365SOL     OW13993   2.104   1.143   1.484
 4365SOL    HW113994   2.076   1.162   1.578
 4365SOL    HW213995   2.054   1.203   1.422
 4366SOL     OW13996   5.284   6.853   4.831
 4366SOL    HW113997   5.303   6.891   4.922
 4366SOL    HW213998   5.222   6.775   4.840
 4367SOL     OW13999   2.672   6.412   2.633
 4367SOL    HW114000   2.588   6.369   2.601
 4367SOL    HW214001   2.659   6.446   2.726
 4368SOL     OW14002   4.882   3.827   3.891
 4368SOL    HW114003   4.897   3.758   3.961
 4368SOL    HW214004   4.969   3.853   3.850
 4369SOL     OW14005   5.109   4.205   3.648
 4369SOL    HW114006   5.115   4.124   3.706
 4369SOL    HW214007   5.136   4.285   3.700
 4370SOL     OW14008   3.985   4.552   0.954
 4370SOL    HW114009   3.889   4.566   0.976
 4370SOL    HW214010   4.023   4.636   0.916
 4371SOL     OW14011   2.833   0.793   2.462
 4371SOL    HW114012   2.825   0.710   2.517
 4371SOL    HW214013   2.846   0.872   2.523
 4372SOL     OW14014   1.891   4.211   3.830
 4372SOL    HW114015   1.815   4.162   3.874
 4372SOL    HW214016   1.921   4.285   3.890
 4373SOL     OW14017   4.316   0.836   6.841
 4373SOL    HW114018   4.333   0.737   6.834
 4373SOL    HW214019   4.257   0.854   6.919
 4374SOL     OW14020   2.968   6.737   0.272
 4374SOL    HW114021   3.030   6.805   0.311
 4374SOL    HW214022   2.990   6.647   0.309
 4375SOL     OW14023   4.739   1.555   5.711
 4375SOL    HW114024   4.709   1.559   5.806
 4375SOL    HW214025   4.693   1.626   5.658
 4376SOL     OW14026   2.161   6.202   6.700
 4376SOL    HW114027   2.130   6.191   6.794
 4376SOL    HW214028   2.178   6.112   6.660
 4377SOL     OW14029   4.967   6.365   6.901
 4377SOL    HW114030   4.904   6.290   6.879
 4377SOL    HW214031   5.051   6.327   6.939
 4378SOL     OW14032   2.591   5.087   2.622
 4378SOL    HW114033   2.531   5.140   2.562
 4378SOL    HW214034   2.685   5.092   2.589
 4379SOL     OW14035   0.778   6.857   1.950
 4379SOL    HW114036   0.714   6.880   1.876
 4379SOL    HW214037   0.764   6.761   1.977
 4380SOL     OW14038   1.820   5.371   4.459
 4380SOL    HW114039   1.838   5.398   4.364
 4380SOL    HW214040   1.726   5.337   4.467
 4381SOL     OW14041   4.933   5.529   5.409
 4381SOL    HW114042   4.968   5.477   5.487
 4381SOL    HW214043   5.008   5.575   5.363
 4382SOL     OW14044   5.128   3.284   2.995
 4382SOL    HW114045   5.128   3.184   2.987
 4382SOL    HW214046   5.040   3.320   2.964
 4383SOL     OW14047   0.848   2.048   0.378
 4383SOL    HW114048   0.790   2.044   0.459
 4383SOL    HW214049   0.857   1.956   0.339
 4384SOL     OW14050   4.057   6.589   0.855
 4384SOL    HW114051   3.969   6.622   0.823
 4384SOL    HW214052   4.099   6.657   0.915
 4385SOL     OW14053   6.500   1.998   2.334
 4385SOL    HW114054   6.481   1.966   2.426
 4385SOL    HW214055   6.414   2.021   2.288
 4386SOL     OW14056   1.028   4.060   6.922
 4386SOL    HW114057   1.093   4.017   6.984
 4386SOL    HW214058   0.959   3.994   6.894
 4387SOL     OW14059   6.352   2.635   1.809
 4387SOL    HW114060   6.268   2.624   1.755
 4387SOL    HW214061   6.401   2.548   1.812
 4388SOL     OW14062   2.824   1.956   5.735
 4388SOL    HW114063   2.917   1.991   5.723
 4388SOL    HW214064   2.765   1.993   5.663
 4389SOL     OW14065   5.981   2.411   2.438
 4389SOL    HW114066   6.046   2.418   2.362
 4389SOL    HW214067   5.980   2.496   2.489
 4390SOL     OW14068   4.391   2.502   1.758
 4390SOL    HW114069   4.309   2.557   1.745
 4390SOL    HW214070   4.366   2.407   1.773
 4391SOL     OW14071   0.497   6.460   0.671
 4391SOL    HW114072   0.596   6.471   0.658
 4391SOL    HW214073   0.472   6.486   0.764
 4392SOL     OW14074   5.503   3.993   4.408
 4392SOL    HW114075   5.428   4.015   4.471
 4392SOL    HW214076   5.589   3.992   4.458
 4393SOL     OW14077   5.352   5.852   3.823
 4393SOL    HW114078   5.389   5.768   3.862
 4393SOL    HW214079   5.316   5.910   3.896
 4394SOL     OW14080   4.253   0.723   2.623
 4394SOL    HW114081   4.299   0.704   2.536
 4394SOL    HW214082   4.301   0.675   2.697
 4395SOL     OW14083   5.213   1.826   1.398
 4395SOL    HW114084   5.198   1.919   1.365
 4395SOL    HW214085   5.124   1.781   1.412
 4396SOL     OW14086   1.667   1.141   4.177
 4396SOL    HW114087   1.670   1.230   4.222
 4396SOL    HW214088   1.700   1.149   4.083
 4397SOL     OW14089   5.738   0.031   6.471
 4397SOL    HW114090   5.676   0.109   6.469
 4397SOL    HW214091   5.797   0.036   6.552
 4398SOL     OW14092   0.026   5.328   3.917
 4398SOL    HW114093   6.969   5.266   3.904
 4398SOL    HW214094   7.014   5.417   3.950
 4399SOL     OW14095   2.791   1.416   1.755
 4399SOL    HW114096   2.829   1.506   1.779
 4399SOL    HW214097   2.695   1.426   1.730
 4400SOL     OW14098   3.535   6.057   3.624
 4400SOL    HW114099   3.610   6.034   3.561
 4400SOL    HW214100   3.460   5.993   3.612
 4401SOL     OW14101   6.359   6.259   4.906
 4401SOL    HW114102   6.282   6.315   4.933
 4401SOL    HW214103   6.341   6.163   4.928
 4402SOL     OW14104   6.457   6.910   3.104
 4402SOL    HW114105   6.546   6.913   3.059
 4402SOL    HW214106   6.403   6.833   3.068
 4403SOL     OW14107   0.292   0.265   3.240
 4403SOL    HW114108   0.232   0.252   3.160
 4403SOL    HW214109   0.303   0.178   3.287
 4404SOL     OW14110   1.742   4.705   3.455
 4404SOL    HW114111   1.649   4.740   3.444
 4404SOL    HW214112   1.762   4.695   3.552
 4405SOL     OW14113   3.141   3.832   6.211
 4405SOL    HW114114   3.182   3.891   6.280
 4405SOL    HW214115   3.148   3.876   6.121
 4406SOL     OW14116   5.501   3.799   2.062
 4406SOL    HW114117   5.409   3.839   2.054
 4406SOL    HW214118   5.498   3.726   2.131
 4407SOL     OW14119   7.004   0.370   0.360
 4407SOL    HW114120   0.017   0.364   0.454
 4407SOL    HW214121   0.037   0.438   0.310
 4408SOL     OW14122   4.421   6.214   0.335
 4408SOL    HW114123   4.495   6.244   0.395
 4408SOL    HW214124   4.440   6.244   0.241
 4409SOL     OW14125   1.832   1.593   2.991
 4409SOL    HW114126   1.894   1.658   2.947
 4409SOL    HW214127   1.816   1.516   2.930
 4410SOL     OW14128   2.060   6.034   1.698
 4410SOL    HW114129   1.992   6.107   1.702
 4410SOL    HW214130   2.015   5.946   1.688
 4411SOL     OW14131   3.618   3.217   2.586
 4411SOL    HW114132   3.596   3.119   2.581
 4411SOL    HW214133   3.669   3.244   2.504
 4412SOL     OW14134   3.456   2.007   6.333
 4412SOL    HW114135   3.434   1.915   6.364
 4412SOL    HW214136   3.446   2.013   6.234
 4413SOL     OW14137   4.677   5.368   4.265
 4413SOL    HW114138   4.660   5.326   4.176
 4413SOL    HW214139   4.720   5.458   4.251
 4414SOL     OW14140   3.608   5.585   1.487
 4414SOL    HW114141   3.577   5.511   1.428
 4414SOL    HW214142   3.644   5.660   1.431
 4415SOL     OW14143   4.309   1.549   1.234
 4415SOL    HW114144   4.306   1.452   1.255
 4415SOL    HW214145   4.256   1.600   1.301
 4416SOL     OW14146   2.874   2.228   4.462
 4416SOL    HW114147   2.912   2.164   4.529
 4416SOL    HW214148   2.867   2.319   4.503
 4417SOL     OW14149   6.791   0.591   0.828
 4417SOL    HW114150   6.808   0.582   0.730
 4417SOL    HW214151   6.787   0.501   0.870
 4418SOL     OW14152   4.655   1.137   4.092
 4418SOL    HW114153   4.590   1.068   4.061
 4418SOL    HW214154   4.747   1.099   4.088
 4419SOL     OW14155   6.556   5.578   0.288
 4419SOL    HW114156   6.626   5.632   0.240
 4419SOL    HW214157   6.581   5.570   0.384
 4420SOL     OW14158   4.605   0.864   6.820
 4420SOL    HW114159   4.622   0.941   6.883
 4420SOL    HW214160   4.511   0.868   6.787
 4421SOL     OW14161   1.176   1.937   3.251
 4421SOL    HW114162   1.228   2.022   3.263
 4421SOL    HW214163   1.134   1.912   3.338
 4422SOL     OW14164   1.911   4.266   5.691
 4422SOL    HW114165   1.879   4.313   5.608
 4422SOL    HW214166   1.837   4.208   5.726
 4423SOL     OW14167   6.477   1.729   6.050
 4423SOL    HW114168   6.511   1.813   6.093
 4423SOL    HW214169   6.547   1.658   6.057
 4424SOL     OW14170   0.552   6.635   3.971
 4424SOL    HW114171   0.537   6.537   3.960
 4424SOL    HW214172   0.473   6.685   3.938
 4425SOL     OW14173   5.115   4.161   0.102
 4425SOL    HW114174   5.205   4.200   0.122
 4425SOL    HW214175   5.068   4.220   0.037
 4426SOL     OW14176   0.732   0.390   5.895
 4426SOL    HW114177   0.753   0.295   5.919
 4426SOL    HW214178   0.708   0.441   5.977
 4427SOL     OW14179   0.725   5.934   3.978
 4427SOL    HW114180   0.771   5.950   3.891
 4427SOL    HW214181   0.793   5.933   4.052
 4428SOL     OW14182   2.118   6.353   3.298
 4428SOL    HW114183   2.092   6.358   3.394
 4428SOL    HW214184   2.211   6.390   3.287
 4429SOL     OW14185   3.920   0.127   3.130
 4429SOL    HW114186   3.929   0.169   3.220
 4429SOL    HW214187   4.002   0.074   3.110
 4430SOL     OW14188   1.443   0.306   1.705
 4430SOL    HW114189   1.504   0.262   1.771
 4430SOL    HW214190   1.479   0.293   1.613
 4431SOL     OW14191   2.034   2.077   3.594
 4431SOL    HW114192   2.023   1.981   3.623
 4431SOL    HW214193   1.944   2.121   3.593
 4432SOL     OW14194   2.946   3.245   3.760
 4432SOL    HW114195   3.026   3.186   3.769
 4432SOL    HW214196   2.903   3.232   3.671
 4433SOL     OW14197   6.217   0.219   3.347
 4433SOL    HW114198   6.145   0.164   3.390
 4433SOL    HW214199   6.219   0.310   3.388
 4434SOL     OW14200   4.897   2.181   4.836
 4434SOL    HW114201   4.861   2.184   4.743
 4434SOL    HW214202   4.823   2.200   4.900
 4435SOL     OW14203   4.086   3.114   2.249
 4435SOL    HW114204   4.175   3.069   2.236
 4435SOL    HW214205   4.097   3.191   2.312
 4436SOL     OW14206   5.323   0.320   0.636
 4436SOL    HW114207   5.330   0.415   0.667
 4436SOL    HW214208   5.415   0.282   0.626
 4437SOL     OW14209   3.621   0.231   4.984
 4437SOL    HW114210   3.526   0.208   5.007
 4437SOL    HW214211   3.674   0.237   5.068
 4438SOL     OW14212   3.598   3.854   6.757
 4438SOL    HW114213   3.648   3.938   6.776
 4438SOL    HW214214   3.593   3.840   6.658
 4439SOL     OW14215   2.230   4.638   2.148
 4439SOL    HW114216   2.316   4.600   2.182
 4439SOL    HW214217   2.248   4.726   2.104
 4440SOL     OW14218   6.779   0.916   0.145
 4440SOL    HW114219   6.769   0.913   0.245
 4440SOL    HW214220   6.718   0.984   0.107
 4441SOL     OW14221   6.254   1.762   3.467
 4441SOL    HW114222   6.265   1.689   3.534
 4441SOL    HW214223   6.275   1.850   3.511
 4442SOL     OW14224   2.113   6.499   1.934
 4442SOL    HW114225   2.208   6.519   1.910
 4442SOL    HW214226   2.096   6.524   2.029
 4443SOL     OW14227   2.595   1.714   6.077
 4443SOL    HW114228   2.638   1.694   6.165
 4443SOL    HW214229   2.563   1.629   6.035
 4444SOL     OW14230   5.034   0.618   2.821
 4444SOL    HW114231   5.055   0.689   2.755
 4444SOL    HW214232   4.954   0.566   2.790
 4445SOL     OW14233   1.212   1.210   6.619
 4445SOL    HW114234   1.189   1.189   6.713
 4445SOL    HW214235   1.180   1.136   6.559
 4446SOL     OW14236   5.250   5.116   3.736
 4446SOL    HW114237   5.236   5.172   3.817
 4446SOL    HW214238   5.219   5.023   3.754
 4447SOL     OW14239   4.818   3.182   4.869
 4447SOL    HW114240   4.836   3.083   4.869
 4447SOL    HW214241   4.833   3.218   4.961
 4448SOL     OW14242   2.051   3.019   6.671
 4448SOL    HW114243   2.121   3.063   6.728
 4448SOL    HW214244   2.094   2.953   6.610
 4449SOL     OW14245   0.331   1.509   5.548
 4449SOL    HW114246   0.245   1.556   5.531
 4449SOL    HW214247   0.379   1.553   5.623
 4450SOL     OW14248   3.610   4.135   3.126
 4450SOL    HW114249   3.668   4.207   3.086
 4450SOL    HW214250   3.646   4.045   3.100
 4451SOL     OW14251   0.021   4.430   1.471
 4451SOL    HW114252   0.104   4.484   1.454
 4451SOL    HW214253   0.006   4.422   1.569
 4452SOL     OW14254   6.417   4.093   6.151
 4452SOL    HW114255   6.513   4.122   6.142
 4452SOL    HW214256   6.392   4.093   6.248
 4453SOL     OW14257   4.998   1.583   1.476
 4453SOL    HW114258   4.933   1.637   1.531
 4453SOL    HW214259   4.998   1.616   1.382
 4454SOL     OW14260   5.340   2.693   1.412
 4454SOL    HW114261   5.286   2.775   1.432
 4454SOL    HW214262   5.282   2.612   1.417
 4455SOL     OW14263   4.420   1.833   2.136
 4455SOL    HW114264   4.513   1.796   2.132
 4455SOL    HW214265   4.359   1.765   2.176
 4456SOL     OW14266   0.752   5.588   2.506
 4456SOL    HW114267   0.767   5.615   2.601
 4456SOL    HW214268   0.839   5.576   2.460
 4457SOL     OW14269   4.777   1.579   6.313
 4457SOL    HW114270   4.811   1.638   6.240
 4457SOL    HW214271   4.734   1.635   6.384
 4458SOL     OW14272   3.821   1.541   0.274
 4458SOL    HW114273   3.908   1.562   0.320
 4458SOL    HW214274   3.756   1.506   0.341
 4459SOL     OW14275   5.153   6.251   5.339
 4459SOL    HW114276   5.185   6.330   5.393
 4459SOL    HW214277   5.222   6.179   5.343
 4460SOL     OW14278   1.154   1.544   6.332
 4460SOL    HW114279   1.114   1.491   6.408
 4460SOL    HW214280   1.167   1.639   6.361
 4461SOL     OW14281   2.040   6.791   2.268
 4461SOL    HW114282   1.962   6.820   2.212
 4461SOL    HW214283   2.052   6.692   2.260
 4462SOL     OW14284   6.925   5.280   0.896
 4462SOL    HW114285   6.926   5.219   0.975
 4462SOL    HW214286   6.830   5.301   0.872
 4463SOL     OW14287   1.701   3.540   5.642
 4463SOL    HW114288   1.625   3.572   5.585
 4463SOL    HW214289   1.736   3.616   5.697
 4464SOL     OW14290   6.008   3.533   7.016
 4464SOL    HW114291   5.929   3.579   6.975
 4464SOL    HW214292   5.989   3.516   0.092
 4465SOL     OW14293   0.755   6.320   1.568
 4465SOL    HW114294   0.785   6.236   1.614
 4465SOL    HW214295   0.741   6.302   1.471
 4466SOL     OW14296   0.620   2.943   3.270
 4466SOL    HW114297   0.618   2.902   3.179
 4466SOL    HW214298   0.554   3.018   3.274
 4467SOL     OW14299   1.401   0.087   3.085
 4467SOL    HW114300   1.463   0.080   3.007
 4467SOL    HW214301   1.393   0.182   3.113
 4468SOL     OW14302   1.639   2.226   0.745
 4468SOL    HW114303   1.559   2.170   0.763
 4468SOL    HW214304   1.636   2.308   0.803
 4469SOL     OW14305   4.757   6.988   0.505
 4469SOL    HW114306   4.808   6.947   0.581
 4469SOL    HW214307   4.676   6.931   0.485
 4470SOL     OW14308   4.668   5.449   1.653
 4470SOL    HW114309   4.631   5.541   1.664
 4470SOL    HW214310   4.601   5.382   1.686
 4471SOL     OW14311   6.490   3.062   0.692
 4471SOL    HW114312   6.557   3.082   0.620
 4471SOL    HW214313   6.534   3.009   0.764
 4472SOL     OW14314   2.237   4.603   1.843
 4472SOL    HW114315   2.275   4.512   1.823
 4472SOL    HW214316   2.261   4.628   1.937
 4473SOL     OW14317   0.673   0.562   6.396
 4473SOL    HW114318   0.679   0.661   6.381
 4473SOL    HW214319   0.720   0.538   6.480
 4474SOL     OW14320   6.095   0.317   4.210
 4474SOL    HW114321   6.165   0.252   4.239
 4474SOL    HW214322   6.086   0.389   4.278
 4475SOL     OW14323   1.670   3.477   0.608
 4475SOL    HW114324   1.649   3.457   0.704
 4475SOL    HW214325   1.710   3.396   0.565
 4476SOL     OW14326   5.181   0.063   1.953
 4476SOL    HW114327   5.107   0.058   2.020
 4476SOL    HW214328   5.153   0.018   1.869
 4477SOL     OW14329   1.241   1.055   0.259
 4477SOL    HW114330   1.333   1.076   0.227
 4477SOL    HW214331   1.244   1.029   0.355
 4478SOL     OW14332   1.967   5.046   2.031
 4478SOL    HW114333   1.907   5.113   1.987
 4478SOL    HW214334   1.996   5.081   2.120
 4479SOL     OW14335   0.746   0.580   6.145
 4479SOL    HW114336   0.761   0.554   6.240
 4479SOL    HW214337   0.821   0.638   6.114
 4480SOL     OW14338   0.352   4.747   3.754
 4480SOL    HW114339   0.374   4.803   3.834
 4480SOL    HW214340   0.363   4.802   3.672
 4481SOL     OW14341   1.278   0.341   3.965
 4481SOL    HW114342   1.334   0.379   3.891
 4481SOL    HW214343   1.195   0.302   3.927
 4482SOL     OW14344   0.512   4.496   3.736
 4482SOL    HW114345   0.473   4.588   3.739
 4482SOL    HW214346   0.606   4.498   3.770
 4483SOL     OW14347   5.000   3.090   1.537
 4483SOL    HW114348   4.946   3.107   1.620
 4483SOL    HW214349   4.940   3.056   1.464
 4484SOL     OW14350   3.788   3.413   6.303
 4484SOL    HW114351   3.836   3.328   6.323
 4484SOL    HW214352   3.722   3.432   6.376
 4485SOL     OW14353   4.607   0.558   6.917
 4485SOL    HW114354   4.656   0.476   6.886
 4485SOL    HW214355   4.523   0.569   6.863
 4486SOL     OW14356   6.196   2.234   4.191
 4486SOL    HW114357   6.154   2.201   4.106
 4486SOL    HW214358   6.179   2.168   4.264
 4487SOL     OW14359   2.727   3.473   5.623
 4487SOL    HW114360   2.806   3.417   5.596
 4487SOL    HW214361   2.730   3.488   5.722
 4488SOL     OW14362   0.078   1.820   6.407
 4488SOL    HW114363   0.109   1.725   6.404
 4488SOL    HW214364   0.137   1.875   6.347
 4489SOL     OW14365   6.334   0.633   2.959
 4489SOL    HW114366   6.433   0.637   2.947
 4489SOL    HW214367   6.310   0.554   3.014
 4490SOL     OW14368   6.811   2.318   3.903
 4490SOL    HW114369   6.880   2.389   3.886
 4490SOL    HW214370   6.722   2.351   3.872
 4491SOL     OW14371   1.470   3.491   3.183
 4491SOL    HW114372   1.395   3.554   3.161
 4491SOL    HW214373   1.527   3.479   3.102
 4492SOL     OW14374   4.339   4.180   6.369
 4492SOL    HW114375   4.371   4.232   6.289
 4492SOL    HW214376   4.240   4.168   6.363
 4493SOL     OW14377   5.548   4.972   3.643
 4493SOL    HW114378   5.487   4.894   3.651
 4493SOL    HW214379   5.594   4.989   3.730
 4494SOL     OW14380   6.268   2.581   3.496
 4494SOL    HW114381   6.348   2.610   3.443
 4494SOL    HW214382   6.288   2.496   3.544
 4495SOL     OW14383   4.014   6.632   1.792
 4495SOL    HW114384   4.002   6.675   1.702
 4495SOL    HW214385   3.956   6.677   1.859
 4496SOL     OW14386   5.676   4.403   6.049
 4496SOL    HW114387   5.725   4.469   5.992
 4496SOL    HW214388   5.605   4.358   5.994
 4497SOL     OW14389   5.813   5.475   1.179
 4497SOL    HW114390   5.800   5.376   1.180
 4497SOL    HW214391   5.740   5.519   1.232
 4498SOL     OW14392   0.613   3.680   6.956
 4498SOL    HW114393   0.533   3.643   6.909
 4498SOL    HW214394   0.631   3.625   0.017
 4499SOL     OW14395   5.809   2.952   6.435
 4499SOL    HW114396   5.855   3.039   6.455
 4499SOL    HW214397   5.711   2.962   6.451
 4500SOL     OW14398   3.185   3.772   3.811
 4500SOL    HW114399   3.244   3.691   3.819
 4500SOL    HW214400   3.142   3.790   3.899
 4501SOL     OW14401   1.828   5.003   4.458
 4501SOL    HW114402   1.783   5.091   4.446
 4501SOL    HW214403   1.891   4.988   4.382
 4502SOL     OW14404   6.450   3.055   0.241
 4502SOL    HW114405   6.359   3.021   0.217
 4502SOL    HW214406   6.454   3.154   0.227
 4503SOL     OW14407   1.731   2.805   2.947
 4503SOL    HW114408   1.735   2.820   3.046
 4503SOL    HW214409   1.640   2.830   2.914
 4504SOL     OW14410   4.509   2.531   4.766
 4504SOL    HW114411   4.474   2.457   4.824
 4504SOL    HW214412   4.461   2.529   4.678
 4505SOL     OW14413   1.422   5.002   6.288
 4505SOL    HW114414   1.519   5.001   6.312
 4505SOL    HW214415   1.379   5.083   6.328
 4506SOL     OW14416   4.316   0.006   5.071
 4506SOL    HW114417   4.332   0.104   5.061
 4506SOL    HW214418   4.242   6.999   5.010
 4507SOL     OW14419   6.258   3.971   1.594
 4507SOL    HW114420   6.346   4.013   1.615
 4507SOL    HW214421   6.272   3.887   1.543
 4508SOL     OW14422   1.593   3.913   0.145
 4508SOL    HW114423   1.617   3.951   0.235
 4508SOL    HW214424   1.556   3.820   0.157
 4509SOL     OW14425   1.096   1.837   3.728
 4509SOL    HW114426   1.153   1.878   3.800
 4509SOL    HW214427   1.154   1.783   3.667
 4510SOL     OW14428   4.003   6.429   5.185
 4510SOL    HW114429   3.912   6.470   5.188
 4510SOL    HW214430   4.061   6.472   5.254
 4511SOL     OW14431   6.303   2.807   6.429
 4511SOL    HW114432   6.283   2.717   6.469
 4511SOL    HW214433   6.394   2.837   6.457
 4512SOL     OW14434   2.753   4.995   0.446
 4512SOL    HW114435   2.670   4.997   0.390
 4512SOL    HW214436   2.779   4.900   0.464
 4513SOL     OW14437   5.683   0.996   1.824
 4513SOL    HW114438   5.637   0.974   1.910
 4513SOL    HW214439   5.771   0.949   1.821
 4514SOL     OW14440   3.462   0.878   5.291
 4514SOL    HW114441   3.428   0.932   5.368
 4514SOL    HW214442   3.555   0.907   5.270
 4515SOL     OW14443   6.259   5.072   1.316
 4515SOL    HW114444   6.307   5.107   1.397
 4515SOL    HW214445   6.285   4.977   1.299
 4516SOL     OW14446   0.962   0.122   4.763
 4516SOL    HW114447   0.982   0.025   4.779
 4516SOL    HW214448   0.889   0.130   4.695
 4517SOL     OW14449   3.447   6.783   6.154
 4517SOL    HW114450   3.482   6.840   6.229
 4517SOL    HW214451   3.360   6.820   6.122
 4518SOL     OW14452   1.361   1.054   4.195
 4518SOL    HW114453   1.452   1.070   4.232
 4518SOL    HW214454   1.361   0.969   4.141
 4519SOL     OW14455   6.472   2.760   4.646
 4519SOL    HW114456   6.494   2.785   4.740
 4519SOL    HW214457   6.453   2.844   4.594
 4520SOL     OW14458   0.221   3.966   2.249
 4520SOL    HW114459   0.280   3.897   2.208
 4520SOL    HW214460   0.157   3.922   2.312
 4521SOL     OW14461   5.207   1.800   6.176
 4521SOL    HW114462   5.225   1.822   6.080
 4521SOL    HW214463   5.254   1.714   6.199
 4522SOL     OW14464   5.718   0.641   3.174
 4522SOL    HW114465   5.700   0.628   3.077
 4522SOL    HW214466   5.665   0.718   3.209
 4523SOL     OW14467   4.253   3.013   6.764
 4523SOL    HW114468   4.249   3.030   6.666
 4523SOL    HW214469   4.333   3.060   6.803
 4524SOL     OW14470   6.376   0.407   4.956
 4524SOL    HW114471   6.377   0.329   5.018
 4524SOL    HW214472   6.460   0.408   4.903
 4525SOL     OW14473   6.760   1.791   5.619
 4525SOL    HW114474   6.803   1.880   5.603
 4525SOL    HW214475   6.661   1.799   5.607
 4526SOL     OW14476   3.805   1.350   0.567
 4526SOL    HW114477   3.864   1.373   0.645
 4526SOL    HW214478   3.861   1.310   0.494
 4527SOL     OW14479   4.021   0.596   4.258
 4527SOL    HW114480   4.108   0.570   4.217
 4527SOL    HW214481   3.984   0.676   4.212
 4528SOL     OW14482   5.016   0.009   5.740
 4528SOL    HW114483   4.962   6.946   5.734
 4528SOL    HW214484   4.954   0.087   5.747
 4529SOL     OW14485   4.168   0.435   3.816
 4529SOL    HW114486   4.228   0.434   3.736
 4529SOL    HW214487   4.222   0.457   3.898
 4530SOL     OW14488   0.659   2.948   4.738
 4530SOL    HW114489   0.592   2.900   4.683
 4530SOL    HW214490   0.615   2.987   4.819
 4531SOL     OW14491   0.263   3.844   3.450
 4531SOL    HW114492   0.238   3.771   3.387
 4531SOL    HW214493   0.183   3.900   3.471
 4532SOL     OW14494   6.350   1.576   0.694
 4532SOL    HW114495   6.382   1.671   0.704
 4532SOL    HW214496   6.429   1.514   0.702
 4533SOL     OW14497   3.432   5.497   2.286
 4533SOL    HW114498   3.428   5.451   2.197
 4533SOL    HW214499   3.506   5.458   2.340
 4534SOL     OW14500   0.205   4.299   5.415
 4534SOL    HW114501   0.193   4.335   5.507
 4534SOL    HW214502   0.122   4.313   5.362
 4535SOL     OW14503   4.979   1.899   2.818
 4535SOL    HW114504   4.897   1.954   2.804
 4535SOL    HW214505   4.958   1.825   2.882
 4536SOL     OW14506   0.043   0.700   3.831
 4536SOL    HW114507   6.975   0.654   3.828
 4536SOL    HW214508   0.046   0.763   3.908
 4537SOL     OW14509   4.015   2.945   6.314
 4537SOL    HW114510   4.096   2.927   6.370
 4537SOL    HW214511   3.960   2.861   6.308
 4538SOL     OW14512   3.829   1.341   2.003
 4538SOL    HW114513   3.843   1.395   1.920
 4538SOL    HW214514   3.731   1.335   2.022
 4539SOL     OW14515   1.680   1.847   2.487
 4539SOL    HW114516   1.635   1.883   2.405
 4539SOL    HW214517   1.717   1.924   2.540
 4540SOL     OW14518   3.405   2.938   4.922
 4540SOL    HW114519   3.464   2.879   4.867
 4540SOL    HW214520   3.341   2.882   4.974
 4541SOL     OW14521   6.367   1.387   1.511
 4541SOL    HW114522   6.450   1.364   1.562
 4541SOL    HW214523   6.322   1.303   1.481
 4542SOL     OW14524   4.712   0.216   3.400
 4542SOL    HW114525   4.730   0.194   3.496
 4542SOL    HW214526   4.799   0.222   3.350
 4543SOL     OW14527   5.331   1.995   1.648
 4543SOL    HW114528   5.372   2.029   1.563
 4543SOL    HW214529   5.352   2.058   1.722
 4544SOL     OW14530   4.036   4.663   6.256
 4544SOL    HW114531   3.988   4.720   6.323
 4544SOL    HW214532   4.015   4.696   6.164
 4545SOL     OW14533   4.519   3.417   6.038
 4545SOL    HW114534   4.507   3.364   6.122
 4545SOL    HW214535   4.471   3.372   5.963
 4546SOL     OW14536   0.242   6.907   6.845
 4546SOL    HW114537   0.196   6.819   6.854
 4546SOL    HW214538   0.175   6.981   6.849
 4547SOL     OW14539   4.149   1.677   1.394
 4547SOL    HW114540   4.069   1.724   1.357
 4547SOL    HW214541   4.119   1.595   1.443
 4548SOL     OW14542   1.625   3.450   3.787
 4548SOL    HW114543   1.590   3.381   3.723
 4548SOL    HW214544   1.570   3.448   3.870
 4549SOL     OW14545   4.761   1.563   2.857
 4549SOL    HW114546   4.696   1.492   2.829
 4549SOL    HW214547   4.768   1.631   2.784
 4550SOL     OW14548   1.531   6.555   4.741
 4550SOL    HW114549   1.575   6.641   4.715
 4550SOL    HW214550   1.583   6.512   4.815
 4551SOL     OW14551   0.450   2.648   6.157
 4551SOL    HW114552   0.539   2.634   6.113
 4551SOL    HW214553   0.438   2.745   6.177
 4552SOL     OW14554   6.681   3.011   3.854
 4552SOL    HW114555   6.713   2.980   3.944
 4552SOL    HW214556   6.621   2.942   3.815
 4553SOL     OW14557   4.881   4.480   0.380
 4553SOL    HW114558   4.802   4.510   0.434
 4553SOL    HW214559   4.921   4.398   0.423
 4554SOL     OW14560   5.437   0.150   3.464
 4554SOL    HW114561   5.475   0.181   3.551
 4554SOL    HW214562   5.395   0.060   3.476
 4555SOL     OW14563   4.780   2.029   6.924
 4555SOL    HW114564   4.841   1.950   6.929
 4555SOL    HW214565   4.726   2.034   7.009
 4556SOL     OW14566   5.078   0.906   4.849
 4556SOL    HW114567   5.004   0.890   4.784
 4556SOL    HW214568   5.166   0.884   4.807
 4557SOL     OW14569   4.860   0.285   5.443
 4557SOL    HW114570   4.793   0.358   5.457
 4557SOL    HW214571   4.952   0.320   5.464
 4558SOL     OW14572   5.984   3.750   5.881
 4558SOL    HW114573   5.947   3.727   5.792
 4558SOL    HW214574   5.984   3.669   5.939
 4559SOL     OW14575   0.304   6.327   1.737
 4559SOL    HW114576   0.379   6.365   1.684
 4559SOL    HW214577   0.336   6.303   1.829
 4560SOL     OW14578   5.076   2.551   3.142
 4560SOL    HW114579   5.138   2.579   3.215
 4560SOL    HW214580   5.015   2.479   3.175
 4561SOL     OW14581   3.214   0.646   6.584
 4561SOL    HW114582   3.184   0.603   6.498
 4561SOL    HW214583   3.238   0.574   6.649
 4562SOL     OW14584   2.972   5.023   5.605
 4562SOL    HW114585   2.982   4.938   5.554
 4562SOL    HW214586   2.909   5.010   5.681
 4563SOL     OW14587   5.559   2.592   6.402
 4563SOL    HW114588   5.529   2.637   6.317
 4563SOL    HW214589   5.577   2.496   6.384
 4564SOL     OW14590   1.606   5.769   6.922
 4564SOL    HW114591   1.633   5.848   6.977
 4564SOL    HW214592   1.509   5.777   6.899
 4565SOL     OW14593   3.179   0.515   3.797
 4565SOL    HW114594   3.169   0.611   3.824
 4565SOL    HW214595   3.206   0.510   3.701
 4566SOL     OW14596   0.671   2.031   0.610
 4566SOL    HW114597   0.740   1.980   0.663
 4566SOL    HW214598   0.616   2.086   0.672
 4567SOL     OW14599   0.089   1.293   1.064
 4567SOL    HW114600   0.022   1.282   0.990
 4567SOL    HW214601   0.048   1.265   1.151
 4568SOL     OW14602   3.185   4.876   4.406
 4568SOL    HW114603   3.114   4.911   4.468
 4568SOL    HW214604   3.272   4.919   4.429
 4569SOL     OW14605   0.191   2.413   3.337
 4569SOL    HW114606   0.147   2.357   3.408
 4569SOL    HW214607   0.273   2.366   3.303
 4570SOL     OW14608   6.345   5.068   4.138
 4570SOL    HW114609   6.289   5.014   4.075
 4570SOL    HW214610   6.299   5.154   4.158
 4571SOL     OW14611   3.641   3.029   3.994
 4571SOL    HW114612   3.570   3.078   3.943
 4571SOL    HW214613   3.694   2.972   3.931
 4572SOL     OW14614   2.291   5.690   1.946
 4572SOL    HW114615   2.341   5.610   1.911
 4572SOL    HW214616   2.294   5.691   2.045
 4573SOL     OW14617   5.444   6.972   0.498
 4573SOL    HW114618   5.345   6.985   0.508
 4573SOL    HW214619   5.462   6.912   0.420
 4574SOL     OW14620   0.429   4.693   1.590
 4574SOL    HW114621   0.490   4.649   1.525
 4574SOL    HW214622   0.442   4.792   1.586
 4575SOL     OW14623   6.483   6.429   2.276
 4575SOL    HW114624   6.579   6.422   2.251
 4575SOL    HW214625   6.440   6.503   2.225
 4576SOL     OW14626   3.153   5.865   4.218
 4576SOL    HW114627   3.070   5.841   4.168
 4576SOL    HW214628   3.156   5.964   4.232
 4577SOL     OW14629   1.008   2.164   3.933
 4577SOL    HW114630   1.034   2.108   4.011
 4577SOL    HW214631   1.090   2.190   3.881
 4578SOL     OW14632   6.858   4.840   4.224
 4578SOL    HW114633   6.763   4.856   4.199
 4578SOL    HW214634   6.911   4.923   4.207
 4579SOL     OW14635   5.231   2.327   4.423
 4579SOL    HW114636   5.319   2.282   4.437
 4579SOL    HW214637   5.197   2.304   4.332
 4580SOL     OW14638   6.923   5.563   0.152
 4580SOL    HW114639   6.883   5.488   0.100
 4580SOL    HW214640   6.862   5.643   0.147
 4581SOL     OW14641   3.383   6.263   3.502
 4581SOL    HW114642   3.298   6.228   3.463
 4581SOL    HW214643   3.425   6.193   3.559
 4582SOL     OW14644   4.765   6.974   3.537
 4582SOL    HW114645   4.838   0.005   3.581
 4582SOL    HW214646   4.677   7.013   3.562
 4583SOL     OW14647   4.372   1.704   5.758
 4583SOL    HW114648   4.365   1.801   5.785
 4583SOL    HW214649   4.463   1.670   5.779
 4584SOL     OW14650   1.267   4.679   5.370
 4584SOL    HW114651   1.260   4.774   5.403
 4584SOL    HW214652   1.346   4.671   5.310
 4585SOL     OW14653   3.329   6.804   2.643
 4585SOL    HW114654   3.237   6.822   2.676
 4585SOL    HW214655   3.325   6.756   2.555
 4586SOL     OW14656   2.711   6.798   2.168
 4586SOL    HW114657   2.634   6.751   2.125
 4586SOL    HW214658   2.787   6.802   2.104
 4587SOL     OW14659   2.485   4.629   1.212
 4587SOL    HW114660   2.390   4.618   1.183
 4587SOL    HW214661   2.492   4.610   1.310
 4588SOL     OW14662   3.964   3.722   5.358
 4588SOL    HW114663   3.949   3.788   5.432
 4588SOL    HW214664   4.022   3.763   5.288
 4589SOL     OW14665   0.952   2.065   3.671
 4589SOL    HW114666   0.916   2.057   3.578
 4589SOL    HW214667   1.011   1.987   3.691
 4590SOL     OW14668   4.656   5.726   2.925
 4590SOL    HW114669   4.616   5.739   3.016
 4590SOL    HW214670   4.709   5.641   2.924
 4591SOL     OW14671   6.236   6.215   5.427
 4591SOL    HW114672   6.172   6.139   5.435
 4591SOL    HW214673   6.296   6.217   5.508
 4592SOL     OW14674   3.145   1.963   5.847
 4592SOL    HW114675   3.056   2.008   5.863
 4592SOL    HW214676   3.155   1.887   5.911
 4593SOL     OW14677   4.036   6.839   1.179
 4593SOL    HW114678   4.086   6.815   1.096
 4593SOL    HW214679   4.082   6.798   1.258
 4594SOL     OW14680   3.135   2.192   2.726
 4594SOL    HW114681   3.086   2.279   2.732
 4594SOL    HW214682   3.099   2.139   2.649
 4595SOL     OW14683   4.365   3.026   6.033
 4595SOL    HW114684   4.275   3.044   5.994
 4595SOL    HW214685   4.362   2.942   6.086
 4596SOL     OW14686   6.384   6.898   2.053
 4596SOL    HW114687   6.356   6.875   1.960
 4596SOL    HW214688   6.312   6.871   2.117
 4597SOL     OW14689   0.087   4.856   6.347
 4597SOL    HW114690   0.064   4.761   6.367
 4597SOL    HW214691   0.031   4.916   6.403
 4598SOL     OW14692   3.312   4.648   0.388
 4598SOL    HW114693   3.240   4.717   0.380
 4598SOL    HW214694   3.274   4.565   0.430
 4599SOL     OW14695   2.111   5.137   0.332
 4599SOL    HW114696   2.189   5.116   0.390
 4599SOL    HW214697   2.028   5.098   0.372
 4600SOL     OW14698   3.834   5.118   1.885
 4600SOL    HW114699   3.737   5.139   1.896
 4600SOL    HW214700   3.860   5.048   1.952
 4601SOL     OW14701   1.567   5.744   4.415
 4601SOL    HW114702   1.577   5.795   4.501
 4601SOL    HW214703   1.507   5.665   4.430
 4602SOL     OW14704   1.647   1.237   0.942
 4602SOL    HW114705   1.674   1.211   1.034
 4602SOL    HW214706   1.713   1.303   0.905
 4603SOL     OW14707   3.184   1.167   1.966
 4603SOL    HW114708   3.165   1.071   1.988
 4603SOL    HW214709   3.224   1.212   2.046
 4604SOL     OW14710   1.782   0.934   2.583
 4604SOL    HW114711   1.845   0.985   2.525
 4604SOL    HW214712   1.808   0.945   2.679
 4605SOL     OW14713   4.823   6.879   5.621
 4605SOL    HW114714   4.849   6.941   5.547
 4605SOL    HW214715   4.726   6.857   5.613
 4606SOL     OW14716   0.026   6.216   5.621
 4606SOL    HW114717   0.105   6.230   5.561
 4606SOL    HW214718   7.008   6.305   5.644
 4607SOL     OW14719   2.832   2.407   1.124
 4607SOL    HW114720   2.905   2.469   1.094
 4607SOL    HW214721   2.858   2.363   1.209
 4608SOL     OW14722   1.602   3.644   5.172
 4608SOL    HW114723   1.698   3.671   5.184
 4608SOL    HW214724   1.596   3.577   5.098
 4609SOL     OW14725   3.181   6.780   6.904
 4609SOL    HW114726   3.137   6.867   6.884
 4609SOL    HW214727   3.278   6.794   6.920
 4610SOL     OW14728   0.194   3.294   6.726
 4610SOL    HW114729   0.115   3.238   6.700
 4610SOL    HW214730   0.171   3.348   6.807
 4611SOL     OW14731   0.641   3.268   6.488
 4611SOL    HW114732   0.602   3.266   6.580
 4611SOL    HW214733   0.726   3.320   6.489
 4612SOL     OW14734   2.464   0.517   6.182
 4612SOL    HW114735   2.409   0.439   6.152
 4612SOL    HW214736   2.559   0.489   6.191
 4613SOL     OW14737   3.127   5.532   1.977
 4613SOL    HW114738   3.085   5.503   1.891
 4613SOL    HW214739   3.066   5.596   2.024
 4614SOL     OW14740   2.359   5.004   0.119
 4614SOL    HW114741   2.355   5.066   0.042
 4614SOL    HW214742   2.277   4.946   0.120
 4615SOL     OW14743   6.936   3.021   0.265
 4615SOL    HW114744   6.878   3.026   0.184
 4615SOL    HW214745   6.937   3.110   0.311
 4616SOL     OW14746   6.275   0.592   0.350
 4616SOL    HW114747   6.214   0.584   0.272
 4616SOL    HW214748   6.370   0.579   0.321
 4617SOL     OW14749   0.010   3.508   1.909
 4617SOL    HW114750   0.053   3.519   1.998
 4617SOL    HW214751   6.932   3.514   1.919
 4618SOL     OW14752   1.293   2.236   6.108
 4618SOL    HW114753   1.391   2.219   6.095
 4618SOL    HW214754   1.255   2.275   6.024
 4619SOL     OW14755   3.247   0.082   3.664
 4619SOL    HW114756   3.320   0.112   3.725
 4619SOL    HW214757   3.279   0.005   3.610
 4620SOL     OW14758   2.687   4.725   6.285
 4620SOL    HW114759   2.603   4.735   6.230
 4620SOL    HW214760   2.762   4.696   6.226
 4621SOL     OW14761   0.099   6.673   6.942
 4621SOL    HW114762   0.159   6.627   7.008
 4621SOL    HW214763   0.003   6.654   6.965
 4622SOL     OW14764   2.518   3.102   1.339
 4622SOL    HW114765   2.515   3.194   1.379
 4622SOL    HW214766   2.444   3.047   1.377
 4623SOL     OW14767   6.302   4.411   2.708
 4623SOL    HW114768   6.303   4.479   2.634
 4623SOL    HW214769   6.388   4.416   2.759
 4624SOL     OW14770   5.075   6.667   5.229
 4624SOL    HW114771   5.152   6.609   5.201
 4624SOL    HW214772   4.991   6.635   5.184
 4625SOL     OW14773   1.412   3.537   6.014
 4625SOL    HW114774   1.453   3.617   5.971
 4625SOL    HW214775   1.327   3.514   5.967
 4626SOL     OW14776   5.521   5.642   2.064
 4626SOL    HW114777   5.479   5.557   2.096
 4626SOL    HW214778   5.484   5.719   2.117
 4627SOL     OW14779   1.952   0.356   5.850
 4627SOL    HW114780   1.992   0.433   5.900
 4627SOL    HW214781   1.990   0.353   5.758
 4628SOL     OW14782   6.969   3.424   1.412
 4628SOL    HW114783   6.928   3.338   1.442
 4628SOL    HW214784   7.000   3.476   1.492
 4629SOL     OW14785   3.959   5.017   4.918
 4629SOL    HW114786   4.009   4.997   5.003
 4629SOL    HW214787   3.883   5.079   4.938
 4630SOL     OW14788   2.311   0.000   2.494
 4630SOL    HW114789   2.376   7.002   2.420
 4630SOL    HW214790   2.341   0.081   2.544
 4631SOL     OW14791   1.988   1.151   2.732
 4631SOL    HW114792   2.075   1.165   2.780
 4631SOL    HW214793   2.005   1.142   2.634
 4632SOL     OW14794   5.790   5.465   4.261
 4632SOL    HW114795   5.694   5.470   4.232
 4632SOL    HW214796   5.848   5.503   4.189
 4633SOL     OW14797   5.639   2.526   5.611
 4633SOL    HW114798   5.679   2.610   5.648
 4633SOL    HW214799   5.640   2.530   5.511
 4634SOL     OW14800   3.558   4.683   1.219
 4634SOL    HW114801   3.619   4.632   1.159
 4634SOL    HW214802   3.609   4.714   1.299
 4635SOL     OW14803   5.081   3.888   1.146
 4635SOL    HW114804   5.163   3.894   1.202
 4635SOL    HW214805   5.010   3.839   1.196
 4636SOL     OW14806   1.466   5.222   0.768
 4636SOL    HW114807   1.497   5.129   0.746
 4636SOL    HW214808   1.373   5.217   0.804
 4637SOL     OW14809   2.166   0.771   4.593
 4637SOL    HW114810   2.129   0.712   4.664
 4637SOL    HW214811   2.155   0.727   4.504
 4638SOL     OW14812   4.604   3.642   6.329
 4638SOL    HW114813   4.656   3.575   6.276
 4638SOL    HW214814   4.585   3.722   6.272
 4639SOL     OW14815   6.931   2.865   5.213
 4639SOL    HW114816   7.015   2.856   5.267
 4639SOL    HW214817   6.954   2.885   5.118
 4640SOL     OW14818   6.204   4.238   2.949
 4640SOL    HW114819   6.205   4.210   3.045
 4640SOL    HW214820   6.266   4.178   2.897
 4641SOL     OW14821   2.841   4.315   5.685
 4641SOL    HW114822   2.883   4.235   5.644
 4641SOL    HW214823   2.881   4.332   5.775
 4642SOL     OW14824   5.782   5.846   4.246
 4642SOL    HW114825   5.873   5.887   4.242
 4642SOL    HW214826   5.718   5.912   4.285
 4643SOL     OW14827   4.013   2.552   0.937
 4643SOL    HW114828   4.027   2.577   1.033
 4643SOL    HW214829   3.946   2.614   0.896
 4644SOL     OW14830   2.555   5.009   4.763
 4644SOL    HW114831   2.615   4.998   4.842
 4644SOL    HW214832   2.492   4.931   4.759
 4645SOL     OW14833   2.122   6.298   4.554
 4645SOL    HW114834   2.134   6.367   4.626
 4645SOL    HW214835   2.188   6.224   4.567
 4646SOL     OW14836   4.156   0.303   1.379
 4646SOL    HW114837   4.160   0.203   1.374
 4646SOL    HW214838   4.107   0.338   1.299
 4647SOL     OW14839   0.110   0.679   4.404
 4647SOL    HW114840   0.099   0.777   4.386
 4647SOL    HW214841   0.194   0.663   4.456
 4648SOL     OW14842   1.529   4.824   2.446
 4648SOL    HW114843   1.451   4.788   2.396
 4648SOL    HW214844   1.591   4.870   2.382
 4649SOL     OW14845   5.890   6.391   6.155
 4649SOL    HW114846   5.947   6.356   6.081
 4649SOL    HW214847   5.795   6.364   6.140
 4650SOL     OW14848   6.876   5.081   1.815
 4650SOL    HW114849   6.901   4.985   1.806
 4650SOL    HW214850   6.886   5.110   1.910
 4651SOL     OW14851   6.885   1.684   2.015
 4651SOL    HW114852   6.799   1.632   2.018
 4651SOL    HW214853   6.958   1.628   2.055
 4652SOL     OW14854   0.449   5.941   5.709
 4652SOL    HW114855   0.497   5.897   5.634
 4652SOL    HW214856   0.350   5.930   5.697
 4653SOL     OW14857   0.844   5.784   6.937
 4653SOL    HW114858   0.754   5.758   6.973
 4653SOL    HW214859   0.915   5.729   6.981
 4654SOL     OW14860   0.708   1.645   6.458
 4654SOL    HW114861   0.760   1.600   6.530
 4654SOL    HW214862   0.756   1.636   6.371
 4655SOL     OW14863   0.303   5.466   3.166
 4655SOL    HW114864   0.256   5.380   3.148
 4655SOL    HW214865   0.246   5.542   3.134
 4656SOL     OW14866   2.114   0.286   3.420
 4656SOL    HW114867   2.154   0.291   3.511
 4656SOL    HW214868   2.127   0.195   3.382
 4657SOL     OW14869   5.901   6.994   6.661
 4657SOL    HW114870   5.927   6.980   6.757
 4657SOL    HW214871   5.982   6.986   6.604
 4658SOL     OW14872   5.229   0.806   3.601
 4658SOL    HW114873   5.308   0.765   3.646
 4658SOL    HW214874   5.153   0.813   3.665
 4659SOL     OW14875   2.418   2.564   4.673
 4659SOL    HW114876   2.419   2.464   4.670
 4659SOL    HW214877   2.409   2.595   4.768
 4660SOL     OW14878   6.822   1.520   5.934
 4660SOL    HW114879   6.731   1.480   5.939
 4660SOL    HW214880   6.862   1.501   5.844
 4661SOL     OW14881   4.034   3.646   3.539
 4661SOL    HW114882   4.098   3.653   3.463
 4661SOL    HW214883   3.980   3.730   3.546
 4662SOL     OW14884   5.732   0.536   4.150
 4662SOL    HW114885   5.794   0.591   4.205
 4662SOL    HW214886   5.735   0.566   4.055
 4663SOL     OW14887   0.630   1.576   2.123
 4663SOL    HW114888   0.712   1.563   2.178
 4663SOL    HW214889   0.612   1.674   2.112
 4664SOL     OW14890   3.299   3.504   0.656
 4664SOL    HW114891   3.330   3.420   0.701
 4664SOL    HW214892   3.377   3.563   0.636
 4665SOL     OW14893   5.366   1.016   6.723
 4665SOL    HW114894   5.304   1.016   6.802
 4665SOL    HW214895   5.384   1.110   6.695
 4666SOL     OW14896   2.922   1.130   0.247
 4666SOL    HW114897   2.864   1.203   0.211
 4666SOL    HW214898   2.891   1.042   0.211
 4667SOL     OW14899   0.482   6.028   5.254
 4667SOL    HW114900   0.400   6.007   5.201
 4667SOL    HW214901   0.506   6.125   5.242
 4668SOL     OW14902   5.683   1.369   5.251
 4668SOL    HW114903   5.644   1.455   5.219
 4668SOL    HW214904   5.757   1.388   5.316
 4669SOL     OW14905   2.414   0.457   1.409
 4669SOL    HW114906   2.474   0.456   1.489
 4669SOL    HW214907   2.452   0.518   1.339
 4670SOL     OW14908   1.826   1.358   4.526
 4670SOL    HW114909   1.748   1.376   4.467
 4670SOL    HW214910   1.793   1.331   4.617
 4671SOL     OW14911   5.507   2.944   0.906
 4671SOL    HW114912   5.483   2.912   0.814
 4671SOL    HW214913   5.607   2.942   0.916
 4672SOL     OW14914   3.068   3.323   5.121
 4672SOL    HW114915   3.143   3.357   5.177
 4672SOL    HW214916   3.091   3.330   5.024
 4673SOL     OW14917   3.971   0.380   2.540
 4673SOL    HW114918   4.049   0.319   2.554
 4673SOL    HW214919   3.967   0.445   2.615
 4674SOL     OW14920   4.052   6.742   5.820
 4674SOL    HW114921   4.108   6.759   5.739
 4674SOL    HW214922   3.988   6.817   5.833
 4675SOL     OW14923   1.250   4.044   6.114
 4675SOL    HW114924   1.163   4.041   6.164
 4675SOL    HW214925   1.291   4.135   6.125
 4676SOL     OW14926   0.224   5.498   3.660
 4676SOL    HW114927   0.277   5.438   3.599
 4676SOL    HW214928   0.129   5.503   3.627
 4677SOL     OW14929   1.413   3.477   0.696
 4677SOL    HW114930   1.448   3.495   0.788
 4677SOL    HW214931   1.453   3.542   0.632
 4678SOL     OW14932   1.801   4.125   2.137
 4678SOL    HW114933   1.828   4.045   2.190
 4678SOL    HW214934   1.761   4.194   2.198
 4679SOL     OW14935   4.304   0.335   1.636
 4679SOL    HW114936   4.274   0.351   1.542
 4679SOL    HW214937   4.395   0.376   1.649
 4680SOL     OW14938   1.593   0.703   0.014
 4680SOL    HW114939   1.556   0.733   0.102
 4680SOL    HW214940   1.676   0.649   0.028
 4681SOL     OW14941   5.166   5.243   2.250
 4681SOL    HW114942   5.129   5.335   2.262
 4681SOL    HW214943   5.213   5.215   2.334
 4682SOL     OW14944   3.094   3.955   6.634
 4682SOL    HW114945   3.083   4.015   6.713
 4682SOL    HW214946   3.094   3.860   6.663
 4683SOL     OW14947   6.053   4.221   3.881
 4683SOL    HW114948   6.103   4.286   3.823
 4683SOL    HW214949   5.964   4.261   3.905
 4684SOL     OW14950   5.787   6.480   0.023
 4684SOL    HW114951   5.843   6.397   0.013
 4684SOL    HW214952   5.845   6.556   0.053
 4685SOL     OW14953   3.442   4.136   4.382
 4685SOL    HW114954   3.352   4.157   4.419
 4685SOL    HW214955   3.507   4.123   4.457
 4686SOL     OW14956   2.731   6.230   0.261
 4686SOL    HW114957   2.759   6.269   0.349
 4686SOL    HW214958   2.768   6.138   0.252
 4687SOL     OW14959   2.589   0.398   2.787
 4687SOL    HW114960   2.577   0.427   2.882
 4687SOL    HW214961   2.664   0.332   2.782
 4688SOL     OW14962   5.898   2.994   5.893
 4688SOL    HW114963   5.830   2.925   5.920
 4688SOL    HW214964   5.891   3.073   5.954
 4689SOL     OW14965   6.605   0.670   2.442
 4689SOL    HW114966   6.654   0.758   2.443
 4689SOL    HW214967   6.518   0.681   2.395
 4690SOL     OW14968   2.361   1.849   0.634
 4690SOL    HW114969   2.355   1.752   0.609
 4690SOL    HW214970   2.454   1.869   0.667
 4691SOL     OW14971   6.840   4.024   2.273
 4691SOL    HW114972   6.858   3.971   2.190
 4691SOL    HW214973   6.849   4.121   2.252
 4692SOL     OW14974   4.934   2.941   2.752
 4692SOL    HW114975   5.015   2.910   2.701
 4692SOL    HW214976   4.906   3.030   2.719
 4693SOL     OW14977   1.132   0.473   3.186
 4693SOL    HW114978   1.228   0.445   3.177
 4693SOL    HW214979   1.076   0.417   3.124
 4694SOL     OW14980   1.826   0.540   6.512
 4694SOL    HW114981   1.853   0.513   6.604
 4694SOL    HW214982   1.905   0.580   6.464
 4695SOL     OW14983   2.050   5.290   2.151
 4695SOL    HW114984   2.093   5.338   2.075
 4695SOL    HW214985   1.951   5.306   2.149
 4696SOL     OW14986   1.849   5.631   5.895
 4696SOL    HW114987   1.794   5.630   5.978
 4696SOL    HW214988   1.797   5.589   5.820
 4697SOL     OW14989   4.162   5.411   1.617
 4697SOL    HW114990   4.103   5.383   1.693
 4697SOL    HW214991   4.221   5.485   1.647
 4698SOL     OW14992   4.837   0.993   4.699
 4698SOL    HW114993   4.875   1.076   4.740
 4698SOL    HW214994   4.805   1.014   4.606
 4699SOL     OW14995   1.647   0.125   2.141
 4699SOL    HW114996   1.683   0.208   2.185
 4699SOL    HW214997   1.562   0.098   2.187
 4700SOL     OW14998   6.417   2.424   2.134
 4700SOL    HW114999   6.461   2.363   2.068
 4700SOL    HW215000   6.486   2.460   2.197
 4701SOL     OW15001   3.140   2.457   1.736
 4701SOL    HW115002   3.187   2.376   1.769
 4701SOL    HW215003   3.051   2.464   1.780
 4702SOL     OW15004   5.482   5.076   6.439
 4702SOL    HW115005   5.545   4.998   6.438
 4702SOL    HW215006   5.525   5.154   6.483
 4703SOL     OW15007   0.581   5.588   3.300
 4703SOL    HW115008   0.535   5.677   3.306
 4703SOL    HW215009   0.671   5.594   3.342
 4704SOL     OW15010   1.364   4.836   4.428
 4704SOL    HW115011   1.398   4.755   4.475
 4704SOL    HW215012   1.314   4.894   4.492
 4705SOL     OW15013   3.726   1.748   1.846
 4705SOL    HW115014   3.632   1.717   1.832
 4705SOL    HW215015   3.735   1.843   1.816
 4706SOL     OW15016   2.422   0.197   1.053
 4706SOL    HW115017   2.372   0.119   1.016
 4706SOL    HW215018   2.374   0.282   1.029
 4707SOL     OW15019   1.726   5.694   1.872
 4707SOL    HW115020   1.791   5.741   1.932
 4707SOL    HW215021   1.735   5.595   1.884
 4708SOL     OW15022   1.994   2.804   5.004
 4708SOL    HW115023   1.997   2.900   4.977
 4708SOL    HW215024   2.065   2.786   5.073
 4709SOL     OW15025   4.698   4.202   5.656
 4709SOL    HW115026   4.786   4.228   5.617
 4709SOL    HW215027   4.683   4.104   5.646
 4710SOL     OW15028   5.947   5.944   5.127
 4710SOL    HW115029   5.921   6.038   5.104
 4710SOL    HW215030   5.978   5.897   5.044
 4711SOL     OW15031   5.360   3.946   2.588
 4711SOL    HW115032   5.403   3.922   2.675
 4711SOL    HW215033   5.403   4.028   2.551
 4712SOL     OW15034   4.730   4.447   5.792
 4712SOL    HW115035   4.811   4.488   5.750
 4712SOL    HW215036   4.710   4.360   5.746
 4713SOL     OW15037   5.978   4.196   0.580
 4713SOL    HW115038   5.921   4.219   0.659
 4713SOL    HW215039   6.040   4.272   0.560
 4714SOL     OW15040   3.911   1.611   6.628
 4714SOL    HW115041   3.914   1.617   6.728
 4714SOL    HW215042   3.962   1.531   6.598
 4715SOL     OW15043   6.711   1.447   1.985
 4715SOL    HW115044   6.688   1.506   1.908
 4715SOL    HW215045   6.627   1.403   2.019
 4716SOL     OW15046   4.077   4.896   5.701
 4716SOL    HW115047   4.173   4.873   5.720
 4716SOL    HW215048   4.047   4.968   5.764
 4717SOL     OW15049   2.740   4.977   4.958
 4717SOL    HW115050   2.795   4.897   4.933
 4717SOL    HW215051   2.795   5.060   4.945
 4718SOL     OW15052   4.637   4.624   0.220
 4718SOL    HW115053   4.624   4.660   0.128
 4718SOL    HW215054   4.716   4.564   0.222
 4719SOL     OW15055   0.413   4.376   3.505
 4719SOL    HW115056   0.460   4.288   3.500
 4719SOL    HW215057   0.454   4.432   3.576
 4720SOL     OW15058   1.870   3.177   6.926
 4720SOL    HW115059   1.947   3.182   6.990
 4720SOL    HW215060   1.886   3.104   6.860
 4721SOL     OW15061   0.160   2.793   2.758
 4721SOL    HW115062   0.228   2.866   2.748
 4721SOL    HW215063   0.111   2.804   2.844
 4722SOL     OW15064   1.321   5.921   0.062
 4722SOL    HW115065   1.284   5.870   7.005
 4722SOL    HW215066   1.348   6.013   0.033
 4723SOL     OW15067   3.797   4.490   6.915
 4723SOL    HW115068   3.731   4.432   6.868
 4723SOL    HW215069   3.826   4.445   7.000
 4724SOL     OW15070   0.865   0.212   4.997
 4724SOL    HW115071   0.865   0.127   5.049
 4724SOL    HW215072   0.911   0.198   4.909
 4725SOL     OW15073   5.144   6.195   1.404
 4725SOL    HW115074   5.203   6.116   1.387
 4725SOL    HW215075   5.082   6.206   1.327
 4726SOL     OW15076   1.914   3.326   5.527
 4726SOL    HW115077   1.869   3.394   5.584
 4726SOL    HW215078   1.860   3.312   5.443
 4727SOL     OW15079   6.856   4.619   1.352
 4727SOL    HW115080   6.923   4.549   1.379
 4727SOL    HW215081   6.765   4.577   1.348
 4728SOL     OW15082   6.117   1.580   4.626
 4728SOL    HW115083   6.164   1.508   4.678
 4728SOL    HW215084   6.182   1.653   4.605
 4729SOL     OW15085   6.486   1.790   1.979
 4729SOL    HW115086   6.531   1.716   1.930
 4729SOL    HW215087   6.555   1.845   2.027
 4730SOL     OW15088   3.199   6.857   4.372
 4730SOL    HW115089   3.195   6.955   4.352
 4730SOL    HW215090   3.273   6.815   4.319
 4731SOL     OW15091   3.227   6.452   0.759
 4731SOL    HW115092   3.304   6.388   0.756
 4731SOL    HW215093   3.150   6.408   0.806
 4732SOL     OW15094   0.406   5.428   4.829
 4732SOL    HW115095   0.476   5.499   4.838
 4732SOL    HW215096   0.393   5.405   4.732
 4733SOL     OW15097   2.171   4.040   2.581
 4733SOL    HW115098   2.190   4.010   2.488
 4733SOL    HW215099   2.239   4.108   2.609
 4734SOL     OW15100   5.138   3.664   6.736
 4734SOL    HW115101   5.050   3.710   6.745
 4734SOL    HW215102   5.125   3.576   6.688
 4735SOL     OW15103   0.617   0.800   5.078
 4735SOL    HW115104   0.647   0.887   5.116
 4735SOL    HW215105   0.520   0.805   5.056
 4736SOL     OW15106   6.502   2.091   2.930
 4736SOL    HW115107   6.435   2.154   2.892
 4736SOL    HW215108   6.485   2.079   3.028
 4737SOL     OW15109   2.292   4.769   6.724
 4737SOL    HW115110   2.302   4.838   6.652
 4737SOL    HW215111   2.201   4.729   6.720
 4738SOL     OW15112   0.765   6.053   3.720
 4738SOL    HW115113   0.668   6.052   3.744
 4738SOL    HW215114   0.779   6.000   3.637
 4739SOL     OW15115   5.858   3.205   2.701
 4739SOL    HW115116   5.808   3.119   2.693
 4739SOL    HW215117   5.833   3.265   2.625
 4740SOL     OW15118   1.280   0.551   1.140
 4740SOL    HW115119   1.365   0.596   1.112
 4740SOL    HW215120   1.287   0.522   1.235
 4741SOL     OW15121   4.975   4.588   1.312
 4741SOL    HW115122   4.928   4.603   1.398
 4741SOL    HW215123   5.068   4.625   1.318
 4742SOL     OW15124   2.532   5.484   2.244
 4742SOL    HW115125   2.520   5.391   2.278
 4742SOL    HW215126   2.448   5.537   2.260
 4743SOL     OW15127   2.842   3.274   0.086
 4743SOL    HW115128   2.905   3.199   0.066
 4743SOL    HW215129   2.892   3.360   0.090
 4744SOL     OW15130   1.928   2.123   5.019
 4744SOL    HW115131   1.906   2.063   5.096
 4744SOL    HW215132   1.921   2.218   5.048
 4745SOL     OW15133   3.412   5.310   5.034
 4745SOL    HW115134   3.480   5.286   5.103
 4745SOL    HW215135   3.454   5.307   4.943
 4746SOL     OW15136   5.922   1.214   1.369
 4746SOL    HW115137   5.830   1.176   1.359
 4746SOL    HW215138   5.949   1.211   1.465
 4747SOL     OW15139   6.719   2.472   1.547
 4747SOL    HW115140   6.776   2.398   1.511
 4747SOL    HW215141   6.747   2.492   1.641
 4748SOL     OW15142   1.837   0.517   1.269
 4748SOL    HW115143   1.908   0.586   1.258
 4748SOL    HW215144   1.843   0.450   1.195
 4749SOL     OW15145   2.403   0.336   5.814
 4749SOL    HW115146   2.375   0.329   5.910
 4749SOL    HW215147   2.445   0.251   5.785
 4750SOL     OW15148   0.703   2.041   4.527
 4750SOL    HW115149   0.682   2.104   4.451
 4750SOL    HW215150   0.799   2.015   4.522
 4751SOL     OW15151   0.784   3.553   5.749
 4751SOL    HW115152   0.763   3.490   5.824
 4751SOL    HW215153   0.855   3.617   5.778
 4752SOL     OW15154   2.278   5.980   1.872
 4752SOL    HW115155   2.266   5.882   1.883
 4752SOL    HW215156   2.197   6.018   1.827
 4753SOL     OW15157   6.952   6.863   5.513
 4753SOL    HW115158   6.888   6.934   5.484
 4753SOL    HW215159   6.913   6.773   5.493
 4754SOL     OW15160   0.297   0.397   6.553
 4754SOL    HW115161   0.232   0.473   6.544
 4754SOL    HW215162   0.246   0.311   6.562
 4755SOL     OW15163   2.489   0.876   0.968
 4755SOL    HW115164   2.435   0.960   0.967
 4755SOL    HW215165   2.487   0.833   0.878
 4756SOL     OW15166   4.622   3.080   1.520
 4756SOL    HW115167   4.717   3.054   1.499
 4756SOL    HW215168   4.568   2.997   1.534
 4757SOL     OW15169   2.016   1.258   1.711
 4757SOL    HW115170   1.977   1.342   1.675
 4757SOL    HW215171   1.952   1.216   1.776
 4758SOL     OW15172   5.046   4.123   5.323
 4758SOL    HW115173   5.099   4.052   5.278
 4758SOL    HW215174   4.994   4.083   5.398
 4759SOL     OW15175   6.042   4.476   6.074
 4759SOL    HW115176   5.970   4.545   6.068
 4759SOL    HW215177   6.103   4.484   5.996
 4760SOL     OW15178   2.076   2.675   0.670
 4760SOL    HW115179   2.010   2.699   0.741
 4760SOL    HW215180   2.028   2.656   0.584
 4761SOL     OW15181   1.121   5.483   5.754
 4761SOL    HW115182   1.152   5.406   5.698
 4761SOL    HW215183   1.180   5.562   5.737
 4762SOL     OW15184   3.831   6.824   2.455
 4762SOL    HW115185   3.755   6.863   2.506
 4762SOL    HW215186   3.869   6.747   2.506
 4763SOL     OW15187   6.033   5.473   4.715
 4763SOL    HW115188   5.973   5.553   4.724
 4763SOL    HW215189   6.039   5.446   4.619
 4764SOL     OW15190   4.065   3.861   4.773
 4764SOL    HW115191   4.070   3.868   4.673
 4764SOL    HW215192   4.143   3.809   4.807
 4765SOL     OW15193   6.858   4.620   5.380
 4765SOL    HW115194   6.903   4.531   5.384
 4765SOL    HW215195   6.925   4.692   5.395
 4766SOL     OW15196   3.329   0.404   3.438
 4766SOL    HW115197   3.368   0.391   3.347
 4766SOL    HW215198   3.251   0.343   3.450
 4767SOL     OW15199   4.085   6.538   6.504
 4767SOL    HW115200   4.149   6.461   6.511
 4767SOL    HW215201   3.993   6.504   6.485
 4768SOL     OW15202   0.360   1.049   4.709
 4768SOL    HW115203   0.436   1.089   4.760
 4768SOL    HW215204   0.396   0.992   4.635
 4769SOL     OW15205   3.595   0.742   1.622
 4769SOL    HW115206   3.673   0.680   1.624
 4769SOL    HW215207   3.530   0.716   1.692
 4770SOL     OW15208   2.845   0.535   3.701
 4770SOL    HW115209   2.897   0.450   3.694
 4770SOL    HW215210   2.886   0.593   3.772
 4771SOL     OW15211   3.836   4.289   5.213
 4771SOL    HW115212   3.798   4.263   5.124
 4771SOL    HW215213   3.821   4.214   5.278
 4772SOL     OW15214   2.558   2.668   0.711
 4772SOL    HW115215   2.466   2.706   0.715
 4772SOL    HW215216   2.589   2.648   0.804
 4773SOL     OW15217   6.814   5.538   3.851
 4773SOL    HW115218   6.844   5.611   3.790
 4773SOL    HW215219   6.715   5.527   3.843
 4774SOL     OW15220   0.896   4.360   0.781
 4774SOL    HW115221   0.929   4.269   0.755
 4774SOL    HW215222   0.798   4.366   0.760
 4775SOL     OW15223   2.502   1.424   2.354
 4775SOL    HW115224   2.571   1.437   2.426
 4775SOL    HW215225   2.531   1.473   2.272
 4776SOL     OW15226   4.112   5.021   1.851
 4776SOL    HW115227   4.022   5.065   1.856
 4776SOL    HW215228   4.106   4.928   1.889
 4777SOL     OW15229   2.854   4.244   1.714
 4777SOL    HW115230   2.875   4.232   1.811
 4777SOL    HW215231   2.829   4.339   1.697
 4778SOL     OW15232   5.297   3.661   2.487
 4778SOL    HW115233   5.282   3.754   2.521
 4778SOL    HW215234   5.369   3.662   2.418
 4779SOL     OW15235   4.996   0.978   3.340
 4779SOL    HW115236   4.912   0.949   3.384
 4779SOL    HW215237   4.978   0.998   3.244
 4780SOL     OW15238   1.843   0.485   5.307
 4780SOL    HW115239   1.871   0.581   5.295
 4780SOL    HW215240   1.798   0.475   5.396
 4781SOL     OW15241   2.095   5.653   2.795
 4781SOL    HW115242   1.997   5.638   2.785
 4781SOL    HW215243   2.141   5.567   2.814
 4782SOL     OW15244   5.502   5.937   0.249
 4782SOL    HW115245   5.461   6.022   0.282
 4782SOL    HW215246   5.541   5.887   0.326
 4783SOL     OW15247   6.493   4.003   2.163
 4783SOL    HW115248   6.458   4.049   2.081
 4783SOL    HW215249   6.548   3.924   2.136
 4784SOL     OW15250   6.252   4.418   5.525
 4784SOL    HW115251   6.289   4.451   5.612
 4784SOL    HW215252   6.238   4.495   5.463
 4785SOL     OW15253   6.628   6.678   1.124
 4785SOL    HW115254   6.552   6.616   1.140
 4785SOL    HW215255   6.708   6.626   1.094
 4786SOL     OW15256   1.503   3.004   2.660
 4786SOL    HW115257   1.588   3.056   2.669
 4786SOL    HW215258   1.508   2.944   2.580
 4787SOL     OW15259   4.099   2.207   2.647
 4787SOL    HW115260   4.005   2.212   2.680
 4787SOL    HW215261   4.160   2.188   2.724
 4788SOL     OW15262   1.296   6.026   5.563
 4788SOL    HW115263   1.268   6.092   5.494
 4788SOL    HW215264   1.225   5.957   5.575
 4789SOL     OW15265   6.470   6.969   0.743
 4789SOL    HW115266   6.526   6.945   0.822
 4789SOL    HW215267   6.477   6.897   0.674
 4790SOL     OW15268   5.242   1.046   7.004
 4790SOL    HW115269   5.266   1.142   7.014
 4790SOL    HW215270   5.171   1.023   0.049
 4791SOL     OW15271   4.703   0.856   3.250
 4791SOL    HW115272   4.710   0.808   3.163
 4791SOL    HW215273   4.674   0.950   3.234
 4792SOL     OW15274   2.936   2.202   1.619
 4792SOL    HW115275   2.989   2.118   1.613
 4792SOL    HW215276   2.957   2.249   1.705
 4793SOL     OW15277   0.588   0.174   6.170
 4793SOL    HW115278   0.558   0.244   6.235
 4793SOL    HW215279   0.509   0.136   6.123
 4794SOL     OW15280   3.840   0.591   1.648
 4794SOL    HW115281   3.909   0.622   1.714
 4794SOL    HW215282   3.862   0.498   1.619
 4795SOL     OW15283   5.992   2.570   4.588
 4795SOL    HW115284   5.982   2.474   4.563
 4795SOL    HW215285   6.089   2.595   4.589
 4796SOL     OW15286   6.194   3.880   0.616
 4796SOL    HW115287   6.226   3.916   0.529
 4796SOL    HW215288   6.227   3.786   0.629
 4797SOL     OW15289   0.392   4.678   4.889
 4797SOL    HW115290   0.390   4.671   4.988
 4797SOL    HW215291   0.474   4.632   4.854
 4798SOL     OW15292   6.708   4.394   5.547
 4798SOL    HW115293   6.794   4.441   5.532
 4798SOL    HW215294   6.657   4.389   5.461
 4799SOL     OW15295   3.948   1.198   5.095
 4799SOL    HW115296   3.970   1.295   5.082
 4799SOL    HW215297   4.018   1.142   5.052
 4800SOL     OW15298   1.994   1.972   3.954
 4800SOL    HW115299   1.950   1.975   4.044
 4800SOL    HW215300   1.981   2.059   3.908
 4801SOL     OW15301   1.743   2.543   0.609
 4801SOL    HW115302   1.792   2.493   0.538
 4801SOL    HW215303   1.667   2.488   0.643
 4802SOL     OW15304   2.154   0.415   2.184
 4802SOL    HW115305   2.098   0.483   2.231
 4802SOL    HW215306   2.167   0.335   2.244
 4803SOL     OW15307   0.865   6.851   1.587
 4803SOL    HW115308   0.869   6.760   1.628
 4803SOL    HW215309   0.858   6.844   1.488
 4804SOL     OW15310   3.780   5.752   0.405
 4804SOL    HW115311   3.776   5.819   0.330
 4804SOL    HW215312   3.771   5.660   0.367
 4805SOL     OW15313   0.679   1.442   0.756
 4805SOL    HW115314   0.644   1.493   0.834
 4805SOL    HW215315   0.723   1.505   0.692
 4806SOL     OW15316   0.868   2.950   3.357
 4806SOL    HW115317   0.784   2.972   3.308
 4806SOL    HW215318   0.883   3.016   3.430
 4807SOL     OW15319   0.891   6.500   2.344
 4807SOL    HW115320   0.950   6.569   2.304
 4807SOL    HW215321   0.889   6.419   2.285
 4808SOL     OW15322   5.579   3.145   1.415
 4808SOL    HW115323   5.562   3.053   1.448
 4808SOL    HW215324   5.677   3.158   1.400
 4809SOL     OW15325   4.536   6.108   6.355
 4809SOL    HW115326   4.559   6.189   6.411
 4809SOL    HW215327   4.612   6.089   6.293
 4810SOL     OW15328   1.160   0.209   1.291
 4810SOL    HW115329   1.201   0.127   1.331
 4810SOL    HW215330   1.099   0.182   1.216
 4811SOL     OW15331   5.478   6.114   2.861
 4811SOL    HW115332   5.452   6.043   2.796
 4811SOL    HW215333   5.576   6.107   2.881
 4812SOL     OW15334   6.557   5.022   4.528
 4812SOL    HW115335   6.538   5.036   4.431
 4812SOL    HW215336   6.652   5.047   4.548
 4813SOL     OW15337   5.432   2.871   2.576
 4813SOL    HW115338   5.475   2.782   2.591
 4813SOL    HW215339   5.333   2.862   2.586
 4814SOL     OW15340   6.678   3.709   1.656
 4814SOL    HW115341   6.659   3.624   1.704
 4814SOL    HW215342   6.645   3.786   1.709
 4815SOL     OW15343   4.223   6.397   2.773
 4815SOL    HW115344   4.222   6.416   2.871
 4815SOL    HW215345   4.262   6.306   2.757
 4816SOL     OW15346   5.483   5.375   3.372
 4816SOL    HW115347   5.415   5.350   3.441
 4816SOL    HW215348   5.486   5.475   3.363
 4817SOL     OW15349   6.709   1.923   6.564
 4817SOL    HW115350   6.665   2.012   6.556
 4817SOL    HW215351   6.806   1.936   6.585
 4818SOL     OW15352   6.834   6.039   3.505
 4818SOL    HW115353   6.860   6.080   3.592
 4818SOL    HW215354   6.898   5.965   3.483
 4819SOL     OW15355   1.849   3.046   0.918
 4819SOL    HW115356   1.794   2.976   0.872
 4819SOL    HW215357   1.791   3.099   0.979
 4820SOL     OW15358   0.481   3.313   2.367
 4820SOL    HW115359   0.513   3.254   2.441
 4820SOL    HW215360   0.470   3.259   2.284
 4821SOL     OW15361   6.872   5.782   3.712
 4821SOL    HW115362   6.835   5.854   3.769
 4821SOL    HW215363   6.961   5.753   3.748
 4822SOL     OW15364   1.868   4.505   4.268
 4822SOL    HW115365   1.949   4.539   4.220
 4822SOL    HW215366   1.806   4.582   4.287
 4823SOL     OW15367   1.741   2.962   1.520
 4823SOL    HW115368   1.761   2.984   1.424
 4823SOL    HW215369   1.811   3.003   1.578
 4824SOL     OW15370   6.118   1.732   6.574
 4824SOL    HW115371   6.196   1.789   6.548
 4824SOL    HW215372   6.107   1.735   6.674
 4825SOL     OW15373   0.915   7.007   3.879
 4825SOL    HW115374   0.850   0.022   3.945
 4825SOL    HW215375   0.883   6.918   3.846
 4826SOL     OW15376   3.970   0.676   0.992
 4826SOL    HW115377   4.027   0.656   0.912
 4826SOL    HW215378   3.888   0.619   0.989
 4827SOL     OW15379   6.916   1.891   0.664
 4827SOL    HW115380   6.938   1.858   0.572
 4827SOL    HW215381   6.866   1.978   0.657
 4828SOL     OW15382   5.675   1.141   5.087
 4828SOL    HW115383   5.688   1.206   5.161
 4828SOL    HW215384   5.579   1.113   5.083
 4829SOL     OW15385   4.387   6.420   4.964
 4829SOL    HW115386   4.321   6.348   4.983
 4829SOL    HW215387   4.351   6.508   4.996
 4830SOL     OW15388   1.725   6.249   3.555
 4830SOL    HW115389   1.671   6.270   3.474
 4830SOL    HW215390   1.819   6.280   3.541
 4831SOL     OW15391   3.134   4.601   5.328
 4831SOL    HW115392   3.060   4.623   5.264
 4831SOL    HW215393   3.100   4.538   5.398
 4832SOL     OW15394   3.864   3.431   4.411
 4832SOL    HW115395   3.815   3.378   4.480
 4832SOL    HW215396   3.831   3.526   4.412
 4833SOL     OW15397   6.247   3.375   5.048
 4833SOL    HW115398   6.221   3.429   4.967
 4833SOL    HW215399   6.165   3.350   5.099
 4834SOL     OW15400   1.019   4.934   1.238
 4834SOL    HW115401   1.101   4.975   1.276
 4834SOL    HW215402   1.010   4.960   1.142
 4835SOL     OW15403   6.899   3.000   5.733
 4835SOL    HW115404   6.823   3.062   5.758
 4835SOL    HW215405   6.945   2.969   5.816
 4836SOL     OW15406   4.459   2.047   5.937
 4836SOL    HW115407   4.393   2.009   5.872
 4836SOL    HW215408   4.494   1.973   5.995
 4837SOL     OW15409   0.511   3.740   4.020
 4837SOL    HW115410   0.426   3.788   4.039
 4837SOL    HW215411   0.517   3.658   4.077
 4838SOL     OW15412   1.872   3.652   5.992
 4838SOL    HW115413   1.841   3.660   6.087
 4838SOL    HW215414   1.830   3.571   5.950
 4839SOL     OW15415   2.600   1.275   0.429
 4839SOL    HW115416   2.590   1.349   0.362
 4839SOL    HW215417   2.559   1.191   0.392
 4840SOL     OW15418   5.774   3.084   5.229
 4840SOL    HW115419   5.678   3.062   5.242
 4840SOL    HW215420   5.805   3.143   5.304
 4841SOL     OW15421   2.924   6.390   3.448
 4841SOL    HW115422   2.881   6.444   3.376
 4841SOL    HW215423   2.949   6.451   3.524
 4842SOL     OW15424   3.892   5.839   3.096
 4842SOL    HW115425   3.920   5.933   3.080
 4842SOL    HW215426   3.958   5.795   3.158
 4843SOL     OW15427   6.872   1.605   6.948
 4843SOL    HW115428   6.785   1.645   6.918
 4843SOL    HW215429   6.947   1.647   6.898
 4844SOL     OW15430   1.294   5.615   5.997
 4844SOL    HW115431   1.347   5.697   5.972
 4844SOL    HW215432   1.197   5.639   6.003
 4845SOL     OW15433   4.949   3.835   4.976
 4845SOL    HW115434   5.039   3.793   4.963
 4845SOL    HW215435   4.882   3.764   4.998
 4846SOL     OW15436   6.005   3.343   4.746
 4846SOL    HW115437   6.051   3.414   4.800
 4846SOL    HW215438   6.071   3.296   4.688
 4847SOL     OW15439   2.621   6.526   6.282
 4847SOL    HW115440   2.657   6.486   6.198
 4847SOL    HW215441   2.697   6.549   6.343
 4848SOL     OW15442   4.487   1.331   4.195
 4848SOL    HW115443   4.403   1.284   4.224
 4848SOL    HW215444   4.552   1.264   4.161
 4849SOL     OW15445   2.685   6.546   1.169
 4849SOL    HW115446   2.629   6.467   1.192
 4849SOL    HW215447   2.675   6.616   1.240
 4850SOL     OW15448   3.803   6.958   1.123
 4850SOL    HW115449   3.766   6.914   1.042
 4850SOL    HW215450   3.879   6.903   1.160
 4851SOL     OW15451   3.845   4.764   7.012
 4851SOL    HW115452   3.834   4.664   7.012
 4851SOL    HW215453   3.811   4.801   6.926
 4852SOL     OW15454   5.490   4.971   5.754
 4852SOL    HW115455   5.392   4.993   5.759
 4852SOL    HW215456   5.543   5.050   5.787
 4853SOL     OW15457   4.648   0.108   2.550
 4853SOL    HW115458   4.745   0.127   2.565
 4853SOL    HW215459   4.633   0.009   2.550
 4854SOL     OW15460   4.153   6.647   2.106
 4854SOL    HW115461   4.146   6.589   2.024
 4854SOL    HW215462   4.227   6.713   2.094
 4855SOL     OW15463   5.008   5.362   5.635
 4855SOL    HW115464   5.015   5.267   5.663
 4855SOL    HW215465   5.096   5.393   5.598
 4856SOL     OW15466   0.427   3.746   2.248
 4856SOL    HW115467   0.483   3.668   2.274
 4856SOL    HW215468   0.427   3.755   2.148
 4857SOL     OW15469   2.625   2.492   5.088
 4857SOL    HW115470   2.689   2.495   5.012
 4857SOL    HW215471   2.623   2.399   5.126
 4858SOL     OW15472   1.696   6.774   4.644
 4858SOL    HW115473   1.784   6.734   4.671
 4858SOL    HW215474   1.658   6.827   4.720
 4859SOL     OW15475   6.863   5.662   2.811
 4859SOL    HW115476   6.822   5.737   2.760
 4859SOL    HW215477   6.938   5.622   2.757
 4860SOL     OW15478   4.288   5.130   2.241
 4860SOL    HW115479   4.276   5.127   2.142
 4860SOL    HW215480   4.292   5.225   2.271
 4861SOL     OW15481   6.992   4.405   5.661
 4861SOL    HW115482   0.016   4.317   5.667
 4861SOL    HW215483   0.038   4.477   5.647
 4862SOL     OW15484   2.320   6.448   4.406
 4862SOL    HW115485   2.361   6.386   4.339
 4862SOL    HW215486   2.229   6.415   4.431
 4863SOL     OW15487   5.628   2.101   2.305
 4863SOL    HW115488   5.679   2.181   2.273
 4863SOL    HW215489   5.691   2.026   2.324
 4864SOL     OW15490   2.138   1.620   1.170
 4864SOL    HW115491   2.058   1.610   1.229
 4864SOL    HW215492   2.220   1.593   1.221
 4865SOL     OW15493   3.989   5.906   4.988
 4865SOL    HW115494   3.892   5.928   4.981
 4865SOL    HW215495   4.001   5.807   4.983
 4866SOL     OW15496   0.498   5.116   1.769
 4866SOL    HW115497   0.416   5.171   1.753
 4866SOL    HW215498   0.473   5.034   1.821
 4867SOL     OW15499   4.795   4.577   4.127
 4867SOL    HW115500   4.791   4.542   4.221
 4867SOL    HW215501   4.813   4.501   4.064
 4868SOL     OW15502   2.129   5.735   1.416
 4868SOL    HW115503   2.045   5.751   1.468
 4868SOL    HW215504   2.203   5.712   1.478
 4869SOL     OW15505   6.184   1.989   1.057
 4869SOL    HW115506   6.097   1.940   1.054
 4869SOL    HW215507   6.259   1.924   1.052
 4870SOL     OW15508   6.871   0.435   1.324
 4870SOL    HW115509   6.830   0.354   1.280
 4870SOL    HW215510   6.802   0.506   1.333
 4871SOL     OW15511   1.950   4.074   4.397
 4871SOL    HW115512   1.971   3.979   4.375
 4871SOL    HW215513   2.034   4.128   4.393
 4872SOL     OW15514   0.979   0.559   3.989
 4872SOL    HW115515   0.931   0.479   4.026
 4872SOL    HW215516   0.994   0.546   3.891
 4873SOL     OW15517   1.017   6.377   5.405
 4873SOL    HW115518   0.940   6.372   5.470
 4873SOL    HW215519   1.024   6.470   5.370
 4874SOL     OW15520   5.886   3.308   3.551
 4874SOL    HW115521   5.803   3.364   3.553
 4874SOL    HW215522   5.935   3.317   3.638
 4875SOL     OW15523   6.953   2.718   6.416
 4875SOL    HW115524   0.004   2.787   6.410
 4875SOL    HW215525   6.980   2.637   6.364
 4876SOL     OW15526   0.199   1.655   0.104
 4876SOL    HW115527   0.161   1.567   0.131
 4876SOL    HW215528   0.166   1.679   0.012
 4877SOL     OW15529   5.943   1.151   2.065
 4877SOL    HW115530   5.941   1.071   2.005
 4877SOL    HW215531   5.878   1.138   2.140
 4878SOL     OW15532   0.361   2.745   1.605
 4878SOL    HW115533   0.434   2.803   1.641
 4878SOL    HW215534   0.288   2.738   1.674
 4879SOL     OW15535   5.057   5.864   3.142
 4879SOL    HW115536   4.966   5.834   3.172
 4879SOL    HW215537   5.047   5.926   3.064
 4880SOL     OW15538   5.718   1.768   5.693
 4880SOL    HW115539   5.686   1.683   5.652
 4880SOL    HW215540   5.644   1.810   5.745
 4881SOL     OW15541   2.607   5.544   6.525
 4881SOL    HW115542   2.561   5.618   6.476
 4881SOL    HW215543   2.684   5.511   6.470
 4882SOL     OW15544   4.885   6.890   6.958
 4882SOL    HW115545   4.860   6.796   6.937
 4882SOL    HW215546   4.858   6.911   0.031
 4883SOL     OW15547   6.012   5.553   0.055
 4883SOL    HW115548   5.924   5.587   0.087
 4883SOL    HW215549   6.052   5.492   0.124
 4884SOL     OW15550   3.976   6.176   1.515
 4884SOL    HW115551   4.047   6.114   1.483
 4884SOL    HW215552   3.937   6.226   1.438
 4885SOL     OW15553   2.254   0.133   2.871
 4885SOL    HW115554   2.267   0.038   2.901
 4885SOL    HW215555   2.284   0.195   2.944
 4886SOL     OW15556   6.060   0.702   5.826
 4886SOL    HW115557   6.154   0.683   5.855
 4886SOL    HW215558   5.997   0.681   5.901
 4887SOL     OW15559   0.092   2.231   5.760
 4887SOL    HW115560   0.053   2.314   5.801
 4887SOL    HW215561   0.180   2.211   5.802
 4888SOL     OW15562   3.452   6.077   2.138
 4888SOL    HW115563   3.488   5.984   2.139
 4888SOL    HW215564   3.508   6.134   2.077
 4889SOL     OW15565   1.406   2.958   6.371
 4889SOL    HW115566   1.474   2.937   6.441
 4889SOL    HW215567   1.449   3.012   6.299
 4890SOL     OW15568   0.530   0.307   4.258
 4890SOL    HW115569   0.488   0.290   4.347
 4890SOL    HW215570   0.617   0.355   4.271
 4891SOL     OW15571   1.501   3.937   0.696
 4891SOL    HW115572   1.601   3.938   0.698
 4891SOL    HW215573   1.466   3.890   0.777
 4892SOL     OW15574   1.827   5.282   2.348
 4892SOL    HW115575   1.839   5.366   2.401
 4892SOL    HW215576   1.737   5.283   2.304
 4893SOL     OW15577   0.943   3.588   6.921
 4893SOL    HW115578   0.952   3.584   7.020
 4893SOL    HW215579   0.925   3.682   6.892
 4894SOL     OW15580   1.869   0.701   3.395
 4894SOL    HW115581   1.907   0.609   3.406
 4894SOL    HW215582   1.942   0.766   3.375
 4895SOL     OW15583   6.184   4.589   0.239
 4895SOL    HW115584   6.115   4.533   0.285
 4895SOL    HW215585   6.164   4.685   0.253
 4896SOL     OW15586   4.091   6.005   3.507
 4896SOL    HW115587   4.035   6.017   3.589
 4896SOL    HW215588   4.181   5.969   3.533
 4897SOL     OW15589   2.592   6.043   6.667
 4897SOL    HW115590   2.669   6.045   6.603
 4897SOL    HW215591   2.627   6.031   6.760
 4898SOL     OW15592   6.258   1.937   4.701
 4898SOL    HW115593   6.297   1.847   4.682
 4898SOL    HW215594   6.332   2.000   4.727
 4899SOL     OW15595   5.096   4.695   4.741
 4899SOL    HW115596   5.187   4.692   4.700
 4899SOL    HW215597   5.057   4.787   4.729
 4900SOL     OW15598   0.353   6.664   5.716
 4900SOL    HW115599   0.271   6.719   5.696
 4900SOL    HW215600   0.426   6.723   5.749
 4901SOL     OW15601   6.998   6.769   3.267
 4901SOL    HW115602   0.003   6.856   3.225
 4901SOL    HW215603   6.965   6.707   3.195
 4902SOL     OW15604   3.389   4.890   1.875
 4902SOL    HW115605   3.330   4.891   1.794
 4902SOL    HW215606   3.450   4.811   1.871
 4903SOL     OW15607   5.333   5.544   6.137
 4903SOL    HW115608   5.418   5.528   6.088
 4903SOL    HW215609   5.278   5.612   6.088
 4904SOL     OW15610   2.983   6.550   3.678
 4904SOL    HW115611   3.036   6.634   3.671
 4904SOL    HW215612   3.017   6.496   3.756
 4905SOL     OW15613   6.109   3.740   3.452
 4905SOL    HW115614   6.200   3.705   3.433
 4905SOL    HW215615   6.067   3.687   3.526
 4906SOL     OW15616   5.170   0.910   1.120
 4906SOL    HW115617   5.128   0.834   1.169
 4906SOL    HW215618   5.239   0.953   1.179
 4907SOL     OW15619   2.317   1.877   2.206
 4907SOL    HW115620   2.225   1.900   2.239
 4907SOL    HW215621   2.381   1.874   2.282
 4908SOL     OW15622   4.000   4.852   0.401
 4908SOL    HW115623   3.910   4.879   0.366
 4908SOL    HW215624   4.069   4.916   0.366
 4909SOL     OW15625   6.032   0.319   5.456
 4909SOL    HW115626   5.949   0.366   5.487
 4909SOL    HW215627   6.013   0.272   5.370
 4910SOL     OW15628   5.869   6.661   6.087
 4910SOL    HW115629   5.880   6.567   6.120
 4910SOL    HW215630   5.782   6.668   6.038
 4911SOL     OW15631   1.120   3.481   6.149
 4911SOL    HW115632   1.120   3.580   6.159
 4911SOL    HW215633   1.153   3.456   6.058
 4912SOL     OW15634   2.569   2.385   1.814
 4912SOL    HW115635   2.644   2.320   1.828
 4912SOL    HW215636   2.556   2.401   1.716
 4913SOL     OW15637   2.819   3.347   1.961
 4913SOL    HW115638   2.720   3.359   1.972
 4913SOL    HW215639   2.837   3.281   1.888
 4914SOL     OW15640   1.979   6.542   2.608
 4914SOL    HW115641   2.061   6.485   2.611
 4914SOL    HW215642   2.002   6.633   2.573
 4915SOL     OW15643   2.796   5.990   3.368
 4915SOL    HW115644   2.712   5.936   3.379
 4915SOL    HW215645   2.772   6.082   3.337
 4916SOL     OW15646   2.092   2.158   2.668
 4916SOL    HW115647   2.166   2.191   2.609
 4916SOL    HW215648   2.076   2.223   2.742
 4917SOL     OW15649   2.274   4.828   6.137
 4917SOL    HW115650   2.276   4.783   6.047
 4917SOL    HW215651   2.367   4.846   6.168
 4918SOL     OW15652   2.192   0.669   3.615
 4918SOL    HW115653   2.252   0.612   3.672
 4918SOL    HW215654   2.099   0.666   3.651
 4919SOL     OW15655   2.508   3.044   1.731
 4919SOL    HW115656   2.411   3.021   1.719
 4919SOL    HW215657   2.518   3.142   1.741
 4920SOL     OW15658   4.239   0.571   0.036
 4920SOL    HW115659   4.274   0.639   0.100
 4920SOL    HW215660   4.171   0.514   0.082
 4921SOL     OW15661   0.959   4.638   1.944
 4921SOL    HW115662   1.035   4.698   1.919
 4921SOL    HW215663   0.994   4.561   1.998
 4922SOL     OW15664   0.871   2.924   5.543
 4922SOL    HW115665   0.804   2.901   5.614
 4922SOL    HW215666   0.962   2.892   5.572
 4923SOL     OW15667   2.897   2.271   6.913
 4923SOL    HW115668   2.965   2.244   6.844
 4923SOL    HW215669   2.823   2.203   6.915
 4924SOL     OW15670   0.143   3.588   4.172
 4924SOL    HW115671   0.197   3.504   4.178
 4924SOL    HW215672   0.200   3.665   4.201
 4925SOL     OW15673   4.803   6.341   6.517
 4925SOL    HW115674   4.737   6.322   6.589
 4925SOL    HW215675   4.824   6.439   6.517
 4926SOL     OW15676   4.423   2.960   0.569
 4926SOL    HW115677   4.370   2.951   0.485
 4926SOL    HW215678   4.484   2.882   0.579
 4927SOL     OW15679   3.556   4.125   2.407
 4927SOL    HW115680   3.557   4.032   2.443
 4927SOL    HW215681   3.632   4.176   2.445
 4928SOL     OW15682   0.759   6.411   0.599
 4928SOL    HW115683   0.759   6.333   0.537
 4928SOL    HW215684   0.834   6.473   0.574
 4929SOL     OW15685   0.666   5.002   4.593
 4929SOL    HW115686   0.653   4.943   4.514
 4929SOL    HW215687   0.698   4.947   4.670
 4930SOL     OW15688   0.333   2.786   0.796
 4930SOL    HW115689   0.340   2.879   0.759
 4930SOL    HW215690   0.340   2.789   0.896
 4931SOL     OW15691   6.815   6.518   1.030
 4931SOL    HW115692   6.776   6.448   0.970
 4931SOL    HW215693   6.905   6.545   0.996
 4932SOL     OW15694   3.730   1.852   1.134
 4932SOL    HW115695   3.681   1.910   1.070
 4932SOL    HW215696   3.665   1.806   1.195
 4933SOL     OW15697   2.754   0.276   5.002
 4933SOL    HW115698   2.681   0.217   5.035
 4933SOL    HW215699   2.764   0.355   5.063
 4934SOL     OW15700   1.586   5.726   5.547
 4934SOL    HW115701   1.620   5.740   5.454
 4934SOL    HW215702   1.566   5.814   5.589
 4935SOL     OW15703   1.878   1.377   0.782
 4935SOL    HW115704   1.893   1.283   0.750
 4935SOL    HW215705   1.959   1.409   0.830
 4936SOL     OW15706   4.886   6.293   1.681
 4936SOL    HW115707   4.985   6.295   1.691
 4936SOL    HW215708   4.845   6.367   1.734
 4937SOL     OW15709   0.998   3.009   4.878
 4937SOL    HW115710   1.008   2.967   4.788
 4937SOL    HW215711   1.005   2.939   4.949
 4938SOL     OW15712   3.419   5.047   2.277
 4938SOL    HW115713   3.496   4.996   2.240
 4938SOL    HW215714   3.336   5.024   2.227
 4939SOL     OW15715   0.984   1.556   1.443
 4939SOL    HW115716   0.910   1.533   1.380
 4939SOL    HW215717   0.992   1.656   1.451
 4940SOL     OW15718   0.817   2.041   5.952
 4940SOL    HW115719   0.891   2.091   5.907
 4940SOL    HW215720   0.775   1.979   5.887
 4941SOL     OW15721   4.326   2.700   5.314
 4941SOL    HW115722   4.247   2.658   5.268
 4941SOL    HW215723   4.398   2.632   5.325
 4942SOL     OW15724   0.359   2.081   3.205
 4942SOL    HW115725   0.305   2.074   3.121
 4942SOL    HW215726   0.311   2.034   3.279
 4943SOL     OW15727   5.351   2.866   6.843
 4943SOL    HW115728   5.429   2.872   6.905
 4943SOL    HW215729   5.384   2.868   6.748
 4944SOL     OW15730   1.206   5.175   6.973
 4944SOL    HW115731   1.117   5.219   6.961
 4944SOL    HW215732   1.207   5.090   6.920
 4945SOL     OW15733   2.425   0.318   5.338
 4945SOL    HW115734   2.427   0.363   5.427
 4945SOL    HW215735   2.447   0.385   5.267
 4946SOL     OW15736   2.741   5.145   6.792
 4946SOL    HW115737   2.679   5.136   6.869
 4946SOL    HW215738   2.824   5.092   6.809
 4947SOL     OW15739   0.968   0.348   1.079
 4947SOL    HW115740   1.000   0.290   1.004
 4947SOL    HW215741   0.986   0.444   1.056
 4948SOL     OW15742   1.937   2.232   2.321
 4948SOL    HW115743   2.019   2.272   2.281
 4948SOL    HW215744   1.947   2.226   2.420
 4949SOL     OW15745   0.055   3.916   6.215
 4949SOL    HW115746   6.984   3.933   6.180
 4949SOL    HW215747   0.070   3.971   6.296
 4950SOL     OW15748   3.688   4.688   5.968
 4950SOL    HW115749   3.770   4.742   5.951
 4950SOL    HW215750   3.607   4.743   5.949
 4951SOL     OW15751   5.258   5.755   2.973
 4951SOL    HW115752   5.196   5.784   3.045
 4951SOL    HW215753   5.287   5.834   2.919
 4952SOL     OW15754   0.464   0.231   6.987
 4952SOL    HW115755   0.506   0.267   6.904
 4952SOL    HW215756   0.528   0.241   0.042
 4953SOL     OW15757   1.625   2.314   5.138
 4953SOL    HW115758   1.570   2.238   5.104
 4953SOL    HW215759   1.594   2.340   5.230
 4954SOL     OW15760   2.920   3.708   4.357
 4954SOL    HW115761   2.854   3.683   4.286
 4954SOL    HW215762   3.002   3.745   4.314
 4955SOL     OW15763   3.911   5.914   5.999
 4955SOL    HW115764   3.829   5.869   6.035
 4955SOL    HW215765   3.887   5.967   5.918
 4956SOL     OW15766   2.930   0.113   4.644
 4956SOL    HW115767   2.843   0.137   4.687
 4956SOL    HW215768   2.922   0.126   4.545
 4957SOL     OW15769   5.907   4.470   0.110
 4957SOL    HW115770   5.807   4.482   0.113
 4957SOL    HW215771   5.928   4.372   0.108
 4958SOL     OW15772   3.722   5.629   0.851
 4958SOL    HW115773   3.753   5.558   0.914
 4958SOL    HW215774   3.795   5.697   0.838
 4959SOL     OW15775   6.896   2.415   2.702
 4959SOL    HW115776   6.987   2.375   2.693
 4959SOL    HW215777   6.827   2.344   2.684
 4960SOL     OW15778   5.078   4.750   3.558
 4960SOL    HW115779   5.121   4.662   3.537
 4960SOL    HW215780   4.987   4.735   3.596
 4961SOL     OW15781   3.233   2.228   1.853
 4961SOL    HW115782   3.197   2.168   1.925
 4961SOL    HW215783   3.322   2.195   1.823
 4962SOL     OW15784   1.222   3.074   0.292
 4962SOL    HW115785   1.280   3.143   0.335
 4962SOL    HW215786   1.238   2.985   0.336
 4963SOL     OW15787   0.692   3.831   5.936
 4963SOL    HW115788   0.742   3.841   5.850
 4963SOL    HW215789   0.665   3.736   5.949
 4964SOL     OW15790   2.432   6.453   4.753
 4964SOL    HW115791   2.455   6.385   4.684
 4964SOL    HW215792   2.515   6.478   4.804
 4965SOL     OW15793   1.514   6.676   3.045
 4965SOL    HW115794   1.507   6.590   2.994
 4965SOL    HW215795   1.607   6.685   3.082
 4966SOL     OW15796   3.171   6.138   4.277
 4966SOL    HW115797   3.073   6.158   4.289
 4966SOL    HW215798   3.223   6.182   4.350
 4967SOL     OW15799   4.370   4.753   4.898
 4967SOL    HW115800   4.359   4.674   4.959
 4967SOL    HW215801   4.467   4.763   4.873
 4968SOL     OW15802   0.369   2.654   3.162
 4968SOL    HW115803   0.410   2.653   3.071
 4968SOL    HW215804   0.384   2.566   3.207
 4969SOL     OW15805   0.050   5.612   4.250
 4969SOL    HW115806   0.002   5.699   4.254
 4969SOL    HW215807   7.012   5.544   4.205
 4970SOL     OW15808   1.798   1.905   1.523
 4970SOL    HW115809   1.826   1.886   1.429
 4970SOL    HW215810   1.698   1.913   1.527
 4971SOL     OW15811   0.013   6.055   2.644
 4971SOL    HW115812   0.053   5.963   2.644
 4971SOL    HW215813   7.012   6.081   2.550
 4972SOL     OW15814   0.395   4.492   0.897
 4972SOL    HW115815   0.317   4.443   0.937
 4972SOL    HW215816   0.428   4.560   0.963
 4973SOL     OW15817   6.218   1.332   0.469
 4973SOL    HW115818   6.311   1.318   0.503
 4973SOL    HW215819   6.161   1.369   0.543
 4974SOL     OW15820   3.227   6.572   4.568
 4974SOL    HW115821   3.285   6.648   4.597
 4974SOL    HW215822   3.144   6.608   4.525
 4975SOL     OW15823   5.091   4.850   1.083
 4975SOL    HW115824   5.034   4.906   1.143
 4975SOL    HW215825   5.065   4.866   0.988
 4976SOL     OW15826   1.146   6.988   3.325
 4976SOL    HW115827   1.219   0.033   3.345
 4976SOL    HW215828   1.183   6.914   3.269
 4977SOL     OW15829   1.303   3.967   5.855
 4977SOL    HW115830   1.236   3.971   5.782
 4977SOL    HW215831   1.260   3.993   5.942
 4978SOL     OW15832   5.964   4.128   4.736
 4978SOL    HW115833   5.983   4.191   4.661
 4978SOL    HW215834   5.903   4.055   4.705
 4979SOL     OW15835   2.616   6.979   6.182
 4979SOL    HW115836   2.692   0.002   6.134
 4979SOL    HW215837   2.651   6.934   6.265
 4980SOL     OW15838   5.218   3.071   4.147
 4980SOL    HW115839   5.243   3.114   4.234
 4980SOL    HW215840   5.194   2.975   4.163
 4981SOL     OW15841   3.252   4.892   2.867
 4981SOL    HW115842   3.161   4.853   2.879
 4981SOL    HW215843   3.282   4.935   2.952
 4982SOL     OW15844   3.938   2.571   5.614
 4982SOL    HW115845   4.027   2.615   5.609
 4982SOL    HW215846   3.928   2.506   5.538
 4983SOL     OW15847   5.571   4.738   3.029
 4983SOL    HW115848   5.651   4.678   3.024
 4983SOL    HW215849   5.601   4.831   3.052
 4984SOL     OW15850   4.893   3.641   4.108
 4984SOL    HW115851   4.877   3.558   4.161
 4984SOL    HW215852   4.938   3.709   4.165
 4985SOL     OW15853   5.376   0.639   2.647
 4985SOL    HW115854   5.436   0.672   2.720
 4985SOL    HW215855   5.338   0.716   2.597
 4986SOL     OW15856   1.026   5.022   0.969
 4986SOL    HW115857   0.975   5.098   0.929
 4986SOL    HW215858   1.065   4.966   0.896
 4987SOL     OW15859   1.216   1.365   2.245
 4987SOL    HW115860   1.206   1.376   2.344
 4987SOL    HW215861   1.129   1.384   2.200
 4988SOL     OW15862   6.552   5.562   3.937
 4988SOL    HW115863   6.510   5.577   3.847
 4988SOL    HW215864   6.568   5.650   3.982
 4989SOL     OW15865   5.367   0.267   3.898
 4989SOL    HW115866   5.308   0.217   3.835
 4989SOL    HW215867   5.344   0.243   3.993
 4990SOL     OW15868   4.620   2.269   5.628
 4990SOL    HW115869   4.616   2.308   5.536
 4990SOL    HW215870   4.541   2.210   5.643
 4991SOL     OW15871   1.641   5.212   5.914
 4991SOL    HW115872   1.641   5.155   5.832
 4991SOL    HW215873   1.586   5.294   5.898
 4992SOL     OW15874   1.097   3.195   4.207
 4992SOL    HW115875   1.164   3.254   4.251
 4992SOL    HW215876   1.005   3.218   4.239
 4993SOL     OW15877   2.358   6.175   3.997
 4993SOL    HW115878   2.277   6.126   3.965
 4993SOL    HW215879   2.407   6.212   3.918
 4994SOL     OW15880   3.659   5.187   5.456
 4994SOL    HW115881   3.671   5.284   5.481
 4994SOL    HW215882   3.615   5.139   5.531
 4995SOL     OW15883   0.028   0.688   6.031
 4995SOL    HW115884   0.111   0.742   6.015
 4995SOL    HW215885   6.998   0.681   5.945
 4996SOL     OW15886   0.606   1.285   3.876
 4996SOL    HW115887   0.608   1.186   3.884
 4996SOL    HW215888   0.686   1.316   3.825
 4997SOL     OW15889   3.918   1.666   1.084
 4997SOL    HW115890   3.884   1.588   1.136
 4997SOL    HW215891   3.854   1.743   1.092
 4998SOL     OW15892   0.921   3.724   3.113
 4998SOL    HW115893   0.836   3.725   3.061
 4998SOL    HW215894   0.902   3.699   3.208
 4999SOL     OW15895   0.751   2.555   3.694
 4999SOL    HW115896   0.659   2.546   3.656
 4999SOL    HW215897   0.804   2.473   3.675
 5000SOL     OW15898   2.861   5.848   2.781
 5000SOL    HW115899   2.806   5.777   2.824
 5000SOL    HW215900   2.958   5.827   2.792
 5001SOL     OW15901   0.583   6.198   3.170
 5001SOL    HW115902   0.574   6.281   3.115
 5001SOL    HW215903   0.495   6.152   3.177
 5002SOL     OW15904   1.689   4.327   4.165
 5002SOL    HW115905   1.638   4.310   4.249
 5002SOL    HW215906   1.756   4.400   4.181
 5003SOL     OW15907   3.832   0.541   3.173
 5003SOL    HW115908   3.930   0.530   3.187
 5003SOL    HW215909   3.792   0.586   3.253
 5004SOL     OW15910   3.876   5.575   6.971
 5004SOL    HW115911   3.935   5.626   6.908
 5004SOL    HW215912   3.784   5.567   6.932
 5005SOL     OW15913   2.795   2.784   6.840
 5005SOL    HW115914   2.820   2.859   6.779
 5005SOL    HW215915   2.824   2.806   6.933
 5006SOL     OW15916   4.927   1.410   2.169
 5006SOL    HW115917   4.980   1.475   2.113
 5006SOL    HW215918   4.931   1.319   2.127
 5007SOL     OW15919   5.649   6.107   2.036
 5007SOL    HW115920   5.631   6.166   2.114
 5007SOL    HW215921   5.664   6.013   2.067
 5008SOL     OW15922   5.361   0.624   3.300
 5008SOL    HW115923   5.317   0.709   3.331
 5008SOL    HW215924   5.424   0.592   3.371
 5009SOL     OW15925   6.414   2.356   0.658
 5009SOL    HW115926   6.464   2.410   0.726
 5009SOL    HW215927   6.416   2.259   0.683
 5010SOL     OW15928   3.652   3.671   0.855
 5010SOL    HW115929   3.668   3.706   0.947
 5010SOL    HW215930   3.673   3.574   0.851
 5011SOL     OW15931   1.730   3.434   6.384
 5011SOL    HW115932   1.713   3.457   6.480
 5011SOL    HW215933   1.784   3.350   6.379
 5012SOL     OW15934   6.256   1.618   6.140
 5012SOL    HW115935   6.340   1.650   6.098
 5012SOL    HW215936   6.190   1.592   6.069
 5013SOL     OW15937   5.906   0.163   6.092
 5013SOL    HW115938   5.871   0.109   6.169
 5013SOL    HW215939   5.922   0.102   6.014
 5014SOL     OW15940   5.715   3.245   1.948
 5014SOL    HW115941   5.723   3.182   1.871
 5014SOL    HW215942   5.754   3.203   2.030
 5015SOL     OW15943   6.115   6.391   4.137
 5015SOL    HW115944   6.126   6.301   4.094
 5015SOL    HW215945   6.018   6.415   4.140
 5016SOL     OW15946   1.912   3.773   5.646
 5016SOL    HW115947   1.988   3.709   5.655
 5016SOL    HW215948   1.928   3.851   5.707
 5017SOL     OW15949   0.374   3.288   1.827
 5017SOL    HW115950   0.275   3.277   1.830
 5017SOL    HW215951   0.415   3.211   1.779
 5018SOL     OW15952   1.052   0.164   6.968
 5018SOL    HW115953   1.026   0.081   7.018
 5018SOL    HW215954   0.988   0.179   6.893
 5019SOL     OW15955   0.904   4.792   4.629
 5019SOL    HW115956   0.904   4.692   4.627
 5019SOL    HW215957   0.942   4.823   4.715
 5020SOL     OW15958   2.470   0.356   4.708
 5020SOL    HW115959   2.478   0.437   4.766
 5020SOL    HW215960   2.433   0.280   4.762
 5021SOL     OW15961   1.882   1.095   0.702
 5021SOL    HW115962   1.867   1.108   0.604
 5021SOL    HW215963   1.827   1.018   0.734
 5022SOL     OW15964   6.759   2.924   1.160
 5022SOL    HW115965   6.844   2.972   1.139
 5022SOL    HW215966   6.778   2.847   1.221
 5023SOL     OW15967   0.242   4.347   2.458
 5023SOL    HW115968   0.186   4.342   2.541
 5023SOL    HW215969   0.221   4.268   2.400
 5024SOL     OW15970   4.500   3.896   0.914
 5024SOL    HW115971   4.503   3.798   0.933
 5024SOL    HW215972   4.565   3.943   0.974
 5025SOL     OW15973   4.542   1.628   4.689
 5025SOL    HW115974   4.465   1.639   4.751
 5025SOL    HW215975   4.515   1.656   4.596
 5026SOL     OW15976   4.807   6.870   4.611
 5026SOL    HW115977   4.806   6.952   4.553
 5026SOL    HW215978   4.888   6.816   4.590
 5027SOL     OW15979   4.721   5.783   1.037
 5027SOL    HW115980   4.756   5.863   1.085
 5027SOL    HW215981   4.646   5.812   0.976
 5028SOL     OW15982   6.415   1.641   2.214
 5028SOL    HW115983   6.419   1.688   2.126
 5028SOL    HW215984   6.501   1.593   2.229
 5029SOL     OW15985   5.812   1.883   2.369
 5029SOL    HW115986   5.891   1.940   2.391
 5029SOL    HW215987   5.834   1.823   2.293
 5030SOL     OW15988   0.114   4.344   6.739
 5030SOL    HW115989   0.189   4.367   6.801
 5030SOL    HW215990   0.151   4.311   6.653
 5031SOL     OW15991   6.388   6.989   6.277
 5031SOL    HW115992   6.428   0.040   6.333
 5031SOL    HW215993   6.400   6.900   6.322
 5032SOL     OW15994   3.128   3.321   5.781
 5032SOL    HW115995   3.173   3.408   5.766
 5032SOL    HW215996   3.187   3.262   5.836
 5033SOL     OW15997   2.142   0.509   6.426
 5033SOL    HW115998   2.104   0.498   6.335
 5033SOL    HW215999   2.221   0.571   6.422
 5034SOL     OW16000   4.880   6.701   4.876
 5034SOL    HW116001   4.936   6.702   4.793
 5034SOL    HW216002   4.798   6.757   4.861
 5035SOL     OW16003   2.043   3.252   4.001
 5035SOL    HW116004   2.028   3.330   3.941
 5035SOL    HW216005   2.086   3.282   4.086
 5036SOL     OW16006   0.461   2.378   4.942
 5036SOL    HW116007   0.457   2.469   4.903
 5036SOL    HW216008   0.530   2.324   4.894
 5037SOL     OW16009   4.070   4.161   0.918
 5037SOL    HW116010   3.992   4.119   0.964
 5037SOL    HW216011   4.151   4.156   0.977
 5038SOL     OW16012   3.929   3.990   3.838
 5038SOL    HW116013   3.862   4.056   3.871
 5038SOL    HW216014   3.936   3.914   3.903
 5039SOL     OW16015   1.050   3.788   6.118
 5039SOL    HW116016   1.107   3.817   6.195
 5039SOL    HW216017   0.956   3.818   6.132
 5040SOL     OW16018   0.241   1.035   5.700
 5040SOL    HW116019   0.145   1.060   5.711
 5040SOL    HW216020   0.289   1.109   5.652
 5041SOL     OW16021   7.005   2.675   1.373
 5041SOL    HW116022   0.021   2.669   1.281
 5041SOL    HW216023   0.046   2.729   1.430
 5042SOL     OW16024   0.710   2.558   6.335
 5042SOL    HW116025   0.802   2.585   6.304
 5042SOL    HW216026   0.641   2.604   6.280
 5043SOL     OW16027   3.791   6.768   2.000
 5043SOL    HW116028   3.736   6.849   2.021
 5043SOL    HW216029   3.887   6.794   1.992
 5044SOL     OW16030   6.654   4.630   0.423
 5044SOL    HW116031   6.666   4.713   0.477
 5044SOL    HW216032   6.581   4.644   0.356
 5045SOL     OW16033   6.131   3.186   6.750
 5045SOL    HW116034   6.098   3.105   6.700
 5045SOL    HW216035   6.091   3.268   6.709
 5046SOL     OW16036   3.557   3.481   2.842
 5046SOL    HW116037   3.536   3.532   2.925
 5046SOL    HW216038   3.542   3.540   2.762
 5047SOL     OW16039   1.613   3.753   3.854
 5047SOL    HW116040   1.625   3.657   3.830
 5047SOL    HW216041   1.541   3.792   3.796
 5048SOL     OW16042   2.143   0.987   6.160
 5048SOL    HW116043   2.198   1.062   6.125
 5048SOL    HW216044   2.052   0.991   6.121
 5049SOL     OW16045   4.937   1.811   6.912
 5049SOL    HW116046   4.901   1.731   6.959
 5049SOL    HW216047   4.946   1.792   6.814
 5050SOL     OW16048   1.445   6.948   0.831
 5050SOL    HW116049   1.526   6.891   0.815
 5050SOL    HW216050   1.463   0.020   0.799
 5051SOL     OW16051   4.528   5.046   0.965
 5051SOL    HW116052   4.585   5.101   1.026
 5051SOL    HW216053   4.498   4.963   1.012
 5052SOL     OW16054   2.641   1.404   5.135
 5052SOL    HW116055   2.714   1.392   5.202
 5052SOL    HW216056   2.673   1.463   5.060
 5053SOL     OW16057   0.255   0.644   1.936
 5053SOL    HW116058   0.284   0.721   1.992
 5053SOL    HW216059   0.199   0.582   1.992
 5054SOL     OW16060   3.803   5.060   4.339
 5054SOL    HW116061   3.814   5.129   4.411
 5054SOL    HW216062   3.891   5.020   4.317
 5055SOL     OW16063   0.231   3.677   6.259
 5055SOL    HW116064   0.213   3.639   6.349
 5055SOL    HW216065   0.170   3.755   6.243
 5056SOL     OW16066   5.309   4.390   4.333
 5056SOL    HW116067   5.362   4.361   4.413
 5056SOL    HW216068   5.370   4.417   4.259
 5057SOL     OW16069   1.097   5.949   2.129
 5057SOL    HW116070   1.047   5.865   2.111
 5057SOL    HW216071   1.069   5.986   2.218
 5058SOL     OW16072   2.729   5.607   5.411
 5058SOL    HW116073   2.690   5.519   5.386
 5058SOL    HW216074   2.800   5.594   5.480
 5059SOL     OW16075   6.719   0.485   2.175
 5059SOL    HW116076   6.768   0.502   2.260
 5059SOL    HW216077   6.696   0.388   2.168
 5060SOL     OW16078   6.413   2.081   5.748
 5060SOL    HW116079   6.366   2.074   5.836
 5060SOL    HW216080   6.466   1.998   5.731
 5061SOL     OW16081   5.396   4.767   0.256
 5061SOL    HW116082   5.493   4.748   0.273
 5061SOL    HW216083   5.368   4.847   0.308
 5062SOL     OW16084   0.443   0.463   0.826
 5062SOL    HW116085   0.396   0.383   0.864
 5062SOL    HW216086   0.533   0.472   0.869
 5063SOL     OW16087   1.822   5.929   1.374
 5063SOL    HW116088   1.894   5.943   1.306
 5063SOL    HW216089   1.781   6.017   1.398
 5064SOL     OW16090   5.252   3.473   0.276
 5064SOL    HW116091   5.191   3.395   0.284
 5064SOL    HW216092   5.221   3.546   0.338
 5065SOL     OW16093   2.578   6.387   5.498
 5065SOL    HW116094   2.574   6.289   5.478
 5065SOL    HW216095   2.660   6.407   5.550
 5066SOL     OW16096   4.793   4.854   1.047
 5066SOL    HW116097   4.812   4.843   1.145
 5066SOL    HW216098   4.784   4.764   1.005
 5067SOL     OW16099   5.477   1.266   6.704
 5067SOL    HW116100   5.574   1.292   6.697
 5067SOL    HW216101   5.428   1.299   6.624
 5068SOL     OW16102   3.167   5.270   1.943
 5068SOL    HW116103   3.207   5.269   1.851
 5068SOL    HW216104   3.183   5.359   1.986
 5069SOL     OW16105   0.451   4.987   2.961
 5069SOL    HW116106   0.383   5.042   2.910
 5069SOL    HW216107   0.543   5.010   2.929
 5070SOL     OW16108   4.873   3.383   4.213
 5070SOL    HW116109   4.851   3.366   4.116
 5070SOL    HW216110   4.835   3.309   4.269
 5071SOL     OW16111   3.866   0.946   6.971
 5071SOL    HW116112   3.858   0.881   6.894
 5071SOL    HW216113   3.867   1.039   6.935
 5072SOL     OW16114   1.201   4.137   1.048
 5072SOL    HW116115   1.261   4.120   1.126
 5072SOL    HW216116   1.156   4.225   1.059
 5073SOL     OW16117   4.228   1.560   4.172
 5073SOL    HW116118   4.165   1.623   4.126
 5073SOL    HW216119   4.321   1.576   4.140
 5074SOL     OW16120   3.349   4.578   5.684
 5074SOL    HW116121   3.338   4.516   5.606
 5074SOL    HW216122   3.441   4.569   5.721
 5075SOL     OW16123   6.760   5.956   3.892
 5075SOL    HW116124   6.694   6.018   3.933
 5075SOL    HW216125   6.852   5.983   3.919
 5076SOL     OW16126   3.580   0.653   1.002
 5076SOL    HW116127   3.507   0.633   0.936
 5076SOL    HW216128   3.662   0.601   0.978
 5077SOL     OW16129   0.603   2.207   2.324
 5077SOL    HW116130   0.595   2.225   2.226
 5077SOL    HW216131   0.527   2.251   2.373
 5078SOL     OW16132   0.935   1.317   4.052
 5078SOL    HW116133   0.861   1.274   4.103
 5078SOL    HW216134   0.916   1.414   4.039
 5079SOL     OW16135   4.357   5.050   4.913
 5079SOL    HW116136   4.325   4.956   4.903
 5079SOL    HW216137   4.340   5.082   5.007
 5080SOL     OW16138   5.953   6.886   5.882
 5080SOL    HW116139   5.993   6.828   5.953
 5080SOL    HW216140   5.855   6.870   5.878
 5081SOL     OW16141   3.126   3.554   3.087
 5081SOL    HW116142   3.140   3.534   2.990
 5081SOL    HW216143   3.053   3.497   3.123
 5082SOL     OW16144   6.420   6.868   5.672
 5082SOL    HW116145   6.337   6.824   5.707
 5082SOL    HW216146   6.394   6.946   5.615
 5083SOL     OW16147   1.471   5.822   1.823
 5083SOL    HW116148   1.559   5.780   1.841
 5083SOL    HW216149   1.399   5.752   1.825
 5084SOL     OW16150   2.272   6.165   2.883
 5084SOL    HW116151   2.280   6.137   2.979
 5084SOL    HW216152   2.332   6.108   2.827
 5085SOL     OW16153   6.383   3.285   6.016
 5085SOL    HW116154   6.480   3.261   6.011
 5085SOL    HW216155   6.348   3.307   5.925
 5086SOL     OW16156   0.022   5.510   3.445
 5086SOL    HW116157   6.978   5.465   3.506
 5086SOL    HW216158   0.023   5.465   3.356
 5087SOL     OW16159   0.203   5.857   5.170
 5087SOL    HW116160   0.141   5.819   5.238
 5087SOL    HW216161   0.262   5.785   5.135
 5088SOL     OW16162   5.532   0.378   6.734
 5088SOL    HW116163   5.582   0.330   6.661
 5088SOL    HW216164   5.439   0.398   6.703
 5089SOL     OW16165   5.199   2.683   3.883
 5089SOL    HW116166   5.126   2.749   3.865
 5089SOL    HW216167   5.252   2.713   3.963
 5090SOL     OW16168   1.535   4.485   0.596
 5090SOL    HW116169   1.436   4.494   0.608
 5090SOL    HW216170   1.573   4.427   0.668
 5091SOL     OW16171   1.587   6.146   3.321
 5091SOL    HW116172   1.563   6.175   3.229
 5091SOL    HW216173   1.673   6.094   3.319
 5092SOL     OW16174   3.801   2.985   1.695
 5092SOL    HW116175   3.742   3.021   1.622
 5092SOL    HW216176   3.859   3.059   1.730
 5093SOL     OW16177   0.961   2.255   0.779
 5093SOL    HW116178   0.961   2.235   0.681
 5093SOL    HW216179   1.052   2.237   0.817
 5094SOL     OW16180   6.542   0.158   6.412
 5094SOL    HW116181   6.462   0.163   6.472
 5094SOL    HW216182   6.612   0.221   6.445
 5095SOL     OW16183   3.081   0.096   5.132
 5095SOL    HW116184   3.074   0.040   5.050
 5095SOL    HW216185   3.005   0.162   5.134
 5096SOL     OW16186   4.303   5.209   2.561
 5096SOL    HW116187   4.397   5.179   2.545
 5096SOL    HW216188   4.245   5.178   2.486
 5097SOL     OW16189   0.912   0.942   6.772
 5097SOL    HW116190   0.954   0.976   6.687
 5097SOL    HW216191   0.940   0.847   6.786
 5098SOL     OW16192   6.761   2.740   2.532
 5098SOL    HW116193   6.690   2.669   2.532
 5098SOL    HW216194   6.851   2.697   2.530
 5099SOL     OW16195   1.008   6.858   4.721
 5099SOL    HW116196   0.918   6.878   4.683
 5099SOL    HW216197   1.051   6.785   4.668
 5100SOL     OW16198   5.006   5.843   6.740
 5100SOL    HW116199   5.065   5.775   6.697
 5100SOL    HW216200   4.912   5.808   6.742
 5101SOL     OW16201   3.999   6.124   0.517
 5101SOL    HW116202   4.049   6.210   0.524
 5101SOL    HW216203   3.905   6.137   0.548
 5102SOL     OW16204   3.958   5.672   4.587
 5102SOL    HW116205   3.867   5.710   4.604
 5102SOL    HW216206   3.957   5.573   4.600
 5103SOL     OW16207   1.259   0.946   4.597
 5103SOL    HW116208   1.256   0.872   4.530
 5103SOL    HW216209   1.179   1.005   4.586
 5104SOL     OW16210   1.182   6.778   1.265
 5104SOL    HW116211   1.231   6.812   1.184
 5104SOL    HW216212   1.091   6.819   1.267
 5105SOL     OW16213   2.550   3.170   6.512
 5105SOL    HW116214   2.537   3.079   6.552
 5105SOL    HW216215   2.461   3.210   6.491
 5106SOL     OW16216   3.165   0.216   2.218
 5106SOL    HW116217   3.168   0.308   2.179
 5106SOL    HW216218   3.243   0.204   2.280
 5107SOL     OW16219   1.247   6.839   6.069
 5107SOL    HW116220   1.333   6.818   6.022
 5107SOL    HW216221   1.231   6.937   6.065
 5108SOL     OW16222   2.887   3.549   3.666
 5108SOL    HW116223   2.985   3.540   3.647
 5108SOL    HW216224   2.869   3.527   3.762
 5109SOL     OW16225   0.070   1.448   1.531
 5109SOL    HW116226   0.035   1.394   1.455
 5109SOL    HW216227   0.144   1.397   1.576
 5110SOL     OW16228   1.935   6.293   5.499
 5110SOL    HW116229   1.965   6.333   5.413
 5110SOL    HW216230   2.010   6.297   5.565
 5111SOL     OW16231   1.767   1.233   6.739
 5111SOL    HW116232   1.673   1.226   6.707
 5111SOL    HW216233   1.768   1.238   6.839
 5112SOL     OW16234   0.243   0.014   3.369
 5112SOL    HW116235   0.204   6.996   3.453
 5112SOL    HW216236   0.226   6.973   3.293
 5113SOL     OW16237   0.838   6.798   6.600
 5113SOL    HW116238   0.836   6.768   6.695
 5113SOL    HW216239   0.931   6.792   6.564
 5114SOL     OW16240   4.019   5.704   6.754
 5114SOL    HW116241   3.968   5.788   6.732
 5114SOL    HW216242   4.114   5.715   6.726
 5115SOL     OW16243   2.100   4.103   5.142
 5115SOL    HW116244   2.115   4.059   5.231
 5115SOL    HW216245   2.187   4.110   5.094
 5116SOL     OW16246   6.832   3.125   1.399
 5116SOL    HW116247   6.778   3.147   1.481
 5116SOL    HW216248   6.772   3.124   1.319
 5117SOL     OW16249   2.653   4.616   3.697
 5117SOL    HW116250   2.575   4.679   3.688
 5117SOL    HW216251   2.620   4.526   3.724
 5118SOL     OW16252   4.581   6.557   1.506
 5118SOL    HW116253   4.521   6.491   1.553
 5118SOL    HW216254   4.599   6.526   1.413
 5119SOL     OW16255   6.462   6.701   2.620
 5119SOL    HW116256   6.363   6.687   2.626
 5119SOL    HW216257   6.485   6.792   2.654
 5120SOL     OW16258   4.002   1.342   2.791
 5120SOL    HW116259   4.061   1.265   2.813
 5120SOL    HW216260   3.907   1.317   2.808
 5121SOL     OW16261   1.392   3.432   4.663
 5121SOL    HW116262   1.473   3.399   4.615
 5121SOL    HW216263   1.378   3.379   4.746
 5122SOL     OW16264   2.636   5.659   3.400
 5122SOL    HW116265   2.699   5.689   3.472
 5122SOL    HW216266   2.601   5.568   3.423
 5123SOL     OW16267   6.145   4.235   1.874
 5123SOL    HW116268   6.112   4.158   1.820
 5123SOL    HW216269   6.137   4.319   1.820
 5124SOL     OW16270   3.026   6.012   0.602
 5124SOL    HW116271   2.990   6.047   0.689
 5124SOL    HW216272   2.992   5.920   0.587
 5125SOL     OW16273   6.725   2.134   5.821
 5125SOL    HW116274   6.788   2.116   5.897
 5125SOL    HW216275   6.770   2.109   5.735
 5126SOL     OW16276   4.725   2.701   6.539
 5126SOL    HW116277   4.677   2.617   6.567
 5126SOL    HW216278   4.747   2.755   6.620
 5127SOL     OW16279   5.745   3.343   6.626
 5127SOL    HW116280   5.745   3.408   6.701
 5127SOL    HW216281   5.726   3.251   6.661
 5128SOL     OW16282   0.180   0.156   0.007
 5128SOL    HW116283   0.111   0.219   0.043
 5128SOL    HW216284   0.268   0.204   0.001
 5129SOL     OW16285   4.491   2.296   2.590
 5129SOL    HW116286   4.425   2.250   2.650
 5129SOL    HW216287   4.514   2.386   2.627
 5130SOL     OW16288   0.624   6.861   4.914
 5130SOL    HW116289   0.646   6.931   4.983
 5130SOL    HW216290   0.678   6.779   4.933
 5131SOL     OW16291   3.610   5.035   3.851
 5131SOL    HW116292   3.675   4.984   3.907
 5131SOL    HW216293   3.659   5.095   3.788
 5132SOL     OW16294   3.455   1.625   6.907
 5132SOL    HW116295   3.419   1.652   6.817
 5132SOL    HW216296   3.461   1.705   6.966
 5133SOL     OW16297   5.036   4.430   6.680
 5133SOL    HW116298   5.106   4.501   6.678
 5133SOL    HW216299   4.954   4.462   6.632
 5134SOL     OW16300   5.459   5.687   0.545
 5134SOL    HW116301   5.455   5.623   0.622
 5134SOL    HW216302   5.371   5.687   0.498
 5135SOL     OW16303   0.019   2.656   2.411
 5135SOL    HW116304   0.033   2.623   2.317
 5135SOL    HW216305   0.105   2.650   2.461
 5136SOL     OW16306   0.813   1.455   5.658
 5136SOL    HW116307   0.726   1.483   5.619
 5136SOL    HW216308   0.888   1.504   5.612
 5137SOL     OW16309   5.544   0.519   3.487
 5137SOL    HW116310   5.505   0.486   3.573
 5137SOL    HW216311   5.540   0.446   3.419
 5138SOL     OW16312   3.216   3.290   2.332
 5138SOL    HW116313   3.154   3.213   2.319
 5138SOL    HW216314   3.172   3.374   2.300
 5139SOL     OW16315   2.937   0.506   5.774
 5139SOL    HW116316   2.847   0.529   5.737
 5139SOL    HW216317   2.993   0.464   5.702
 5140SOL     OW16318   3.484   3.442   6.466
 5140SOL    HW116319   3.491   3.536   6.433
 5140SOL    HW216320   3.479   3.380   6.388
 5141SOL     OW16321   0.209   2.891   1.223
 5141SOL    HW116322   0.141   2.822   1.196
 5141SOL    HW216323   0.161   2.972   1.257
 5142SOL     OW16324   0.671   6.865   2.437
 5142SOL    HW116325   0.647   6.938   2.374
 5142SOL    HW216326   0.628   6.780   2.407
 5143SOL     OW16327   0.271   6.500   3.165
 5143SOL    HW116328   0.211   6.429   3.126
 5143SOL    HW216329   0.221   6.549   3.237
 5144SOL     OW16330   2.361   2.932   5.436
 5144SOL    HW116331   2.270   2.929   5.396
 5144SOL    HW216332   2.429   2.949   5.364
 5145SOL     OW16333   2.524   5.498   6.118
 5145SOL    HW116334   2.487   5.577   6.070
 5145SOL    HW216335   2.623   5.495   6.106
 5146SOL     OW16336   5.669   6.177   6.771
 5146SOL    HW116337   5.637   6.268   6.797
 5146SOL    HW216338   5.742   6.148   6.833
 5147SOL     OW16339   5.115   2.059   3.537
 5147SOL    HW116340   5.024   2.078   3.499
 5147SOL    HW216341   5.118   2.085   3.633
 5148SOL     OW16342   0.424   0.728   6.757
 5148SOL    HW116343   0.484   0.799   6.795
 5148SOL    HW216344   0.339   0.725   6.809
 5149SOL     OW16345   3.968   5.706   4.086
 5149SOL    HW116346   4.017   5.659   4.012
 5149SOL    HW216347   3.984   5.804   4.079
 5150SOL     OW16348   6.082   6.871   3.683
 5150SOL    HW116349   5.984   6.885   3.695
 5150SOL    HW216350   6.123   6.845   3.770
 5151SOL     OW16351   5.636   5.935   2.305
 5151SOL    HW116352   5.540   5.945   2.329
 5151SOL    HW216353   5.682   6.024   2.312
 5152SOL     OW16354   2.264   1.738   0.199
 5152SOL    HW116355   2.239   1.676   0.124
 5152SOL    HW216356   2.212   1.713   0.281
 5153SOL     OW16357   1.223   1.917   0.490
 5153SOL    HW116358   1.254   1.920   0.395
 5153SOL    HW216359   1.198   1.823   0.513
 5154SOL     OW16360   0.479   2.770   1.043
 5154SOL    HW116361   0.534   2.693   1.011
 5154SOL    HW216362   0.539   2.841   1.079
 5155SOL     OW16363   1.603   1.595   0.156
 5155SOL    HW116364   1.556   1.626   0.239
 5155SOL    HW216365   1.582   1.499   0.140
 5156SOL     OW16366   6.149   5.716   5.382
 5156SOL    HW116367   6.205   5.683   5.306
 5156SOL    HW216368   6.189   5.683   5.468
 5157SOL     OW16369   3.407   0.827   1.371
 5157SOL    HW116370   3.481   0.783   1.422
 5157SOL    HW216371   3.347   0.877   1.434
 5158SOL     OW16372   1.295   2.403   2.178
 5158SOL    HW116373   1.225   2.465   2.215
 5158SOL    HW216374   1.343   2.448   2.103
 5159SOL     OW16375   6.056   3.392   5.846
 5159SOL    HW116376   5.976   3.442   5.810
 5159SOL    HW216377   6.110   3.357   5.770
 5160SOL     OW16378   6.452   6.629   3.584
 5160SOL    HW116379   6.506   6.704   3.622
 5160SOL    HW216380   6.514   6.562   3.542
 5161SOL     OW16381   1.108   2.094   6.849
 5161SOL    HW116382   1.186   2.098   6.912
 5161SOL    HW216383   1.120   2.017   6.786
 5162SOL     OW16384   0.026   6.879   4.991
 5162SOL    HW116385   0.094   6.926   4.935
 5162SOL    HW216386   7.014   6.942   5.062
 5163SOL     OW16387   3.252   0.251   1.800
 5163SOL    HW116388   3.219   0.189   1.871
 5163SOL    HW216389   3.209   0.340   1.810
 5164SOL     OW16390   2.454   3.913   0.512
 5164SOL    HW116391   2.421   3.920   0.418
 5164SOL    HW216392   2.381   3.940   0.575
 5165SOL     OW16393   1.432   4.367   5.740
 5165SOL    HW116394   1.490   4.392   5.663
 5165SOL    HW216395   1.482   4.307   5.802
 5166SOL     OW16396   0.401   4.756   0.218
 5166SOL    HW116397   0.339   4.683   0.246
 5166SOL    HW216398   0.349   4.841   0.205
 5167SOL     OW16399   5.533   2.983   5.279
 5167SOL    HW116400   5.496   2.955   5.367
 5167SOL    HW216401   5.458   3.014   5.220
 5168SOL     OW16402   4.308   1.986   3.262
 5168SOL    HW116403   4.283   2.080   3.240
 5168SOL    HW216404   4.231   1.940   3.305
 5169SOL     OW16405   4.901   5.451   4.650
 5169SOL    HW116406   4.992   5.489   4.668
 5169SOL    HW216407   4.905   5.393   4.568
 5170SOL     OW16408   2.383   4.159   6.428
 5170SOL    HW116409   2.360   4.209   6.345
 5170SOL    HW216410   2.327   4.192   6.504
 5171SOL     OW16411   2.031   6.816   5.655
 5171SOL    HW116412   1.974   6.734   5.658
 5171SOL    HW216413   1.974   6.897   5.672
 5172SOL     OW16414   6.212   5.607   5.618
 5172SOL    HW116415   6.145   5.534   5.608
 5172SOL    HW216416   6.212   5.639   5.713
 5173SOL     OW16417   4.647   5.768   5.116
 5173SOL    HW116418   4.712   5.816   5.174
 5173SOL    HW216419   4.678   5.674   5.102
 5174SOL     OW16420   2.269   6.884   2.959
 5174SOL    HW116421   2.230   6.857   3.048
 5174SOL    HW216422   2.259   6.807   2.895
 5175SOL     OW16423   2.784   3.034   6.269
 5175SOL    HW116424   2.768   3.026   6.367
 5175SOL    HW216425   2.705   3.075   6.225
 5176SOL     OW16426   6.375   5.534   6.866
 5176SOL    HW116427   6.414   5.472   6.798
 5176SOL    HW216428   6.347   5.483   6.947
 5177SOL     OW16429   6.436   6.714   0.596
 5177SOL    HW116430   6.453   6.692   0.692
 5177SOL    HW216431   6.493   6.656   0.538
 5178SOL     OW16432   0.724   4.331   1.384
 5178SOL    HW116433   0.674   4.246   1.405
 5178SOL    HW216434   0.730   4.342   1.285
 5179SOL     OW16435   5.145   5.962   3.422
 5179SOL    HW116436   5.191   6.051   3.426
 5179SOL    HW216437   5.111   5.946   3.329
 5180SOL     OW16438   1.353   4.281   2.567
 5180SOL    HW116439   1.427   4.215   2.554
 5180SOL    HW216440   1.301   4.290   2.482
 5181SOL     OW16441   6.467   1.215   5.467
 5181SOL    HW116442   6.471   1.155   5.387
 5181SOL    HW216443   6.420   1.167   5.541
 5182SOL     OW16444   2.415   6.353   2.698
 5182SOL    HW116445   2.454   6.396   2.780
 5182SOL    HW216446   2.346   6.286   2.725
 5183SOL     OW16447   4.224   2.290   3.689
 5183SOL    HW116448   4.277   2.261   3.610
 5183SOL    HW216449   4.283   2.338   3.754
 5184SOL     OW16450   1.517   1.582   3.478
 5184SOL    HW116451   1.511   1.618   3.571
 5184SOL    HW216452   1.598   1.619   3.433
 5185SOL     OW16453   0.040   0.709   2.796
 5185SOL    HW116454   0.126   0.753   2.822
 5185SOL    HW216455   6.994   0.778   2.772
 5186SOL     OW16456   6.601   3.466   6.738
 5186SOL    HW116457   6.503   3.461   6.760
 5186SOL    HW216458   6.614   3.445   6.641
 5187SOL     OW16459   1.285   4.728   4.910
 5187SOL    HW116460   1.362   4.779   4.948
 5187SOL    HW216461   1.282   4.636   4.949
 5188SOL     OW16462   6.381   0.391   2.697
 5188SOL    HW116463   6.474   0.425   2.685
 5188SOL    HW216464   6.316   0.466   2.686
 5189SOL     OW16465   4.398   6.698   6.792
 5189SOL    HW116466   4.416   6.793   6.765
 5189SOL    HW216467   4.327   6.697   6.862
 5190SOL     OW16468   1.982   4.472   0.221
 5190SOL    HW116469   2.069   4.424   0.205
 5190SOL    HW216470   1.968   4.540   0.150
 5191SOL     OW16471   2.518   4.672   1.954
 5191SOL    HW116472   2.513   4.751   1.893
 5191SOL    HW216473   2.608   4.631   1.947
 5192SOL     OW16474   0.886   4.684   2.383
 5192SOL    HW116475   0.942   4.755   2.427
 5192SOL    HW216476   0.872   4.708   2.287
 5193SOL     OW16477   5.173   0.834   5.663
 5193SOL    HW116478   5.124   0.799   5.743
 5193SOL    HW216479   5.240   0.902   5.693
 5194SOL     OW16480   4.679   1.371   5.499
 5194SOL    HW116481   4.590   1.326   5.502
 5194SOL    HW216482   4.683   1.440   5.572
 5195SOL     OW16483   0.465   0.643   5.477
 5195SOL    HW116484   0.385   0.588   5.499
 5195SOL    HW216485   0.440   0.740   5.475
 5196SOL     OW16486   5.347   6.412   3.649
 5196SOL    HW116487   5.432   6.368   3.619
 5196SOL    HW216488   5.275   6.343   3.656
 5197SOL     OW16489   0.905   2.816   4.694
 5197SOL    HW116490   0.929   2.842   4.601
 5197SOL    HW216491   0.812   2.848   4.715
 5198SOL     OW16492   5.851   5.214   3.120
 5198SOL    HW116493   5.872   5.243   3.027
 5198SOL    HW216494   5.818   5.292   3.172
 5199SOL     OW16495   0.196   4.928   0.819
 5199SOL    HW116496   0.283   4.894   0.782
 5199SOL    HW216497   0.121   4.871   0.786
 5200SOL     OW16498   6.671   3.897   5.237
 5200SOL    HW116499   6.618   3.960   5.294
 5200SOL    HW216500   6.613   3.863   5.163
 5201SOL     OW16501   0.021   6.070   4.520
 5201SOL    HW116502   7.011   6.072   4.614
 5201SOL    HW216503   0.121   6.073   4.518
 5202SOL     OW16504   1.108   4.663   1.617
 5202SOL    HW116505   1.048   4.583   1.617
 5202SOL    HW216506   1.201   4.635   1.594
 5203SOL     OW16507   6.733   3.053   6.814
 5203SOL    HW116508   6.764   2.961   6.836
 5203SOL    HW216509   6.678   3.089   6.890
 5204SOL     OW16510   4.815   4.594   6.596
 5204SOL    HW116511   4.792   4.690   6.612
 5204SOL    HW216512   4.750   4.555   6.530
 5205SOL     OW16513   1.291   0.006   0.187
 5205SOL    HW116514   1.311   6.987   0.098
 5205SOL    HW216515   1.375   0.014   0.240
 5206SOL     OW16516   0.487   3.814   5.081
 5206SOL    HW116517   0.455   3.826   4.987
 5206SOL    HW216518   0.587   3.804   5.082
 5207SOL     OW16519   1.826   4.612   3.740
 5207SOL    HW116520   1.757   4.574   3.802
 5207SOL    HW216521   1.870   4.537   3.690
 5208SOL     OW16522   4.711   0.797   0.055
 5208SOL    HW116523   4.808   0.819   0.044
 5208SOL    HW216524   4.684   0.730   7.008
 5209SOL     OW16525   6.128   5.910   3.356
 5209SOL    HW116526   6.085   5.873   3.438
 5209SOL    HW216527   6.069   5.895   3.277
 5210SOL     OW16528   4.931   3.904   3.005
 5210SOL    HW116529   4.900   3.986   3.053
 5210SOL    HW216530   5.027   3.888   3.026
 5211SOL     OW16531   3.809   4.029   2.167
 5211SOL    HW116532   3.712   4.036   2.144
 5211SOL    HW216533   3.820   4.025   2.266
 5212SOL     OW16534   1.328   0.743   0.497
 5212SOL    HW116535   1.290   0.836   0.502
 5212SOL    HW216536   1.266   0.679   0.541
 5213SOL     OW16537   4.379   2.609   6.428
 5213SOL    HW116538   4.468   2.564   6.424
 5213SOL    HW216539   4.325   2.570   6.503
 5214SOL     OW16540   5.704   1.475   6.927
 5214SOL    HW116541   5.732   1.394   6.979
 5214SOL    HW216542   5.605   1.482   6.926
 5215SOL     OW16543   5.683   5.330   2.760
 5215SOL    HW116544   5.683   5.268   2.683
 5215SOL    HW216545   5.628   5.411   2.738
 5216SOL     OW16546   4.466   5.593   1.420
 5216SOL    HW116547   4.520   5.563   1.341
 5216SOL    HW216548   4.508   5.674   1.461
 5217SOL     OW16549   2.883   5.067   3.806
 5217SOL    HW116550   2.798   5.049   3.757
 5217SOL    HW216551   2.913   4.984   3.852
 5218SOL     OW16552   2.045   0.319   4.355
 5218SOL    HW116553   1.973   0.271   4.405
 5218SOL    HW216554   2.124   0.259   4.344
 5219SOL     OW16555   2.863   6.147   0.822
 5219SOL    HW116556   2.883   6.091   0.902
 5219SOL    HW216557   2.772   6.186   0.829
 5220SOL     OW16558   1.296   0.098   1.914
 5220SOL    HW116559   1.271   0.187   1.952
 5220SOL    HW216560   1.297   0.103   1.815
 5221SOL     OW16561   4.645   1.792   5.590
 5221SOL    HW116562   4.743   1.794   5.571
 5221SOL    HW216563   4.601   1.871   5.547
 5222SOL     OW16564   0.875   0.241   2.608
 5222SOL    HW116565   0.924   0.173   2.662
 5222SOL    HW216566   0.887   0.221   2.510
 5223SOL     OW16567   4.985   6.921   0.772
 5223SOL    HW116568   5.064   6.978   0.753
 5223SOL    HW216569   4.913   6.976   0.815
 5224SOL     OW16570   5.322   1.199   3.010
 5224SOL    HW116571   5.245   1.261   2.999
 5224SOL    HW216572   5.344   1.189   3.107
 5225SOL     OW16573   6.164   6.586   5.565
 5225SOL    HW116574   6.173   6.664   5.627
 5225SOL    HW216575   6.255   6.558   5.534
 5226SOL     OW16576   2.300   6.522   3.591
 5226SOL    HW116577   2.267   6.579   3.666
 5226SOL    HW216578   2.239   6.444   3.578
 5227SOL     OW16579   5.192   3.165   3.598
 5227SOL    HW116580   5.115   3.195   3.655
 5227SOL    HW216581   5.237   3.245   3.558
 5228SOL     OW16582   5.314   0.486   1.002
 5228SOL    HW116583   5.217   0.481   0.979
 5228SOL    HW216584   5.361   0.404   0.968
 5229SOL     OW16585   0.760   4.464   3.855
 5229SOL    HW116586   0.818   4.416   3.921
 5229SOL    HW216587   0.796   4.556   3.840
 5230SOL     OW16588   1.090   6.309   6.217
 5230SOL    HW116589   1.014   6.345   6.163
 5230SOL    HW216590   1.056   6.276   6.305
 5231SOL     OW16591   3.638   2.999   3.203
 5231SOL    HW116592   3.732   3.034   3.197
 5231SOL    HW216593   3.575   3.063   3.159
 5232SOL     OW16594   4.891   3.289   5.358
 5232SOL    HW116595   4.969   3.231   5.337
 5232SOL    HW216596   4.852   3.324   5.273
 5233SOL     OW16597   0.574   0.681   3.004
 5233SOL    HW116598   0.540   0.589   3.022
 5233SOL    HW216599   0.661   0.695   3.050
 5234SOL     OW16600   4.329   5.906   1.631
 5234SOL    HW116601   4.354   5.995   1.670
 5234SOL    HW216602   4.403   5.873   1.573
 5235SOL     OW16603   1.017   3.514   1.085
 5235SOL    HW116604   0.939   3.463   1.047
 5235SOL    HW216605   0.983   3.580   1.152
 5236SOL     OW16606   5.389   3.178   0.820
 5236SOL    HW116607   5.444   3.099   0.848
 5236SOL    HW216608   5.365   3.168   0.723
 5237SOL     OW16609   2.231   2.208   4.066
 5237SOL    HW116610   2.240   2.295   4.016
 5237SOL    HW216611   2.231   2.132   4.001
 5238SOL     OW16612   1.967   4.058   1.279
 5238SOL    HW116613   1.994   4.053   1.375
 5238SOL    HW216614   1.878   4.013   1.267
 5239SOL     OW16615   3.280   3.375   5.313
 5239SOL    HW116616   3.348   3.304   5.298
 5239SOL    HW216617   3.314   3.462   5.276
 5240SOL     OW16618   2.481   1.978   5.075
 5240SOL    HW116619   2.485   1.910   5.148
 5240SOL    HW216620   2.390   2.020   5.074
 5241SOL     OW16621   3.010   5.767   5.897
 5241SOL    HW116622   3.018   5.772   5.798
 5241SOL    HW216623   3.023   5.672   5.927
 5242SOL     OW16624   4.336   0.881   5.645
 5242SOL    HW116625   4.332   0.832   5.732
 5242SOL    HW216626   4.407   0.951   5.649
 5243SOL     OW16627   0.657   3.860   0.402
 5243SOL    HW116628   0.719   3.925   0.358
 5243SOL    HW216629   0.635   3.893   0.494
 5244SOL     OW16630   6.114   3.833   6.699
 5244SOL    HW116631   6.043   3.766   6.678
 5244SOL    HW216632   6.088   3.922   6.661
 5245SOL     OW16633   4.540   4.236   6.544
 5245SOL    HW116634   4.596   4.157   6.569
 5245SOL    HW216635   4.455   4.205   6.502
 5246SOL     OW16636   0.855   3.311   2.778
 5246SOL    HW116637   0.755   3.310   2.780
 5246SOL    HW216638   0.887   3.405   2.768
 5247SOL     OW16639   0.250   5.466   0.794
 5247SOL    HW116640   0.255   5.367   0.806
 5247SOL    HW216641   0.155   5.493   0.779
 5248SOL     OW16642   4.502   0.341   0.040
 5248SOL    HW116643   4.591   0.298   0.028
 5248SOL    HW216644   4.504   0.432   7.019
 5249SOL     OW16645   1.323   5.647   5.676
 5249SOL    HW116646   1.392   5.703   5.723
 5249SOL    HW216647   1.367   5.592   5.606
 5250SOL     OW16648   0.578   1.327   5.962
 5250SOL    HW116649   0.635   1.405   5.989
 5250SOL    HW216650   0.629   1.242   5.976
 5251SOL     OW16651   0.475   2.940   1.306
 5251SOL    HW116652   0.385   2.907   1.278
 5251SOL    HW216653   0.470   3.037   1.329
 5252SOL     OW16654   4.327   6.578   0.752
 5252SOL    HW116655   4.239   6.614   0.782
 5252SOL    HW216656   4.319   6.480   0.737
 5253SOL     OW16657   6.111   2.840   3.474
 5253SOL    HW116658   6.147   2.747   3.465
 5253SOL    HW216659   6.033   2.840   3.535
 5254SOL     OW16660   4.337   1.095   4.274
 5254SOL    HW116661   4.265   1.142   4.325
 5254SOL    HW216662   4.404   1.058   4.338
 5255SOL     OW16663   3.525   6.689   4.495
 5255SOL    HW116664   3.470   6.767   4.527
 5255SOL    HW216665   3.550   6.632   4.573
 5256SOL     OW16666   5.649   6.684   2.090
 5256SOL    HW116667   5.577   6.683   2.159
 5256SOL    HW216668   5.710   6.606   2.104
 5257SOL     OW16669   3.263   0.922   2.554
 5257SOL    HW116670   3.203   0.988   2.509
 5257SOL    HW216671   3.345   0.969   2.588
 5258SOL     OW16672   6.037   2.281   1.875
 5258SOL    HW116673   5.942   2.257   1.891
 5258SOL    HW216674   6.060   2.265   1.779
 5259SOL     OW16675   5.470   4.454   1.849
 5259SOL    HW116676   5.462   4.374   1.909
 5259SOL    HW216677   5.469   4.537   1.903
 5260SOL     OW16678   5.197   3.171   2.102
 5260SOL    HW116679   5.240   3.186   2.191
 5260SOL    HW216680   5.257   3.204   2.029
 5261SOL     OW16681   2.503   2.221   4.669
 5261SOL    HW116682   2.585   2.269   4.702
 5261SOL    HW216683   2.520   2.123   4.669
 5262SOL     OW16684   2.453   0.498   2.128
 5262SOL    HW116685   2.470   0.418   2.070
 5262SOL    HW216686   2.362   0.491   2.169
 5263SOL     OW16687   0.758   6.351   0.874
 5263SOL    HW116688   0.764   6.373   0.776
 5263SOL    HW216689   0.828   6.283   0.896
 5264SOL     OW16690   0.652   2.083   0.937
 5264SOL    HW116691   0.672   2.178   0.963
 5264SOL    HW216692   0.737   2.031   0.936
 5265SOL     OW16693   5.800   5.013   2.854
 5265SOL    HW116694   5.738   4.997   2.931
 5265SOL    HW216695   5.892   4.980   2.878
 5266SOL     OW16696   1.220   6.569   1.443
 5266SOL    HW116697   1.282   6.585   1.520
 5266SOL    HW216698   1.198   6.656   1.399
 5267SOL     OW16699   5.083   4.066   4.988
 5267SOL    HW116700   5.040   4.149   5.022
 5267SOL    HW216701   5.019   3.990   4.994
 5268SOL     OW16702   5.788   5.011   5.474
 5268SOL    HW116703   5.788   4.916   5.503
 5268SOL    HW216704   5.826   5.069   5.547
 5269SOL     OW16705   1.100   4.453   5.307
 5269SOL    HW116706   1.034   4.475   5.379
 5269SOL    HW216707   1.184   4.505   5.322
 5270SOL     OW16708   6.678   3.212   2.956
 5270SOL    HW116709   6.685   3.218   3.055
 5270SOL    HW216710   6.638   3.124   2.931
 5271SOL     OW16711   5.018   4.314   5.093
 5271SOL    HW116712   4.956   4.391   5.108
 5271SOL    HW216713   5.038   4.270   5.181
 5272SOL     OW16714   1.964   1.285   4.293
 5272SOL    HW116715   1.888   1.313   4.353
 5272SOL    HW216716   1.991   1.192   4.315
 5273SOL     OW16717   0.877   0.494   4.927
 5273SOL    HW116718   0.937   0.493   5.007
 5273SOL    HW216719   0.920   0.442   4.853
 5274SOL     OW16720   6.831   5.494   4.747
 5274SOL    HW116721   6.919   5.452   4.771
 5274SOL    HW216722   6.832   5.590   4.776
 5275SOL     OW16723   2.052   6.400   6.570
 5275SOL    HW116724   2.100   6.316   6.594
 5275SOL    HW216725   2.039   6.404   6.471
 5276SOL     OW16726   0.359   0.327   1.181
 5276SOL    HW116727   0.266   0.356   1.204
 5276SOL    HW216728   0.424   0.397   1.212
 5277SOL     OW16729   1.303   1.679   2.637
 5277SOL    HW116730   1.268   1.667   2.544
 5277SOL    HW216731   1.234   1.724   2.693
 5278SOL     OW16732   0.490   3.812   6.524
 5278SOL    HW116733   0.509   3.731   6.579
 5278SOL    HW216734   0.396   3.842   6.541
 5279SOL     OW16735   2.421   6.687   6.183
 5279SOL    HW116736   2.371   6.731   6.258
 5279SOL    HW216737   2.503   6.643   6.219
 5280SOL     OW16738   4.806   6.594   5.124
 5280SOL    HW116739   4.814   6.633   5.033
 5280SOL    HW216740   4.750   6.510   5.120
 5281SOL     OW16741   2.742   6.953   5.109
 5281SOL    HW116742   2.832   6.958   5.153
 5281SOL    HW216743   2.753   6.918   5.016
 5282SOL     OW16744   0.845   6.571   1.681
 5282SOL    HW116745   0.854   6.480   1.641
 5282SOL    HW216746   0.750   6.587   1.708
 5283SOL     OW16747   1.187   0.842   3.879
 5283SOL    HW116748   1.223   0.831   3.972
 5283SOL    HW216749   1.143   0.757   3.851
 5284SOL     OW16750   4.603   2.795   1.720
 5284SOL    HW116751   4.577   2.863   1.788
 5284SOL    HW216752   4.609   2.705   1.763
 5285SOL     OW16753   1.414   2.073   4.244
 5285SOL    HW116754   1.450   1.980   4.250
 5285SOL    HW216755   1.482   2.133   4.202
 5286SOL     OW16756   5.837   3.316   1.269
 5286SOL    HW116757   5.775   3.394   1.275
 5286SOL    HW216758   5.924   3.340   1.312
 5287SOL     OW16759   2.201   4.862   1.078
 5287SOL    HW116760   2.222   4.775   1.123
 5287SOL    HW216761   2.285   4.898   1.036
 5288SOL     OW16762   4.107   0.771   1.211
 5288SOL    HW116763   4.051   0.791   1.292
 5288SOL    HW216764   4.047   0.744   1.136
 5289SOL     OW16765   2.421   4.902   5.871
 5289SOL    HW116766   2.329   4.871   5.845
 5289SOL    HW216767   2.480   4.823   5.886
 5290SOL     OW16768   1.853   3.161   4.548
 5290SOL    HW116769   1.840   3.102   4.628
 5290SOL    HW216770   1.874   3.254   4.578
 5291SOL     OW16771   2.780   4.752   4.392
 5291SOL    HW116772   2.850   4.777   4.459
 5291SOL    HW216773   2.699   4.717   4.440
 5292SOL     OW16774   0.247   3.517   5.397
 5292SOL    HW116775   0.284   3.610   5.393
 5292SOL    HW216776   0.225   3.485   5.305
 5293SOL     OW16777   2.356   0.424   4.208
 5293SOL    HW116778   2.422   0.406   4.281
 5293SOL    HW216779   2.286   0.352   4.207
 5294SOL     OW16780   3.951   0.067   5.211
 5294SOL    HW116781   4.031   0.078   5.152
 5294SOL    HW216782   3.887   0.142   5.196
 5295SOL     OW16783   2.988   1.319   2.353
 5295SOL    HW116784   3.074   1.356   2.388
 5295SOL    HW216785   2.911   1.362   2.401
 5296SOL     OW16786   4.684   4.831   1.361
 5296SOL    HW116787   4.739   4.749   1.351
 5296SOL    HW216788   4.742   4.906   1.392
 5297SOL     OW16789   2.954   5.330   6.617
 5297SOL    HW116790   2.963   5.246   6.564
 5297SOL    HW216791   2.910   5.309   6.704
 5298SOL     OW16792   2.029   0.412   0.555
 5298SOL    HW116793   2.084   0.484   0.597
 5298SOL    HW216794   1.932   0.432   0.572
 5299SOL     OW16795   2.378   1.231   1.519
 5299SOL    HW116796   2.291   1.182   1.521
 5299SOL    HW216797   2.389   1.283   1.604
 5300SOL     OW16798   2.832   4.850   6.849
 5300SOL    HW116799   2.745   4.855   6.801
 5300SOL    HW216800   2.899   4.909   6.805
 5301SOL     OW16801   5.247   6.883   5.661
 5301SOL    HW116802   5.163   6.931   5.686
 5301SOL    HW216803   5.282   6.921   5.575
 5302SOL     OW16804   5.484   6.207   3.433
 5302SOL    HW116805   5.522   6.158   3.512
 5302SOL    HW216806   5.546   6.199   3.355
 5303SOL     OW16807   0.925   5.419   6.203
 5303SOL    HW116808   0.970   5.394   6.117
 5303SOL    HW216809   0.970   5.500   6.241
 5304SOL     OW16810   0.185   0.803   2.363
 5304SOL    HW116811   0.123   0.873   2.328
 5304SOL    HW216812   0.132   0.722   2.389
 5305SOL     OW16813   0.472   4.891   3.536
 5305SOL    HW116814   0.567   4.905   3.560
 5305SOL    HW216815   0.427   4.980   3.522
 5306SOL     OW16816   6.935   3.335   5.821
 5306SOL    HW116817   6.837   3.357   5.824
 5306SOL    HW216818   6.953   3.274   5.744
 5307SOL     OW16819   6.630   1.334   1.583
 5307SOL    HW116820   6.599   1.260   1.642
 5307SOL    HW216821   6.653   1.298   1.493
 5308SOL     OW16822   1.515   4.086   3.114
 5308SOL    HW116823   1.554   4.170   3.152
 5308SOL    HW216824   1.569   4.007   3.142
 5309SOL     OW16825   6.150   5.565   2.637
 5309SOL    HW116826   6.229   5.524   2.683
 5309SOL    HW216827   6.111   5.636   2.695
 5310SOL     OW16828   5.157   2.803   2.639
 5310SOL    HW116829   5.100   2.744   2.582
 5310SOL    HW216830   5.175   2.758   2.727
 5311SOL     OW16831   5.890   0.155   0.734
 5311SOL    HW116832   5.832   0.177   0.813
 5311SOL    HW216833   5.980   0.125   0.767
 5312SOL     OW16834   6.960   6.743   0.366
 5312SOL    HW116835   7.017   6.812   0.320
 5312SOL    HW216836   6.972   6.751   0.465
 5313SOL     OW16837   1.096   5.969   5.859
 5313SOL    HW116838   0.999   5.995   5.867
 5313SOL    HW216839   1.113   5.929   5.769
 5314SOL     OW16840   6.086   0.749   2.019
 5314SOL    HW116841   6.110   0.774   2.113
 5314SOL    HW216842   6.105   0.652   2.004
 5315SOL     OW16843   4.490   1.362   4.474
 5315SOL    HW116844   4.513   1.360   4.377
 5315SOL    HW216845   4.455   1.453   4.498
 5316SOL     OW16846   0.695   2.363   4.499
 5316SOL    HW116847   0.600   2.340   4.480
 5316SOL    HW216848   0.733   2.414   4.421
 5317SOL     OW16849   5.827   2.468   6.643
 5317SOL    HW116850   5.736   2.453   6.684
 5317SOL    HW216851   5.880   2.529   6.702
 5318SOL     OW16852   6.976   3.917   6.511
 5318SOL    HW116853   6.909   3.875   6.449
 5318SOL    HW216854   6.928   3.971   6.580
 5319SOL     OW16855   4.279   6.822   1.699
 5319SOL    HW116856   4.238   6.812   1.609
 5319SOL    HW216857   4.284   6.919   1.722
 5320SOL     OW16858   3.420   5.953   0.960
 5320SOL    HW116859   3.478   5.871   0.960
 5320SOL    HW216860   3.368   5.958   1.045
 5321SOL     OW16861   1.632   4.341   4.727
 5321SOL    HW116862   1.612   4.246   4.705
 5321SOL    HW216863   1.731   4.355   4.729
 5322SOL     OW16864   5.243   6.568   1.982
 5322SOL    HW116865   5.293   6.504   1.924
 5322SOL    HW216866   5.307   6.627   2.031
 5323SOL     OW16867   3.849   1.040   6.021
 5323SOL    HW116868   3.817   0.999   6.106
 5323SOL    HW216869   3.938   1.001   5.996
 5324SOL     OW16870   2.137   1.339   1.053
 5324SOL    HW116871   2.184   1.263   1.009
 5324SOL    HW216872   2.170   1.425   1.014
 5325SOL     OW16873   2.074   1.952   4.856
 5325SOL    HW116874   2.015   2.017   4.905
 5325SOL    HW216875   2.164   1.950   4.900
 5326SOL     OW16876   6.303   5.947   2.068
 5326SOL    HW116877   6.355   5.980   1.989
 5326SOL    HW216878   6.293   6.022   2.134
 5327SOL     OW16879   6.127   2.287   5.155
 5327SOL    HW116880   6.084   2.307   5.243
 5327SOL    HW216881   6.177   2.368   5.123
 5328SOL     OW16882   4.483   5.100   6.631
 5328SOL    HW116883   4.459   5.167   6.561
 5328SOL    HW216884   4.561   5.132   6.683
 5329SOL     OW16885   1.134   6.506   6.636
 5329SOL    HW116886   1.166   6.598   6.613
 5329SOL    HW216887   1.095   6.462   6.555
 5330SOL     OW16888   2.472   4.201   0.649
 5330SOL    HW116889   2.529   4.185   0.568
 5330SOL    HW216890   2.462   4.116   0.700
 5331SOL     OW16891   6.153   0.927   6.861
 5331SOL    HW116892   6.151   1.026   6.856
 5331SOL    HW216893   6.244   0.893   6.840
 5332SOL     OW16894   1.167   4.931   2.217
 5332SOL    HW116895   1.152   4.913   2.120
 5332SOL    HW216896   1.234   4.867   2.254
 5333SOL     OW16897   0.728   6.169   4.132
 5333SOL    HW116898   0.717   6.255   4.083
 5333SOL    HW216899   0.720   6.093   4.069
 5334SOL     OW16900   2.885   0.382   4.248
 5334SOL    HW116901   2.979   0.353   4.232
 5334SOL    HW216902   2.866   0.383   4.347
 5335SOL     OW16903   6.738   5.773   0.157
 5335SOL    HW116904   6.669   5.788   0.086
 5335SOL    HW216905   6.765   5.860   0.197
 5336SOL     OW16906   1.119   3.860   1.693
 5336SOL    HW116907   1.195   3.808   1.654
 5336SOL    HW216908   1.136   3.958   1.683
 5337SOL     OW16909   5.274   4.343   1.153
 5337SOL    HW116910   5.275   4.442   1.162
 5337SOL    HW216911   5.183   4.309   1.176
 5338SOL     OW16912   6.381   2.060   6.798
 5338SOL    HW116913   6.456   2.033   6.858
 5338SOL    HW216914   6.376   1.998   6.720
 5339SOL     OW16915   6.507   1.278   3.382
 5339SOL    HW116916   6.458   1.352   3.336
 5339SOL    HW216917   6.599   1.269   3.343
 5340SOL     OW16918   5.423   2.160   6.241
 5340SOL    HW116919   5.486   2.199   6.173
 5340SOL    HW216920   5.464   2.078   6.280
 5341SOL     OW16921   4.157   0.388   0.385
 5341SOL    HW116922   4.182   0.467   0.441
 5341SOL    HW216923   4.186   0.304   0.429
 5342SOL     OW16924   3.347   0.996   5.506
 5342SOL    HW116925   3.278   1.041   5.450
 5342SOL    HW216926   3.304   0.926   5.563
 5343SOL     OW16927   3.651   3.699   2.257
 5343SOL    HW116928   3.732   3.756   2.269
 5343SOL    HW216929   3.569   3.754   2.274
 5344SOL     OW16930   2.591   2.069   3.047
 5344SOL    HW116931   2.498   2.063   3.010
 5344SOL    HW216932   2.652   2.108   2.978
 5345SOL     OW16933   4.695   6.478   1.778
 5345SOL    HW116934   4.617   6.442   1.728
 5345SOL    HW216935   4.710   6.574   1.754
 5346SOL     OW16936   2.616   6.400   3.159
 5346SOL    HW116937   2.604   6.420   3.256
 5346SOL    HW216938   2.601   6.302   3.143
 5347SOL     OW16939   6.957   1.881   1.817
 5347SOL    HW116940   0.028   1.844   1.820
 5347SOL    HW216941   6.900   1.837   1.887
 5348SOL     OW16942   0.362   1.117   0.486
 5348SOL    HW116943   0.387   1.175   0.564
 5348SOL    HW216944   0.434   1.121   0.417
 5349SOL     OW16945   6.227   0.683   1.696
 5349SOL    HW116946   6.300   0.622   1.726
 5349SOL    HW216947   6.256   0.778   1.707
 5350SOL     OW16948   2.540   1.612   6.621
 5350SOL    HW116949   2.581   1.703   6.616
 5350SOL    HW216950   2.451   1.613   6.576
 5351SOL     OW16951   4.785   0.357   2.060
 5351SOL    HW116952   4.710   0.374   1.996
 5351SOL    HW216953   4.749   0.320   2.145
 5352SOL     OW16954   3.317   5.898   3.594
 5352SOL    HW116955   3.256   5.933   3.665
 5352SOL    HW216956   3.349   5.807   3.620
 5353SOL     OW16957   5.918   6.534   5.462
 5353SOL    HW116958   6.010   6.548   5.496
 5353SOL    HW216959   5.874   6.460   5.513
 5354SOL     OW16960   0.712   3.723   0.902
 5354SOL    HW116961   0.673   3.813   0.882
 5354SOL    HW216962   0.685   3.695   0.994
 5355SOL     OW16963   4.335   2.017   5.083
 5355SOL    HW116964   4.340   1.941   5.149
 5355SOL    HW216965   4.363   2.102   5.128
 5356SOL     OW16966   6.262   3.695   1.210
 5356SOL    HW116967   6.263   3.730   1.117
 5356SOL    HW216968   6.176   3.645   1.226
 5357SOL     OW16969   3.690   6.514   0.518
 5357SOL    HW116970   3.599   6.522   0.475
 5357SOL    HW216971   3.760   6.509   0.446
 5358SOL     OW16972   4.724   2.923   0.918
 5358SOL    HW116973   4.658   2.985   0.961
 5358SOL    HW216974   4.803   2.914   0.978
 5359SOL     OW16975   1.953   0.615   6.747
 5359SOL    HW116976   1.961   0.537   6.809
 5359SOL    HW216977   1.982   0.698   6.793
 5360SOL     OW16978   3.497   0.250   6.600
 5360SOL    HW116979   3.497   0.319   6.672
 5360SOL    HW216980   3.421   0.267   6.537
 5361SOL     OW16981   1.684   0.522   5.515
 5361SOL    HW116982   1.613   0.562   5.458
 5361SOL    HW216983   1.680   0.561   5.607
 5362SOL     OW16984   4.512   5.724   3.152
 5362SOL    HW116985   4.533   5.642   3.205
 5362SOL    HW216986   4.432   5.769   3.190
 5363SOL     OW16987   0.470   5.459   6.084
 5363SOL    HW116988   0.529   5.386   6.121
 5363SOL    HW216989   0.485   5.543   6.136
 5364SOL     OW16990   0.515   6.204   0.564
 5364SOL    HW116991   0.604   6.188   0.522
 5364SOL    HW216992   0.523   6.277   0.632
 5365SOL     OW16993   4.227   2.114   6.307
 5365SOL    HW116994   4.204   2.170   6.387
 5365SOL    HW216995   4.278   2.169   6.241
 5366SOL     OW16996   3.929   3.385   0.191
 5366SOL    HW116997   3.994   3.364   0.119
 5366SOL    HW216998   3.958   3.467   0.241
 5367SOL     OW16999   0.159   4.448   1.017
 5367SOL    HW117000   0.222   4.441   1.094
 5367SOL    HW217001   0.065   4.438   1.049
 5368SOL     OW17002   6.379   1.574   3.967
 5368SOL    HW117003   6.354   1.657   4.016
 5368SOL    HW217004   6.342   1.578   3.874
 5369SOL     OW17005   1.885   3.980   2.590
 5369SOL    HW117006   1.856   3.885   2.581
 5369SOL    HW217007   1.984   3.986   2.578
 5370SOL     OW17008   4.129   2.978   1.441
 5370SOL    HW117009   4.106   2.960   1.537
 5370SOL    HW217010   4.206   3.042   1.437
 5371SOL     OW17011   0.955   3.846   5.400
 5371SOL    HW117012   0.871   3.803   5.367
 5371SOL    HW217013   1.027   3.834   5.331
 5372SOL     OW17014   2.332   5.178   2.977
 5372SOL    HW117015   2.270   5.192   3.055
 5372SOL    HW217016   2.388   5.097   2.993
 5373SOL     OW17017   3.019   5.142   3.365
 5373SOL    HW117018   2.934   5.170   3.321
 5373SOL    HW217019   3.012   5.157   3.464
 5374SOL     OW17020   3.086   2.180   0.697
 5374SOL    HW117021   3.012   2.224   0.747
 5374SOL    HW217022   3.112   2.095   0.743
 5375SOL     OW17023   1.966   4.902   3.683
 5375SOL    HW117024   1.944   4.932   3.590
 5375SOL    HW217025   1.906   4.826   3.708
 5376SOL     OW17026   2.020   3.928   0.833
 5376SOL    HW117027   1.924   3.909   0.852
 5376SOL    HW217028   2.046   3.887   0.745
 5377SOL     OW17029   0.713   1.916   1.346
 5377SOL    HW117030   0.767   1.986   1.300
 5377SOL    HW217031   0.670   1.956   1.428
 5378SOL     OW17032   5.152   0.303   0.401
 5378SOL    HW117033   5.055   0.319   0.423
 5378SOL    HW217034   5.204   0.295   0.486
 5379SOL     OW17035   0.121   6.496   1.700
 5379SOL    HW117036   0.073   6.480   1.787
 5379SOL    HW217037   0.207   6.445   1.700
 5380SOL     OW17038   3.129   0.229   4.132
 5380SOL    HW117039   3.190   0.307   4.118
 5380SOL    HW217040   3.105   0.189   4.043
 5381SOL     OW17041   5.648   4.202   1.585
 5381SOL    HW117042   5.713   4.152   1.527
 5381SOL    HW217043   5.564   4.218   1.533
 5382SOL     OW17044   1.734   0.016   1.558
 5382SOL    HW117045   1.795   7.008   1.631
 5382SOL    HW217046   1.775   0.092   1.508
 5383SOL     OW17047   2.355   2.134   5.320
 5383SOL    HW117048   2.375   2.060   5.384
 5383SOL    HW217049   2.352   2.221   5.369
 5384SOL     OW17050   5.840   6.565   4.406
 5384SOL    HW117051   5.797   6.518   4.483
 5384SOL    HW217052   5.939   6.571   4.423
 5385SOL     OW17053   3.536   4.096   2.093
 5385SOL    HW117054   3.468   4.038   2.049
 5385SOL    HW217055   3.526   4.089   2.193
 5386SOL     OW17056   5.185   6.509   5.474
 5386SOL    HW117057   5.285   6.517   5.472
 5386SOL    HW217058   5.147   6.563   5.399
 5387SOL     OW17059   2.688   5.712   1.727
 5387SOL    HW117060   2.668   5.673   1.817
 5387SOL    HW217061   2.744   5.794   1.738
 5388SOL     OW17062   5.638   0.412   2.751
 5388SOL    HW117063   5.672   0.332   2.801
 5388SOL    HW217064   5.538   0.415   2.758
 5389SOL     OW17065   4.927   2.073   1.397
 5389SOL    HW117066   5.016   2.079   1.351
 5389SOL    HW217067   4.854   2.073   1.329
 5390SOL     OW17068   5.963   4.928   5.981
 5390SOL    HW117069   5.980   4.997   5.910
 5390SOL    HW217070   5.969   4.837   5.941
 5391SOL     OW17071   2.549   3.071   6.910
 5391SOL    HW117072   2.566   3.166   6.937
 5391SOL    HW217073   2.505   3.022   6.985
 5392SOL     OW17074   6.218   2.941   2.345
 5392SOL    HW117075   6.247   3.028   2.306
 5392SOL    HW217076   6.292   2.873   2.334
 5393SOL     OW17077   6.353   0.080   6.879
 5393SOL    HW117078   6.365   7.004   6.861
 5393SOL    HW217079   6.432   0.131   6.846
 5394SOL     OW17080   0.980   4.153   6.194
 5394SOL    HW117081   0.968   4.236   6.247
 5394SOL    HW217082   0.913   4.084   6.222
 5395SOL     OW17083   4.307   1.569   0.230
 5395SOL    HW117084   4.298   1.648   0.290
 5395SOL    HW217085   4.399   1.566   0.192
 5396SOL     OW17086   5.182   3.185   2.709
 5396SOL    HW117087   5.097   3.236   2.695
 5396SOL    HW217088   5.180   3.140   2.798
 5397SOL     OW17089   0.082   3.140   1.285
 5397SOL    HW117090   0.131   3.214   1.332
 5397SOL    HW217091   7.012   3.130   1.324
 5398SOL     OW17092   3.747   2.838   1.904
 5398SOL    HW117093   3.757   2.899   1.825
 5398SOL    HW217094   3.827   2.846   1.963
 5399SOL     OW17095   1.173   5.651   0.699
 5399SOL    HW117096   1.200   5.586   0.770
 5399SOL    HW217097   1.134   5.602   0.622
 5400SOL     OW17098   2.835   4.650   0.146
 5400SOL    HW117099   2.762   4.649   0.214
 5400SOL    HW217100   2.861   4.555   0.125
 5401SOL     OW17101   6.179   3.011   1.392
 5401SOL    HW117102   6.259   3.069   1.376
 5401SOL    HW217103   6.207   2.929   1.441
 5402SOL     OW17104   1.656   6.155   2.548
 5402SOL    HW117105   1.711   6.239   2.543
 5402SOL    HW217106   1.585   6.166   2.618
 5403SOL     OW17107   0.149   2.886   6.371
 5403SOL    HW117108   0.226   2.836   6.412
 5403SOL    HW217109   0.173   2.983   6.364
 5404SOL     OW17110   1.661   3.242   2.890
 5404SOL    HW117111   1.735   3.292   2.934
 5404SOL    HW217112   1.604   3.199   2.960
 5405SOL     OW17113   6.847   4.635   6.028
 5405SOL    HW117114   6.868   4.540   6.054
 5405SOL    HW217115   6.826   4.688   6.111
 5406SOL     OW17116   2.042   0.203   5.019
 5406SOL    HW117117   2.105   0.280   5.004
 5406SOL    HW217118   2.087   0.118   4.991
 5407SOL     OW17119   3.839   3.679   6.841
 5407SOL    HW117120   3.760   3.740   6.853
 5407SOL    HW217121   3.830   3.601   6.904
 5408SOL     OW17122   2.870   1.106   6.823
 5408SOL    HW117123   2.869   1.194   6.871
 5408SOL    HW217124   2.947   1.051   6.855
 5409SOL     OW17125   3.697   0.958   2.486
 5409SOL    HW117126   3.713   0.888   2.555
 5409SOL    HW217127   3.751   0.938   2.405
 5410SOL     OW17128   2.168   2.339   2.225
 5410SOL    HW117129   2.197   2.435   2.221
 5410SOL    HW217130   2.249   2.280   2.234
 5411SOL     OW17131   0.759   5.460   4.846
 5411SOL    HW117132   0.842   5.484   4.896
 5411SOL    HW217133   0.715   5.382   4.891
 5412SOL     OW17134   5.760   2.875   1.148
 5412SOL    HW117135   5.692   2.809   1.114
 5412SOL    HW217136   5.823   2.828   1.210
 5413SOL     OW17137   2.160   0.097   1.829
 5413SOL    HW117138   2.237   0.132   1.883
 5413SOL    HW217139   2.195   0.058   1.743
 5414SOL     OW17140   3.908   0.636   5.554
 5414SOL    HW117141   3.855   0.694   5.616
 5414SOL    HW217142   3.857   0.623   5.469
 5415SOL     OW17143   5.902   5.100   2.292
 5415SOL    HW117144   5.995   5.131   2.312
 5415SOL    HW217145   5.902   5.000   2.282
 5416SOL     OW17146   4.227   5.631   4.699
 5416SOL    HW117147   4.148   5.688   4.674
 5416SOL    HW217148   4.228   5.549   4.643
 5417SOL     OW17149   3.077   6.971   4.878
 5417SOL    HW117150   3.128   6.886   4.891
 5417SOL    HW217151   3.138   0.022   4.848
 5418SOL     OW17152   3.970   0.287   2.920
 5418SOL    HW117153   3.951   0.243   3.008
 5418SOL    HW217154   3.898   0.265   2.855
 5419SOL     OW17155   3.277   4.286   6.785
 5419SOL    HW117156   3.286   4.307   6.688
 5419SOL    HW217157   3.188   4.245   6.802
 5420SOL     OW17158   1.039   1.382   2.937
 5420SOL    HW117159   1.095   1.448   2.886
 5420SOL    HW217160   1.057   1.290   2.904
 5421SOL     OW17161   1.426   3.578   1.780
 5421SOL    HW117162   1.352   3.599   1.716
 5421SOL    HW217163   1.514   3.604   1.739
 5422SOL     OW17164   2.298   3.437   0.992
 5422SOL    HW117165   2.289   3.368   1.064
 5422SOL    HW217166   2.363   3.507   1.021
 5423SOL     OW17167   6.330   4.124   6.609
 5423SOL    HW117168   6.393   4.138   6.685
 5423SOL    HW217169   6.267   4.049   6.631
 5424SOL     OW17170   5.313   4.164   5.088
 5424SOL    HW117171   5.356   4.084   5.131
 5424SOL    HW217172   5.230   4.136   5.041
 5425SOL     OW17173   5.279   0.495   4.439
 5425SOL    HW117174   5.342   0.511   4.363
 5425SOL    HW217175   5.265   0.396   4.451
 5426SOL     OW17176   6.302   0.334   5.432
 5426SOL    HW117177   6.335   0.292   5.347
 5426SOL    HW217178   6.206   0.312   5.444
 5427SOL     OW17179   4.107   6.102   6.969
 5427SOL    HW117180   4.056   6.144   0.024
 5427SOL    HW217181   4.171   6.035   7.005
 5428SOL     OW17182   1.073   0.429   6.873
 5428SOL    HW117183   1.071   0.343   6.924
 5428SOL    HW217184   1.160   0.437   6.825
 5429SOL     OW17185   1.385   2.503   6.855
 5429SOL    HW117186   1.340   2.534   6.771
 5429SOL    HW217187   1.421   2.581   6.905
 5430SOL     OW17188   2.381   2.677   5.585
 5430SOL    HW117189   2.477   2.660   5.606
 5430SOL    HW217190   2.375   2.750   5.517
 5431SOL     OW17191   3.734   6.159   4.765
 5431SOL    HW117192   3.781   6.222   4.827
 5431SOL    HW217193   3.712   6.207   4.680
 5432SOL     OW17194   5.555   6.514   1.115
 5432SOL    HW117195   5.525   6.523   1.020
 5432SOL    HW217196   5.481   6.475   1.170
 5433SOL     OW17197   0.339   1.734   4.255
 5433SOL    HW117198   0.304   1.673   4.326
 5433SOL    HW217199   0.435   1.714   4.238
 5434SOL     OW17200   2.593   6.907   5.868
 5434SOL    HW117201   2.510   6.851   5.871
 5434SOL    HW217202   2.663   6.865   5.925
 5435SOL     OW17203   4.566   0.951   1.872
 5435SOL    HW117204   4.638   0.885   1.853
 5435SOL    HW217205   4.502   0.952   1.795
 5436SOL     OW17206   5.423   4.204   2.508
 5436SOL    HW117207   5.344   4.243   2.461
 5436SOL    HW217208   5.463   4.273   2.568
 5437SOL     OW17209   3.106   3.469   6.775
 5437SOL    HW117210   3.129   3.389   6.720
 5437SOL    HW217211   3.020   3.453   6.823
 5438SOL     OW17212   6.577   2.097   1.303
 5438SOL    HW117213   6.486   2.120   1.266
 5438SOL    HW217214   6.609   2.011   1.263
 5439SOL     OW17215   1.699   2.281   1.301
 5439SOL    HW117216   1.747   2.219   1.238
 5439SOL    HW217217   1.676   2.233   1.385
 5440SOL     OW17218   1.415   2.149   1.062
 5440SOL    HW117219   1.446   2.069   1.114
 5440SOL    HW217220   1.436   2.135   0.965
 5441SOL     OW17221   3.660   1.740   3.826
 5441SOL    HW117222   3.647   1.667   3.758
 5441SOL    HW217223   3.611   1.717   3.909
 5442SOL     OW17224   4.008   0.733   2.486
 5442SOL    HW117225   4.094   0.749   2.535
 5442SOL    HW217226   4.024   0.667   2.412
 5443SOL     OW17227   3.429   6.764   5.220
 5443SOL    HW117228   3.382   6.739   5.136
 5443SOL    HW217229   3.519   6.801   5.198
 5444SOL     OW17230   6.760   6.985   3.442
 5444SOL    HW117231   6.802   0.018   3.369
 5444SOL    HW217232   6.826   6.917   3.474
 5445SOL     OW17233   5.519   3.706   2.353
 5445SOL    HW117234   5.585   3.778   2.335
 5445SOL    HW217235   5.559   3.637   2.414
 5446SOL     OW17236   6.561   5.233   5.889
 5446SOL    HW117237   6.486   5.295   5.866
 5446SOL    HW217238   6.625   5.279   5.951
 5447SOL     OW17239   3.365   1.898   0.758
 5447SOL    HW117240   3.423   1.833   0.710
 5447SOL    HW217241   3.394   1.991   0.737
 5448SOL     OW17242   5.465   2.321   5.674
 5448SOL    HW117243   5.537   2.251   5.675
 5448SOL    HW217244   5.487   2.390   5.606
 5449SOL     OW17245   0.923   3.423   6.497
 5449SOL    HW117246   0.895   3.478   6.418
 5449SOL    HW217247   0.998   3.363   6.471
 5450SOL     OW17248   1.635   6.746   0.737
 5450SOL    HW117249   1.615   6.681   0.810
 5450SOL    HW217250   1.731   6.737   0.710
 5451SOL     OW17251   1.336   0.425   2.500
 5451SOL    HW117252   1.390   0.454   2.421
 5451SOL    HW217253   1.289   0.339   2.480
 5452SOL     OW17254   2.875   3.840   5.814
 5452SOL    HW117255   2.875   3.793   5.903
 5452SOL    HW217256   2.782   3.845   5.779
 5453SOL     OW17257   5.989   4.908   6.678
 5453SOL    HW117258   5.988   4.822   6.628
 5453SOL    HW217259   6.076   4.919   6.725
 5454SOL     OW17260   0.039   4.590   6.766
 5454SOL    HW117261   0.046   4.617   6.862
 5454SOL    HW217262   0.077   4.498   6.754
 5455SOL     OW17263   6.182   3.428   1.370
 5455SOL    HW117264   6.193   3.383   1.281
 5455SOL    HW217265   6.241   3.383   1.437
 5456SOL     OW17266   3.462   6.889   0.625
 5456SOL    HW117267   3.545   6.942   0.608
 5456SOL    HW217268   3.390   6.919   0.562
 5457SOL     OW17269   6.333   3.652   0.674
 5457SOL    HW117270   6.287   3.574   0.631
 5457SOL    HW217271   6.432   3.636   0.674
 5458SOL     OW17272   2.759   4.048   6.750
 5458SOL    HW117273   2.783   3.966   6.802
 5458SOL    HW217274   2.783   4.036   6.654
 5459SOL     OW17275   2.146   5.020   5.991
 5459SOL    HW117276   2.166   4.936   6.042
 5459SOL    HW217277   2.221   5.038   5.927
 5460SOL     OW17278   3.191   0.455   0.999
 5460SOL    HW117279   3.193   0.495   0.907
 5460SOL    HW217280   3.232   0.519   1.064
 5461SOL     OW17281   4.447   6.921   5.280
 5461SOL    HW117282   4.533   6.882   5.247
 5461SOL    HW217283   4.416   6.990   5.215
 5462SOL     OW17284   0.946   0.220   1.479
 5462SOL    HW117285   1.013   0.206   1.406
 5462SOL    HW217286   0.864   0.262   1.441
 5463SOL     OW17287   0.022   2.873   0.586
 5463SOL    HW117288   0.037   2.839   0.494
 5463SOL    HW217289   0.049   2.970   0.591
 5464SOL     OW17290   2.098   0.033   4.097
 5464SOL    HW117291   2.070   0.044   4.002
 5464SOL    HW217292   2.181   6.998   4.101
 5465SOL     OW17293   2.798   6.710   5.448
 5465SOL    HW117294   2.836   6.636   5.504
 5465SOL    HW217295   2.715   6.745   5.491
 5466SOL     OW17296   4.621   4.548   4.539
 5466SOL    HW117297   4.555   4.515   4.606
 5466SOL    HW217298   4.621   4.487   4.459
 5467SOL     OW17299   5.969   1.826   2.139
 5467SOL    HW117300   5.919   1.761   2.083
 5467SOL    HW217301   6.044   1.866   2.085
 5468SOL     OW17302   4.303   1.478   5.538
 5468SOL    HW117303   4.205   1.461   5.540
 5468SOL    HW217304   4.322   1.557   5.480
 5469SOL     OW17305   4.288   4.551   6.364
 5469SOL    HW117306   4.362   4.505   6.314
 5469SOL    HW217307   4.217   4.578   6.299
 5470SOL     OW17308   1.205   5.326   3.520
 5470SOL    HW117309   1.125   5.329   3.580
 5470SOL    HW217310   1.270   5.397   3.547
 5471SOL     OW17311   5.872   5.510   2.345
 5471SOL    HW117312   5.868   5.465   2.256
 5471SOL    HW217313   5.941   5.465   2.402
 5472SOL     OW17314   3.859   4.887   5.452
 5472SOL    HW117315   3.928   4.903   5.523
 5472SOL    HW217316   3.770   4.872   5.495
 5473SOL     OW17317   1.465   3.196   3.654
 5473SOL    HW117318   1.509   3.153   3.733
 5473SOL    HW217319   1.517   3.175   3.571
 5474SOL     OW17320   2.013   5.675   3.803
 5474SOL    HW117321   2.110   5.654   3.817
 5474SOL    HW217322   1.989   5.659   3.707
 5475SOL     OW17323   3.184   2.439   1.461
 5475SOL    HW117324   3.160   2.463   1.556
 5475SOL    HW217325   3.283   2.440   1.450
 5476SOL     OW17326   1.127   3.171   5.515
 5476SOL    HW117327   1.078   3.166   5.602
 5476SOL    HW217328   1.188   3.093   5.507
 5477SOL     OW17329   2.146   3.206   2.630
 5477SOL    HW117330   2.070   3.229   2.570
 5477SOL    HW217331   2.186   3.119   2.601
 5478SOL     OW17332   6.617   6.018   6.089
 5478SOL    HW117333   6.626   5.918   6.081
 5478SOL    HW217334   6.664   6.061   6.012
 5479SOL     OW17335   4.865   0.566   4.707
 5479SOL    HW117336   4.838   0.509   4.784
 5479SOL    HW217337   4.847   0.662   4.728
 5480SOL     OW17338   0.274   3.587   4.604
 5480SOL    HW117339   0.288   3.684   4.589
 5480SOL    HW217340   0.362   3.544   4.627
 5481SOL     OW17341   4.909   6.617   4.388
 5481SOL    HW117342   4.897   6.519   4.368
 5481SOL    HW217343   4.823   6.665   4.370
 5482SOL     OW17344   1.617   4.579   1.559
 5482SOL    HW117345   1.664   4.564   1.646
 5482SOL    HW217346   1.624   4.497   1.503
 5483SOL     OW17347   0.342   2.904   5.936
 5483SOL    HW117348   0.346   2.982   5.874
 5483SOL    HW217349   0.263   2.913   5.996
 5484SOL     OW17350   4.510   0.270   5.108
 5484SOL    HW117351   4.583   0.334   5.135
 5484SOL    HW217352   4.460   0.242   5.190
 5485SOL     OW17353   3.351   0.275   4.600
 5485SOL    HW117354   3.450   0.276   4.593
 5485SOL    HW217355   3.320   0.186   4.634
 5486SOL     OW17356   2.559   5.868   5.188
 5486SOL    HW117357   2.652   5.832   5.186
 5486SOL    HW217358   2.495   5.793   5.205
 5487SOL     OW17359   3.063   5.296   5.589
 5487SOL    HW117360   3.153   5.312   5.630
 5487SOL    HW217361   3.036   5.201   5.605
 5488SOL     OW17362   5.555   2.575   0.704
 5488SOL    HW117363   5.649   2.542   0.704
 5488SOL    HW217364   5.501   2.521   0.639
 5489SOL     OW17365   6.605   3.840   3.137
 5489SOL    HW117366   6.540   3.764   3.147
 5489SOL    HW217367   6.681   3.827   3.200
 5490SOL     OW17368   1.656   6.202   3.029
 5490SOL    HW117369   1.717   6.158   2.963
 5490SOL    HW217370   1.570   6.152   3.035
 5491SOL     OW17371   6.675   4.244   0.737
 5491SOL    HW117372   6.753   4.260   0.797
 5491SOL    HW217373   6.703   4.256   0.642
 5492SOL     OW17374   6.821   2.048   6.066
 5492SOL    HW117375   6.852   1.957   6.040
 5492SOL    HW217376   6.841   2.065   6.162
 5493SOL     OW17377   3.895   3.938   1.030
 5493SOL    HW117378   3.972   3.875   1.020
 5493SOL    HW217379   3.821   3.892   1.079
 5494SOL     OW17380   6.243   3.864   5.570
 5494SOL    HW117381   6.241   3.880   5.669
 5494SOL    HW217382   6.333   3.890   5.535
 5495SOL     OW17383   5.840   6.972   0.516
 5495SOL    HW117384   5.891   6.908   0.573
 5495SOL    HW217385   5.898   0.030   0.495
 5496SOL     OW17386   4.126   0.137   4.151
 5496SOL    HW117387   4.190   0.079   4.099
 5496SOL    HW217388   4.033   0.120   4.120
 5497SOL     OW17389   1.073   0.562   5.597
 5497SOL    HW117390   1.040   0.547   5.504
 5497SOL    HW217391   1.012   0.518   5.662
 5498SOL     OW17392   0.680   5.502   1.086
 5498SOL    HW117393   0.614   5.517   1.012
 5498SOL    HW217394   0.771   5.525   1.054
 5499SOL     OW17395   1.876   0.235   4.528
 5499SOL    HW117396   1.919   0.297   4.593
 5499SOL    HW217397   1.899   0.140   4.551
 5500SOL     OW17398   2.317   0.265   0.700
 5500SOL    HW117399   2.274   0.320   0.772
 5500SOL    HW217400   2.346   0.177   0.738
 5501SOL     OW17401   3.458   3.834   6.989
 5501SOL    HW117402   3.376   3.777   6.997
 5501SOL    HW217403   3.487   3.837   6.894
 5502SOL     OW17404   4.541   2.862   0.117
 5502SOL    HW117405   4.471   2.862   0.188
 5502SOL    HW217406   4.631   2.876   0.158
 5503SOL     OW17407   6.358   3.730   0.941
 5503SOL    HW117408   6.405   3.649   0.977
 5503SOL    HW217409   6.338   3.716   0.844
 5504SOL     OW17410   3.914   1.902   6.965
 5504SOL    HW117411   3.908   1.812   6.922
 5504SOL    HW217412   3.825   1.927   7.003
 5505SOL     OW17413   3.139   4.872   3.616
 5505SOL    HW117414   3.042   4.854   3.629
 5505SOL    HW217415   3.189   4.852   3.701
 5506SOL     OW17416   0.096   3.209   5.622
 5506SOL    HW117417   0.163   3.161   5.679
 5506SOL    HW217418   0.117   3.307   5.620
 5507SOL     OW17419   3.139   0.027   6.956
 5507SOL    HW117420   3.076   0.039   6.879
 5507SOL    HW217421   3.203   0.104   6.959
 5508SOL     OW17422   6.670   1.069   6.295
 5508SOL    HW117423   6.728   0.989   6.312
 5508SOL    HW217424   6.606   1.049   6.221
 5509SOL     OW17425   6.474   4.981   0.450
 5509SOL    HW117426   6.436   5.033   0.374
 5509SOL    HW217427   6.402   4.922   0.488
 5510SOL     OW17428   4.770   4.981   6.947
 5510SOL    HW117429   4.688   4.971   7.004
 5510SOL    HW217430   4.840   4.917   6.980
 5511SOL     OW17431   0.313   2.652   5.495
 5511SOL    HW117432   0.329   2.597   5.413
 5511SOL    HW217433   0.232   2.709   5.482
 5512SOL     OW17434   2.438   0.608   2.406
 5512SOL    HW117435   2.461   0.599   2.309
 5512SOL    HW217436   2.449   0.704   2.434
 5513SOL     OW17437   3.772   3.852   0.266
 5513SOL    HW117438   3.863   3.891   0.282
 5513SOL    HW217439   3.731   3.894   0.185
 5514SOL     OW17440   3.186   1.097   0.393
 5514SOL    HW117441   3.147   1.060   0.477
 5514SOL    HW217442   3.114   1.139   0.338
 5515SOL     OW17443   2.655   5.411   2.592
 5515SOL    HW117444   2.713   5.378   2.666
 5515SOL    HW217445   2.712   5.450   2.520
 5516SOL     OW17446   1.629   2.140   5.369
 5516SOL    HW117447   1.689   2.079   5.317
 5516SOL    HW217448   1.646   2.129   5.467
 5517SOL     OW17449   1.322   2.156   3.304
 5517SOL    HW117450   1.339   2.141   3.402
 5517SOL    HW217451   1.378   2.232   3.272
 5518SOL     OW17452   4.796   4.859   6.712
 5518SOL    HW117453   4.896   4.858   6.710
 5518SOL    HW217454   4.764   4.906   6.794
 5519SOL     OW17455   5.067   2.778   4.458
 5519SOL    HW117456   5.065   2.869   4.499
 5519SOL    HW217457   5.157   2.736   4.474
 5520SOL     OW17458   5.046   0.634   1.270
 5520SOL    HW117459   5.028   0.681   1.356
 5520SOL    HW217460   4.961   0.627   1.217
 5521SOL     OW17461   4.555   6.439   2.424
 5521SOL    HW117462   4.572   6.340   2.424
 5521SOL    HW217463   4.636   6.487   2.391
 5522SOL     OW17464   5.950   5.827   0.982
 5522SOL    HW117465   5.986   5.799   1.071
 5522SOL    HW217466   5.930   5.746   0.927
 5523SOL     OW17467   5.465   1.578   0.869
 5523SOL    HW117468   5.445   1.481   0.878
 5523SOL    HW217469   5.494   1.615   0.958
 5524SOL     OW17470   2.659   1.558   3.674
 5524SOL    HW117471   2.677   1.627   3.744
 5524SOL    HW217472   2.591   1.592   3.610
 5525SOL     OW17473   6.194   1.227   1.713
 5525SOL    HW117474   6.225   1.179   1.632
 5525SOL    HW217475   6.190   1.326   1.695
 5526SOL     OW17476   5.563   5.359   3.834
 5526SOL    HW117477   5.623   5.305   3.893
 5526SOL    HW217478   5.488   5.302   3.801
 5527SOL     OW17479   5.947   0.602   3.790
 5527SOL    HW117480   6.004   0.520   3.780
 5527SOL    HW217481   5.853   0.580   3.763
 5528SOL     OW17482   0.901   1.537   0.022
 5528SOL    HW117483   0.948   1.624   0.003
 5528SOL    HW217484   0.802   1.551   0.020
 5529SOL     OW17485   3.665   0.663   2.285
 5529SOL    HW117486   3.628   0.642   2.376
 5529SOL    HW217487   3.758   0.627   2.278
 5530SOL     OW17488   6.905   1.999   1.250
 5530SOL    HW117489   6.828   1.942   1.221
 5530SOL    HW217490   6.911   2.079   1.191
 5531SOL     OW17491   2.338   4.155   1.628
 5531SOL    HW117492   2.397   4.097   1.573
 5531SOL    HW217493   2.373   4.159   1.722
 5532SOL     OW17494   0.958   2.472   6.714
 5532SOL    HW117495   0.968   2.432   6.805
 5532SOL    HW217496   0.936   2.569   6.722
 5533SOL     OW17497   3.130   1.782   2.646
 5533SOL    HW117498   3.077   1.704   2.678
 5533SOL    HW217499   3.223   1.776   2.682
 5534SOL     OW17500   1.601   0.434   4.675
 5534SOL    HW117501   1.582   0.465   4.582
 5534SOL    HW217502   1.667   0.496   4.718
 5535SOL     OW17503   6.991   1.476   2.747
 5535SOL    HW117504   0.057   1.523   2.736
 5535SOL    HW217505   6.972   1.464   2.845
 5536SOL     OW17506   4.268   5.974   4.490
 5536SOL    HW117507   4.207   6.049   4.516
 5536SOL    HW217508   4.352   5.980   4.543
 5537SOL     OW17509   2.987   2.160   3.823
 5537SOL    HW117510   3.069   2.172   3.767
 5537SOL    HW217511   3.010   2.102   3.902
 5538SOL     OW17512   4.803   5.034   4.180
 5538SOL    HW117513   4.744   4.964   4.140
 5538SOL    HW217514   4.763   5.065   4.267
 5539SOL     OW17515   2.593   4.722   0.323
 5539SOL    HW117516   2.561   4.816   0.336
 5539SOL    HW217517   2.519   4.659   0.346
 5540SOL     OW17518   4.852   5.370   2.215
 5540SOL    HW117519   4.857   5.310   2.295
 5540SOL    HW217520   4.783   5.335   2.152
 5541SOL     OW17521   4.991   1.555   5.942
 5541SOL    HW117522   4.972   1.466   5.983
 5541SOL    HW217523   5.080   1.551   5.895
 5542SOL     OW17524   5.385   4.596   6.889
 5542SOL    HW117525   5.354   4.576   6.796
 5542SOL    HW217526   5.437   4.681   6.890
 5543SOL     OW17527   0.087   2.005   5.586
 5543SOL    HW117528   0.184   2.002   5.564
 5543SOL    HW217529   0.064   2.093   5.628
 5544SOL     OW17530   6.036   0.760   6.669
 5544SOL    HW117531   5.945   0.781   6.634
 5544SOL    HW217532   6.072   0.840   6.716
 5545SOL     OW17533   2.884   2.690   1.703
 5545SOL    HW117534   2.881   2.614   1.769
 5545SOL    HW217535   2.951   2.757   1.734
 5546SOL     OW17536   3.662   4.723   5.650
 5546SOL    HW117537   3.616   4.684   5.570
 5546SOL    HW217538   3.749   4.676   5.666
 5547SOL     OW17539   3.369   5.499   4.105
 5547SOL    HW117540   3.334   5.545   4.187
 5547SOL    HW217541   3.331   5.406   4.100
 5548SOL     OW17542   0.561   2.749   4.563
 5548SOL    HW117543   0.621   2.769   4.486
 5548SOL    HW217544   0.491   2.684   4.535
 5549SOL     OW17545   3.747   4.927   0.213
 5549SOL    HW117546   3.788   4.857   0.153
 5549SOL    HW217547   3.648   4.914   0.218
 5550SOL     OW17548   2.992   6.562   2.301
 5550SOL    HW117549   2.898   6.584   2.329
 5550SOL    HW217550   3.044   6.531   2.380
 5551SOL     OW17551   0.617   1.199   2.904
 5551SOL    HW117552   0.594   1.196   3.001
 5551SOL    HW217553   0.660   1.112   2.878
 5552SOL     OW17554   0.897   2.268   2.176
 5552SOL    HW117555   0.918   2.330   2.100
 5552SOL    HW217556   0.904   2.319   2.262
 5553SOL     OW17557   4.663   6.798   6.536
 5553SOL    HW117558   4.565   6.795   6.556
 5553SOL    HW217559   4.712   6.741   6.601
 5554SOL     OW17560   3.426   0.944   4.380
 5554SOL    HW117561   3.503   0.880   4.384
 5554SOL    HW217562   3.446   1.015   4.312
 5555SOL     OW17563   0.724   5.630   1.685
 5555SOL    HW117564   0.663   5.554   1.708
 5555SOL    HW217565   0.691   5.676   1.602
 5556SOL     OW17566   0.860   0.923   4.717
 5556SOL    HW117567   0.906   1.011   4.712
 5556SOL    HW217568   0.927   0.851   4.731
 5557SOL     OW17569   2.605   0.171   3.104
 5557SOL    HW117570   2.543   0.248   3.121
 5557SOL    HW217571   2.551   0.088   3.087
 5558SOL     OW17572   5.070   2.800   5.570
 5558SOL    HW117573   5.006   2.861   5.616
 5558SOL    HW217574   5.136   2.764   5.637
 5559SOL     OW17575   2.256   0.552   1.610
 5559SOL    HW117576   2.293   0.492   1.540
 5559SOL    HW217577   2.262   0.508   1.699
 5560SOL     OW17578   6.782   1.031   4.276
 5560SOL    HW117579   6.772   0.932   4.287
 5560SOL    HW217580   6.707   1.066   4.220
 5561SOL     OW17581   1.656   3.657   2.291
 5561SOL    HW117582   1.673   3.609   2.377
 5561SOL    HW217583   1.608   3.743   2.310
 5562SOL     OW17584   2.792   2.178   6.637
 5562SOL    HW117585   2.891   2.180   6.655
 5562SOL    HW217586   2.774   2.129   6.552
 5563SOL     OW17587   4.244   4.109   1.379
 5563SOL    HW117588   4.223   4.125   1.283
 5563SOL    HW217589   4.213   4.188   1.433
 5564SOL     OW17590   5.854   2.163   1.595
 5564SOL    HW117591   5.924   2.122   1.536
 5564SOL    HW217592   5.838   2.104   1.674
 5565SOL     OW17593   3.026   2.794   5.294
 5565SOL    HW117594   3.107   2.839   5.332
 5565SOL    HW217595   3.047   2.760   5.202
 5566SOL     OW17596   2.140   4.562   0.699
 5566SOL    HW117597   2.207   4.504   0.745
 5566SOL    HW217598   2.071   4.505   0.655
 5567SOL     OW17599   1.614   5.519   3.341
 5567SOL    HW117600   1.606   5.617   3.360
 5567SOL    HW217601   1.693   5.503   3.282
 5568SOL     OW17602   3.632   2.714   0.545
 5568SOL    HW117603   3.591   2.701   0.455
 5568SOL    HW217604   3.617   2.633   0.601
 5569SOL     OW17605   5.091   2.029   6.257
 5569SOL    HW117606   5.111   2.066   6.347
 5569SOL    HW217607   5.138   1.942   6.245
 5570SOL     OW17608   0.863   3.486   5.097
 5570SOL    HW117609   0.955   3.502   5.133
 5570SOL    HW217610   0.812   3.429   5.161
 5571SOL     OW17611   6.426   4.662   6.788
 5571SOL    HW117612   6.421   4.578   6.735
 5571SOL    HW217613   6.507   4.660   6.847
 5572SOL     OW17614   6.479   3.164   4.799
 5572SOL    HW117615   6.470   3.259   4.771
 5572SOL    HW217616   6.560   3.153   4.857
 5573SOL     OW17617   6.924   4.162   6.893
 5573SOL    HW117618   6.966   4.117   6.972
 5573SOL    HW217619   6.997   4.201   6.836
 5574SOL     OW17620   1.131   6.623   4.065
 5574SOL    HW117621   1.100   6.528   4.057
 5574SOL    HW217622   1.185   6.648   3.984
 5575SOL     OW17623   0.896   1.210   1.615
 5575SOL    HW117624   0.979   1.159   1.591
 5575SOL    HW217625   0.825   1.146   1.641
 5576SOL     OW17626   5.387   5.882   6.106
 5576SOL    HW117627   5.436   5.855   6.189
 5576SOL    HW217628   5.365   5.979   6.110
 5577SOL     OW17629   2.529   4.695   4.523
 5577SOL    HW117630   2.499   4.600   4.536
 5577SOL    HW217631   2.553   4.735   4.611
 5578SOL     OW17632   3.408   1.860   6.658
 5578SOL    HW117633   3.423   1.894   6.566
 5578SOL    HW217634   3.492   1.868   6.711
 5579SOL     OW17635   4.868   5.009   1.784
 5579SOL    HW117636   4.949   5.067   1.796
 5579SOL    HW217637   4.796   5.039   1.846
 5580SOL     OW17638   5.468   1.389   1.476
 5580SOL    HW117639   5.505   1.315   1.533
 5580SOL    HW217640   5.423   1.349   1.396
 5581SOL     OW17641   2.852   2.343   0.393
 5581SOL    HW117642   2.763   2.303   0.415
 5581SOL    HW217643   2.922   2.272   0.396
 5582SOL     OW17644   3.321   2.952   3.456
 5582SOL    HW117645   3.318   3.050   3.476
 5582SOL    HW217646   3.336   2.901   3.540
 5583SOL     OW17647   4.345   0.560   6.811
 5583SOL    HW117648   4.316   0.485   6.752
 5583SOL    HW217649   4.297   0.553   6.899
 5584SOL     OW17650   4.875   3.375   2.903
 5584SOL    HW117651   4.870   3.471   2.929
 5584SOL    HW217652   4.838   3.318   2.977
 5585SOL     OW17653   0.422   6.968   4.751
 5585SOL    HW117654   0.475   6.928   4.826
 5585SOL    HW217655   0.482   6.980   4.672
 5586SOL     OW17656   3.115   1.272   6.451
 5586SOL    HW117657   3.039   1.279   6.515
 5586SOL    HW217658   3.201   1.271   6.501
 5587SOL     OW17659   3.583   6.511   4.135
 5587SOL    HW117660   3.637   6.573   4.191
 5587SOL    HW217661   3.492   6.550   4.120
 5588SOL     OW17662   4.784   0.007   5.949
 5588SOL    HW117663   4.779   0.093   5.897
 5588SOL    HW217664   4.699   6.977   5.936
 5589SOL     OW17665   2.953   3.899   0.370
 5589SOL    HW117666   3.051   3.908   0.353
 5589SOL    HW217667   2.902   3.945   0.297
 5590SOL     OW17668   6.748   0.534   3.660
 5590SOL    HW117669   6.760   0.500   3.566
 5590SOL    HW217670   6.731   0.456   3.721
 5591SOL     OW17671   5.717   0.186   0.071
 5591SOL    HW117672   5.705   0.273   0.023
 5591SOL    HW217673   5.629   0.140   0.078
 5592SOL     OW17674   1.132   2.419   2.501
 5592SOL    HW117675   1.213   2.413   2.559
 5592SOL    HW217676   1.138   2.351   2.428
 5593SOL     OW17677   2.341   4.491   4.637
 5593SOL    HW117678   2.270   4.505   4.706
 5593SOL    HW217679   2.335   4.397   4.602
 5594SOL     OW17680   2.936   1.603   6.392
 5594SOL    HW117681   2.978   1.673   6.449
 5594SOL    HW217682   3.003   1.566   6.328
 5595SOL     OW17683   0.688   2.614   6.034
 5595SOL    HW117684   0.734   2.582   5.951
 5595SOL    HW217685   0.739   2.690   6.073
 5596SOL     OW17686   4.609   2.693   4.500
 5596SOL    HW117687   4.576   2.611   4.453
 5596SOL    HW217688   4.610   2.676   4.599
 5597SOL     OW17689   6.969   1.915   6.618
 5597SOL    HW117690   0.018   1.913   6.546
 5597SOL    HW217691   6.982   1.837   6.680
 5598SOL     OW17692   6.354   1.949   3.618
 5598SOL    HW117693   6.451   1.970   3.604
 5598SOL    HW217694   6.333   1.955   3.715
 5599SOL     OW17695   5.497   2.436   3.307
 5599SOL    HW117696   5.418   2.469   3.358
 5599SOL    HW217697   5.471   2.418   3.212
 5600SOL     OW17698   1.947   2.798   2.021
 5600SOL    HW117699   1.927   2.715   2.074
 5600SOL    HW217700   1.986   2.867   2.081
 5601SOL     OW17701   5.504   3.399   5.870
 5601SOL    HW117702   5.471   3.346   5.948
 5601SOL    HW217703   5.455   3.487   5.868
 5602SOL     OW17704   6.490   2.559   2.541
 5602SOL    HW117705   6.396   2.527   2.557
 5602SOL    HW217706   6.544   2.547   2.623
 5603SOL     OW17707   3.868   2.288   6.122
 5603SOL    HW117708   3.887   2.248   6.212
 5603SOL    HW217709   3.852   2.214   6.056
 5604SOL     OW17710   1.081   6.089   3.752
 5604SOL    HW117711   1.026   6.169   3.728
 5604SOL    HW217712   1.067   6.066   3.849
 5605SOL     OW17713   4.369   0.520   4.020
 5605SOL    HW117714   4.413   0.588   3.962
 5605SOL    HW217715   4.357   0.557   4.112
 5606SOL     OW17716   4.713   3.087   0.691
 5606SOL    HW117717   4.775   3.022   0.737
 5606SOL    HW217718   4.625   3.088   0.739
 5607SOL     OW17719   6.849   2.531   3.448
 5607SOL    HW117720   6.779   2.461   3.434
 5607SOL    HW217721   6.857   2.587   3.366
 5608SOL     OW17722   5.176   0.449   4.071
 5608SOL    HW117723   5.115   0.379   4.108
 5608SOL    HW217724   5.259   0.453   4.127
 5609SOL     OW17725   6.392   1.017   0.234
 5609SOL    HW117726   6.427   1.005   0.327
 5609SOL    HW217727   6.330   1.095   0.232
 5610SOL     OW17728   5.780   5.715   5.999
 5610SOL    HW117729   5.745   5.624   6.021
 5610SOL    HW217730   5.704   5.778   5.986
 5611SOL     OW17731   5.919   4.229   2.030
 5611SOL    HW117732   5.868   4.168   1.969
 5611SOL    HW217733   6.013   4.238   1.997
 5612SOL     OW17734   4.072   2.048   0.797
 5612SOL    HW117735   4.025   2.116   0.852
 5612SOL    HW217736   4.168   2.074   0.784
 5613SOL     OW17737   6.329   5.215   6.185
 5613SOL    HW117738   6.387   5.239   6.107
 5613SOL    HW217739   6.284   5.128   6.167
 5614SOL     OW17740   4.750   1.838   5.118
 5614SOL    HW117741   4.803   1.918   5.146
 5614SOL    HW217742   4.677   1.867   5.055
 5615SOL     OW17743   0.622   3.130   3.527
 5615SOL    HW117744   0.657   3.039   3.547
 5615SOL    HW217745   0.581   3.131   3.436
 5616SOL     OW17746   1.731   3.495   2.472
 5616SOL    HW117747   1.818   3.446   2.462
 5616SOL    HW217748   1.684   3.465   2.555
 5617SOL     OW17749   1.278   4.751   6.182
 5617SOL    HW117750   1.334   4.830   6.205
 5617SOL    HW217751   1.336   4.674   6.155
 5618SOL     OW17752   4.486   7.014   2.861
 5618SOL    HW117753   4.490   6.978   2.768
 5618SOL    HW217754   4.551   6.964   2.918
 5619SOL     OW17755   2.929   3.359   3.143
 5619SOL    HW117756   2.927   3.392   3.237
 5619SOL    HW217757   2.989   3.279   3.137
 5620SOL     OW17758   4.973   4.344   4.698
 5620SOL    HW117759   4.947   4.356   4.602
 5620SOL    HW217760   4.921   4.269   4.738
 5621SOL     OW17761   0.768   2.366   6.533
 5621SOL    HW117762   0.723   2.428   6.468
 5621SOL    HW217763   0.817   2.420   6.601
 5622SOL     OW17764   4.926   5.522   4.100
 5622SOL    HW117765   5.011   5.551   4.055
 5622SOL    HW217766   4.926   5.552   4.195
 5623SOL     OW17767   4.609   4.823   3.775
 5623SOL    HW117768   4.617   4.859   3.869
 5623SOL    HW217769   4.575   4.729   3.779
 5624SOL     OW17770   4.937   3.966   3.355
 5624SOL    HW117771   5.014   4.023   3.382
 5624SOL    HW217772   4.890   4.009   3.277
 5625SOL     OW17773   2.778   6.767   6.050
 5625SOL    HW117774   2.715   6.832   6.093
 5625SOL    HW217775   2.747   6.674   6.068
 5626SOL     OW17776   1.128   4.758   6.434
 5626SOL    HW117777   1.037   4.716   6.437
 5626SOL    HW217778   1.163   4.753   6.340
 5627SOL     OW17779   1.388   5.341   0.513
 5627SOL    HW117780   1.449   5.320   0.588
 5627SOL    HW217781   1.298   5.300   0.530
 5628SOL     OW17782   1.648   3.427   0.227
 5628SOL    HW117783   1.620   3.441   0.132
 5628SOL    HW217784   1.745   3.449   0.237
 5629SOL     OW17785   6.556   3.399   3.477
 5629SOL    HW117786   6.582   3.347   3.558
 5629SOL    HW217787   6.544   3.495   3.502
 5630SOL     OW17788   1.141   3.605   0.460
 5630SOL    HW117789   1.164   3.628   0.555
 5630SOL    HW217790   1.052   3.644   0.437
 5631SOL     OW17791   3.734   0.742   1.304
 5631SOL    HW117792   3.687   0.657   1.280
 5631SOL    HW217793   3.797   0.724   1.380
 5632SOL     OW17794   4.029   6.459   6.224
 5632SOL    HW117795   4.122   6.434   6.251
 5632SOL    HW217796   4.011   6.553   6.253
 5633SOL     OW17797   1.215   5.556   5.291
 5633SOL    HW117798   1.151   5.480   5.279
 5633SOL    HW217799   1.305   5.530   5.258
 5634SOL     OW17800   2.739   0.816   1.325
 5634SOL    HW117801   2.724   0.726   1.282
 5634SOL    HW217802   2.682   0.822   1.407
 5635SOL     OW17803   3.443   0.695   1.830
 5635SOL    HW117804   3.378   0.755   1.877
 5635SOL    HW217805   3.494   0.642   1.898
 5636SOL     OW17806   5.451   0.387   5.526
 5636SOL    HW117807   5.525   0.415   5.465
 5636SOL    HW217808   5.407   0.468   5.564
 5637SOL     OW17809   5.333   0.232   4.772
 5637SOL    HW117810   5.316   0.246   4.675
 5637SOL    HW217811   5.247   0.208   4.817
 5638SOL     OW17812   5.959   5.364   0.596
 5638SOL    HW117813   6.057   5.356   0.613
 5638SOL    HW217814   5.910   5.302   0.657
 5639SOL     OW17815   3.292   0.676   1.601
 5639SOL    HW117816   3.349   0.676   1.683
 5639SOL    HW217817   3.284   0.769   1.566
 5640SOL     OW17818   3.072   6.930   3.435
 5640SOL    HW117819   3.142   7.001   3.438
 5640SOL    HW217820   3.114   6.842   3.414
 5641SOL     OW17821   0.087   4.036   3.533
 5641SOL    HW117822   7.013   4.047   3.562
 5641SOL    HW217823   0.115   4.113   3.476
 5642SOL     OW17824   2.049   3.355   6.288
 5642SOL    HW117825   1.980   3.413   6.331
 5642SOL    HW217826   2.039   3.359   6.189
 5643SOL     OW17827   6.055   2.509   4.228
 5643SOL    HW117828   6.110   2.588   4.252
 5643SOL    HW217829   6.114   2.428   4.222
 5644SOL     OW17830   3.981   0.334   5.403
 5644SOL    HW117831   3.946   0.242   5.387
 5644SOL    HW217832   3.913   0.401   5.373
 5645SOL     OW17833   5.883   6.594   3.706
 5645SOL    HW117834   5.792   6.610   3.743
 5645SOL    HW217835   5.936   6.679   3.708
 5646SOL     OW17836   6.567   6.368   4.116
 5646SOL    HW117837   6.624   6.424   4.176
 5646SOL    HW217838   6.477   6.412   4.106
 5647SOL     OW17839   6.780   4.087   6.654
 5647SOL    HW117840   6.844   4.104   6.728
 5647SOL    HW217841   6.732   4.172   6.631
 5648SOL     OW17842   2.985   1.344   4.499
 5648SOL    HW117843   3.073   1.297   4.489
 5648SOL    HW217844   2.975   1.377   4.593
 5649SOL     OW17845   1.031   0.204   5.880
 5649SOL    HW117846   1.105   0.164   5.825
 5649SOL    HW217847   1.027   0.302   5.863
 5650SOL     OW17848   6.896   4.727   5.736
 5650SOL    HW117849   6.907   4.699   5.831
 5650SOL    HW217850   6.971   4.691   5.681
 5651SOL     OW17851   5.744   1.619   2.426
 5651SOL    HW117852   5.840   1.594   2.422
 5651SOL    HW217853   5.735   1.718   2.442
 5652SOL     OW17854   6.006   4.465   0.442
 5652SOL    HW117855   5.956   4.525   0.505
 5652SOL    HW217856   5.941   4.422   0.379
 5653SOL     OW17857   2.168   6.041   6.475
 5653SOL    HW117858   2.081   5.994   6.460
 5653SOL    HW217859   2.165   6.131   6.430
 5654SOL     OW17860   1.938   5.961   6.703
 5654SOL    HW117861   1.948   5.989   6.798
 5654SOL    HW217862   1.856   6.002   6.665
 5655SOL     OW17863   6.649   5.276   2.894
 5655SOL    HW117864   6.653   5.188   2.941
 5655SOL    HW217865   6.702   5.344   2.944
 5656SOL     OW17866   3.657   5.596   6.490
 5656SOL    HW117867   3.569   5.569   6.451
 5656SOL    HW217868   3.676   5.692   6.467
 5657SOL     OW17869   4.565   5.692   1.743
 5657SOL    HW117870   4.568   5.668   1.840
 5657SOL    HW217871   4.470   5.694   1.711
 5658SOL     OW17872   5.482   6.269   5.809
 5658SOL    HW117873   5.575   6.243   5.835
 5658SOL    HW217874   5.431   6.297   5.890
 5659SOL     OW17875   2.914   3.685   2.773
 5659SOL    HW117876   2.915   3.703   2.871
 5659SOL    HW217877   2.860   3.603   2.755
 5660SOL     OW17878   6.292   5.957   1.633
 5660SOL    HW117879   6.242   5.888   1.580
 5660SOL    HW217880   6.291   6.044   1.585
 5661SOL     OW17881   6.112   5.714   4.254
 5661SOL    HW117882   6.194   5.766   4.227
 5661SOL    HW217883   6.139   5.643   4.319
 5662SOL     OW17884   2.271   4.985   4.951
 5662SOL    HW117885   2.319   4.931   4.881
 5662SOL    HW217886   2.330   4.996   5.031
 5663SOL     OW17887   2.851   4.238   1.108
 5663SOL    HW117888   2.810   4.211   1.021
 5663SOL    HW217889   2.795   4.310   1.151
 5664SOL     OW17890   6.989   6.104   2.348
 5664SOL    HW117891   6.919   6.035   2.328
 5664SOL    HW217892   0.057   6.059   2.358
 5665SOL     OW17893   1.344   1.323   6.294
 5665SOL    HW117894   1.417   1.374   6.249
 5665SOL    HW217895   1.299   1.382   6.361
 5666SOL     OW17896   5.828   5.707   0.215
 5666SOL    HW117897   5.773   5.625   0.204
 5666SOL    HW217898   5.804   5.753   0.300
 5667SOL     OW17899   6.394   5.344   3.010
 5667SOL    HW117900   6.341   5.354   2.925
 5667SOL    HW217901   6.485   5.310   2.988
 5668SOL     OW17902   5.960   3.214   6.051
 5668SOL    HW117903   5.960   3.268   5.968
 5668SOL    HW217904   6.054   3.205   6.084
 5669SOL     OW17905   6.969   3.142   4.822
 5669SOL    HW117906   0.014   3.214   4.845
 5669SOL    HW217907   6.901   3.179   4.759
 5670SOL     OW17908   1.385   3.593   2.345
 5670SOL    HW117909   1.474   3.629   2.316
 5670SOL    HW217910   1.379   3.595   2.444
 5671SOL     OW17911   1.225   0.771   5.735
 5671SOL    HW117912   1.152   0.711   5.704
 5671SOL    HW217913   1.251   0.833   5.660
 5672SOL     OW17914   5.054   3.672   6.154
 5672SOL    HW117915   5.041   3.747   6.089
 5672SOL    HW217916   4.991   3.683   6.231
 5673SOL     OW17917   1.514   0.173   0.757
 5673SOL    HW117918   1.567   0.221   0.687
 5673SOL    HW217919   1.417   0.187   0.740
 5674SOL     OW17920   6.235   3.274   1.129
 5674SOL    HW117921   6.156   3.251   1.072
 5674SOL    HW217922   6.308   3.311   1.072
 5675SOL     OW17923   3.392   1.170   6.591
 5675SOL    HW117924   3.349   1.080   6.588
 5675SOL    HW217925   3.423   1.190   6.684
 5676SOL     OW17926   3.465   0.029   1.416
 5676SOL    HW117927   3.563   0.009   1.423
 5676SOL    HW217928   3.439   0.095   1.486
 5677SOL     OW17929   6.844   1.199   3.655
 5677SOL    HW117930   6.879   1.183   3.563
 5677SOL    HW217931   6.919   1.229   3.714
 5678SOL     OW17932   1.760   5.378   3.703
 5678SOL    HW117933   1.715   5.337   3.782
 5678SOL    HW217934   1.744   5.321   3.623
 5679SOL     OW17935   3.339   5.588   5.060
 5679SOL    HW117936   3.362   5.617   4.967
 5679SOL    HW217937   3.337   5.488   5.064
 5680SOL     OW17938   1.833   6.829   6.629
 5680SOL    HW117939   1.872   6.867   6.713
 5680SOL    HW217940   1.817   6.731   6.642
 5681SOL     OW17941   2.655   3.902   0.143
 5681SOL    HW117942   2.678   3.871   0.051
 5681SOL    HW217943   2.621   3.997   0.139
 5682SOL     OW17944   0.941   3.800   4.197
 5682SOL    HW117945   1.036   3.806   4.167
 5682SOL    HW217946   0.881   3.836   4.126
 5683SOL     OW17947   4.147   3.403   4.647
 5683SOL    HW117948   4.164   3.467   4.572
 5683SOL    HW217949   4.173   3.445   4.734
 5684SOL     OW17950   2.930   3.734   3.032
 5684SOL    HW117951   3.017   3.686   3.040
 5684SOL    HW217952   2.902   3.769   3.121
 5685SOL     OW17953   0.493   5.501   1.996
 5685SOL    HW117954   0.481   5.480   1.899
 5685SOL    HW217955   0.590   5.495   2.020
 5686SOL     OW17956   3.558   4.914   6.956
 5686SOL    HW117957   3.653   4.944   6.948
 5686SOL    HW217958   3.532   4.912   0.031
 5687SOL     OW17959   4.009   5.716   6.433
 5687SOL    HW117960   4.065   5.770   6.371
 5687SOL    HW217961   4.043   5.622   6.436
 5688SOL     OW17962   5.519   2.034   2.064
 5688SOL    HW117963   5.428   2.073   2.048
 5688SOL    HW217964   5.537   2.033   2.162
 5689SOL     OW17965   4.285   3.147   6.446
 5689SOL    HW117966   4.228   3.229   6.436
 5689SOL    HW217967   4.230   3.066   6.427
 5690SOL     OW17968   4.344   6.566   2.330
 5690SOL    HW117969   4.294   6.514   2.260
 5690SOL    HW217970   4.419   6.511   2.366
 5691SOL     OW17971   2.546   0.268   3.570
 5691SOL    HW117972   2.608   0.274   3.492
 5691SOL    HW217973   2.594   0.227   3.648
 5692SOL     OW17974   5.771   3.202   6.978
 5692SOL    HW117975   5.721   3.283   7.010
 5692SOL    HW217976   5.869   3.219   6.983
 5693SOL     OW17977   5.139   2.367   2.559
 5693SOL    HW117978   5.165   2.270   2.557
 5693SOL    HW217979   5.126   2.399   2.465
 5694SOL     OW17980   1.323   1.475   4.015
 5694SOL    HW117981   1.394   1.470   3.945
 5694SOL    HW217982   1.289   1.383   4.035
 5695SOL     OW17983   1.775   4.182   3.595
 5695SOL    HW117984   1.845   4.161   3.527
 5695SOL    HW217985   1.816   4.176   3.686
 5696SOL     OW17986   3.234   0.419   6.042
 5696SOL    HW117987   3.327   0.420   6.080
 5696SOL    HW217988   3.171   0.377   6.107
 5697SOL     OW17989   6.663   3.492   0.305
 5697SOL    HW117990   6.651   3.412   0.363
 5697SOL    HW217991   6.585   3.554   0.316
 5698SOL     OW17992   0.785   4.334   3.055
 5698SOL    HW117993   0.796   4.376   3.145
 5698SOL    HW217994   0.838   4.249   3.051
 5699SOL     OW17995   6.501   2.092   4.720
 5699SOL    HW117996   6.558   2.022   4.763
 5699SOL    HW217997   6.545   2.181   4.728
 5700SOL     OW17998   0.980   5.552   3.161
 5700SOL    HW117999   1.036   5.630   3.135
 5700SOL    HW218000   0.950   5.562   3.256
 5701SOL     OW18001   5.470   4.572   2.158
 5701SOL    HW118002   5.525   4.508   2.211
 5701SOL    HW218003   5.378   4.535   2.146
 5702SOL     OW18004   2.148   0.317   7.002
 5702SOL    HW118005   2.207   0.388   6.965
 5702SOL    HW218006   2.147   0.238   6.940
 5703SOL     OW18007   4.847   4.223   1.868
 5703SOL    HW118008   4.797   4.138   1.854
 5703SOL    HW218009   4.804   4.295   1.813
 5704SOL     OW18010   4.884   4.143   3.151
 5704SOL    HW118011   4.820   4.182   3.217
 5704SOL    HW218012   4.940   4.215   3.111
 5705SOL     OW18013   5.997   1.807   3.342
 5705SOL    HW118014   5.962   1.892   3.381
 5705SOL    HW218015   6.092   1.794   3.372
 5706SOL     OW18016   1.868   1.114   6.996
 5706SOL    HW118017   1.904   1.084   6.908
 5706SOL    HW218018   1.770   1.093   7.000
 5707SOL     OW18019   3.140   1.772   6.506
 5707SOL    HW118020   3.238   1.775   6.487
 5707SOL    HW218021   3.125   1.784   6.604
 5708SOL     OW18022   6.753   6.765   1.597
 5708SOL    HW118023   6.832   6.706   1.583
 5708SOL    HW218024   6.672   6.723   1.555
 5709SOL     OW18025   1.119   1.624   1.942
 5709SOL    HW118026   1.020   1.635   1.937
 5709SOL    HW218027   1.143   1.528   1.927
 5710SOL     OW18028   3.166   4.188   6.304
 5710SOL    HW118029   3.189   4.223   6.213
 5710SOL    HW218030   3.067   4.198   6.320
 5711SOL     OW18031   4.679   1.186   4.868
 5711SOL    HW118032   4.607   1.127   4.833
 5711SOL    HW218033   4.702   1.255   4.800
 5712SOL     OW18034   6.707   6.242   6.929
 5712SOL    HW118035   6.640   6.194   6.872
 5712SOL    HW218036   6.799   6.218   6.899
 5713SOL     OW18037   0.224   2.596   2.601
 5713SOL    HW118038   0.196   2.669   2.662
 5713SOL    HW218039   0.272   2.525   2.653
 5714SOL     OW18040   2.183   0.743   6.170
 5714SOL    HW118041   2.195   0.842   6.159
 5714SOL    HW218042   2.246   0.710   6.240
 5715SOL     OW18043   1.203   6.472   3.476
 5715SOL    HW118044   1.145   6.406   3.429
 5715SOL    HW218045   1.242   6.429   3.558
 5716SOL     OW18046   1.902   2.550   4.899
 5716SOL    HW118047   1.949   2.629   4.937
 5716SOL    HW218048   1.889   2.481   4.969
 5717SOL     OW18049   0.417   3.231   6.999
 5717SOL    HW118050   0.397   3.328   6.990
 5717SOL    HW218051   0.462   3.199   6.916
 5718SOL     OW18052   2.405   5.316   5.139
 5718SOL    HW118053   2.335   5.250   5.168
 5718SOL    HW218054   2.409   5.317   5.039
 5719SOL     OW18055   2.292   0.569   6.825
 5719SOL    HW118056   2.276   0.656   6.780
 5719SOL    HW218057   2.312   0.499   6.757
 5720SOL     OW18058   2.129   5.901   4.036
 5720SOL    HW118059   2.129   5.976   4.102
 5720SOL    HW218060   2.182   5.825   4.073
 5721SOL     OW18061   6.957   4.467   0.665
 5721SOL    HW118062   6.937   4.521   0.746
 5721SOL    HW218063   0.021   4.416   0.679
 5722SOL     OW18064   5.438   1.339   3.861
 5722SOL    HW118065   5.390   1.421   3.891
 5722SOL    HW218066   5.472   1.289   3.941
 5723SOL     OW18067   0.988   4.018   0.891
 5723SOL    HW118068   0.990   3.918   0.899
 5723SOL    HW218069   1.067   4.056   0.938
 5724SOL     OW18070   4.899   2.367   6.254
 5724SOL    HW118071   4.809   2.412   6.251
 5724SOL    HW218072   4.921   2.331   6.163
 5725SOL     OW18073   5.048   5.901   5.667
 5725SOL    HW118074   5.122   5.942   5.721
 5725SOL    HW218075   4.992   5.844   5.726
 5726SOL     OW18076   4.345   3.892   5.303
 5726SOL    HW118077   4.367   3.795   5.297
 5726SOL    HW218078   4.424   3.941   5.342
 5727SOL     OW18079   6.017   1.964   3.745
 5727SOL    HW118080   6.076   1.887   3.767
 5727SOL    HW218081   5.958   1.985   3.823
 5728SOL     OW18082   4.594   0.588   5.804
 5728SOL    HW118083   4.575   0.678   5.845
 5728SOL    HW218084   4.624   0.600   5.710
 5729SOL     OW18085   1.486   3.019   4.975
 5729SOL    HW118086   1.392   3.019   5.008
 5729SOL    HW218087   1.492   2.964   4.891
 5730SOL     OW18088   4.306   5.619   0.113
 5730SOL    HW118089   4.257   5.698   0.075
 5730SOL    HW218090   4.361   5.648   0.191
 5731SOL     OW18091   4.614   1.398   5.033
 5731SOL    HW118092   4.688   1.433   5.091
 5731SOL    HW218093   4.645   1.315   4.987
 5732SOL     OW18094   5.570   4.213   4.013
 5732SOL    HW118095   5.617   4.138   4.059
 5732SOL    HW218096   5.532   4.275   4.081
 5733SOL     OW18097   2.566   6.945   1.309
 5733SOL    HW118098   2.598   0.011   1.346
 5733SOL    HW218099   2.588   6.871   1.373
 5734SOL     OW18100   1.329   6.325   6.612
 5734SOL    HW118101   1.416   6.349   6.655
 5734SOL    HW218102   1.261   6.396   6.633
 5735SOL     OW18103   5.257   0.822   2.224
 5735SOL    HW118104   5.313   0.903   2.212
 5735SOL    HW218105   5.261   0.792   2.319
 5736SOL     OW18106   6.050   4.496   6.752
 5736SOL    HW118107   6.087   4.477   6.843
 5736SOL    HW218108   5.951   4.511   6.759
 5737SOL     OW18109   4.824   5.359   1.863
 5737SOL    HW118110   4.807   5.436   1.924
 5737SOL    HW218111   4.789   5.380   1.772
 5738SOL     OW18112   2.167   0.624   0.733
 5738SOL    HW118113   2.266   0.613   0.722
 5738SOL    HW218114   2.133   0.555   0.797
 5739SOL     OW18115   2.132   1.214   5.808
 5739SOL    HW118116   2.043   1.216   5.853
 5739SOL    HW218117   2.200   1.177   5.871
 5740SOL     OW18118   5.019   3.563   2.478
 5740SOL    HW118119   5.015   3.484   2.539
 5740SOL    HW218120   5.114   3.595   2.470
 5741SOL     OW18121   0.988   3.583   4.011
 5741SOL    HW118122   0.943   3.668   3.985
 5741SOL    HW218123   0.950   3.549   4.097
 5742SOL     OW18124   5.747   6.733   3.330
 5742SOL    HW118125   5.842   6.750   3.304
 5742SOL    HW218126   5.715   6.649   3.286
 5743SOL     OW18127   3.404   5.556   6.792
 5743SOL    HW118128   3.388   5.492   6.716
 5743SOL    HW218129   3.319   5.607   6.810
 5744SOL     OW18130   5.175   6.727   3.330
 5744SOL    HW118131   5.120   6.805   3.300
 5744SOL    HW218132   5.192   6.667   3.252
 5745SOL     OW18133   1.048   3.049   1.872
 5745SOL    HW118134   0.978   2.993   1.915
 5745SOL    HW218135   1.132   3.045   1.927
 5746SOL     OW18136   4.927   6.686   3.137
 5746SOL    HW118137   4.906   6.660   3.231
 5746SOL    HW218138   4.875   6.628   3.074
 5747SOL     OW18139   1.503   6.409   1.084
 5747SOL    HW118140   1.477   6.443   1.175
 5747SOL    HW218141   1.438   6.443   1.016
 5748SOL     OW18142   0.051   6.403   0.753
 5748SOL    HW118143   7.010   6.349   0.697
 5748SOL    HW218144   0.136   6.352   0.768
 5749SOL     OW18145   1.810   5.550   6.213
 5749SOL    HW118146   1.769   5.476   6.158
 5749SOL    HW218147   1.902   5.523   6.241
 5750SOL     OW18148   6.970   2.985   4.364
 5750SOL    HW118149   7.014   2.895   4.372
 5750SOL    HW218150   7.011   3.047   4.432
 5751SOL     OW18151   1.078   3.926   4.599
 5751SOL    HW118152   1.115   3.928   4.506
 5751SOL    HW218153   1.096   3.837   4.640
 5752SOL     OW18154   5.253   0.603   0.644
 5752SOL    HW118155   5.279   0.672   0.576
 5752SOL    HW218156   5.220   0.650   0.726
 5753SOL     OW18157   3.560   4.113   4.637
 5753SOL    HW118158   3.651   4.079   4.660
 5753SOL    HW218159   3.548   4.205   4.676
 5754SOL     OW18160   0.453   5.820   1.262
 5754SOL    HW118161   0.353   5.820   1.271
 5754SOL    HW218162   0.477   5.833   1.166
 5755SOL     OW18163   0.701   3.085   6.013
 5755SOL    HW118164   0.670   3.149   6.083
 5755SOL    HW218165   0.729   3.000   6.057
 5756SOL     OW18166   5.715   6.179   1.548
 5756SOL    HW118167   5.710   6.119   1.628
 5756SOL    HW218168   5.758   6.266   1.574
 5757SOL     OW18169   0.278   1.068   3.944
 5757SOL    HW118170   0.306   1.143   3.885
 5757SOL    HW218171   0.345   0.994   3.939
 5758SOL     OW18172   6.090   6.505   2.738
 5758SOL    HW118173   6.100   6.586   2.680
 5758SOL    HW218174   6.020   6.522   2.808
 5759SOL     OW18175   3.189   0.257   1.268
 5759SOL    HW118176   3.213   0.319   1.193
 5759SOL    HW218177   3.221   0.295   1.354
 5760SOL     OW18178   1.671   2.665   0.221
 5760SOL    HW118179   1.623   2.643   0.306
 5760SOL    HW218180   1.718   2.752   0.231
 5761SOL     OW18181   6.440   6.982   4.728
 5761SOL    HW118182   6.418   6.920   4.653
 5761SOL    HW218183   6.454   6.930   4.812
 5762SOL     OW18184   0.730   5.650   6.347
 5762SOL    HW118185   0.820   5.674   6.309
 5762SOL    HW218186   0.658   5.692   6.292
 5763SOL     OW18187   6.039   0.361   0.584
 5763SOL    HW118188   5.996   0.279   0.621
 5763SOL    HW218189   6.088   0.409   0.658
 5764SOL     OW18190   4.758   6.214   4.143
 5764SOL    HW118191   4.719   6.219   4.235
 5764SOL    HW218192   4.777   6.307   4.110
 5765SOL     OW18193   6.224   5.045   2.499
 5765SOL    HW118194   6.174   4.960   2.481
 5765SOL    HW218195   6.182   5.092   2.577
 5766SOL     OW18196   0.359   1.253   4.411
 5766SOL    HW118197   0.298   1.239   4.333
 5766SOL    HW218198   0.318   1.319   4.474
 5767SOL     OW18199   4.298   6.966   6.452
 5767SOL    HW118200   4.283   6.984   6.355
 5767SOL    HW218201   4.321   6.870   6.465
 5768SOL     OW18202   0.827   0.948   5.404
 5768SOL    HW118203   0.750   0.890   5.377
 5768SOL    HW218204   0.875   0.980   5.323
 5769SOL     OW18205   1.451   3.819   5.673
 5769SOL    HW118206   1.372   3.786   5.622
 5769SOL    HW218207   1.421   3.883   5.744
 5770SOL     OW18208   2.245   3.888   1.910
 5770SOL    HW118209   2.293   3.973   1.929
 5770SOL    HW218210   2.229   3.839   1.995
 5771SOL     OW18211   3.587   4.929   4.248
 5771SOL    HW118212   3.651   4.985   4.301
 5771SOL    HW218213   3.633   4.893   4.167
 5772SOL     OW18214   3.428   0.012   2.296
 5772SOL    HW118215   3.508   0.019   2.236
 5772SOL    HW218216   3.455   0.035   2.389
 5773SOL     OW18217   5.259   1.448   2.568
 5773SOL    HW118218   5.305   1.504   2.636
 5773SOL    HW218219   5.281   1.352   2.582
 5774SOL     OW18220   0.914   6.349   2.572
 5774SOL    HW118221   0.939   6.425   2.631
 5774SOL    HW218222   0.896   6.382   2.480
 5775SOL     OW18223   6.269   5.327   1.556
 5775SOL    HW118224   6.284   5.361   1.649
 5775SOL    HW218225   6.172   5.336   1.532
 5776SOL     OW18226   2.964   1.262   3.816
 5776SOL    HW118227   2.875   1.245   3.859
 5776SOL    HW218228   3.016   1.328   3.871
 5777SOL     OW18229   2.039   6.500   2.216
 5777SOL    HW118230   1.957   6.443   2.210
 5777SOL    HW218231   2.112   6.450   2.262
 5778SOL     OW18232   0.427   1.278   0.693
 5778SOL    HW118233   0.435   1.257   0.790
 5778SOL    HW218234   0.492   1.349   0.668
 5779SOL     OW18235   5.893   0.903   5.958
 5779SOL    HW118236   5.910   0.829   6.023
 5779SOL    HW218237   5.980   0.930   5.916
 5780SOL     OW18238   5.274   5.509   4.570
 5780SOL    HW118239   5.240   5.419   4.595
 5780SOL    HW218240   5.198   5.574   4.565
 5781SOL     OW18241   1.172   4.663   5.652
 5781SOL    HW118242   1.261   4.665   5.696
 5781SOL    HW218243   1.184   4.671   5.553
 5782SOL     OW18244   0.629   0.606   0.264
 5782SOL    HW118245   0.631   0.645   0.172
 5782SOL    HW218246   0.544   0.555   0.276
 5783SOL     OW18247   2.219   2.338   0.647
 5783SOL    HW118248   2.238   2.360   0.743
 5783SOL    HW218249   2.214   2.238   0.637
 5784SOL     OW18250   6.522   6.099   6.790
 5784SOL    HW118251   6.434   6.115   6.834
 5784SOL    HW218252   6.507   6.079   6.693
 5785SOL     OW18253   0.845   1.189   0.722
 5785SOL    HW118254   0.790   1.267   0.753
 5785SOL    HW218255   0.929   1.223   0.679
 5786SOL     OW18256   5.656   5.133   1.808
 5786SOL    HW118257   5.620   5.223   1.831
 5786SOL    HW218258   5.691   5.088   1.891
 5787SOL     OW18259   2.219   2.865   6.535
 5787SOL    HW118260   2.223   2.767   6.518
 5787SOL    HW218261   2.297   2.894   6.590
 5788SOL     OW18262   2.845   0.695   3.426
 5788SOL    HW118263   2.752   0.670   3.396
 5788SOL    HW218264   2.840   0.738   3.516
 5789SOL     OW18265   3.704   4.564   6.202
 5789SOL    HW118266   3.731   4.628   6.274
 5789SOL    HW218267   3.703   4.612   6.114
 5790SOL     OW18268   1.644   3.470   3.401
 5790SOL    HW118269   1.619   3.482   3.305
 5790SOL    HW218270   1.597   3.539   3.457
 5791SOL     OW18271   1.970   0.946   2.952
 5791SOL    HW118272   1.976   1.015   2.879
 5791SOL    HW218273   1.981   0.855   2.913
 5792SOL     OW18274   6.722   2.216   2.659
 5792SOL    HW118275   6.622   2.215   2.663
 5792SOL    HW218276   6.752   2.176   2.573
 5793SOL     OW18277   0.433   0.725   4.211
 5793SOL    HW118278   0.381   0.798   4.255
 5793SOL    HW218279   0.442   0.744   4.113
 5794SOL     OW18280   4.927   4.456   6.383
 5794SOL    HW118281   4.990   4.379   6.383
 5794SOL    HW218282   4.837   4.426   6.412
 5795SOL     OW18283   5.631   4.543   0.045
 5795SOL    HW118284   5.547   4.591   0.018
 5795SOL    HW218285   5.613   4.444   0.047
 5796SOL     OW18286   3.581   2.471   0.656
 5796SOL    HW118287   3.663   2.418   0.677
 5796SOL    HW218288   3.523   2.420   0.592
 5797SOL     OW18289   3.368   2.328   6.073
 5797SOL    HW118290   3.448   2.350   6.129
 5797SOL    HW218291   3.294   2.393   6.094
 5798SOL     OW18292   6.557   5.129   3.845
 5798SOL    HW118293   6.483   5.062   3.854
 5798SOL    HW218294   6.523   5.209   3.797
 5799SOL     OW18295   5.688   0.554   3.857
 5799SOL    HW118296   5.597   0.533   3.822
 5799SOL    HW218297   5.694   0.651   3.880
 5800SOL     OW18298   5.404   5.135   0.873
 5800SOL    HW118299   5.390   5.096   0.964
 5800SOL    HW218300   5.335   5.098   0.811
 5801SOL     OW18301   2.628   1.236   2.973
 5801SOL    HW118302   2.702   1.232   2.906
 5801SOL    HW218303   2.546   1.195   2.934
 5802SOL     OW18304   0.307   2.903   4.750
 5802SOL    HW118305   0.349   2.980   4.798
 5802SOL    HW218306   0.286   2.830   4.816
 5803SOL     OW18307   1.947   4.446   0.484
 5803SOL    HW118308   1.872   4.504   0.515
 5803SOL    HW218309   1.952   4.449   0.384
 5804SOL     OW18310   6.509   3.288   5.094
 5804SOL    HW118311   6.415   3.295   5.061
 5804SOL    HW218312   6.559   3.224   5.036
 5805SOL     OW18313   5.684   3.434   0.084
 5805SOL    HW118314   5.586   3.453   0.079
 5805SOL    HW218315   5.709   3.419   0.180
 5806SOL     OW18316   0.498   6.803   0.323
 5806SOL    HW118317   0.580   6.769   0.277
 5806SOL    HW218318   0.448   6.726   0.361
 5807SOL     OW18319   2.004   3.568   1.878
 5807SOL    HW118320   2.075   3.512   1.920
 5807SOL    HW218321   2.013   3.663   1.909
 5808SOL     OW18322   6.318   3.224   3.688
 5808SOL    HW118323   6.416   3.241   3.694
 5808SOL    HW218324   6.298   3.184   3.598
 5809SOL     OW18325   6.508   3.477   3.951
 5809SOL    HW118326   6.488   3.497   4.047
 5809SOL    HW218327   6.477   3.385   3.929
 5810SOL     OW18328   2.564   2.461   2.518
 5810SOL    HW118329   2.553   2.366   2.490
 5810SOL    HW218330   2.505   2.520   2.463
 5811SOL     OW18331   2.672   1.399   3.197
 5811SOL    HW118332   2.624   1.342   3.131
 5811SOL    HW218333   2.612   1.419   3.274
 5812SOL     OW18334   4.018   0.695   4.891
 5812SOL    HW118335   3.977   0.698   4.982
 5812SOL    HW218336   3.954   0.654   4.827
 5813SOL     OW18337   1.471   0.821   5.590
 5813SOL    HW118338   1.444   0.743   5.533
 5813SOL    HW218339   1.421   0.903   5.561
 5814SOL     OW18340   0.483   4.952   1.039
 5814SOL    HW118341   0.568   5.002   1.019
 5814SOL    HW218342   0.463   4.890   0.963
 5815SOL     OW18343   3.458   1.492   3.140
 5815SOL    HW118344   3.402   1.569   3.170
 5815SOL    HW218345   3.406   1.434   3.079
 5816SOL     OW18346   4.933   7.020   1.144
 5816SOL    HW118347   4.836   6.993   1.147
 5816SOL    HW218348   4.939   0.099   1.151
 5817SOL     OW18349   5.184   1.839   5.108
 5817SOL    HW118350   5.240   1.921   5.098
 5817SOL    HW218351   5.095   1.853   5.066
 5818SOL     OW18352   5.746   6.086   5.969
 5818SOL    HW118353   5.842   6.074   5.995
 5818SOL    HW218354   5.732   6.179   5.935
 5819SOL     OW18355   6.300   0.304   0.854
 5819SOL    HW118356   6.235   0.372   0.820
 5819SOL    HW218357   6.281   0.216   0.810
 5820SOL     OW18358   5.687   6.181   3.207
 5820SOL    HW118359   5.773   6.229   3.225
 5820SOL    HW218360   5.644   6.221   3.126
 5821SOL     OW18361   3.149   0.447   1.581
 5821SOL    HW118362   3.138   0.367   1.638
 5821SOL    HW218363   3.133   0.530   1.635
 5822SOL     OW18364   0.824   1.173   2.044
 5822SOL    HW118365   0.793   1.228   2.121
 5822SOL    HW218366   0.854   1.234   1.970
 5823SOL     OW18367   2.567   2.502   4.067
 5823SOL    HW118368   2.605   2.493   3.975
 5823SOL    HW218369   2.617   2.441   4.130
 5824SOL     OW18370   4.757   0.459   3.643
 5824SOL    HW118371   4.667   0.500   3.656
 5824SOL    HW218372   4.796   0.490   3.556
 5825SOL     OW18373   2.631   0.716   0.731
 5825SOL    HW118374   2.565   0.647   0.702
 5825SOL    HW218375   2.672   0.759   0.651
 5826SOL     OW18376   6.698   0.856   4.817
 5826SOL    HW118377   6.627   0.853   4.887
 5826SOL    HW218378   6.766   0.785   4.833
 5827SOL     OW18379   0.884   5.194   5.024
 5827SOL    HW118380   0.792   5.195   4.986
 5827SOL    HW218381   0.950   5.183   4.950
 5828SOL     OW18382   0.040   3.021   1.655
 5828SOL    HW118383   0.019   2.924   1.660
 5828SOL    HW218384   6.992   3.068   1.601
 5829SOL     OW18385   1.730   0.941   1.629
 5829SOL    HW118386   1.798   0.932   1.556
 5829SOL    HW218387   1.773   0.980   1.710
 5830SOL     OW18388   1.811   1.407   5.608
 5830SOL    HW118389   1.769   1.370   5.691
 5830SOL    HW218390   1.868   1.486   5.631
 5831SOL     OW18391   5.421   6.590   2.906
 5831SOL    HW118392   5.442   6.626   2.997
 5831SOL    HW218393   5.333   6.543   2.909
 5832SOL     OW18394   3.666   3.772   5.049
 5832SOL    HW118395   3.710   3.860   5.029
 5832SOL    HW218396   3.574   3.771   5.011
 5833SOL     OW18397   3.601   3.405   4.845
 5833SOL    HW118398   3.611   3.307   4.832
 5833SOL    HW218399   3.611   3.452   4.757
 5834SOL     OW18400   5.907   1.204   0.437
 5834SOL    HW118401   5.890   1.169   0.345
 5834SOL    HW218402   5.949   1.133   0.493
 5835SOL     OW18403   5.130   2.495   4.099
 5835SOL    HW118404   5.196   2.542   4.040
 5835SOL    HW218405   5.166   2.404   4.122
 5836SOL     OW18406   3.603   5.953   2.440
 5836SOL    HW118407   3.583   5.919   2.348
 5836SOL    HW218408   3.589   5.880   2.507
 5837SOL     OW18409   4.669   4.423   6.386
 5837SOL    HW118410   4.633   4.344   6.436
 5837SOL    HW218411   4.594   4.487   6.367
 5838SOL     OW18412   0.729   1.719   5.364
 5838SOL    HW118413   0.763   1.743   5.455
 5838SOL    HW218414   0.691   1.627   5.365
 5839SOL     OW18415   0.152   3.291   2.732
 5839SOL    HW118416   0.234   3.310   2.785
 5839SOL    HW218417   0.073   3.285   2.794
 5840SOL     OW18418   1.714   5.151   6.671
 5840SOL    HW118419   1.783   5.115   6.733
 5840SOL    HW218420   1.758   5.195   6.593
 5841SOL     OW18421   6.561   2.481   3.007
 5841SOL    HW118422   6.618   2.412   3.052
 5841SOL    HW218423   6.479   2.497   3.062
 5842SOL     OW18424   3.974   3.059   0.485
 5842SOL    HW118425   4.023   3.042   0.571
 5842SOL    HW218426   4.023   3.128   0.431
 5843SOL     OW18427   1.384   3.133   1.595
 5843SOL    HW118428   1.475   3.175   1.587
 5843SOL    HW218429   1.391   3.048   1.647
 5844SOL     OW18430   1.377   6.311   0.312
 5844SOL    HW118431   1.443   6.345   0.379
 5844SOL    HW218432   1.425   6.283   0.229
 5845SOL     OW18433   1.019   2.509   4.495
 5845SOL    HW118434   1.065   2.426   4.463
 5845SOL    HW218435   0.926   2.512   4.457
 5846SOL     OW18436   6.948   3.119   6.018
 5846SOL    HW118437   6.876   3.096   6.083
 5846SOL    HW218438   6.924   3.204   5.970
 5847SOL     OW18439   2.067   2.674   3.122
 5847SOL    HW118440   2.139   2.703   3.185
 5847SOL    HW218441   2.009   2.753   3.100
 5848SOL     OW18442   1.449   4.812   4.060
 5848SOL    HW118443   1.498   4.725   4.072
 5848SOL    HW218444   1.504   4.874   4.005
 5849SOL     OW18445   2.582   6.764   5.589
 5849SOL    HW118446   2.531   6.680   5.604
 5849SOL    HW218447   2.541   6.839   5.642
 5850SOL     OW18448   0.890   4.333   2.754
 5850SOL    HW118449   0.862   4.308   2.847
 5850SOL    HW218450   0.825   4.295   2.689
 5851SOL     OW18451   6.010   3.458   2.046
 5851SOL    HW118452   5.941   3.489   1.980
 5851SOL    HW218453   6.020   3.359   2.041
 5852SOL     OW18454   4.168   5.765   2.989
 5852SOL    HW118455   4.171   5.815   3.076
 5852SOL    HW218456   4.109   5.814   2.924
 5853SOL     OW18457   3.811   4.017   5.776
 5853SOL    HW118458   3.718   3.985   5.755
 5853SOL    HW218459   3.815   4.116   5.764
 5854SOL     OW18460   6.901   1.139   6.621
 5854SOL    HW118461   6.989   1.091   6.623
 5854SOL    HW218462   6.859   1.136   6.711
 5855SOL     OW18463   1.770   1.190   4.758
 5855SOL    HW118464   1.820   1.216   4.842
 5855SOL    HW218465   1.808   1.104   4.723
 5856SOL     OW18466   2.279   4.948   3.872
 5856SOL    HW118467   2.314   4.993   3.954
 5856SOL    HW218468   2.201   5.000   3.837
 5857SOL     OW18469   6.808   2.888   5.476
 5857SOL    HW118470   6.850   2.940   5.402
 5857SOL    HW218471   6.819   2.937   5.562
 5858SOL     OW18472   3.541   0.614   2.562
 5858SOL    HW118473   3.629   0.655   2.583
 5858SOL    HW218474   3.508   0.563   2.641
 5859SOL     OW18475   6.219   5.851   1.373
 5859SOL    HW118476   6.314   5.875   1.352
 5859SOL    HW218477   6.194   5.768   1.322
 5860SOL     OW18478   1.763   3.877   1.308
 5860SOL    HW118479   1.676   3.911   1.345
 5860SOL    HW218480   1.800   3.807   1.369
 5861SOL     OW18481   6.089   2.165   3.957
 5861SOL    HW118482   6.002   2.214   3.948
 5861SOL    HW218483   6.072   2.072   3.991
 5862SOL     OW18484   5.062   4.318   3.048
 5862SOL    HW118485   5.095   4.319   2.954
 5862SOL    HW218486   5.135   4.285   3.108
 5863SOL     OW18487   2.285   1.302   0.236
 5863SOL    HW118488   2.197   1.317   0.191
 5863SOL    HW218489   2.324   1.216   0.203
 5864SOL     OW18490   4.910   5.080   0.954
 5864SOL    HW118491   4.851   5.066   0.875
 5864SOL    HW218492   4.900   5.003   1.017
 5865SOL     OW18493   4.006   0.836   3.280
 5865SOL    HW118494   4.017   0.897   3.359
 5865SOL    HW218495   3.920   0.857   3.234
 5866SOL     OW18496   4.062   0.277   6.599
 5866SOL    HW118497   3.991   0.216   6.564
 5866SOL    HW218498   4.094   0.336   6.525
 5867SOL     OW18499   6.937   2.487   0.987
 5867SOL    HW118500   6.906   2.399   1.022
 5867SOL    HW218501   6.998   2.473   0.909
 5868SOL     OW18502   1.357   0.039   5.085
 5868SOL    HW118503   1.446   0.019   5.126
 5868SOL    HW218504   1.294   0.070   5.155
 5869SOL     OW18505   2.889   4.776   3.624
 5869SOL    HW118506   2.869   4.805   3.530
 5869SOL    HW218507   2.818   4.712   3.654
 5870SOL     OW18508   5.479   4.507   4.758
 5870SOL    HW118509   5.417   4.571   4.712
 5870SOL    HW218510   5.573   4.543   4.753
 5871SOL     OW18511   2.896   2.784   6.453
 5871SOL    HW118512   2.917   2.829   6.539
 5871SOL    HW218513   2.799   2.798   6.431
 5872SOL     OW18514   3.702   5.962   4.935
 5872SOL    HW118515   3.647   5.898   4.881
 5872SOL    HW218516   3.729   6.039   4.877
 5873SOL     OW18517   2.889   3.617   0.368
 5873SOL    HW118518   2.938   3.699   0.398
 5873SOL    HW218519   2.791   3.634   0.372
 5874SOL     OW18520   1.772   4.154   0.840
 5874SOL    HW118521   1.837   4.184   0.770
 5874SOL    HW218522   1.777   4.054   0.849
 5875SOL     OW18523   4.179   1.997   0.240
 5875SOL    HW118524   4.248   2.067   0.223
 5875SOL    HW218525   4.213   1.932   0.307
 5876SOL     OW18526   3.614   4.467   5.799
 5876SOL    HW118527   3.664   4.548   5.829
 5876SOL    HW218528   3.560   4.431   5.875
 5877SOL     OW18529   6.742   6.683   2.572
 5877SOL    HW118530   6.643   6.678   2.586
 5877SOL    HW218531   6.764   6.668   2.476
 5878SOL     OW18532   5.056   4.687   2.320
 5878SOL    HW118533   5.086   4.698   2.415
 5878SOL    HW218534   5.031   4.777   2.283
 5879SOL     OW18535   3.794   3.155   5.715
 5879SOL    HW118536   3.706   3.182   5.676
 5879SOL    HW218537   3.834   3.082   5.660
 5880SOL     OW18538   5.915   2.602   5.901
 5880SOL    HW118539   5.869   2.646   5.823
 5880SOL    HW218540   6.002   2.563   5.871
 5881SOL     OW18541   1.449   5.990   2.459
 5881SOL    HW118542   1.414   5.924   2.524
 5881SOL    HW218543   1.514   6.051   2.504
 5882SOL     OW18544   1.487   4.996   5.354
 5882SOL    HW118545   1.580   5.031   5.360
 5882SOL    HW218546   1.480   4.934   5.276
 5883SOL     OW18547   6.471   4.940   0.074
 5883SOL    HW118548   6.401   4.882   0.032
 5883SOL    HW218549   6.428   5.008   0.133
 5884SOL     OW18550   6.281   2.191   2.806
 5884SOL    HW118551   6.234   2.113   2.845
 5884SOL    HW218552   6.246   2.275   2.847
 5885SOL     OW18553   6.478   5.417   0.511
 5885SOL    HW118554   6.388   5.455   0.489
 5885SOL    HW218555   6.466   5.333   0.564
 5886SOL     OW18556   1.985   4.426   3.588
 5886SOL    HW118557   2.080   4.415   3.618
 5886SOL    HW218558   1.953   4.340   3.547
 5887SOL     OW18559   2.692   2.591   0.958
 5887SOL    HW118560   2.725   2.506   0.999
 5887SOL    HW218561   2.621   2.631   1.016
 5888SOL     OW18562   3.185   6.589   1.438
 5888SOL    HW118563   3.130   6.640   1.372
 5888SOL    HW218564   3.131   6.573   1.521
 5889SOL     OW18565   6.034   1.564   2.032
 5889SOL    HW118566   6.085   1.478   2.031
 5889SOL    HW218567   6.056   1.617   1.951
 5890SOL     OW18568   1.362   5.470   2.660
 5890SOL    HW118569   1.444   5.429   2.619
 5890SOL    HW218570   1.362   5.451   2.758
 5891SOL     OW18571   2.416   3.667   6.999
 5891SOL    HW118572   2.482   3.598   0.009
 5891SOL    HW218573   2.359   3.696   0.055
 5892SOL     OW18574   0.974   2.962   0.293
 5892SOL    HW118575   0.967   2.920   0.384
 5892SOL    HW218576   1.051   3.025   0.291
 5893SOL     OW18577   0.976   6.502   1.017
 5893SOL    HW118578   0.967   6.584   1.075
 5893SOL    HW218579   0.885   6.469   0.992
 5894SOL     OW18580   2.135   5.353   6.617
 5894SOL    HW118581   2.106   5.439   6.574
 5894SOL    HW218582   2.235   5.352   6.626
 5895SOL     OW18583   5.258   3.795   3.616
 5895SOL    HW118584   5.267   3.785   3.517
 5895SOL    HW218585   5.233   3.707   3.656
 5896SOL     OW18586   5.717   2.896   2.493
 5896SOL    HW118587   5.632   2.915   2.541
 5896SOL    HW218588   5.785   2.862   2.558
 5897SOL     OW18589   3.798   2.326   0.669
 5897SOL    HW118590   3.816   2.245   0.615
 5897SOL    HW218591   3.861   2.330   0.746
 5898SOL     OW18592   2.117   1.274   6.393
 5898SOL    HW118593   2.094   1.324   6.309
 5898SOL    HW218594   2.215   1.281   6.410
 5899SOL     OW18595   0.231   6.281   6.736
 5899SOL    HW118596   0.159   6.348   6.760
 5899SOL    HW218597   0.287   6.263   6.817
 5900SOL     OW18598   5.708   6.510   3.166
 5900SOL    HW118599   5.781   6.444   3.184
 5900SOL    HW218600   5.620   6.468   3.186
 5901SOL     OW18601   2.515   0.586   4.856
 5901SOL    HW118602   2.581   0.659   4.873
 5901SOL    HW218603   2.422   0.622   4.864
 5902SOL     OW18604   4.593   3.995   5.914
 5902SOL    HW118605   4.522   4.048   5.960
 5902SOL    HW218606   4.561   3.968   5.823
 5903SOL     OW18607   6.215   1.758   5.256
 5903SOL    HW118608   6.198   1.679   5.316
 5903SOL    HW218609   6.199   1.731   5.161
 5904SOL     OW18610   0.940   4.831   1.468
 5904SOL    HW118611   1.008   4.788   1.526
 5904SOL    HW218612   0.984   4.865   1.385
 5905SOL     OW18613   5.968   1.533   4.401
 5905SOL    HW118614   6.015   1.461   4.350
 5905SOL    HW218615   6.014   1.546   4.489
 5906SOL     OW18616   4.835   1.173   5.618
 5906SOL    HW118617   4.774   1.209   5.547
 5906SOL    HW218618   4.899   1.245   5.646
 5907SOL     OW18619   1.243   3.767   5.477
 5907SOL    HW118620   1.290   3.685   5.443
 5907SOL    HW218621   1.195   3.812   5.401
 5908SOL     OW18622   4.835   3.459   6.523
 5908SOL    HW118623   4.763   3.479   6.456
 5908SOL    HW218624   4.818   3.513   6.606
 5909SOL     OW18625   6.598   4.826   3.601
 5909SOL    HW118626   6.498   4.823   3.592
 5909SOL    HW218627   6.639   4.801   3.513
 5910SOL     OW18628   3.005   4.622   0.749
 5910SOL    HW118629   2.975   4.658   0.837
 5910SOL    HW218630   3.083   4.675   0.715
 5911SOL     OW18631   5.604   6.532   0.249
 5911SOL    HW118632   5.642   6.492   0.165
 5911SOL    HW218633   5.628   6.475   0.327
 5912SOL     OW18634   0.382   2.975   5.331
 5912SOL    HW118635   0.464   2.949   5.280
 5912SOL    HW218636   0.395   3.066   5.371
 5913SOL     OW18637   1.094   2.213   5.236
 5913SOL    HW118638   1.168   2.232   5.301
 5913SOL    HW218639   1.059   2.121   5.251
 5914SOL     OW18640   2.022   5.695   0.919
 5914SOL    HW118641   2.009   5.610   0.869
 5914SOL    HW218642   2.069   5.677   1.005
 5915SOL     OW18643   5.164   3.152   3.890
 5915SOL    HW118644   5.131   3.060   3.867
 5915SOL    HW218645   5.161   3.165   3.989
 5916SOL     OW18646   3.028   0.292   6.190
 5916SOL    HW118647   2.973   0.308   6.108
 5916SOL    HW218648   3.037   0.193   6.204
 5917SOL     OW18649   4.075   3.802   2.579
 5917SOL    HW118650   4.002   3.794   2.648
 5917SOL    HW218651   4.148   3.860   2.615
 5918SOL     OW18652   2.428   2.715   3.512
 5918SOL    HW118653   2.494   2.670   3.451
 5918SOL    HW218654   2.434   2.674   3.603
 5919SOL     OW18655   1.299   2.801   0.122
 5919SOL    HW118656   1.252   2.789   0.035
 5919SOL    HW218657   1.257   2.743   0.191
 5920SOL     OW18658   3.054   5.439   6.872
 5920SOL    HW118659   3.080   5.348   6.903
 5920SOL    HW218660   3.018   5.492   6.949
 5921SOL     OW18661   3.601   5.444   5.573
 5921SOL    HW118662   3.577   5.469   5.667
 5921SOL    HW218663   3.651   5.520   5.531
 5922SOL     OW18664   5.939   4.340   1.667
 5922SOL    HW118665   5.960   4.244   1.685
 5922SOL    HW218666   5.880   4.376   1.739
 5923SOL     OW18667   6.939   0.173   3.299
 5923SOL    HW118668   6.841   0.192   3.287
 5923SOL    HW218669   6.991   0.256   3.284
 5924SOL     OW18670   5.397   2.132   4.593
 5924SOL    HW118671   5.460   2.188   4.647
 5924SOL    HW218672   5.320   2.105   4.650
 5925SOL     OW18673   6.359   5.613   0.899
 5925SOL    HW118674   6.429   5.545   0.878
 5925SOL    HW218675   6.367   5.689   0.834
 5926SOL     OW18676   3.837   4.825   2.371
 5926SOL    HW118677   3.774   4.887   2.325
 5926SOL    HW218678   3.792   4.737   2.385
 5927SOL     OW18679   2.470   5.230   2.351
 5927SOL    HW118680   2.555   5.182   2.371
 5927SOL    HW218681   2.417   5.179   2.283
 5928SOL     OW18682   1.138   6.599   1.807
 5928SOL    HW118683   1.144   6.694   1.838
 5928SOL    HW218684   1.055   6.588   1.752
 5929SOL     OW18685   1.285   6.977   5.380
 5929SOL    HW118686   1.340   6.910   5.330
 5929SOL    HW218687   1.313   6.978   5.476
 5930SOL     OW18688   0.118   1.141   5.250
 5930SOL    HW118689   0.150   1.155   5.156
 5930SOL    HW218690   0.073   1.224   5.282
 5931SOL     OW18691   5.680   5.130   1.529
 5931SOL    HW118692   5.669   5.118   1.628
 5931SOL    HW218693   5.777   5.123   1.505
 5932SOL     OW18694   2.039   0.060   0.084
 5932SOL    HW118695   1.998   7.017   0.149
 5932SOL    HW218696   2.118   0.105   0.126
 5933SOL     OW18697   5.941   3.493   2.814
 5933SOL    HW118698   5.871   3.445   2.761
 5933SOL    HW218699   5.942   3.458   2.908
 5934SOL     OW18700   3.304   4.151   2.782
 5934SOL    HW118701   3.271   4.198   2.700
 5934SOL    HW218702   3.259   4.062   2.789
 5935SOL     OW18703   4.097   3.500   3.089
 5935SOL    HW118704   4.104   3.443   3.008
 5935SOL    HW218705   4.025   3.568   3.076
 5936SOL     OW18706   5.566   5.899   5.930
 5936SOL    HW118707   5.505   5.888   6.009
 5936SOL    HW218708   5.625   5.979   5.944
 5937SOL     OW18709   1.137   3.928   0.504
 5937SOL    HW118710   1.118   3.891   0.413
 5937SOL    HW218711   1.133   3.854   0.571
 5938SOL     OW18712   1.856   4.309   1.519
 5938SOL    HW118713   1.909   4.393   1.528
 5938SOL    HW218714   1.914   4.230   1.540
 5939SOL     OW18715   2.419   1.014   2.870
 5939SOL    HW118716   2.344   1.075   2.898
 5939SOL    HW218717   2.422   1.009   2.770
 5940SOL     OW18718   4.126   5.089   3.701
 5940SOL    HW118719   4.192   5.104   3.628
 5940SOL    HW218720   4.170   5.108   3.789
 5941SOL     OW18721   6.396   4.166   2.577
 5941SOL    HW118722   6.461   4.165   2.500
 5941SOL    HW218723   6.334   4.243   2.566
 5942SOL     OW18724   5.906   1.651   5.248
 5942SOL    HW118725   5.900   1.726   5.315
 5942SOL    HW218726   5.943   1.687   5.162
 5943SOL     OW18727   1.231   5.158   0.230
 5943SOL    HW118728   1.195   5.244   0.267
 5943SOL    HW218729   1.224   5.159   0.131
 5944SOL     OW18730   4.748   2.078   2.760
 5944SOL    HW118731   4.676   2.132   2.803
 5944SOL    HW218732   4.830   2.135   2.748
 5945SOL     OW18733   0.225   5.253   5.544
 5945SOL    HW118734   0.287   5.255   5.622
 5945SOL    HW218735   0.184   5.343   5.531
 5946SOL     OW18736   3.899   2.796   5.307
 5946SOL    HW118737   3.863   2.816   5.215
 5946SOL    HW218738   3.979   2.737   5.298
 5947SOL     OW18739   4.254   3.680   1.597
 5947SOL    HW118740   4.192   3.739   1.649
 5947SOL    HW218741   4.272   3.722   1.508
 5948SOL     OW18742   3.769   5.367   3.195
 5948SOL    HW118743   3.864   5.339   3.184
 5948SOL    HW218744   3.758   5.462   3.167
 5949SOL     OW18745   4.489   4.637   2.164
 5949SOL    HW118746   4.523   4.565   2.224
 5949SOL    HW218747   4.563   4.666   2.102
 5950SOL     OW18748   6.588   2.356   3.746
 5950SOL    HW118749   6.544   2.446   3.755
 5950SOL    HW218750   6.541   2.290   3.803
 5951SOL     OW18751   1.980   6.336   3.565
 5951SOL    HW118752   2.057   6.284   3.601
 5951SOL    HW218753   1.973   6.424   3.611
 5952SOL     OW18754   6.942   6.631   5.057
 5952SOL    HW118755   6.965   6.719   5.016
 5952SOL    HW218756   6.846   6.632   5.085
 5953SOL     OW18757   0.046   3.366   6.309
 5953SOL    HW118758   0.029   3.429   6.385
 5953SOL    HW218759   0.126   3.397   6.258
 5954SOL     OW18760   1.472   4.665   6.646
 5954SOL    HW118761   1.408   4.600   6.689
 5954SOL    HW218762   1.420   4.740   6.606
 5955SOL     OW18763   5.143   5.624   2.758
 5955SOL    HW118764   5.185   5.533   2.754
 5955SOL    HW218765   5.188   5.677   2.829
 5956SOL     OW18766   5.978   2.588   0.086
 5956SOL    HW118767   6.028   2.594   0.172
 5956SOL    HW218768   6.019   2.519   0.027
 5957SOL     OW18769   4.524   6.912   5.659
 5957SOL    HW118770   4.508   6.829   5.606
 5957SOL    HW218771   4.441   6.937   5.708
 5958SOL     OW18772   1.014   5.654   2.415
 5958SOL    HW118773   1.039   5.626   2.322
 5958SOL    HW218774   0.985   5.749   2.415
 5959SOL     OW18775   1.819   1.367   6.488
 5959SOL    HW118776   1.917   1.354   6.474
 5959SOL    HW218777   1.795   1.338   6.581
 5960SOL     OW18778   3.614   0.285   4.602
 5960SOL    HW118779   3.643   0.206   4.655
 5960SOL    HW218780   3.676   0.297   4.524
 5961SOL     OW18781   2.678   1.420   6.055
 5961SOL    HW118782   2.628   1.442   6.138
 5961SOL    HW218783   2.769   1.462   6.060
 5962SOL     OW18784   5.241   5.367   2.762
 5962SOL    HW118785   5.292   5.381   2.847
 5962SOL    HW218786   5.245   5.271   2.735
 5963SOL     OW18787   3.999   3.851   2.064
 5963SOL    HW118788   4.054   3.796   2.127
 5963SOL    HW218789   3.948   3.920   2.115
 5964SOL     OW18790   0.995   4.207   5.914
 5964SOL    HW118791   0.968   4.187   6.008
 5964SOL    HW218792   1.083   4.254   5.914
 5965SOL     OW18793   2.294   1.659   4.250
 5965SOL    HW118794   2.369   1.649   4.185
 5965SOL    HW218795   2.327   1.707   4.331
 5966SOL     OW18796   1.692   6.676   3.991
 5966SOL    HW118797   1.695   6.776   3.991
 5966SOL    HW218798   1.635   6.644   3.915
 5967SOL     OW18799   4.445   6.811   2.044
 5967SOL    HW118800   4.450   6.741   1.972
 5967SOL    HW218801   4.464   6.900   2.004
 5968SOL     OW18802   0.464   2.243   4.363
 5968SOL    HW118803   0.417   2.313   4.310
 5968SOL    HW218804   0.457   2.155   4.314
 5969SOL     OW18805   5.694   2.988   2.827
 5969SOL    HW118806   5.602   2.967   2.860
 5969SOL    HW218807   5.762   2.937   2.880
 5970SOL     OW18808   1.970   2.711   3.852
 5970SOL    HW118809   1.940   2.746   3.941
 5970SOL    HW218810   2.067   2.734   3.839
 5971SOL     OW18811   2.462   6.818   2.688
 5971SOL    HW118812   2.362   6.825   2.697
 5971SOL    HW218813   2.490   6.855   2.600
 5972SOL     OW18814   4.705   6.444   1.284
 5972SOL    HW118815   4.782   6.382   1.300
 5972SOL    HW218816   4.726   6.506   1.209
 5973SOL     OW18817   0.954   4.659   3.753
 5973SOL    HW118818   0.993   4.616   3.672
 5973SOL    HW218819   1.027   4.684   3.816
 5974SOL     OW18820   1.208   3.864   6.364
 5974SOL    HW118821   1.244   3.945   6.410
 5974SOL    HW218822   1.268   3.786   6.382
 5975SOL     OW18823   1.551   3.091   6.962
 5975SOL    HW118824   1.591   3.175   6.926
 5975SOL    HW218825   1.556   3.019   6.893
 5976SOL     OW18826   3.396   3.867   4.929
 5976SOL    HW118827   3.303   3.836   4.944
 5976SOL    HW218828   3.412   3.880   4.831
 5977SOL     OW18829   1.117   3.284   3.034
 5977SOL    HW118830   1.131   3.237   3.121
 5977SOL    HW218831   1.192   3.261   2.972
 5978SOL     OW18832   5.782   5.427   3.295
 5978SOL    HW118833   5.689   5.391   3.299
 5978SOL    HW218834   5.780   5.527   3.303
 5979SOL     OW18835   0.638   0.812   2.727
 5979SOL    HW118836   0.624   0.753   2.806
 5979SOL    HW218837   0.559   0.873   2.716
 5980SOL     OW18838   6.367   3.718   6.140
 5980SOL    HW118839   6.294   3.729   6.207
 5980SOL    HW218840   6.456   3.727   6.186
 5981SOL     OW18841   3.562   1.835   1.406
 5981SOL    HW118842   3.510   1.822   1.490
 5981SOL    HW218843   3.659   1.814   1.424
 5982SOL     OW18844   5.846   2.799   6.970
 5982SOL    HW118845   5.883   2.783   6.878
 5982SOL    HW218846   5.884   2.733   0.012
 5983SOL     OW18847   1.129   1.616   4.730
 5983SOL    HW118848   1.213   1.662   4.700
 5983SOL    HW218849   1.060   1.685   4.751
 5984SOL     OW18850   0.529   0.143   5.454
 5984SOL    HW118851   0.432   0.149   5.432
 5984SOL    HW218852   0.557   0.226   5.503
 5985SOL     OW18853   4.829   3.134   4.365
 5985SOL    HW118854   4.899   3.078   4.409
 5985SOL    HW218855   4.751   3.144   4.427
 5986SOL     OW18856   3.866   3.034   2.378
 5986SOL    HW118857   3.955   3.040   2.332
 5986SOL    HW218858   3.810   3.113   2.354
 5987SOL     OW18859   4.217   6.926   5.424
 5987SOL    HW118860   4.163   6.894   5.346
 5987SOL    HW218861   4.314   6.916   5.404
 5988SOL     OW18862   4.339   0.637   4.279
 5988SOL    HW118863   4.270   0.704   4.308
 5988SOL    HW218864   4.420   0.686   4.246
 5989SOL     OW18865   2.807   0.704   6.459
 5989SOL    HW118866   2.833   0.607   6.453
 5989SOL    HW218867   2.889   0.761   6.450
 5990SOL     OW18868   3.229   4.987   2.069
 5990SOL    HW118869   3.288   4.949   1.998
 5990SOL    HW218870   3.196   5.077   2.041
 5991SOL     OW18871   3.260   5.263   3.961
 5991SOL    HW118872   3.279   5.176   3.915
 5991SOL    HW218873   3.244   5.334   3.893
 5992SOL     OW18874   4.492   1.063   4.500
 5992SOL    HW118875   4.588   1.054   4.474
 5992SOL    HW218876   4.469   1.159   4.511
 5993SOL     OW18877   3.507   5.600   4.379
 5993SOL    HW118878   3.554   5.679   4.340
 5993SOL    HW218879   3.414   5.595   4.342
 5994SOL     OW18880   6.721   2.488   1.835
 5994SOL    HW118881   6.743   2.484   1.933
 5994SOL    HW218882   6.703   2.396   1.801
 5995SOL     OW18883   0.542   4.657   1.086
 5995SOL    HW118884   0.459   4.705   1.114
 5995SOL    HW218885   0.622   4.701   1.129
 5996SOL     OW18886   0.782   5.074   6.136
 5996SOL    HW118887   0.843   5.116   6.203
 5996SOL    HW218888   0.835   5.029   6.065
 5997SOL     OW18889   0.875   0.202   1.995
 5997SOL    HW118890   0.897   0.117   2.043
 5997SOL    HW218891   0.872   0.185   1.897
 5998SOL     OW18892   4.127   1.976   3.618
 5998SOL    HW118893   4.070   1.896   3.595
 5998SOL    HW218894   4.106   2.051   3.556
 5999SOL     OW18895   1.997   1.837   2.924
 5999SOL    HW118896   2.043   1.870   2.841
 5999SOL    HW218897   1.908   1.881   2.932
 6000SOL     OW18898   4.426   6.685   2.841
 6000SOL    HW118899   4.333   6.688   2.806
 6000SOL    HW218900   4.487   6.645   2.773
 6001SOL     OW18901   6.191   1.844   6.863
 6001SOL    HW118902   6.099   1.829   6.899
 6001SOL    HW218903   6.188   1.919   6.797
 6002SOL     OW18904   1.812   6.892   2.144
 6002SOL    HW118905   1.771   6.983   2.147
 6002SOL    HW218906   1.789   6.848   2.057
 6003SOL     OW18907   4.671   4.250   3.800
 6003SOL    HW118908   4.628   4.293   3.720
 6003SOL    HW218909   4.680   4.151   3.783
 6004SOL     OW18910   0.144   3.747   1.453
 6004SOL    HW118911   0.173   3.768   1.360
 6004SOL    HW218912   0.089   3.822   1.489
 6005SOL     OW18913   2.935   5.989   2.273
 6005SOL    HW118914   2.992   5.939   2.339
 6005SOL    HW218915   2.994   6.032   2.205
 6006SOL     OW18916   2.401   5.691   6.806
 6006SOL    HW118917   2.498   5.676   6.823
 6006SOL    HW218918   2.389   5.776   6.755
 6007SOL     OW18919   5.593   2.160   4.027
 6007SOL    HW118920   5.568   2.070   4.062
 6007SOL    HW218921   5.534   2.184   3.950
 6008SOL     OW18922   4.163   4.741   6.944
 6008SOL    HW118923   4.066   4.764   6.953
 6008SOL    HW218924   4.182   4.711   6.851
 6009SOL     OW18925   3.193   1.625   4.185
 6009SOL    HW118926   3.189   1.725   4.193
 6009SOL    HW218927   3.123   1.585   4.245
 6010SOL     OW18928   1.741   2.790   3.722
 6010SOL    HW118929   1.761   2.865   3.658
 6010SOL    HW218930   1.827   2.760   3.764
 6011SOL     OW18931   0.045   2.888   2.531
 6011SOL    HW118932   7.006   2.813   2.503
 6011SOL    HW218933   0.081   2.870   2.622
 6012SOL     OW18934   6.714   3.322   0.705
 6012SOL    HW118935   6.745   3.406   0.749
 6012SOL    HW218936   6.714   3.248   0.772
 6013SOL     OW18937   5.711   0.685   2.494
 6013SOL    HW118938   5.749   0.715   2.581
 6013SOL    HW218939   5.611   0.683   2.499
 6014SOL     OW18940   5.546   0.389   1.276
 6014SOL    HW118941   5.535   0.320   1.205
 6014SOL    HW218942   5.480   0.463   1.262
 6015SOL     OW18943   5.007   1.798   4.800
 6015SOL    HW118944   4.910   1.799   4.825
 6015SOL    HW218945   5.045   1.889   4.810
 6016SOL     OW18946   1.910   0.217   5.253
 6016SOL    HW118947   1.866   0.301   5.284
 6016SOL    HW218948   1.966   0.236   5.173
 6017SOL     OW18949   6.701   3.882   2.445
 6017SOL    HW118950   6.714   3.910   2.540
 6017SOL    HW218951   6.738   3.952   2.385
 6018SOL     OW18952   2.734   5.108   0.756
 6018SOL    HW118953   2.717   5.043   0.681
 6018SOL    HW218954   2.768   5.059   0.836
 6019SOL     OW18955   5.154   6.793   4.078
 6019SOL    HW118956   5.121   6.748   3.995
 6019SOL    HW218957   5.211   6.871   4.053
 6020SOL     OW18958   3.520   0.357   2.464
 6020SOL    HW118959   3.475   0.364   2.375
 6020SOL    HW218960   3.516   0.445   2.510
 6021SOL     OW18961   4.059   0.776   2.805
 6021SOL    HW118962   4.070   0.702   2.872
 6021SOL    HW218963   4.134   0.771   2.739
 6022SOL     OW18964   4.216   1.511   5.866
 6022SOL    HW118965   4.249   1.604   5.853
 6022SOL    HW218966   4.167   1.481   5.785
 6023SOL     OW18967   6.942   1.902   2.601
 6023SOL    HW118968   6.934   1.804   2.584
 6023SOL    HW218969   6.957   1.918   2.698
 6024SOL     OW18970   0.795   5.082   2.151
 6024SOL    HW118971   0.807   5.124   2.241
 6024SOL    HW218972   0.792   4.983   2.161
 6025SOL     OW18973   3.961   2.155   2.298
 6025SOL    HW118974   3.945   2.243   2.342
 6025SOL    HW218975   4.029   2.103   2.351
 6026SOL     OW18976   0.910   4.518   5.477
 6026SOL    HW118977   0.895   4.610   5.441
 6026SOL    HW218978   0.895   4.518   5.576
 6027SOL     OW18979   3.349   3.295   1.200
 6027SOL    HW118980   3.448   3.279   1.188
 6027SOL    HW218981   3.334   3.390   1.227
 6028SOL     OW18982   1.442   4.047   6.949
 6028SOL    HW118983   1.489   4.015   0.010
 6028SOL    HW218984   1.445   3.976   6.879
 6029SOL     OW18985   1.490   5.323   1.421
 6029SOL    HW118986   1.545   5.386   1.475
 6029SOL    HW218987   1.511   5.335   1.324
 6030SOL     OW18988   1.891   6.680   1.057
 6030SOL    HW118989   1.861   6.775   1.063
 6030SOL    HW218990   1.988   6.677   1.036
 6031SOL     OW18991   5.465   0.345   5.115
 6031SOL    HW118992   5.421   0.259   5.141
 6031SOL    HW218993   5.415   0.422   5.155
 6032SOL     OW18994   0.311   3.678   2.699
 6032SOL    HW118995   0.323   3.596   2.643
 6032SOL    HW218996   0.241   3.662   2.768
 6033SOL     OW18997   0.757   0.425   4.365
 6033SOL    HW118998   0.806   0.463   4.443
 6033SOL    HW218999   0.822   0.402   4.293
 6034SOL     OW19000   2.158   4.051   4.777
 6034SOL    HW119001   2.219   4.060   4.856
 6034SOL    HW219002   2.195   4.103   4.700
 6035SOL     OW19003   5.755   0.867   4.166
 6035SOL    HW119004   5.823   0.938   4.151
 6035SOL    HW219005   5.788   0.803   4.236
 6036SOL     OW19006   0.925   1.027   3.972
 6036SOL    HW119007   0.895   0.945   4.020
 6036SOL    HW219008   0.932   1.103   4.036
 6037SOL     OW19009   6.777   5.148   4.867
 6037SOL    HW119010   6.804   5.121   4.959
 6037SOL    HW219011   6.687   5.191   4.870
 6038SOL     OW19012   5.068   4.238   6.314
 6038SOL    HW119013   5.043   4.143   6.333
 6038SOL    HW219014   5.110   4.244   6.223
 6039SOL     OW19015   3.611   3.176   3.416
 6039SOL    HW119016   3.627   3.079   3.399
 6039SOL    HW219017   3.643   3.200   3.507
 6040SOL     OW19018   0.819   1.643   0.600
 6040SOL    HW119019   0.838   1.732   0.642
 6040SOL    HW219020   0.841   1.647   0.503
 6041SOL     OW19021   0.691   2.766   0.296
 6041SOL    HW119022   0.780   2.811   0.291
 6041SOL    HW219023   0.642   2.796   0.378
 6042SOL     OW19024   5.769   4.995   4.627
 6042SOL    HW119025   5.836   5.059   4.591
 6042SOL    HW219026   5.815   4.924   4.680
 6043SOL     OW19027   0.289   5.090   4.221
 6043SOL    HW119028   0.215   5.123   4.162
 6043SOL    HW219029   0.358   5.162   4.230
 6044SOL     OW19030   1.254   0.763   1.389
 6044SOL    HW119031   1.199   0.753   1.472
 6044SOL    HW219032   1.327   0.695   1.389
 6045SOL     OW19033   0.303   3.729   0.952
 6045SOL    HW119034   0.385   3.680   0.981
 6045SOL    HW219035   0.265   3.688   0.870
 6046SOL     OW19036   2.857   2.804   0.096
 6046SOL    HW119037   2.855   2.892   0.144
 6046SOL    HW219038   2.866   2.730   0.162
 6047SOL     OW19039   0.347   6.328   4.707
 6047SOL    HW119040   0.436   6.374   4.701
 6047SOL    HW219041   0.340   6.279   4.794
 6048SOL     OW19042   4.928   5.952   5.014
 6048SOL    HW119043   4.886   5.862   5.001
 6048SOL    HW219044   5.027   5.944   4.999
 6049SOL     OW19045   6.037   5.427   1.478
 6049SOL    HW119046   5.945   5.408   1.513
 6049SOL    HW219047   6.031   5.489   1.400
 6050SOL     OW19048   4.918   4.489   5.276
 6050SOL    HW119049   4.904   4.446   5.365
 6050SOL    HW219050   4.951   4.583   5.290
 6051SOL     OW19051   2.278   2.167   3.571
 6051SOL    HW119052   2.268   2.263   3.545
 6051SOL    HW219053   2.187   2.128   3.588
 6052SOL     OW19054   6.519   0.973   0.499
 6052SOL    HW119055   6.614   0.946   0.488
 6052SOL    HW219056   6.476   0.917   0.570
 6053SOL     OW19057   1.931   0.210   6.160
 6053SOL    HW119058   1.930   0.192   6.061
 6053SOL    HW219059   1.837   0.209   6.194
 6054SOL     OW19060   2.632   4.810   0.009
 6054SOL    HW119061   2.712   4.816   6.971
 6054SOL    HW219062   2.660   4.789   0.103
 6055SOL     OW19063   4.779   0.805   3.834
 6055SOL    HW119064   4.772   0.711   3.800
 6055SOL    HW219065   4.855   0.812   3.898
 6056SOL     OW19066   4.930   2.888   6.443
 6056SOL    HW119067   4.867   2.813   6.459
 6056SOL    HW219068   4.886   2.975   6.466
 6057SOL     OW19069   3.437   0.727   6.269
 6057SOL    HW119070   3.471   0.680   6.351
 6057SOL    HW219071   3.476   0.819   6.265
 6058SOL     OW19072   5.585   1.683   4.045
 6058SOL    HW119073   5.500   1.652   4.003
 6058SOL    HW219074   5.658   1.617   4.026
 6059SOL     OW19075   6.844   5.921   6.527
 6059SOL    HW119076   6.752   5.941   6.495
 6059SOL    HW219077   6.841   5.855   6.602
 6060SOL     OW19078   3.168   6.400   6.295
 6060SOL    HW119079   3.074   6.371   6.277
 6060SOL    HW219080   3.211   6.429   6.209
 6061SOL     OW19081   2.104   1.724   6.702
 6061SOL    HW119082   2.034   1.655   6.722
 6061SOL    HW219083   2.114   1.785   6.781
 6062SOL     OW19084   2.328   0.983   4.134
 6062SOL    HW119085   2.263   0.933   4.078
 6062SOL    HW219086   2.408   1.007   4.080
 6063SOL     OW19087   4.417   0.039   0.406
 6063SOL    HW119088   4.430   0.137   0.389
 6063SOL    HW219089   4.469   7.008   0.338
 6064SOL     OW19090   0.572   5.930   3.515
 6064SOL    HW119091   0.542   5.903   3.606
 6064SOL    HW219092   0.512   5.889   3.447
 6065SOL     OW19093   6.713   0.194   0.717
 6065SOL    HW119094   6.740   0.109   0.672
 6065SOL    HW219095   6.661   0.250   0.652
 6066SOL     OW19096   4.475   2.278   6.968
 6066SOL    HW119097   4.548   2.338   7.000
 6066SOL    HW219098   4.388   2.327   6.973
 6067SOL     OW19099   5.592   2.114   0.082
 6067SOL    HW119100   5.612   2.203   0.123
 6067SOL    HW219101   5.526   2.065   0.139
 6068SOL     OW19102   4.907   2.068   5.185
 6068SOL    HW119103   4.949   2.076   5.275
 6068SOL    HW219104   4.953   2.131   5.121
 6069SOL     OW19105   6.012   3.669   4.305
 6069SOL    HW119106   5.960   3.743   4.347
 6069SOL    HW219107   5.949   3.605   4.260
 6070SOL     OW19108   3.478   2.325   6.740
 6070SOL    HW119109   3.489   2.393   6.812
 6070SOL    HW219110   3.444   2.370   6.657
 6071SOL     OW19111   4.617   6.070   5.259
 6071SOL    HW119112   4.584   6.117   5.177
 6071SOL    HW219113   4.707   6.106   5.284
 6072SOL     OW19114   6.725   1.764   0.769
 6072SOL    HW119115   6.763   1.672   0.769
 6072SOL    HW219116   6.796   1.830   0.743
 6073SOL     OW19117   6.968   2.403   1.347
 6073SOL    HW119118   6.952   2.500   1.366
 6073SOL    HW219119   6.928   2.348   1.420
 6074SOL     OW19120   0.623   0.466   5.058
 6074SOL    HW119121   0.658   0.493   5.147
 6074SOL    HW219122   0.694   0.482   4.988
 6075SOL     OW19123   4.922   3.981   6.780
 6075SOL    HW119124   4.865   3.927   6.842
 6075SOL    HW219125   4.942   4.069   6.822
 6076SOL     OW19126   2.381   6.772   3.431
 6076SOL    HW119127   2.402   6.860   3.474
 6076SOL    HW219128   2.363   6.703   3.501
 6077SOL     OW19129   5.469   5.739   2.529
 6077SOL    HW119130   5.567   5.720   2.522
 6077SOL    HW219131   5.425   5.714   2.443
 6078SOL     OW19132   2.480   4.932   3.274
 6078SOL    HW119133   2.406   4.911   3.338
 6078SOL    HW219134   2.447   4.923   3.180
 6079SOL     OW19135   1.827   1.588   0.409
 6079SOL    HW119136   1.754   1.656   0.411
 6079SOL    HW219137   1.913   1.632   0.380
 6080SOL     OW19138   5.990   1.900   2.682
 6080SOL    HW119139   6.069   1.927   2.738
 6080SOL    HW219140   5.906   1.922   2.731
 6081SOL     OW19141   0.484   3.896   2.758
 6081SOL    HW119142   0.401   3.844   2.737
 6081SOL    HW219143   0.524   3.931   2.674
 6082SOL     OW19144   3.877   1.678   4.789
 6082SOL    HW119145   3.896   1.589   4.749
 6082SOL    HW219146   3.783   1.681   4.824
 6083SOL     OW19147   1.822   6.713   0.402
 6083SOL    HW119148   1.823   6.704   0.502
 6083SOL    HW219149   1.739   6.671   0.366
 6084SOL     OW19150   0.482   5.022   6.041
 6084SOL    HW119151   0.424   4.992   6.117
 6084SOL    HW219152   0.578   5.021   6.070
 6085SOL     OW19153   4.915   4.151   1.387
 6085SOL    HW119154   4.980   4.194   1.450
 6085SOL    HW219155   4.870   4.074   1.432
 6086SOL     OW19156   2.682   1.803   2.982
 6086SOL    HW119157   2.616   1.822   3.055
 6086SOL    HW219158   2.751   1.875   2.980
 6087SOL     OW19159   4.617   6.784   0.430
 6087SOL    HW119160   4.596   6.846   0.355
 6087SOL    HW219161   4.673   6.708   0.396
 6088SOL     OW19162   6.936   0.040   5.163
 6088SOL    HW119163   6.843   0.014   5.189
 6088SOL    HW219164   6.980   0.089   5.238
 6089SOL     OW19165   6.884   3.455   0.153
 6089SOL    HW119166   6.796   3.477   0.196
 6089SOL    HW219167   6.946   3.533   0.161
 6090SOL     OW19168   0.232   5.879   3.636
 6090SOL    HW119169   0.314   5.893   3.692
 6090SOL    HW219170   0.167   5.823   3.686
 6091SOL     OW19171   5.824   1.954   1.788
 6091SOL    HW119172   5.755   1.895   1.829
 6091SOL    HW219173   5.846   2.028   1.852
 6092SOL     OW19174   1.670   2.834   0.864
 6092SOL    HW119175   1.721   2.757   0.903
 6092SOL    HW219176   1.616   2.878   0.936
 6093SOL     OW19177   1.177   3.303   0.690
 6093SOL    HW119178   1.262   3.344   0.655
 6093SOL    HW219179   1.182   3.296   0.789
 6094SOL     OW19180   0.819   0.805   1.110
 6094SOL    HW119181   0.820   0.803   1.010
 6094SOL    HW219182   0.878   0.732   1.146
 6095SOL     OW19183   6.914   4.146   5.293
 6095SOL    HW119184   6.842   4.147   5.224
 6095SOL    HW219185   6.912   4.059   5.343
 6096SOL     OW19186   3.594   1.726   3.031
 6096SOL    HW119187   3.528   1.652   3.024
 6096SOL    HW219188   3.635   1.742   2.941
 6097SOL     OW19189   3.032   1.862   1.795
 6097SOL    HW119190   3.030   1.874   1.695
 6097SOL    HW219191   2.961   1.797   1.822
 6098SOL     OW19192   1.689   1.358   5.873
 6098SOL    HW119193   1.615   1.299   5.839
 6098SOL    HW219194   1.655   1.411   5.950
 6099SOL     OW19195   6.166   4.962   4.911
 6099SOL    HW119196   6.182   5.030   4.982
 6099SOL    HW219197   6.238   4.968   4.841
 6100SOL     OW19198   6.484   2.448   0.359
 6100SOL    HW119199   6.559   2.406   0.308
 6100SOL    HW219200   6.475   2.404   0.448
 6101SOL     OW19201   5.556   1.511   4.288
 6101SOL    HW119202   5.519   1.571   4.359
 6101SOL    HW219203   5.552   1.557   4.199
 6102SOL     OW19204   3.045   0.713   5.095
 6102SOL    HW119205   3.060   0.614   5.094
 6102SOL    HW219206   3.076   0.752   5.008
 6103SOL     OW19207   6.379   0.729   5.362
 6103SOL    HW119208   6.405   0.663   5.433
 6103SOL    HW219209   6.402   0.692   5.272
 6104SOL     OW19210   1.968   3.326   0.893
 6104SOL    HW119211   2.033   3.324   0.818
 6104SOL    HW219212   1.941   3.233   0.918
 6105SOL     OW19213   3.208   5.618   4.318
 6105SOL    HW119214   3.176   5.713   4.320
 6105SOL    HW219215   3.130   5.557   4.325
 6106SOL     OW19216   3.615   5.571   4.629
 6106SOL    HW119217   3.706   5.542   4.657
 6106SOL    HW219218   3.607   5.567   4.530
 6107SOL     OW19219   2.195   5.209   5.275
 6107SOL    HW119220   2.204   5.242   5.369
 6107SOL    HW219221   2.213   5.110   5.274
 6108SOL     OW19222   6.803   1.987   4.122
 6108SOL    HW119223   6.791   1.889   4.136
 6108SOL    HW219224   6.857   2.002   4.039
 6109SOL     OW19225   6.784   4.188   2.007
 6109SOL    HW119226   6.707   4.167   1.947
 6109SOL    HW219227   6.869   4.180   1.955
 6110SOL     OW19228   3.515   2.077   3.821
 6110SOL    HW119229   3.595   2.063   3.880
 6110SOL    HW219230   3.530   2.034   3.732
 6111SOL     OW19231   0.404   4.748   3.069
 6111SOL    HW119232   0.406   4.750   3.169
 6111SOL    HW219233   0.421   4.840   3.034
 6112SOL     OW19234   1.077   1.839   2.126
 6112SOL    HW119235   1.094   1.744   2.100
 6112SOL    HW219236   1.074   1.845   2.226
 6113SOL     OW19237   1.982   5.963   5.306
 6113SOL    HW119238   1.965   5.955   5.404
 6113SOL    HW219239   1.918   6.028   5.266
 6114SOL     OW19240   5.081   5.297   0.880
 6114SOL    HW119241   5.175   5.304   0.849
 6114SOL    HW219242   5.049   5.203   0.870
 6115SOL     OW19243   6.168   4.741   2.714
 6115SOL    HW119244   6.134   4.752   2.620
 6115SOL    HW219245   6.266   4.725   2.711
 6116SOL     OW19246   3.581   2.020   0.982
 6116SOL    HW119247   3.610   2.086   1.052
 6116SOL    HW219248   3.618   2.048   0.893
 6117SOL     OW19249   5.268   6.527   4.136
 6117SOL    HW119250   5.336   6.540   4.064
 6117SOL    HW219251   5.245   6.615   4.177
 6118SOL     OW19252   5.859   0.144   2.855
 6118SOL    HW119253   5.935   0.196   2.893
 6118SOL    HW219254   5.843   0.062   2.910
 6119SOL     OW19255   6.420   5.197   3.473
 6119SOL    HW119256   6.458   5.120   3.423
 6119SOL    HW219257   6.438   5.282   3.424
 6120SOL     OW19258   2.859   0.539   3.043
 6120SOL    HW119259   2.915   0.508   2.967
 6120SOL    HW219260   2.764   0.512   3.029
 6121SOL     OW19261   6.456   2.230   4.349
 6121SOL    HW119262   6.387   2.228   4.276
 6121SOL    HW219263   6.411   2.250   4.436
 6122SOL     OW19264   4.400   5.935   3.978
 6122SOL    HW119265   4.409   5.957   4.075
 6122SOL    HW219266   4.303   5.935   3.953
 6123SOL     OW19267   6.832   1.198   1.991
 6123SOL    HW119268   6.846   1.173   1.896
 6123SOL    HW219269   6.795   1.291   1.996
 6124SOL     OW19270   2.759   0.394   5.501
 6124SOL    HW119271   2.773   0.491   5.481
 6124SOL    HW219272   2.672   0.383   5.550
 6125SOL     OW19273   1.937   5.019   2.376
 6125SOL    HW119274   1.923   5.118   2.366
 6125SOL    HW219275   2.032   5.001   2.399
 6126SOL     OW19276   5.215   5.101   2.020
 6126SOL    HW119277   5.225   5.144   2.110
 6126SOL    HW219278   5.145   5.150   1.968
 6127SOL     OW19279   2.319   4.170   1.943
 6127SOL    HW119280   2.232   4.206   1.974
 6127SOL    HW219281   2.381   4.246   1.923
 6128SOL     OW19282   5.205   2.434   1.068
 6128SOL    HW119283   5.165   2.524   1.088
 6128SOL    HW219284   5.296   2.446   1.029
 6129SOL     OW19285   6.237   4.101   3.607
 6129SOL    HW119286   6.146   4.066   3.587
 6129SOL    HW219287   6.236   4.153   3.692
 6130SOL     OW19288   5.400   4.430   2.894
 6130SOL    HW119289   5.373   4.411   2.799
 6130SOL    HW219290   5.499   4.417   2.904
 6131SOL     OW19291   6.839   0.914   5.128
 6131SOL    HW119292   6.769   0.843   5.126
 6131SOL    HW219293   6.797   1.003   5.113
 6132SOL     OW19294   6.195   2.262   0.473
 6132SOL    HW119295   6.234   2.299   0.557
 6132SOL    HW219296   6.224   2.318   0.395
 6133SOL     OW19297   1.467   4.379   0.322
 6133SOL    HW119298   1.496   4.384   0.418
 6133SOL    HW219299   1.409   4.299   0.309
 6134SOL     OW19300   4.770   2.946   0.236
 6134SOL    HW119301   4.813   2.908   0.317
 6134SOL    HW219302   4.730   3.035   0.257
 6135SOL     OW19303   5.343   0.444   1.550
 6135SOL    HW119304   5.443   0.445   1.555
 6135SOL    HW219305   5.313   0.487   1.464
 6136SOL     OW19306   0.136   1.534   1.808
 6136SOL    HW119307   0.043   1.501   1.795
 6136SOL    HW219308   0.198   1.483   1.748
 6137SOL     OW19309   2.806   6.483   5.633
 6137SOL    HW119310   2.825   6.548   5.706
 6137SOL    HW219311   2.833   6.391   5.662
 6138SOL     OW19312   4.231   0.072   2.911
 6138SOL    HW119313   4.323   0.034   2.914
 6138SOL    HW219314   4.164   7.019   2.908
 6139SOL     OW19315   2.090   5.357   4.538
 6139SOL    HW119316   1.992   5.345   4.519
 6139SOL    HW219317   2.141   5.360   4.452
 6140SOL     OW19318   2.321   6.417   1.006
 6140SOL    HW119319   2.285   6.507   1.029
 6140SOL    HW219320   2.385   6.388   1.077
 6141SOL     OW19321   6.626   6.441   5.500
 6141SOL    HW119322   6.698   6.510   5.501
 6141SOL    HW219323   6.544   6.479   5.457
 6142SOL     OW19324   0.255   4.545   2.961
 6142SOL    HW119325   0.299   4.488   2.891
 6142SOL    HW219326   0.319   4.616   2.990
 6143SOL     OW19327   6.474   4.416   6.490
 6143SOL    HW119328   6.447   4.372   6.575
 6143SOL    HW219329   6.410   4.392   6.417
 6144SOL     OW19330   0.121   5.055   4.428
 6144SOL    HW119331   0.186   5.027   4.356
 6144SOL    HW219332   0.090   5.148   4.410
 6145SOL     OW19333   4.983   5.782   3.874
 6145SOL    HW119334   4.890   5.775   3.909
 6145SOL    HW219335   4.980   5.803   3.776
 6146SOL     OW19336   5.616   1.031   3.608
 6146SOL    HW119337   5.687   1.081   3.559
 6146SOL    HW219338   5.648   0.939   3.631
 6147SOL     OW19339   1.212   3.725   3.195
 6147SOL    HW119340   1.291   3.740   3.137
 6147SOL    HW219341   1.128   3.744   3.143
 6148SOL     OW19342   6.021   6.000   4.231
 6148SOL    HW119343   6.115   5.973   4.212
 6148SOL    HW219344   5.981   6.041   4.148
 6149SOL     OW19345   2.299   0.137   4.321
 6149SOL    HW119346   2.395   0.120   4.344
 6149SOL    HW219347   2.262   0.061   4.268
 6150SOL     OW19348   4.064   5.407   6.108
 6150SOL    HW119349   4.117   5.429   6.027
 6150SOL    HW219350   3.978   5.363   6.081
 6151SOL     OW19351   4.405   1.301   5.808
 6151SOL    HW119352   4.365   1.380   5.853
 6151SOL    HW219353   4.415   1.320   5.710
 6152SOL     OW19354   0.155   5.032   6.099
 6152SOL    HW119355   0.214   5.023   6.019
 6152SOL    HW219356   0.177   4.961   6.166
 6153SOL     OW19357   4.780   4.122   0.036
 6153SOL    HW119358   4.737   4.128   0.127
 6153SOL    HW219359   4.740   4.045   7.007
 6154SOL     OW19360   4.942   3.074   2.990
 6154SOL    HW119361   4.946   3.028   3.079
 6154SOL    HW219362   4.951   3.007   2.917
 6155SOL     OW19363   1.488   3.574   4.110
 6155SOL    HW119364   1.399   3.607   4.078
 6155SOL    HW219365   1.498   3.477   4.086
 6156SOL     OW19366   6.443   0.593   4.235
 6156SOL    HW119367   6.358   0.643   4.215
 6156SOL    HW219368   6.450   0.578   4.333
 6157SOL     OW19369   1.730   1.758   3.411
 6157SOL    HW119370   1.712   1.842   3.462
 6157SOL    HW219371   1.828   1.738   3.411
 6158SOL     OW19372   4.505   0.861   0.637
 6158SOL    HW119373   4.521   0.938   0.575
 6158SOL    HW219374   4.420   0.876   0.687
 6159SOL     OW19375   5.407   3.249   7.005
 6159SOL    HW119376   5.453   3.206   0.062
 6159SOL    HW219377   5.408   3.348   7.016
 6160SOL     OW19378   6.645   4.738   1.958
 6160SOL    HW119379   6.714   4.694   2.015
 6160SOL    HW219380   6.571   4.772   2.015
 6161SOL     OW19381   5.624   0.315   6.492
 6161SOL    HW119382   5.550   0.374   6.460
 6161SOL    HW219383   5.712   0.363   6.482
 6162SOL     OW19384   6.175   5.344   4.015
 6162SOL    HW119385   6.101   5.292   4.060
 6162SOL    HW219386   6.164   5.337   3.916
 6163SOL     OW19387   6.917   3.894   1.673
 6163SOL    HW119388   6.830   3.855   1.643
 6163SOL    HW219389   6.960   3.832   1.739
 6164SOL     OW19390   4.750   2.539   0.597
 6164SOL    HW119391   4.687   2.482   0.648
 6164SOL    HW219392   4.735   2.527   0.499
 6165SOL     OW19393   4.647   6.454   0.137
 6165SOL    HW119394   4.581   6.508   0.084
 6165SOL    HW219395   4.683   6.509   0.212
 6166SOL     OW19396   3.717   1.627   0.029
 6166SOL    HW119397   3.733   1.589   0.120
 6166SOL    HW219398   3.662   1.710   0.037
 6167SOL     OW19399   6.796   4.816   3.150
 6167SOL    HW119400   6.823   4.721   3.158
 6167SOL    HW219401   6.873   4.871   3.119
 6168SOL     OW19402   0.652   2.601   1.809
 6168SOL    HW119403   0.656   2.588   1.908
 6168SOL    HW219404   0.672   2.697   1.787
 6169SOL     OW19405   1.879   3.896   2.253
 6169SOL    HW119406   1.904   3.901   2.349
 6169SOL    HW219407   1.832   3.809   2.235
 6170SOL     OW19408   6.692   1.906   3.759
 6170SOL    HW119409   6.613   1.948   3.804
 6170SOL    HW219410   6.776   1.946   3.796
 6171SOL     OW19411   6.458   0.466   6.544
 6171SOL    HW119412   6.514   0.483   6.462
 6171SOL    HW219413   6.381   0.530   6.544
 6172SOL     OW19414   0.996   4.346   3.947
 6172SOL    HW119415   1.031   4.367   4.038
 6172SOL    HW219416   1.064   4.373   3.879
 6173SOL     OW19417   6.000   6.211   3.493
 6173SOL    HW119418   5.991   6.310   3.494
 6173SOL    HW219419   6.011   6.179   3.399
 6174SOL     OW19420   6.069   2.900   1.821
 6174SOL    HW119421   6.096   2.805   1.814
 6174SOL    HW219422   6.105   2.939   1.906
 6175SOL     OW19423   3.905   2.239   6.374
 6175SOL    HW119424   3.854   2.193   6.446
 6175SOL    HW219425   3.999   2.254   6.403
 6176SOL     OW19426   3.612   4.337   6.351
 6176SOL    HW119427   3.648   4.424   6.319
 6176SOL    HW219428   3.533   4.353   6.411
 6177SOL     OW19429   5.975   6.758   1.264
 6177SOL    HW119430   5.907   6.767   1.337
 6177SOL    HW219431   5.979   6.843   1.211
 6178SOL     OW19432   4.281   4.756   1.316
 6178SOL    HW119433   4.201   4.758   1.256
 6178SOL    HW219434   4.290   4.665   1.355
 6179SOL     OW19435   5.941   4.812   4.799
 6179SOL    HW119436   5.950   4.720   4.837
 6179SOL    HW219437   6.019   4.868   4.827
 6180SOL     OW19438   3.021   4.648   6.832
 6180SOL    HW119439   3.102   4.693   6.871
 6180SOL    HW219440   2.940   4.705   6.848
 6181SOL     OW19441   6.125   6.437   0.231
 6181SOL    HW119442   6.221   6.458   0.215
 6181SOL    HW219443   6.114   6.338   0.241
 6182SOL     OW19444   3.105   2.689   0.395
 6182SOL    HW119445   3.156   2.605   0.412
 6182SOL    HW219446   3.025   2.668   0.339
 6183SOL     OW19447   0.166   6.794   0.739
 6183SOL    HW119448   0.114   6.875   0.764
 6183SOL    HW219449   0.106   6.727   0.696
 6184SOL     OW19450   3.101   6.570   5.450
 6184SOL    HW119451   3.085   6.543   5.545
 6184SOL    HW219452   3.053   6.509   5.388
 6185SOL     OW19453   4.125   3.520   4.877
 6185SOL    HW119454   4.026   3.510   4.876
 6185SOL    HW219455   4.152   3.585   4.948
 6186SOL     OW19456   0.621   1.843   2.081
 6186SOL    HW119457   0.708   1.893   2.087
 6186SOL    HW219458   0.549   1.898   2.124
 6187SOL     OW19459   3.397   1.508   6.135
 6187SOL    HW119460   3.482   1.555   6.112
 6187SOL    HW219461   3.412   1.410   6.137
 6188SOL     OW19462   1.833   1.242   5.018
 6188SOL    HW119463   1.748   1.195   5.040
 6188SOL    HW219464   1.899   1.229   5.093
 6189SOL     OW19465   6.514   5.037   0.932
 6189SOL    HW119466   6.520   5.097   1.012
 6189SOL    HW219467   6.427   4.989   0.932
 6190SOL     OW19468   0.310   2.980   4.502
 6190SOL    HW119469   0.328   2.920   4.580
 6190SOL    HW219470   0.316   2.927   4.417
 6191SOL     OW19471   3.345   3.631   0.193
 6191SOL    HW119472   3.323   3.574   0.273
 6191SOL    HW219473   3.284   3.606   0.117
 6192SOL     OW19474   2.944   1.538   0.901
 6192SOL    HW119475   2.980   1.544   0.994
 6192SOL    HW219476   2.907   1.446   0.886
 6193SOL     OW19477   4.105   6.145   6.488
 6193SOL    HW119478   4.147   6.074   6.544
 6193SOL    HW219479   4.008   6.123   6.474
 6194SOL     OW19480   5.515   6.849   6.767
 6194SOL    HW119481   5.518   6.910   6.687
 6194SOL    HW219482   5.466   6.766   6.742
 6195SOL     OW19483   5.853   6.041   6.310
 6195SOL    HW119484   5.899   6.059   6.398
 6195SOL    HW219485   5.921   6.042   6.237
 6196SOL     OW19486   5.839   3.768   2.888
 6196SOL    HW119487   5.835   3.671   2.863
 6196SOL    HW219488   5.795   3.822   2.816
 6197SOL     OW19489   1.171   5.513   0.939
 6197SOL    HW119490   1.211   5.514   1.030
 6197SOL    HW219491   1.072   5.525   0.947
 6198SOL     OW19492   5.738   1.350   6.665
 6198SOL    HW119493   5.693   1.425   6.617
 6198SOL    HW219494   5.829   1.379   6.695
 6199SOL     OW19495   1.971   0.041   5.937
 6199SOL    HW119496   2.069   0.052   5.921
 6199SOL    HW219497   1.922   0.049   5.850
 6200SOL     OW19498   1.594   0.543   1.033
 6200SOL    HW119499   1.672   0.572   1.088
 6200SOL    HW219500   1.581   0.444   1.044
 6201SOL     OW19501   0.079   4.790   2.920
 6201SOL    HW119502   0.166   4.770   2.964
 6201SOL    HW219503   0.032   4.863   2.970
 6202SOL     OW19504   5.771   1.145   2.551
 6202SOL    HW119505   5.829   1.082   2.603
 6202SOL    HW219506   5.774   1.235   2.593
 6203SOL     OW19507   6.411   0.136   2.053
 6203SOL    HW119508   6.335   0.184   2.096
 6203SOL    HW219509   6.387   0.040   2.040
 6204SOL     OW19510   1.282   6.370   5.109
 6204SOL    HW119511   1.205   6.311   5.087
 6204SOL    HW219512   1.249   6.455   5.149
 6205SOL     OW19513   5.483   4.584   3.880
 6205SOL    HW119514   5.490   4.490   3.846
 6205SOL    HW219515   5.460   4.645   3.805
 6206SOL     OW19516   5.256   1.823   3.536
 6206SOL    HW119517   5.331   1.834   3.471
 6206SOL    HW219518   5.188   1.894   3.520
 6207SOL     OW19519   0.587   5.849   4.266
 6207SOL    HW119520   0.536   5.777   4.313
 6207SOL    HW219521   0.627   5.813   4.182
 6208SOL     OW19522   4.419   4.222   5.620
 6208SOL    HW119523   4.504   4.221   5.674
 6208SOL    HW219524   4.435   4.272   5.534
 6209SOL     OW19525   3.544   2.291   1.700
 6209SOL    HW119526   3.604   2.319   1.775
 6209SOL    HW219527   3.499   2.205   1.723
 6210SOL     OW19528   5.467   1.675   4.484
 6210SOL    HW119529   5.412   1.757   4.466
 6210SOL    HW219530   5.560   1.703   4.508
 6211SOL     OW19531   5.781   4.159   5.053
 6211SOL    HW119532   5.748   4.109   4.973
 6211SOL    HW219533   5.706   4.213   5.092
 6212SOL     OW19534   5.133   4.610   5.106
 6212SOL    HW119535   5.217   4.564   5.078
 6212SOL    HW219536   5.071   4.617   5.027
 6213SOL     OW19537   4.024   5.828   0.520
 6213SOL    HW119538   3.945   5.804   0.464
 6213SOL    HW219539   4.030   5.928   0.528
 6214SOL     OW19540   5.935   6.863   0.289
 6214SOL    HW119541   5.969   6.939   0.232
 6214SOL    HW219542   5.900   6.900   0.375
 6215SOL     OW19543   5.686   2.541   5.328
 6215SOL    HW119544   5.594   2.562   5.295
 6215SOL    HW219545   5.753   2.564   5.257
 6216SOL     OW19546   4.124   1.630   4.550
 6216SOL    HW119547   4.076   1.587   4.474
 6216SOL    HW219548   4.143   1.562   4.621
 6217SOL     OW19549   0.381   4.115   2.919
 6217SOL    HW119550   0.425   4.064   2.845
 6217SOL    HW219551   0.431   4.199   2.936
 6218SOL     OW19552   4.530   5.999   6.996
 6218SOL    HW119553   4.535   5.944   6.912
 6218SOL    HW219554   4.603   5.971   0.037
 6219SOL     OW19555   2.128   1.132   6.783
 6219SOL    HW119556   2.137   1.232   6.780
 6219SOL    HW219557   2.116   1.097   6.690
 6220SOL     OW19558   3.437   6.228   0.795
 6220SOL    HW119559   3.491   6.301   0.837
 6220SOL    HW219560   3.426   6.154   0.861
 6221SOL     OW19561   5.169   5.667   6.597
 6221SOL    HW119562   5.112   5.587   6.612
 6221SOL    HW219563   5.266   5.640   6.600
 6222SOL     OW19564   7.016   1.855   2.247
 6222SOL    HW119565   6.979   1.806   2.168
 6222SOL    HW219566   7.013   1.954   2.230
 6223SOL     OW19567   7.005   5.035   4.086
 6223SOL    HW119568   6.921   5.075   4.050
 6223SOL    HW219569   0.040   5.002   4.010
 6224SOL     OW19570   3.941   0.113   0.383
 6224SOL    HW119571   4.039   0.092   0.390
 6224SOL    HW219572   3.919   0.141   0.290
 6225SOL     OW19573   5.146   6.307   6.396
 6225SOL    HW119574   5.057   6.268   6.417
 6225SOL    HW219575   5.200   6.312   6.480
 6226SOL     OW19576   1.029   1.104   4.558
 6226SOL    HW119577   0.989   1.064   4.476
 6226SOL    HW219578   1.004   1.201   4.563
 6227SOL     OW19579   2.849   4.670   5.708
 6227SOL    HW119580   2.916   4.727   5.660
 6227SOL    HW219581   2.808   4.604   5.645
 6228SOL     OW19582   1.188   3.210   3.756
 6228SOL    HW119583   1.283   3.241   3.758
 6228SOL    HW219584   1.174   3.153   3.676
 6229SOL     OW19585   0.658   3.339   3.912
 6229SOL    HW119586   0.758   3.330   3.909
 6229SOL    HW219587   0.619   3.256   3.952
 6230SOL     OW19588   0.281   1.151   1.275
 6230SOL    HW119589   0.328   1.239   1.289
 6230SOL    HW219590   0.231   1.128   1.358
 6231SOL     OW19591   2.216   5.337   5.815
 6231SOL    HW119592   2.161   5.385   5.883
 6231SOL    HW219593   2.313   5.357   5.830
 6232SOL     OW19594   4.372   0.547   6.432
 6232SOL    HW119595   4.276   0.548   6.403
 6232SOL    HW219596   4.384   0.609   6.509
 6233SOL     OW19597   6.688   3.230   1.118
 6233SOL    HW119598   6.704   3.148   1.063
 6233SOL    HW219599   6.604   3.220   1.170
 6234SOL     OW19600   4.971   4.614   4.407
 6234SOL    HW119601   4.925   4.645   4.490
 6234SOL    HW219602   4.973   4.514   4.405
 6235SOL     OW19603   0.113   0.488   2.659
 6235SOL    HW119604   0.111   0.569   2.716
 6235SOL    HW219605   0.022   0.447   2.654
 6236SOL     OW19606   6.806   5.789   1.694
 6236SOL    HW119607   6.859   5.807   1.776
 6236SOL    HW219608   6.802   5.690   1.678
 6237SOL     OW19609   3.284   1.334   2.144
 6237SOL    HW119610   3.217   1.402   2.113
 6237SOL    HW219611   3.272   1.318   2.242
 6238SOL     OW19612   2.443   0.796   3.533
 6238SOL    HW119613   2.345   0.793   3.550
 6238SOL    HW219614   2.484   0.708   3.557
 6239SOL     OW19615   4.934   1.299   4.615
 6239SOL    HW119616   4.837   1.323   4.624
 6239SOL    HW219617   4.972   1.280   4.706
 6240SOL     OW19618   4.128   3.285   3.741
 6240SOL    HW119619   4.145   3.383   3.737
 6240SOL    HW219620   4.117   3.257   3.837
 6241SOL     OW19621   3.737   6.795   3.453
 6241SOL    HW119622   3.732   6.757   3.546
 6241SOL    HW219623   3.733   6.895   3.458
 6242SOL     OW19624   2.761   2.107   3.658
 6242SOL    HW119625   2.822   2.115   3.736
 6242SOL    HW219626   2.674   2.067   3.688
 6243SOL     OW19627   4.483   1.631   6.909
 6243SOL    HW119628   4.443   1.545   6.940
 6243SOL    HW219629   4.533   1.616   6.824
 6244SOL     OW19630   4.624   2.544   1.867
 6244SOL    HW119631   4.537   2.504   1.840
 6244SOL    HW219632   4.620   2.573   1.963
 6245SOL     OW19633   0.203   5.243   1.985
 6245SOL    HW119634   0.256   5.187   2.048
 6245SOL    HW219635   0.252   5.252   1.898
 6246SOL     OW19636   6.751   6.973   4.630
 6246SOL    HW119637   6.717   6.889   4.673
 6246SOL    HW219638   6.708   6.984   4.540
 6247SOL     OW19639   6.409   5.906   3.644
 6247SOL    HW119640   6.488   5.872   3.594
 6247SOL    HW219641   6.363   5.977   3.590
 6248SOL     OW19642   3.921   3.161   5.132
 6248SOL    HW119643   3.911   3.257   5.105
 6248SOL    HW219644   3.977   3.156   5.215
 6249SOL     OW19645   5.897   3.524   2.463
 6249SOL    HW119646   5.960   3.554   2.535
 6249SOL    HW219647   5.803   3.531   2.496
 6250SOL     OW19648   5.590   6.800   6.457
 6250SOL    HW119649   5.641   6.884   6.439
 6250SOL    HW219650   5.499   6.806   6.418
 6251SOL     OW19651   2.642   1.021   4.259
 6251SOL    HW119652   2.736   1.022   4.292
 6251SOL    HW219653   2.581   1.053   4.331
 6252SOL     OW19654   3.370   5.211   6.719
 6252SOL    HW119655   3.403   5.231   6.811
 6252SOL    HW219656   3.448   5.201   6.657
 6253SOL     OW19657   3.756   6.076   3.953
 6253SOL    HW119658   3.674   6.020   3.950
 6253SOL    HW219659   3.748   6.150   3.886
 6254SOL     OW19660   0.614   6.938   1.738
 6254SOL    HW119661   0.610   6.891   1.650
 6254SOL    HW219662   0.649   0.010   1.725
 6255SOL     OW19663   1.148   1.655   0.582
 6255SOL    HW119664   1.113   1.562   0.569
 6255SOL    HW219665   1.248   1.652   0.583
 6256SOL     OW19666   5.721   5.711   2.455
 6256SOL    HW119667   5.704   5.792   2.398
 6256SOL    HW219668   5.747   5.635   2.396
 6257SOL     OW19669   3.291   4.772   0.678
 6257SOL    HW119670   3.307   4.841   0.607
 6257SOL    HW219671   3.312   4.681   0.643
 6258SOL     OW19672   4.335   5.143   5.168
 6258SOL    HW119673   4.322   5.228   5.219
 6258SOL    HW219674   4.427   5.108   5.183
 6259SOL     OW19675   4.204   1.076   5.099
 6259SOL    HW119676   4.282   1.138   5.109
 6259SOL    HW219677   4.237   0.981   5.094
 6260SOL     OW19678   2.199   1.390   0.734
 6260SOL    HW119679   2.148   1.466   0.695
 6260SOL    HW219680   2.267   1.425   0.798
 6261SOL     OW19681   3.477   0.134   0.693
 6261SOL    HW119682   3.417   0.112   0.616
 6261SOL    HW219683   3.423   0.177   0.766
 6262SOL     OW19684   5.835   0.816   2.308
 6262SOL    HW119685   5.791   0.768   2.385
 6262SOL    HW219686   5.901   0.882   2.344
 6263SOL     OW19687   6.202   5.835   5.853
 6263SOL    HW119688   6.153   5.921   5.841
 6263SOL    HW219689   6.261   5.842   5.933
 6264SOL     OW19690   2.095   5.814   0.121
 6264SOL    HW119691   2.037   5.892   0.096
 6264SOL    HW219692   2.159   5.841   0.193
 6265SOL     OW19693   4.368   6.503   6.030
 6265SOL    HW119694   4.305   6.430   6.004
 6265SOL    HW219695   4.451   6.462   6.068
 6266SOL     OW19696   3.222   5.144   2.769
 6266SOL    HW119697   3.216   5.049   2.798
 6266SOL    HW219698   3.281   5.151   2.689
 6267SOL     OW19699   1.225   6.371   4.806
 6267SOL    HW119700   1.288   6.411   4.872
 6267SOL    HW219701   1.262   6.381   4.713
 6268SOL     OW19702   3.222   1.825   1.137
 6268SOL    HW119703   3.271   1.740   1.154
 6268SOL    HW219704   3.251   1.864   1.049
 6269SOL     OW19705   6.938   5.828   6.282
 6269SOL    HW119706   6.865   5.835   6.350
 6269SOL    HW219707   6.991   5.745   6.299
 6270SOL     OW19708   2.111   6.256   0.863
 6270SOL    HW119709   2.102   6.156   0.865
 6270SOL    HW219710   2.195   6.283   0.911
 6271SOL     OW19711   6.631   2.800   5.732
 6271SOL    HW119712   6.728   2.779   5.744
 6271SOL    HW219713   6.614   2.896   5.753
 6272SOL     OW19714   0.203   0.796   6.874
 6272SOL    HW119715   0.147   0.805   6.957
 6272SOL    HW219716   0.221   0.887   6.837
 6273SOL     OW19717   0.893   6.593   2.720
 6273SOL    HW119718   0.889   6.685   2.680
 6273SOL    HW219719   0.808   6.544   2.700
 6274SOL     OW19720   2.736   5.763   3.947
 6274SOL    HW119721   2.692   5.680   3.983
 6274SOL    HW219722   2.799   5.799   4.015
 6275SOL     OW19723   2.867   5.679   6.619
 6275SOL    HW119724   2.919   5.744   6.563
 6275SOL    HW219725   2.865   5.590   6.573
 6276SOL     OW19726   1.363   5.650   2.425
 6276SOL    HW119727   1.445   5.679   2.474
 6276SOL    HW219728   1.300   5.605   2.489
 6277SOL     OW19729   5.521   2.487   1.430
 6277SOL    HW119730   5.514   2.475   1.529
 6277SOL    HW219731   5.466   2.566   1.402
 6278SOL     OW19732   4.346   2.135   0.818
 6278SOL    HW119733   4.326   2.145   0.915
 6278SOL    HW219734   4.354   2.225   0.776
 6279SOL     OW19735   3.428   6.796   1.362
 6279SOL    HW119736   3.352   6.749   1.407
 6279SOL    HW219737   3.434   6.890   1.396
 6280SOL     OW19738   5.282   2.470   6.601
 6280SOL    HW119739   5.340   2.483   6.520
 6280SOL    HW219740   5.301   2.380   6.641
 6281SOL     OW19741   4.928   4.454   6.114
 6281SOL    HW119742   4.859   4.383   6.119
 6281SOL    HW219743   4.938   4.497   6.204
 6282SOL     OW19744   0.540   3.707   6.249
 6282SOL    HW119745   0.603   3.704   6.327
 6282SOL    HW219746   0.447   3.714   6.283
 6283SOL     OW19747   2.662   6.609   4.566
 6283SOL    HW119748   2.654   6.566   4.476
 6283SOL    HW219749   2.579   6.591   4.618
 6284SOL     OW19750   1.552   3.333   5.416
 6284SOL    HW119751   1.648   3.341   5.389
 6284SOL    HW219752   1.509   3.257   5.367
 6285SOL     OW19753   1.281   3.184   2.857
 6285SOL    HW119754   1.319   3.233   2.778
 6285SOL    HW219755   1.354   3.169   2.925
 6286SOL     OW19756   0.756   2.113   6.703
 6286SOL    HW119757   0.774   2.195   6.648
 6286SOL    HW219758   0.708   2.045   6.648
 6287SOL     OW19759   4.553   4.914   5.234
 6287SOL    HW119760   4.528   4.818   5.223
 6287SOL    HW219761   4.551   4.938   5.331
 6288SOL     OW19762   2.611   3.794   5.734
 6288SOL    HW119763   2.541   3.865   5.747
 6288SOL    HW219764   2.570   3.704   5.744
 6289SOL     OW19765   1.983   4.911   4.931
 6289SOL    HW119766   2.079   4.934   4.948
 6289SOL    HW219767   1.974   4.870   4.840
 6290SOL     OW19768   5.805   6.912   4.063
 6290SOL    HW119769   5.766   7.000   4.037
 6290SOL    HW219770   5.745   6.867   4.129
 6291SOL     OW19771   3.791   3.489   2.190
 6291SOL    HW119772   3.776   3.475   2.092
 6291SOL    HW219773   3.728   3.559   2.223
 6292SOL     OW19774   1.716   4.690   4.611
 6292SOL    HW119775   1.674   4.776   4.640
 6292SOL    HW219776   1.809   4.684   4.649
 6293SOL     OW19777   3.057   1.907   6.292
 6293SOL    HW119778   3.080   1.849   6.371
 6293SOL    HW219779   3.112   1.991   6.297
 6294SOL     OW19780   2.056   1.389   2.089
 6294SOL    HW119781   2.071   1.464   2.025
 6294SOL    HW219782   2.038   1.425   2.180
 6295SOL     OW19783   4.386   3.467   6.403
 6295SOL    HW119784   4.354   3.434   6.314
 6295SOL    HW219785   4.464   3.529   6.390
 6296SOL     OW19786   0.853   2.725   6.677
 6296SOL    HW119787   0.890   2.749   6.588
 6296SOL    HW219788   0.762   2.763   6.687
 6297SOL     OW19789   6.770   1.345   3.908
 6297SOL    HW119790   6.720   1.267   3.870
 6297SOL    HW219791   6.856   1.312   3.948
 6298SOL     OW19792   0.360   6.440   0.942
 6298SOL    HW119793   0.313   6.368   0.889
 6298SOL    HW219794   0.436   6.399   0.992
 6299SOL     OW19795   3.701   1.411   4.240
 6299SOL    HW119796   3.718   1.351   4.318
 6299SOL    HW219797   3.634   1.481   4.266
 6300SOL     OW19798   2.503   1.976   0.293
 6300SOL    HW119799   2.498   1.905   0.363
 6300SOL    HW219800   2.560   1.943   0.217
 6301SOL     OW19801   4.259   6.348   6.567
 6301SOL    HW119802   4.302   6.340   6.657
 6301SOL    HW219803   4.201   6.268   6.552
 6302SOL     OW19804   1.690   3.365   6.851
 6302SOL    HW119805   1.741   3.296   6.903
 6302SOL    HW219806   1.653   3.434   6.914
 6303SOL     OW19807   0.663   5.443   4.426
 6303SOL    HW119808   0.648   5.373   4.496
 6303SOL    HW219809   0.626   5.530   4.459
 6304SOL     OW19810   3.083   0.782   4.139
 6304SOL    HW119811   3.077   0.878   4.111
 6304SOL    HW219812   3.024   0.767   4.218
 6305SOL     OW19813   1.037   5.726   6.033
 6305SOL    HW119814   1.068   5.816   6.005
 6305SOL    HW219815   0.937   5.725   6.038
 6306SOL     OW19816   0.588   4.433   5.115
 6306SOL    HW119817   0.556   4.403   5.025
 6306SOL    HW219818   0.674   4.387   5.137
 6307SOL     OW19819   3.671   2.844   2.371
 6307SOL    HW119820   3.716   2.763   2.334
 6307SOL    HW219821   3.740   2.915   2.387
 6308SOL     OW19822   0.633   2.353   0.472
 6308SOL    HW119823   0.571   2.312   0.539
 6308SOL    HW219824   0.630   2.301   0.387
 6309SOL     OW19825   1.826   6.285   4.792
 6309SOL    HW119826   1.776   6.225   4.729
 6309SOL    HW219827   1.920   6.253   4.801
 6310SOL     OW19828   1.028   6.881   3.580
 6310SOL    HW119829   1.015   6.930   3.666
 6310SOL    HW219830   1.053   6.945   3.508
 6311SOL     OW19831   6.291   1.293   6.543
 6311SOL    HW119832   6.272   1.377   6.491
 6311SOL    HW219833   6.282   1.312   6.641
 6312SOL     OW19834   3.156   5.716   0.156
 6312SOL    HW119835   3.140   5.741   0.252
 6312SOL    HW219836   3.216   5.636   0.152
 6313SOL     OW19837   6.259   4.367   3.773
 6313SOL    HW119838   6.251   4.452   3.721
 6313SOL    HW219839   6.335   4.374   3.837
 6314SOL     OW19840   1.932   6.283   2.768
 6314SOL    HW119841   1.858   6.324   2.714
 6314SOL    HW219842   2.001   6.246   2.706
 6315SOL     OW19843   2.068   1.801   3.636
 6315SOL    HW119844   2.088   1.804   3.734
 6315SOL    HW219845   2.130   1.736   3.592
 6316SOL     OW19846   4.318   0.397   4.958
 6316SOL    HW119847   4.364   0.426   4.874
 6316SOL    HW219848   4.385   0.359   5.021
 6317SOL     OW19849   5.294   4.648   3.024
 6317SOL    HW119850   5.302   4.550   3.005
 6317SOL    HW219851   5.385   4.688   3.033
 6318SOL     OW19852   6.434   6.838   6.906
 6318SOL    HW119853   6.431   6.766   6.837
 6318SOL    HW219854   6.384   6.809   6.987
 6319SOL     OW19855   4.633   1.883   4.512
 6319SOL    HW119856   4.548   1.932   4.529
 6319SOL    HW219857   4.678   1.863   4.599
 6320SOL     OW19858   6.208   1.530   5.411
 6320SOL    HW119859   6.157   1.475   5.345
 6320SOL    HW219860   6.213   1.481   5.498
 6321SOL     OW19861   0.155   2.538   0.374
 6321SOL    HW119862   0.240   2.589   0.363
 6321SOL    HW219863   0.083   2.601   0.404
 6322SOL     OW19864   1.173   1.333   3.194
 6322SOL    HW119865   1.246   1.396   3.219
 6322SOL    HW219866   1.143   1.352   3.101
 6323SOL     OW19867   2.264   4.939   0.732
 6323SOL    HW119868   2.185   4.911   0.786
 6323SOL    HW219869   2.342   4.956   0.792
 6324SOL     OW19870   4.747   3.606   1.238
 6324SOL    HW119871   4.757   3.520   1.288
 6324SOL    HW219872   4.797   3.679   1.287
 6325SOL     OW19873   1.821   3.074   3.968
 6325SOL    HW119874   1.833   2.982   4.006
 6325SOL    HW219875   1.900   3.131   3.993
 6326SOL     OW19876   5.396   5.363   5.366
 6326SOL    HW119877   5.463   5.294   5.341
 6326SOL    HW219878   5.376   5.421   5.287
 6327SOL     OW19879   0.690   1.321   3.431
 6327SOL    HW119880   0.768   1.285   3.482
 6327SOL    HW219881   0.669   1.413   3.463
 6328SOL     OW19882   4.747   3.854   5.245
 6328SOL    HW119883   4.708   3.762   5.234
 6328SOL    HW219884   4.839   3.857   5.207
 6329SOL     OW19885   0.886   1.941   6.187
 6329SOL    HW119886   0.865   1.988   6.102
 6329SOL    HW219887   0.801   1.922   6.236
 6330SOL     OW19888   4.498   1.603   4.120
 6330SOL    HW119889   4.514   1.601   4.022
 6330SOL    HW219890   4.525   1.516   4.161
 6331SOL     OW19891   1.123   3.046   3.963
 6331SOL    HW119892   1.122   3.106   4.044
 6331SOL    HW219893   1.163   3.096   3.886
 6332SOL     OW19894   3.065   1.561   6.978
 6332SOL    HW119895   3.092   1.559   0.053
 6332SOL    HW219896   3.124   1.625   6.928
 6333SOL     OW19897   5.557   0.585   0.867
 6333SOL    HW119898   5.468   0.577   0.912
 6333SOL    HW219899   5.551   0.546   0.775
 6334SOL     OW19900   1.584   1.106   1.389
 6334SOL    HW119901   1.641   1.162   1.329
 6334SOL    HW219902   1.631   1.020   1.410
 6335SOL     OW19903   6.646   3.059   5.844
 6335SOL    HW119904   6.634   3.084   5.940
 6335SOL    HW219905   6.598   3.125   5.786
 6336SOL     OW19906   0.367   3.798   5.472
 6336SOL    HW119907   0.339   3.880   5.422
 6336SOL    HW219908   0.458   3.771   5.443
 6337SOL     OW19909   5.595   0.109   5.257
 6337SOL    HW119910   5.675   0.159   5.292
 6337SOL    HW219911   5.596   0.111   5.157
 6338SOL     OW19912   1.126   0.771   3.185
 6338SOL    HW119913   1.075   0.685   3.181
 6338SOL    HW219914   1.077   0.841   3.133
 6339SOL     OW19915   0.022   3.479   3.548
 6339SOL    HW119916   7.013   3.418   3.621
 6339SOL    HW219917   0.122   3.483   3.548
 6340SOL     OW19918   2.851   4.750   0.492
 6340SOL    HW119919   2.868   4.745   0.590
 6340SOL    HW219920   2.783   4.681   0.466
 6341SOL     OW19921   0.312   5.778   1.896
 6341SOL    HW119922   0.396   5.826   1.874
 6341SOL    HW219923   0.327   5.719   1.975
 6342SOL     OW19924   2.505   0.852   1.846
 6342SOL    HW119925   2.408   0.875   1.836
 6342SOL    HW219926   2.519   0.755   1.828
 6343SOL     OW19927   1.053   5.451   0.541
 6343SOL    HW119928   1.091   5.373   0.589
 6343SOL    HW219929   1.076   5.445   0.444
 6344SOL     OW19930   1.313   1.374   4.391
 6344SOL    HW119931   1.291   1.338   4.301
 6344SOL    HW219932   1.355   1.301   4.446
 6345SOL     OW19933   5.729   2.606   2.781
 6345SOL    HW119934   5.795   2.532   2.792
 6345SOL    HW219935   5.777   2.694   2.775
 6346SOL     OW19936   6.888   4.372   4.996
 6346SOL    HW119937   6.878   4.305   5.069
 6346SOL    HW219938   6.800   4.387   4.952
 6347SOL     OW19939   1.904   2.611   3.367
 6347SOL    HW119940   1.822   2.608   3.309
 6347SOL    HW219941   1.983   2.639   3.312
 6348SOL     OW19942   0.856   2.864   6.111
 6348SOL    HW119943   0.880   2.827   6.201
 6348SOL    HW219944   0.940   2.882   6.060
 6349SOL     OW19945   6.249   0.900   1.018
 6349SOL    HW119946   6.311   0.890   0.940
 6349SOL    HW219947   6.161   0.935   0.986
 6350SOL     OW19948   1.102   6.071   1.684
 6350SOL    HW119949   1.138   6.160   1.714
 6350SOL    HW219950   1.158   5.998   1.723
 6351SOL     OW19951   5.795   3.829   1.343
 6351SOL    HW119952   5.807   3.865   1.251
 6351SOL    HW219953   5.830   3.895   1.410
 6352SOL     OW19954   3.870   0.501   4.715
 6352SOL    HW119955   3.787   0.444   4.711
 6352SOL    HW219956   3.920   0.492   4.628
 6353SOL     OW19957   3.661   6.141   5.378
 6353SOL    HW119958   3.595   6.094   5.319
 6353SOL    HW219959   3.754   6.121   5.347
 6354SOL     OW19960   5.002   4.953   2.517
 6354SOL    HW119961   4.968   5.031   2.568
 6354SOL    HW219962   5.017   4.979   2.422
 6355SOL     OW19963   3.379   5.457   1.065
 6355SOL    HW119964   3.286   5.493   1.067
 6355SOL    HW219965   3.375   5.357   1.062
 6356SOL     OW19966   0.238   6.093   6.530
 6356SOL    HW119967   0.154   6.110   6.478
 6356SOL    HW219968   0.239   6.152   6.611
 6357SOL     OW19969   5.072   0.984   3.053
 6357SOL    HW119970   5.028   1.044   2.987
 6357SOL    HW219971   5.166   0.964   3.022
 6358SOL     OW19972   1.144   2.188   4.714
 6358SOL    HW119973   1.067   2.148   4.764
 6358SOL    HW219974   1.211   2.224   4.779
 6359SOL     OW19975   5.385   6.040   1.926
 6359SOL    HW119976   5.396   5.952   1.879
 6359SOL    HW219977   5.474   6.074   1.954
 6360SOL     OW19978   1.808   1.888   1.164
 6360SOL    HW119979   1.855   1.829   1.099
 6360SOL    HW219980   1.840   1.982   1.154
 6361SOL     OW19981   0.272   1.470   1.110
 6361SOL    HW119982   0.212   1.392   1.095
 6361SOL    HW219983   0.223   1.540   1.162
 6362SOL     OW19984   1.755   5.186   0.429
 6362SOL    HW119985   1.671   5.162   0.381
 6362SOL    HW219986   1.809   5.104   0.447
 6363SOL     OW19987   1.665   3.601   1.620
 6363SOL    HW119988   1.723   3.682   1.624
 6363SOL    HW219989   1.721   3.519   1.638
 6364SOL     OW19990   2.599   1.954   4.404
 6364SOL    HW119991   2.575   2.032   4.346
 6364SOL    HW219992   2.537   1.878   4.384
 6365SOL     OW19993   5.812   6.982   3.050
 6365SOL    HW119994   5.900   6.936   3.051
 6365SOL    HW219995   5.798   0.008   3.138
 6366SOL     OW19996   5.685   0.903   4.777
 6366SOL    HW119997   5.622   0.844   4.828
 6366SOL    HW219998   5.693   0.991   4.823
 6367SOL     OW19999   1.012   2.527   3.354
 6367SOL    HW120000   1.040   2.542   3.259
 6367SOL    HW220001   0.914   2.511   3.358
 6368SOL     OW20002   4.925   3.615   4.778
 6368SOL    HW120003   5.018   3.652   4.776
 6368SOL    HW220004   4.890   3.618   4.872
 6369SOL     OW20005   4.351   4.566   0.297
 6369SOL    HW120006   4.352   4.475   0.339
 6369SOL    HW220007   4.431   4.577   0.238
 6370SOL     OW20008   5.673   4.363   4.508
 6370SOL    HW120009   5.666   4.363   4.408
 6370SOL    HW220010   5.581   4.354   4.547
 6371SOL     OW20011   5.392   4.844   0.868
 6371SOL    HW120012   5.313   4.863   0.810
 6371SOL    HW220013   5.379   4.883   0.958
 6372SOL     OW20014   6.611   1.559   1.737
 6372SOL    HW120015   6.619   1.481   1.675
 6372SOL    HW220016   6.541   1.622   1.703
 6373SOL     OW20017   4.817   3.110   2.564
 6373SOL    HW120018   4.808   3.106   2.464
 6373SOL    HW220019   4.750   3.048   2.606
 6374SOL     OW20020   4.717   3.622   6.695
 6374SOL    HW120021   4.660   3.698   6.663
 6374SOL    HW220022   4.660   3.553   6.737
 6375SOL     OW20023   5.016   0.872   2.057
 6375SOL    HW120024   5.084   0.877   2.130
 6375SOL    HW220025   4.927   0.846   2.096
 6376SOL     OW20026   2.399   0.366   0.183
 6376SOL    HW120027   2.351   0.321   0.108
 6376SOL    HW220028   2.333   0.398   0.250
 6377SOL     OW20029   0.682   0.684   7.017
 6377SOL    HW120030   0.668   0.769   6.968
 6377SOL    HW220031   0.606   0.622   6.999
 6378SOL     OW20032   5.803   4.826   2.611
 6378SOL    HW120033   5.855   4.895   2.662
 6378SOL    HW220034   5.736   4.784   2.672
 6379SOL     OW20035   1.688   5.036   6.351
 6379SOL    HW120036   1.686   5.122   6.300
 6379SOL    HW220037   1.737   5.051   6.437
 6380SOL     OW20038   1.085   3.583   5.216
 6380SOL    HW120039   1.124   3.675   5.215
 6380SOL    HW220040   1.069   3.554   5.310
 6381SOL     OW20041   3.969   3.620   0.344
 6381SOL    HW120042   3.959   3.683   0.267
 6381SOL    HW220043   3.881   3.606   0.388
 6382SOL     OW20044   1.725   1.571   0.683
 6382SOL    HW120045   1.771   1.498   0.734
 6382SOL    HW220046   1.757   1.571   0.588
 6383SOL     OW20047   2.254   2.617   2.074
 6383SOL    HW120048   2.330   2.677   2.050
 6383SOL    HW220049   2.253   2.537   2.014
 6384SOL     OW20050   6.616   2.731   1.828
 6384SOL    HW120051   6.519   2.727   1.853
 6384SOL    HW220052   6.652   2.638   1.824
 6385SOL     OW20053   6.757   3.858   6.987
 6385SOL    HW120054   6.853   3.862   6.958
 6385SOL    HW220055   6.726   3.763   6.988
 6386SOL     OW20056   2.695   3.039   0.466
 6386SOL    HW120057   2.666   3.070   0.376
 6386SOL    HW220058   2.685   2.940   0.472
 6387SOL     OW20059   6.825   6.938   6.858
 6387SOL    HW120060   6.847   6.903   6.949
 6387SOL    HW220061   6.781   6.865   6.804
 6388SOL     OW20062   5.499   5.349   2.209
 6388SOL    HW120063   5.474   5.374   2.302
 6388SOL    HW220064   5.516   5.251   2.203
 6389SOL     OW20065   6.910   6.813   0.633
 6389SOL    HW120066   6.827   6.758   0.641
 6389SOL    HW220067   6.919   6.871   0.714
 6390SOL     OW20068   5.489   0.475   0.126
 6390SOL    HW120069   5.454   0.539   0.194
 6390SOL    HW220070   5.441   0.387   0.135
 6391SOL     OW20071   1.477   2.158   4.762
 6391SOL    HW120072   1.416   2.162   4.840
 6391SOL    HW220073   1.566   2.122   4.790
 6392SOL     OW20074   4.635   0.049   4.088
 6392SOL    HW120075   4.732   0.062   4.067
 6392SOL    HW220076   4.599   0.132   4.130
 6393SOL     OW20077   1.733   4.663   0.502
 6393SOL    HW120078   1.647   4.624   0.536
 6393SOL    HW220079   1.747   4.753   0.541
 6394SOL     OW20080   1.808   4.949   1.656
 6394SOL    HW120081   1.865   4.953   1.575
 6394SOL    HW220082   1.727   4.892   1.638
 6395SOL     OW20083   2.086   4.331   4.014
 6395SOL    HW120084   2.039   4.288   4.091
 6395SOL    HW220085   2.101   4.427   4.033
 6396SOL     OW20086   2.144   3.121   5.406
 6396SOL    HW120087   2.085   3.183   5.355
 6396SOL    HW220088   2.237   3.126   5.371
 6397SOL     OW20089   6.020   3.554   4.961
 6397SOL    HW120090   6.029   3.646   5.000
 6397SOL    HW220091   5.932   3.514   4.990
 6398SOL     OW20092   2.383   0.238   2.622
 6398SOL    HW120093   2.333   0.180   2.687
 6398SOL    HW220094   2.447   0.297   2.672
 6399SOL     OW20095   3.451   0.188   7.014
 6399SOL    HW120096   3.431   0.109   0.050
 6399SOL    HW220097   3.530   0.168   6.956
 6400SOL     OW20098   0.476   6.854   2.868
 6400SOL    HW120099   0.519   6.797   2.798
 6400SOL    HW220100   0.384   6.820   2.888
 6401SOL     OW20101   4.224   5.385   2.769
 6401SOL    HW120102   4.267   5.316   2.710
 6401SOL    HW220103   4.151   5.432   2.719
 6402SOL     OW20104   3.086   4.437   5.558
 6402SOL    HW120105   3.120   4.381   5.633
 6402SOL    HW220106   2.987   4.450   5.568
 6403SOL     OW20107   5.377   5.210   5.601
 6403SOL    HW120108   5.473   5.215   5.628
 6403SOL    HW220109   5.366   5.248   5.509
 6404SOL     OW20110   5.108   6.363   0.789
 6404SOL    HW120111   5.138   6.292   0.726
 6404SOL    HW220112   5.172   6.369   0.865
 6405SOL     OW20113   4.387   1.338   2.665
 6405SOL    HW120114   4.402   1.303   2.757
 6405SOL    HW220115   4.475   1.357   2.622
 6406SOL     OW20116   0.375   3.341   2.888
 6406SOL    HW120117   0.444   3.411   2.874
 6406SOL    HW220118   0.344   3.343   2.983
 6407SOL     OW20119   0.285   6.628   2.659
 6407SOL    HW120120   0.231   6.544   2.654
 6407SOL    HW220121   0.235   6.702   2.612
 6408SOL     OW20122   0.223   1.198   2.066
 6408SOL    HW120123   0.196   1.294   2.069
 6408SOL    HW220124   0.304   1.189   2.008
 6409SOL     OW20125   5.382   4.756   3.698
 6409SOL    HW120126   5.358   4.704   3.616
 6409SOL    HW220127   5.306   4.817   3.722
 6410SOL     OW20128   1.842   1.319   0.403
 6410SOL    HW120129   1.915   1.279   0.346
 6410SOL    HW220130   1.875   1.405   0.442
 6411SOL     OW20131   0.355   2.849   2.143
 6411SOL    HW120132   0.394   2.905   2.070
 6411SOL    HW220133   0.342   2.906   2.225
 6412SOL     OW20134   3.999   1.149   6.493
 6412SOL    HW120135   3.917   1.182   6.446
 6412SOL    HW220136   4.066   1.119   6.425
 6413SOL     OW20137   4.828   6.206   3.478
 6413SOL    HW120138   4.741   6.246   3.451
 6413SOL    HW220139   4.882   6.185   3.396
 6414SOL     OW20140   2.433   0.524   0.658
 6414SOL    HW120141   2.446   0.552   0.563
 6414SOL    HW220142   2.409   0.427   0.662
 6415SOL     OW20143   0.886   1.648   3.640
 6415SOL    HW120144   0.938   1.566   3.663
 6415SOL    HW220145   0.939   1.729   3.661
 6416SOL     OW20146   3.235   5.063   0.052
 6416SOL    HW120147   3.254   5.017   0.139
 6416SOL    HW220148   3.179   5.144   0.068
 6417SOL     OW20149   4.298   2.747   6.822
 6417SOL    HW120150   4.314   2.833   6.774
 6417SOL    HW220151   4.204   2.715   6.804
 6418SOL     OW20152   5.102   4.925   0.214
 6418SOL    HW120153   5.065   4.842   0.256
 6418SOL    HW220154   5.159   4.973   0.282
 6419SOL     OW20155   0.677   6.579   6.551
 6419SOL    HW120156   0.733   6.661   6.561
 6419SOL    HW220157   0.669   6.556   6.454
 6420SOL     OW20158   2.796   4.709   3.916
 6420SOL    HW120159   2.765   4.674   3.828
 6420SOL    HW220160   2.894   4.732   3.910
 6421SOL     OW20161   4.538   0.070   1.400
 6421SOL    HW120162   4.522   0.144   1.335
 6421SOL    HW220163   4.602   0.005   1.360
 6422SOL     OW20164   6.146   2.626   4.935
 6422SOL    HW120165   6.174   2.721   4.917
 6422SOL    HW220166   6.190   2.566   4.868
 6423SOL     OW20167   1.102   4.910   4.891
 6423SOL    HW120168   1.178   4.844   4.884
 6423SOL    HW220169   1.024   4.865   4.934
 6424SOL     OW20170   0.022   4.622   6.443
 6424SOL    HW120171   0.063   4.645   6.531
 6424SOL    HW220172   0.001   4.524   6.440
 6425SOL     OW20173   6.990   5.982   4.031
 6425SOL    HW120174   6.950   5.994   4.121
 6425SOL    HW220175   0.011   6.068   4.002
 6426SOL     OW20176   4.634   4.823   4.577
 6426SOL    HW120177   4.636   4.724   4.562
 6426SOL    HW220178   4.625   4.842   4.675
 6427SOL     OW20179   3.921   3.020   3.214
 6427SOL    HW120180   3.982   3.096   3.193
 6427SOL    HW220181   3.955   2.937   3.169
 6428SOL     OW20182   5.687   2.561   0.323
 6428SOL    HW120183   5.620   2.488   0.338
 6428SOL    HW220184   5.657   2.618   0.246
 6429SOL     OW20185   2.392   1.531   5.461
 6429SOL    HW120186   2.343   1.473   5.525
 6429SOL    HW220187   2.333   1.551   5.382
 6430SOL     OW20188   6.483   0.983   5.292
 6430SOL    HW120189   6.425   0.918   5.340
 6430SOL    HW220190   6.467   0.977   5.194
 6431SOL     OW20191   3.415   5.140   2.539
 6431SOL    HW120192   3.404   5.056   2.591
 6431SOL    HW220193   3.418   5.119   2.442
 6432SOL     OW20194   4.818   3.492   5.855
 6432SOL    HW120195   4.776   3.422   5.797
 6432SOL    HW220196   4.863   3.448   5.933
 6433SOL     OW20197   3.582   4.543   5.458
 6433SOL    HW120198   3.495   4.494   5.455
 6433SOL    HW220199   3.653   4.487   5.414
 6434SOL     OW20200   5.338   5.653   5.740
 6434SOL    HW120201   5.304   5.747   5.737
 6434SOL    HW220202   5.314   5.611   5.828
 6435SOL     OW20203   4.866   1.210   1.087
 6435SOL    HW120204   4.874   1.232   0.990
 6435SOL    HW220205   4.824   1.287   1.135
 6436SOL     OW20206   0.307   3.463   3.634
 6436SOL    HW120207   0.394   3.422   3.663
 6436SOL    HW220208   0.259   3.499   3.713
 6437SOL     OW20209   1.519   2.771   5.733
 6437SOL    HW120210   1.587   2.700   5.745
 6437SOL    HW220211   1.482   2.797   5.823
 6438SOL     OW20212   0.566   5.752   6.989
 6438SOL    HW120213   0.531   5.707   6.907
 6438SOL    HW220214   0.501   5.822   7.020
 6439SOL     OW20215   5.325   6.760   2.249
 6439SOL    HW120216   5.388   6.798   2.316
 6439SOL    HW220217   5.325   6.816   2.166
 6440SOL     OW20218   2.675   1.608   6.328
 6440SOL    HW120219   2.774   1.601   6.341
 6440SOL    HW220220   2.639   1.681   6.387
 6441SOL     OW20221   0.223   2.108   2.051
 6441SOL    HW120222   0.259   2.117   1.958
 6441SOL    HW220223   0.264   2.178   2.109
 6442SOL     OW20224   2.473   1.963   4.798
 6442SOL    HW120225   2.491   1.963   4.896
 6442SOL    HW220226   2.396   1.902   4.779
 6443SOL     OW20227   3.540   2.920   6.442
 6443SOL    HW120228   3.562   2.845   6.379
 6443SOL    HW220229   3.610   2.990   6.437
 6444SOL     OW20230   6.882   4.178   4.624
 6444SOL    HW120231   6.866   4.144   4.531
 6444SOL    HW220232   6.963   4.237   4.624
 6445SOL     OW20233   2.932   3.433   3.420
 6445SOL    HW120234   2.985   3.515   3.396
 6445SOL    HW220235   2.868   3.455   3.494
 6446SOL     OW20236   1.228   1.470   0.336
 6446SOL    HW120237   1.281   1.555   0.339
 6446SOL    HW220238   1.291   1.392   0.333
 6447SOL     OW20239   5.358   3.428   2.301
 6447SOL    HW120240   5.335   3.468   2.390
 6447SOL    HW220241   5.294   3.463   2.232
 6448SOL     OW20242   4.514   4.564   0.996
 6448SOL    HW120243   4.613   4.574   0.982
 6448SOL    HW220244   4.468   4.559   0.907
 6449SOL     OW20245   3.225   5.118   0.813
 6449SOL    HW120246   3.234   5.018   0.819
 6449SOL    HW220247   3.142   5.140   0.761
 6450SOL     OW20248   6.034   4.089   6.691
 6450SOL    HW120249   6.025   4.166   6.627
 6450SOL    HW220250   5.945   4.067   6.730
 6451SOL     OW20251   4.147   2.651   1.701
 6451SOL    HW120252   4.121   2.746   1.721
 6451SOL    HW220253   4.065   2.596   1.688
 6452SOL     OW20254   3.643   2.075   4.863
 6452SOL    HW120255   3.725   2.103   4.913
 6452SOL    HW220256   3.561   2.099   4.916
 6453SOL     OW20257   1.978   0.168   2.810
 6453SOL    HW120258   1.955   0.075   2.781
 6453SOL    HW220259   2.076   0.174   2.829
 6454SOL     OW20260   4.991   2.501   3.820
 6454SOL    HW120261   5.048   2.583   3.809
 6454SOL    HW220262   5.007   2.461   3.910
 6455SOL     OW20263   6.731   2.958   4.126
 6455SOL    HW120264   6.803   2.932   4.191
 6455SOL    HW220265   6.724   3.058   4.123
 6456SOL     OW20266   6.676   1.915   2.120
 6456SOL    HW120267   6.772   1.925   2.146
 6456SOL    HW220268   6.617   1.934   2.198
 6457SOL     OW20269   2.931   6.347   2.677
 6457SOL    HW120270   2.923   6.351   2.776
 6457SOL    HW220271   2.849   6.387   2.636
 6458SOL     OW20272   0.019   6.974   4.629
 6458SOL    HW120273   0.026   0.000   4.716
 6458SOL    HW220274   6.944   6.961   4.605
 6459SOL     OW20275   0.844   3.164   3.014
 6459SOL    HW120276   0.835   3.206   3.104
 6459SOL    HW220277   0.888   3.229   2.951
 6460SOL     OW20278   1.188   5.632   6.710
 6460SOL    HW120279   1.092   5.616   6.688
 6460SOL    HW220280   1.237   5.661   6.628
 6461SOL     OW20281   1.211   6.343   0.976
 6461SOL    HW120282   1.218   6.335   0.877
 6461SOL    HW220283   1.130   6.398   0.999
 6462SOL     OW20284   1.853   3.705   5.238
 6462SOL    HW120285   1.915   3.697   5.160
 6462SOL    HW220286   1.907   3.722   5.321
 6463SOL     OW20287   4.930   3.229   1.106
 6463SOL    HW120288   4.984   3.291   1.050
 6463SOL    HW220289   4.951   3.135   1.081
 6464SOL     OW20290   0.580   4.043   3.769
 6464SOL    HW120291   0.676   4.058   3.793
 6464SOL    HW220292   0.521   4.063   3.847
 6465SOL     OW20293   3.090   0.784   3.849
 6465SOL    HW120294   3.091   0.867   3.794
 6465SOL    HW220295   3.075   0.807   3.945
 6466SOL     OW20296   0.087   4.898   6.967
 6466SOL    HW120297   0.005   4.931   6.919
 6466SOL    HW220298   0.071   4.805   7.000
 6467SOL     OW20299   1.813   2.044   6.434
 6467SOL    HW120300   1.878   1.971   6.455
 6467SOL    HW220301   1.850   2.131   6.465
 6468SOL     OW20302   1.750   0.114   0.906
 6468SOL    HW120303   1.657   0.127   0.870
 6468SOL    HW220304   1.748   0.046   0.979
 6469SOL     OW20305   2.176   0.797   1.831
 6469SOL    HW120306   2.139   0.787   1.923
 6469SOL    HW220307   2.141   0.724   1.773
 6470SOL     OW20308   6.254   1.981   0.073
 6470SOL    HW120309   6.329   2.047   0.076
 6470SOL    HW220310   6.254   1.934   7.006
 6471SOL     OW20311   0.144   6.528   5.846
 6471SOL    HW120312   0.229   6.573   5.872
 6471SOL    HW220313   0.155   6.429   5.853
 6472SOL     OW20314   6.995   6.281   2.848
 6472SOL    HW120315   0.008   6.205   2.791
 6472SOL    HW220316   6.902   6.261   2.878
 6473SOL     OW20317   2.431   0.715   2.855
 6473SOL    HW120318   2.418   0.784   2.926
 6473SOL    HW220319   2.435   0.760   2.766
 6474SOL     OW20320   3.963   6.417   4.154
 6474SOL    HW120321   3.933   6.324   4.177
 6474SOL    HW220322   3.898   6.458   4.089
 6475SOL     OW20323   5.555   5.554   2.732
 6475SOL    HW120324   5.612   5.627   2.772
 6475SOL    HW220325   5.508   5.588   2.652
 6476SOL     OW20326   4.233   2.889   6.465
 6476SOL    HW120327   4.289   2.882   6.547
 6476SOL    HW220328   4.260   2.817   6.400
 6477SOL     OW20329   0.325   6.618   1.323
 6477SOL    HW120330   0.389   6.602   1.248
 6477SOL    HW220331   0.234   6.585   1.296
 6478SOL     OW20332   2.670   6.068   1.020
 6478SOL    HW120333   2.606   6.143   1.001
 6478SOL    HW220334   2.659   5.998   0.949
 6479SOL     OW20335   4.692   5.966   3.218
 6479SOL    HW120336   4.696   5.939   3.315
 6479SOL    HW220337   4.620   5.915   3.172
 6480SOL     OW20338   3.832   1.394   6.138
 6480SOL    HW120339   3.860   1.479   6.094
 6480SOL    HW220340   3.786   1.335   6.071
 6481SOL     OW20341   4.224   3.267   1.946
 6481SOL    HW120342   4.286   3.235   2.017
 6481SOL    HW220343   4.261   3.242   1.856
 6482SOL     OW20344   4.788   3.754   5.802
 6482SOL    HW120345   4.799   3.656   5.821
 6482SOL    HW220346   4.694   3.772   5.773
 6483SOL     OW20347   1.832   6.177   5.185
 6483SOL    HW120348   1.748   6.202   5.233
 6483SOL    HW220349   1.811   6.114   5.110
 6484SOL     OW20350   3.569   1.165   3.047
 6484SOL    HW120351   3.576   1.204   3.139
 6484SOL    HW220352   3.489   1.203   3.001
 6485SOL     OW20353   2.439   6.054   5.019
 6485SOL    HW120354   2.487   6.026   4.936
 6485SOL    HW220355   2.465   5.995   5.095
 6486SOL     OW20356   0.075   4.623   2.694
 6486SOL    HW120357   0.063   4.525   2.709
 6486SOL    HW220358   0.054   4.672   2.778
 6487SOL     OW20359   6.798   4.988   3.701
 6487SOL    HW120360   6.728   4.936   3.653
 6487SOL    HW220361   6.831   5.062   3.643
 6488SOL     OW20362   3.174   5.204   4.192
 6488SOL    HW120363   3.236   5.142   4.240
 6488SOL    HW220364   3.213   5.229   4.103
 6489SOL     OW20365   5.166   3.278   4.764
 6489SOL    HW120366   5.066   3.274   4.764
 6489SOL    HW220367   5.202   3.197   4.719
 6490SOL     OW20368   2.368   2.416   0.370
 6490SOL    HW120369   2.313   2.342   0.331
 6490SOL    HW220370   2.322   2.453   0.450
 6491SOL     OW20371   1.786   6.795   1.865
 6491SOL    HW120372   1.691   6.820   1.883
 6491SOL    HW220373   1.792   6.696   1.851
 6492SOL     OW20374   4.148   3.566   4.147
 6492SOL    HW120375   4.188   3.569   4.055
 6492SOL    HW220376   4.076   3.635   4.154
 6493SOL     OW20377   1.186   3.964   4.046
 6493SOL    HW120378   1.268   4.020   4.037
 6493SOL    HW220379   1.127   3.977   3.966
 6494SOL     OW20380   6.823   1.062   1.481
 6494SOL    HW120381   6.820   0.968   1.448
 6494SOL    HW220382   6.754   1.117   1.435
 6495SOL     OW20383   6.727   6.938   3.034
 6495SOL    HW120384   6.763   6.992   2.959
 6495SOL    HW220385   6.768   6.847   3.033
 6496SOL     OW20386   3.150   2.005   2.000
 6496SOL    HW120387   3.103   1.968   1.920
 6496SOL    HW220388   3.245   1.973   2.001
 6497SOL     OW20389   6.859   1.120   0.651
 6497SOL    HW120390   6.796   1.159   0.584
 6497SOL    HW220391   6.939   1.083   0.604
 6498SOL     OW20392   2.382   4.319   4.267
 6498SOL    HW120393   2.415   4.394   4.209
 6498SOL    HW220394   2.373   4.236   4.212
 6499SOL     OW20395   4.607   2.430   3.505
 6499SOL    HW120396   4.629   2.458   3.411
 6499SOL    HW220397   4.642   2.498   3.569
 6500SOL     OW20398   1.171   3.891   3.426
 6500SOL    HW120399   1.251   3.950   3.439
 6500SOL    HW220400   1.182   3.837   3.343
 6501SOL     OW20401   6.061   1.671   3.110
 6501SOL    HW120402   6.002   1.590   3.114
 6501SOL    HW220403   6.014   1.748   3.152
 6502SOL     OW20404   0.028   3.542   1.642
 6502SOL    HW120405   0.043   3.527   1.739
 6502SOL    HW220406   0.068   3.629   1.614
 6503SOL     OW20407   6.869   3.474   5.523
 6503SOL    HW120408   6.853   3.528   5.441
 6503SOL    HW220409   6.967   3.460   5.536
 6504SOL     OW20410   3.524   0.020   6.229
 6504SOL    HW120411   3.608   6.987   6.227
 6504SOL    HW220412   3.473   7.021   6.313
 6505SOL     OW20413   0.325   6.703   1.036
 6505SOL    HW120414   0.350   6.607   1.024
 6505SOL    HW220415   0.372   6.759   0.968
 6506SOL     OW20416   0.830   3.645   2.179
 6506SOL    HW120417   0.919   3.627   2.219
 6506SOL    HW220418   0.764   3.577   2.213
 6507SOL     OW20419   4.156   5.622   0.870
 6507SOL    HW120420   4.189   5.569   0.791
 6507SOL    HW220421   4.199   5.588   0.953
 6508SOL     OW20422   0.319   0.792   3.566
 6508SOL    HW120423   0.220   0.795   3.549
 6508SOL    HW220424   0.338   0.728   3.639
 6509SOL     OW20425   2.608   1.877   0.035
 6509SOL    HW120426   2.523   1.828   0.015
 6509SOL    HW220427   2.631   1.937   6.979
 6510SOL     OW20428   3.247   5.723   4.827
 6510SOL    HW120429   3.243   5.758   4.734
 6510SOL    HW220430   3.162   5.744   4.875
 6511SOL     OW20431   2.908   2.578   0.251
 6511SOL    HW120432   2.977   2.543   0.188
 6511SOL    HW220433   2.876   2.505   0.311
 6512SOL     OW20434   4.614   0.955   0.274
 6512SOL    HW120435   4.694   0.969   0.333
 6512SOL    HW220436   4.643   0.919   0.186
 6513SOL     OW20437   2.650   4.609   2.877
 6513SOL    HW120438   2.593   4.538   2.835
 6513SOL    HW220439   2.662   4.684   2.812
 6514SOL     OW20440   5.142   6.546   5.744
 6514SOL    HW120441   5.235   6.580   5.758
 6514SOL    HW220442   5.133   6.514   5.649
 6515SOL     OW20443   0.651   4.629   2.986
 6515SOL    HW120444   0.559   4.654   3.020
 6515SOL    HW220445   0.679   4.543   3.028
 6516SOL     OW20446   6.431   2.784   2.287
 6516SOL    HW120447   6.520   2.829   2.284
 6516SOL    HW220448   6.438   2.699   2.339
 6517SOL     OW20449   6.621   3.614   0.676
 6517SOL    HW120450   6.693   3.605   0.744
 6517SOL    HW220451   6.658   3.657   0.593
 6518SOL     OW20452   1.086   0.867   2.290
 6518SOL    HW120453   1.148   0.856   2.368
 6518SOL    HW220454   1.032   0.783   2.278
 6519SOL     OW20455   1.360   1.104   3.203
 6519SOL    HW120456   1.297   1.176   3.172
 6519SOL    HW220457   1.320   1.057   3.283
 6520SOL     OW20458   6.723   5.610   0.541
 6520SOL    HW120459   6.697   5.534   0.600
 6520SOL    HW220460   6.822   5.614   0.533
 6521SOL     OW20461   1.779   4.934   4.118
 6521SOL    HW120462   1.759   4.869   4.191
 6521SOL    HW220463   1.697   4.952   4.065
 6522SOL     OW20464   2.725   3.062   5.407
 6522SOL    HW120465   2.819   3.062   5.372
 6522SOL    HW220466   2.662   3.049   5.331
 6523SOL     OW20467   6.454   6.632   0.861
 6523SOL    HW120468   6.378   6.697   0.860
 6523SOL    HW220469   6.434   6.558   0.926
 6524SOL     OW20470   3.086   2.927   1.057
 6524SOL    HW120471   3.016   2.940   1.127
 6524SOL    HW220472   3.041   2.918   0.967
 6525SOL     OW20473   1.031   5.067   3.611
 6525SOL    HW120474   0.978   5.118   3.679
 6525SOL    HW220475   1.128   5.085   3.625
 6526SOL     OW20476   0.152   6.244   0.450
 6526SOL    HW120477   0.214   6.183   0.499
 6526SOL    HW220478   0.058   6.211   0.459
 6527SOL     OW20479   6.466   1.483   1.067
 6527SOL    HW120480   6.394   1.420   1.097
 6527SOL    HW220481   6.513   1.519   1.147
 6528SOL     OW20482   4.169   6.311   0.400
 6528SOL    HW120483   4.097   6.338   0.335
 6528SOL    HW220484   4.246   6.272   0.350
 6529SOL     OW20485   5.028   0.240   2.127
 6529SOL    HW120486   4.949   0.292   2.095
 6529SOL    HW220487   5.109   0.269   2.077
 6530SOL     OW20488   0.458   2.535   3.560
 6530SOL    HW120489   0.413   2.448   3.580
 6530SOL    HW220490   0.402   2.587   3.496
 6531SOL     OW20491   4.007   3.953   4.220
 6531SOL    HW120492   3.916   3.994   4.217
 6531SOL    HW220493   4.025   3.918   4.312
 6532SOL     OW20494   0.949   6.015   0.597
 6532SOL    HW120495   0.960   5.975   0.688
 6532SOL    HW220496   1.034   6.060   0.570
 6533SOL     OW20497   4.821   4.617   1.526
 6533SOL    HW120498   4.740   4.558   1.523
 6533SOL    HW220499   4.821   4.670   1.611
 6534SOL     OW20500   6.871   4.275   3.120
 6534SOL    HW120501   6.888   4.240   3.028
 6534SOL    HW220502   6.857   4.198   3.183
 6535SOL     OW20503   5.000   4.082   5.591
 6535SOL    HW120504   4.950   3.998   5.569
 6535SOL    HW220505   5.064   4.063   5.666
 6536SOL     OW20506   0.504   4.440   5.801
 6536SOL    HW120507   0.541   4.441   5.895
 6536SOL    HW220508   0.580   4.436   5.736
 6537SOL     OW20509   6.814   5.432   3.571
 6537SOL    HW120510   6.767   5.370   3.633
 6537SOL    HW220511   6.749   5.471   3.506
 6538SOL     OW20512   0.777   2.535   4.308
 6538SOL    HW120513   0.742   2.626   4.328
 6538SOL    HW220514   0.776   2.520   4.209
 6539SOL     OW20515   4.244   6.678   6.221
 6539SOL    HW120516   4.278   6.620   6.148
 6539SOL    HW220517   4.309   6.677   6.298
 6540SOL     OW20518   6.901   2.668   5.663
 6540SOL    HW120519   6.943   2.696   5.749
 6540SOL    HW220520   6.899   2.745   5.600
 6541SOL     OW20521   4.906   1.795   5.790
 6541SOL    HW120522   4.916   1.791   5.691
 6541SOL    HW220523   4.889   1.703   5.826
 6542SOL     OW20524   1.569   3.838   2.747
 6542SOL    HW120525   1.609   3.885   2.669
 6542SOL    HW220526   1.474   3.814   2.726
 6543SOL     OW20527   4.034   1.476   5.055
 6543SOL    HW120528   4.091   1.487   4.974
 6543SOL    HW220529   4.091   1.470   5.137
 6544SOL     OW20530   0.702   0.062   0.866
 6544SOL    HW120531   0.754   0.147   0.875
 6544SOL    HW220532   0.606   0.078   0.890
 6545SOL     OW20533   5.082   6.501   1.414
 6545SOL    HW120534   5.001   6.555   1.394
 6545SOL    HW220535   5.057   6.404   1.422
 6546SOL     OW20536   5.130   4.844   6.205
 6546SOL    HW120537   5.197   4.776   6.174
 6546SOL    HW220538   5.060   4.799   6.261
 6547SOL     OW20539   1.064   6.222   5.012
 6547SOL    HW120540   1.049   6.257   4.919
 6547SOL    HW220541   0.980   6.179   5.045
 6548SOL     OW20542   0.404   1.643   6.030
 6548SOL    HW120543   0.306   1.660   6.015
 6548SOL    HW220544   0.431   1.684   6.117
 6549SOL     OW20545   4.015   1.847   3.056
 6549SOL    HW120546   4.101   1.802   3.030
 6549SOL    HW220547   3.938   1.794   3.021
 6550SOL     OW20548   6.058   6.244   2.609
 6550SOL    HW120549   6.095   6.276   2.521
 6550SOL    HW220550   6.076   6.312   2.680
 6551SOL     OW20551   2.639   4.736   0.789
 6551SOL    HW120552   2.635   4.664   0.859
 6551SOL    HW220553   2.725   4.786   0.796
 6552SOL     OW20554   1.886   4.746   0.076
 6552SOL    HW120555   1.858   4.776   7.006
 6552SOL    HW220556   1.831   4.668   0.104
 6553SOL     OW20557   0.684   2.013   3.761
 6553SOL    HW120558   0.643   1.958   3.688
 6553SOL    HW220559   0.784   2.007   3.753
 6554SOL     OW20560   1.410   2.838   4.219
 6554SOL    HW120561   1.501   2.865   4.188
 6554SOL    HW220562   1.378   2.761   4.164
 6555SOL     OW20563   0.748   3.994   4.298
 6555SOL    HW120564   0.660   3.963   4.335
 6555SOL    HW220565   0.811   3.917   4.294
 6556SOL     OW20566   4.618   2.529   2.714
 6556SOL    HW120567   4.634   2.551   2.617
 6556SOL    HW220568   4.695   2.561   2.768
 6557SOL     OW20569   2.108   1.033   2.226
 6557SOL    HW120570   2.167   1.095   2.174
 6557SOL    HW220571   2.164   0.972   2.282
 6558SOL     OW20572   5.347   6.109   0.408
 6558SOL    HW120573   5.344   6.208   0.426
 6558SOL    HW220574   5.353   6.060   0.494
 6559SOL     OW20575   6.713   2.587   5.987
 6559SOL    HW120576   6.668   2.500   5.964
 6559SOL    HW220577   6.661   2.634   6.058
 6560SOL     OW20578   6.300   4.756   7.006
 6560SOL    HW120579   6.211   4.716   0.010
 6560SOL    HW220580   6.326   4.721   6.916
 6561SOL     OW20581   2.704   4.046   0.470
 6561SOL    HW120582   2.783   3.986   0.480
 6561SOL    HW220583   2.620   3.993   0.483
 6562SOL     OW20584   4.986   2.613   1.798
 6562SOL    HW120585   4.923   2.660   1.860
 6562SOL    HW220586   5.054   2.678   1.764
 6563SOL     OW20587   6.297   5.160   5.713
 6563SOL    HW120588   6.330   5.246   5.753
 6563SOL    HW220589   6.308   5.086   5.780
 6564SOL     OW20590   5.636   3.239   2.515
 6564SOL    HW120591   5.560   3.183   2.550
 6564SOL    HW220592   5.635   3.239   2.415
 6565SOL     OW20593   5.145   6.846   2.665
 6565SOL    HW120594   5.239   6.867   2.692
 6565SOL    HW220595   5.090   6.929   2.668
 6566SOL     OW20596   5.164   5.584   3.981
 6566SOL    HW120597   5.110   5.640   3.918
 6566SOL    HW220598   5.260   5.591   3.958
 6567SOL     OW20599   3.907   0.529   2.305
 6567SOL    HW120600   3.968   0.494   2.235
 6567SOL    HW220601   3.926   0.483   2.392
 6568SOL     OW20602   4.893   1.246   0.823
 6568SOL    HW120603   4.970   1.310   0.823
 6568SOL    HW220604   4.837   1.262   0.742
 6569SOL     OW20605   0.984   4.957   4.273
 6569SOL    HW120606   0.993   5.047   4.316
 6569SOL    HW220607   1.012   4.887   4.339
 6570SOL     OW20608   4.469   6.807   2.317
 6570SOL    HW120609   4.473   6.828   2.220
 6570SOL    HW220610   4.433   6.714   2.330
 6571SOL     OW20611   3.160   6.211   3.387
 6571SOL    HW120612   3.183   6.254   3.299
 6571SOL    HW220613   3.076   6.252   3.423
 6572SOL     OW20614   2.109   6.133   3.835
 6572SOL    HW120615   2.030   6.148   3.776
 6572SOL    HW220616   2.094   6.052   3.892
 6573SOL     OW20617   0.099   2.068   3.409
 6573SOL    HW120618   0.042   2.086   3.328
 6573SOL    HW220619   0.061   1.991   3.460
 6574SOL     OW20620   1.426   4.500   2.007
 6574SOL    HW120621   1.524   4.479   2.011
 6574SOL    HW220622   1.376   4.420   1.975
 6575SOL     OW20623   0.142   1.356   3.527
 6575SOL    HW120624   0.098   1.364   3.617
 6575SOL    HW220625   0.226   1.410   3.527
 6576SOL     OW20626   3.906   0.048   1.619
 6576SOL    HW120627   3.922   0.139   1.580
 6576SOL    HW220628   3.921   0.051   1.717
 6577SOL     OW20629   3.522   1.365   4.508
 6577SOL    HW120630   3.521   1.267   4.528
 6577SOL    HW220631   3.445   1.389   4.450
 6578SOL     OW20632   1.277   4.439   0.644
 6578SOL    HW120633   1.200   4.477   0.592
 6578SOL    HW220634   1.246   4.357   0.693
 6579SOL     OW20635   1.098   0.917   3.627
 6579SOL    HW120636   1.000   0.918   3.649
 6579SOL    HW220637   1.151   0.911   3.711
 6580SOL     OW20638   2.382   2.203   0.176
 6580SOL    HW120639   2.411   2.111   0.203
 6580SOL    HW220640   2.462   2.261   0.162
 6581SOL     OW20641   0.812   2.311   1.004
 6581SOL    HW120642   0.827   2.260   1.088
 6581SOL    HW220643   0.886   2.290   0.939
 6582SOL     OW20644   5.679   1.047   3.114
 6582SOL    HW120645   5.622   1.024   3.193
 6582SOL    HW220646   5.644   1.002   3.032
 6583SOL     OW20647   3.085   4.283   0.242
 6583SOL    HW120648   3.183   4.297   0.227
 6583SOL    HW220649   3.064   4.291   0.340
 6584SOL     OW20650   4.303   1.905   6.447
 6584SOL    HW120651   4.394   1.879   6.413
 6584SOL    HW220652   4.260   1.968   6.382
 6585SOL     OW20653   5.868   0.027   2.108
 6585SOL    HW120654   5.862   0.032   2.208
 6585SOL    HW220655   5.920   0.105   2.074
 6586SOL     OW20656   6.561   1.233   6.579
 6586SOL    HW120657   6.576   1.266   6.672
 6586SOL    HW220658   6.472   1.266   6.546
 6587SOL     OW20659   2.849   5.203   4.903
 6587SOL    HW120660   2.932   5.191   4.848
 6587SOL    HW220661   2.866   5.272   4.974
 6588SOL     OW20662   0.255   2.093   0.519
 6588SOL    HW120663   0.249   2.064   0.424
 6588SOL    HW220664   0.175   2.148   0.542
 6589SOL     OW20665   6.934   6.206   2.077
 6589SOL    HW120666   6.835   6.191   2.066
 6589SOL    HW220667   6.964   6.160   2.161
 6590SOL     OW20668   1.406   6.154   4.503
 6590SOL    HW120669   1.390   6.252   4.494
 6590SOL    HW220670   1.326   6.110   4.544
 6591SOL     OW20671   6.089   3.286   3.782
 6591SOL    HW120672   6.114   3.365   3.837
 6591SOL    HW220673   6.171   3.236   3.756
 6592SOL     OW20674   6.315   6.765   3.901
 6592SOL    HW120675   6.218   6.777   3.920
 6592SOL    HW220676   6.340   6.669   3.917
 6593SOL     OW20677   1.856   1.254   1.964
 6593SOL    HW120678   1.819   1.341   1.932
 6593SOL    HW220679   1.926   1.272   2.033
 6594SOL     OW20680   5.130   6.890   0.122
 6594SOL    HW120681   5.053   6.925   0.068
 6594SOL    HW220682   5.216   6.908   0.073
 6595SOL     OW20683   1.061   1.606   5.154
 6595SOL    HW120684   1.013   1.614   5.242
 6595SOL    HW220685   1.058   1.694   5.107
 6596SOL     OW20686   5.035   1.155   2.595
 6596SOL    HW120687   5.013   1.212   2.516
 6596SOL    HW220688   5.133   1.162   2.616
 6597SOL     OW20689   0.760   4.742   1.244
 6597SOL    HW120690   0.826   4.757   1.317
 6597SOL    HW220691   0.714   4.828   1.223
 6598SOL     OW20692   1.491   4.984   3.215
 6598SOL    HW120693   1.581   5.006   3.250
 6598SOL    HW220694   1.500   4.925   3.134
 6599SOL     OW20695   0.238   5.742   6.105
 6599SOL    HW120696   0.208   5.656   6.063
 6599SOL    HW220697   0.211   5.819   6.047
 6600SOL     OW20698   4.672   6.789   5.237
 6600SOL    HW120699   4.707   6.711   5.186
 6600SOL    HW220700   4.729   6.805   5.318
 6601SOL     OW20701   1.313   2.262   1.868
 6601SOL    HW120702   1.216   2.283   1.867
 6601SOL    HW220703   1.359   2.308   1.792
 6602SOL     OW20704   6.893   5.416   1.417
 6602SOL    HW120705   6.921   5.335   1.469
 6602SOL    HW220706   6.974   5.467   1.388
 6603SOL     OW20707   0.504   4.653   1.976
 6603SOL    HW120708   0.526   4.660   2.073
 6603SOL    HW220709   0.580   4.610   1.927
 6604SOL     OW20710   1.635   5.617   3.683
 6604SOL    HW120711   1.683   5.530   3.693
 6604SOL    HW220712   1.624   5.660   3.773
 6605SOL     OW20713   0.024   5.697   0.928
 6605SOL    HW120714   0.087   5.668   1.000
 6605SOL    HW220715   0.022   5.627   0.856
 6606SOL     OW20716   1.604   3.546   2.912
 6606SOL    HW120717   1.565   3.637   2.896
 6606SOL    HW220718   1.584   3.487   2.834
 6607SOL     OW20719   6.412   3.196   4.033
 6607SOL    HW120720   6.369   3.158   3.951
 6607SOL    HW220721   6.355   3.178   4.113
 6608SOL     OW20722   1.368   6.954   5.638
 6608SOL    HW120723   1.468   6.952   5.633
 6608SOL    HW220724   1.335   6.866   5.673
 6609SOL     OW20725   4.139   1.803   6.662
 6609SOL    HW120726   4.092   1.717   6.644
 6609SOL    HW220727   4.209   1.818   6.592
 6610SOL     OW20728   2.987   6.023   1.023
 6610SOL    HW120729   3.072   6.055   1.064
 6610SOL    HW220730   2.923   5.998   1.096
 6611SOL     OW20731   2.716   1.845   4.991
 6611SOL    HW120732   2.632   1.897   5.008
 6611SOL    HW220733   2.755   1.874   4.903
 6612SOL     OW20734   0.747   0.404   0.065
 6612SOL    HW120735   0.801   0.472   0.115
 6612SOL    HW220736   0.673   0.371   0.123
 6613SOL     OW20737   4.652   6.314   0.431
 6613SOL    HW120738   4.652   6.352   0.523
 6613SOL    HW220739   4.745   6.286   0.406
 6614SOL     OW20740   3.799   4.878   0.721
 6614SOL    HW120741   3.820   4.957   0.665
 6614SOL    HW220742   3.883   4.842   0.761
 6615SOL     OW20743   3.651   5.745   6.008
 6615SOL    HW120744   3.639   5.688   6.090
 6615SOL    HW220745   3.565   5.790   5.986
 6616SOL     OW20746   4.125   1.307   6.929
 6616SOL    HW120747   4.039   1.282   6.884
 6616SOL    HW220748   4.196   1.319   6.859
 6617SOL     OW20749   3.432   0.675   3.823
 6617SOL    HW120750   3.378   0.692   3.740
 6617SOL    HW220751   3.403   0.737   3.895
 6618SOL     OW20752   5.816   2.085   4.282
 6618SOL    HW120753   5.848   2.051   4.194
 6618SOL    HW220754   5.730   2.041   4.306
 6619SOL     OW20755   5.141   5.275   3.921
 6619SOL    HW120756   5.117   5.371   3.934
 6619SOL    HW220757   5.087   5.237   3.846
 6620SOL     OW20758   1.428   2.681   3.350
 6620SOL    HW120759   1.416   2.641   3.441
 6620SOL    HW220760   1.339   2.708   3.314
 6621SOL     OW20761   2.959   3.419   3.945
 6621SOL    HW120762   2.955   3.366   4.030
 6621SOL    HW220763   2.941   3.358   3.867
 6622SOL     OW20764   6.944   5.129   1.099
 6622SOL    HW120765   6.873   5.059   1.086
 6622SOL    HW220766   0.011   5.092   1.071
 6623SOL     OW20767   3.115   3.893   4.049
 6623SOL    HW120768   3.025   3.877   4.007
 6623SOL    HW220769   3.114   3.859   4.143
 6624SOL     OW20770   2.490   2.550   2.779
 6624SOL    HW120771   2.519   2.520   2.688
 6624SOL    HW220772   2.492   2.650   2.783
 6625SOL     OW20773   6.872   3.957   5.658
 6625SOL    HW120774   6.903   3.905   5.579
 6625SOL    HW220775   6.789   4.008   5.633
 6626SOL     OW20776   3.309   5.621   5.664
 6626SOL    HW120777   3.388   5.642   5.606
 6626SOL    HW220778   3.289   5.523   5.660
 6627SOL     OW20779   2.263   6.553   3.966
 6627SOL    HW120780   2.221   6.475   4.011
 6627SOL    HW220781   2.198   6.629   3.964
 6628SOL     OW20782   3.884   6.752   3.222
 6628SOL    HW120783   3.906   6.655   3.228
 6628SOL    HW220784   3.826   6.777   3.300
 6629SOL     OW20785   5.157   5.403   5.198
 6629SOL    HW120786   5.131   5.492   5.235
 6629SOL    HW220787   5.175   5.339   5.273
 6630SOL     OW20788   1.649   1.133   0.431
 6630SOL    HW120789   1.716   1.207   0.430
 6630SOL    HW220790   1.583   1.148   0.504
 6631SOL     OW20791   2.210   3.315   5.663
 6631SOL    HW120792   2.193   3.261   5.581
 6631SOL    HW220793   2.308   3.333   5.672
 6632SOL     OW20794   1.280   0.143   6.797
 6632SOL    HW120795   1.214   0.140   6.872
 6632SOL    HW220796   1.283   0.236   6.759
 6633SOL     OW20797   4.446   5.849   6.393
 6633SOL    HW120798   4.441   5.840   6.293
 6633SOL    HW220799   4.444   5.945   6.419
 6634SOL     OW20800   3.742   2.042   4.188
 6634SOL    HW120801   3.793   2.101   4.250
 6634SOL    HW220802   3.748   2.078   4.094
 6635SOL     OW20803   5.246   5.123   5.257
 6635SOL    HW120804   5.304   5.067   5.197
 6635SOL    HW220805   5.232   5.075   5.343
 6636SOL     OW20806   4.408   1.111   6.711
 6636SOL    HW120807   4.492   1.163   6.725
 6636SOL    HW220808   4.380   1.070   6.797
 6637SOL     OW20809   0.143   2.302   0.207
 6637SOL    HW120810   0.232   2.288   0.163
 6637SOL    HW220811   0.128   2.399   0.224
 6638SOL     OW20812   3.108   3.982   3.666
 6638SOL    HW120813   3.162   3.911   3.711
 6638SOL    HW220814   3.101   4.062   3.725
 6639SOL     OW20815   5.248   2.372   1.512
 6639SOL    HW120816   5.293   2.340   1.428
 6639SOL    HW220817   5.296   2.336   1.592
 6640SOL     OW20818   1.609   4.076   4.705
 6640SOL    HW120819   1.677   4.034   4.765
 6640SOL    HW220820   1.520   4.033   4.719
 6641SOL     OW20821   6.038   2.618   0.362
 6641SOL    HW120822   5.942   2.593   0.373
 6641SOL    HW220823   6.085   2.610   0.450
 6642SOL     OW20824   1.649   5.905   0.325
 6642SOL    HW120825   1.741   5.929   0.356
 6642SOL    HW220826   1.611   5.836   0.386
 6643SOL     OW20827   3.060   5.861   6.530
 6643SOL    HW120828   3.148   5.827   6.496
 6643SOL    HW220829   3.074   5.949   6.576
 6644SOL     OW20830   2.364   7.010   3.591
 6644SOL    HW120831   2.322   7.000   3.681
 6644SOL    HW220832   2.431   0.063   3.593
 6645SOL     OW20833   5.327   2.844   6.285
 6645SOL    HW120834   5.252   2.892   6.330
 6645SOL    HW220835   5.305   2.746   6.277
 6646SOL     OW20836   3.565   0.067   5.687
 6646SOL    HW120837   3.562   6.989   5.702
 6646SOL    HW220838   3.507   0.090   5.609
 6647SOL     OW20839   4.073   4.691   0.599
 6647SOL    HW120840   4.053   4.744   0.517
 6647SOL    HW220841   4.163   4.649   0.591
 6648SOL     OW20842   3.129   5.742   5.148
 6648SOL    HW120843   3.063   5.727   5.075
 6648SOL    HW220844   3.197   5.669   5.147
 6649SOL     OW20845   4.611   2.831   6.097
 6649SOL    HW120846   4.612   2.763   6.024
 6649SOL    HW220847   4.705   2.849   6.127
 6650SOL     OW20848   1.417   1.320   5.770
 6650SOL    HW120849   1.432   1.348   5.675
 6650SOL    HW220850   1.366   1.234   5.771
 6651SOL     OW20851   6.886   1.832   5.899
 6651SOL    HW120852   6.842   1.857   5.812
 6651SOL    HW220853   6.899   1.733   5.902
 6652SOL     OW20854   6.878   5.086   0.631
 6652SOL    HW120855   6.973   5.102   0.658
 6652SOL    HW220856   6.839   5.170   0.594
 6653SOL     OW20857   5.699   4.781   0.184
 6653SOL    HW120858   5.699   4.873   0.144
 6653SOL    HW220859   5.720   4.713   0.114
 6654SOL     OW20860   6.327   3.502   3.708
 6654SOL    HW120861   6.375   3.527   3.792
 6654SOL    HW220862   6.322   3.403   3.700
 6655SOL     OW20863   0.272   6.059   1.637
 6655SOL    HW120864   0.237   6.145   1.674
 6655SOL    HW220865   0.224   5.982   1.679
 6656SOL     OW20866   4.034   1.321   3.141
 6656SOL    HW120867   3.991   1.396   3.092
 6656SOL    HW220868   3.989   1.235   3.116
 6657SOL     OW20869   5.594   1.294   4.501
 6657SOL    HW120870   5.602   1.360   4.426
 6657SOL    HW220871   5.549   1.337   4.579
 6658SOL     OW20872   6.716   6.172   5.401
 6658SOL    HW120873   6.677   6.250   5.449
 6658SOL    HW220874   6.675   6.165   5.310
 6659SOL     OW20875   0.731   5.224   1.557
 6659SOL    HW120876   0.661   5.233   1.486
 6659SOL    HW220877   0.746   5.127   1.576
 6660SOL     OW20878   6.852   0.231   4.658
 6660SOL    HW120879   6.937   0.253   4.611
 6660SOL    HW220880   6.829   0.135   4.642
 6661SOL     OW20881   4.083   5.459   4.011
 6661SOL    HW120882   4.116   5.510   3.932
 6661SOL    HW220883   4.012   5.394   3.982
 6662SOL     OW20884   3.825   6.587   2.638
 6662SOL    HW120885   3.895   6.612   2.705
 6662SOL    HW220886   3.736   6.624   2.667
 6663SOL     OW20887   0.827   4.398   6.143
 6663SOL    HW120888   0.841   4.447   6.229
 6663SOL    HW220889   0.851   4.458   6.067
 6664SOL     OW20890   2.998   0.481   1.348
 6664SOL    HW120891   3.063   0.490   1.423
 6664SOL    HW220892   2.983   0.384   1.327
 6665SOL     OW20893   2.722   0.564   6.808
 6665SOL    HW120894   2.785   0.516   6.869
 6665SOL    HW220895   2.691   0.501   6.737
 6666SOL     OW20896   3.962   6.330   4.906
 6666SOL    HW120897   3.976   6.345   5.004
 6666SOL    HW220898   4.011   6.247   4.878
 6667SOL     OW20899   1.201   5.791   6.470
 6667SOL    HW120900   1.205   5.890   6.483
 6667SOL    HW220901   1.289   5.759   6.434
 6668SOL     OW20902   0.320   4.403   0.458
 6668SOL    HW120903   0.322   4.485   0.515
 6668SOL    HW220904   0.241   4.348   0.483
 6669SOL     OW20905   1.716   2.102   3.324
 6669SOL    HW120906   1.750   2.161   3.251
 6669SOL    HW220907   1.714   2.154   3.409
 6670SOL     OW20908   3.473   3.260   0.371
 6670SOL    HW120909   3.560   3.289   0.412
 6670SOL    HW220910   3.485   3.249   0.272
 6671SOL     OW20911   4.582   4.856   0.350
 6671SOL    HW120912   4.587   4.773   0.295
 6671SOL    HW220913   4.603   4.935   0.293
 6672SOL     OW20914   1.028   2.155   1.550
 6672SOL    HW120915   0.961   2.227   1.566
 6672SOL    HW220916   1.086   2.179   1.472
 6673SOL     OW20917   6.291   2.699   4.030
 6673SOL    HW120918   6.289   2.753   4.115
 6673SOL    HW220919   6.217   2.729   3.970
 6674SOL     OW20920   0.153   1.310   0.686
 6674SOL    HW120921   0.126   1.395   0.730
 6674SOL    HW220922   0.252   1.302   0.687
 6675SOL     OW20923   4.844   0.388   6.787
 6675SOL    HW120924   4.871   0.462   6.725
 6675SOL    HW220925   4.926   0.343   6.824
 6676SOL     OW20926   0.699   4.298   4.160
 6676SOL    HW120927   0.692   4.215   4.216
 6676SOL    HW220928   0.746   4.277   4.075
 6677SOL     OW20929   0.747   1.919   6.515
 6677SOL    HW120930   0.699   1.833   6.499
 6677SOL    HW220931   0.713   1.989   6.453
 6678SOL     OW20932   3.020   4.639   6.439
 6678SOL    HW120933   3.028   4.662   6.342
 6678SOL    HW220934   3.105   4.664   6.486
 6679SOL     OW20935   1.553   0.588   4.000
 6679SOL    HW120936   1.559   0.512   4.066
 6679SOL    HW220937   1.567   0.553   3.908
 6680SOL     OW20938   6.253   5.604   1.144
 6680SOL    HW120939   6.321   5.539   1.177
 6680SOL    HW220940   6.276   5.633   1.051
 6681SOL     OW20941   3.393   6.214   1.843
 6681SOL    HW120942   3.326   6.264   1.896
 6681SOL    HW220943   3.476   6.201   1.896
 6682SOL     OW20944   3.417   5.785   5.860
 6682SOL    HW120945   3.416   5.873   5.813
 6682SOL    HW220946   3.399   5.711   5.795
 6683SOL     OW20947   6.896   5.176   5.784
 6683SOL    HW120948   6.893   5.112   5.708
 6683SOL    HW220949   6.885   5.126   5.870
 6684SOL     OW20950   2.703   5.664   6.839
 6684SOL    HW120951   2.709   5.572   6.878
 6684SOL    HW220952   2.744   5.664   6.748
 6685SOL     OW20953   5.195   2.797   0.793
 6685SOL    HW120954   5.182   2.700   0.774
 6685SOL    HW220955   5.234   2.809   0.884
 6686SOL     OW20956   4.968   4.903   5.169
 6686SOL    HW120957   5.018   4.826   5.206
 6686SOL    HW220958   4.963   4.976   5.237
 6687SOL     OW20959   6.908   1.427   1.740
 6687SOL    HW120960   6.833   1.363   1.727
 6687SOL    HW220961   6.977   1.414   1.668
 6688SOL     OW20962   4.260   4.977   0.045
 6688SOL    HW120963   4.278   4.950   0.140
 6688SOL    HW220964   4.213   4.902   7.020
 6689SOL     OW20965   2.943   4.058   5.642
 6689SOL    HW120966   2.900   4.043   5.554
 6689SOL    HW220967   2.947   3.972   5.693
 6690SOL     OW20968   0.716   0.375   6.827
 6690SOL    HW120969   0.729   0.393   6.925
 6690SOL    HW220970   0.624   0.404   6.801
 6691SOL     OW20971   2.913   1.695   2.355
 6691SOL    HW120972   3.012   1.687   2.368
 6691SOL    HW220973   2.894   1.765   2.286
 6692SOL     OW20974   4.536   5.469   2.385
 6692SOL    HW120975   4.536   5.420   2.471
 6692SOL    HW220976   4.465   5.431   2.325
 6693SOL     OW20977   3.712   1.460   5.389
 6693SOL    HW120978   3.646   1.462   5.314
 6693SOL    HW220979   3.682   1.521   5.462
 6694SOL     OW20980   4.234   4.252   1.145
 6694SOL    HW120981   4.184   4.337   1.163
 6694SOL    HW220982   4.332   4.268   1.155
 6695SOL     OW20983   2.588   2.237   0.453
 6695SOL    HW120984   2.517   2.284   0.401
 6695SOL    HW220985   2.592   2.141   0.424
 6696SOL     OW20986   4.100   3.317   4.254
 6696SOL    HW120987   4.015   3.348   4.296
 6696SOL    HW220988   4.155   3.396   4.225
 6697SOL     OW20989   4.605   2.176   2.087
 6697SOL    HW120990   4.534   2.240   2.117
 6697SOL    HW220991   4.561   2.095   2.047
 6698SOL     OW20992   4.124   4.262   1.573
 6698SOL    HW120993   4.144   4.195   1.646
 6698SOL    HW220994   4.025   4.269   1.561
 6699SOL     OW20995   1.419   3.045   5.748
 6699SOL    HW120996   1.495   3.093   5.704
 6699SOL    HW220997   1.364   2.998   5.679
 6700SOL     OW20998   5.739   0.195   0.980
 6700SOL    HW120999   5.798   0.218   1.057
 6700SOL    HW221000   5.758   0.101   0.950
 6701SOL     OW21001   6.296   6.621   1.392
 6701SOL    HW121002   6.222   6.581   1.338
 6701SOL    HW221003   6.274   6.617   1.489
 6702SOL     OW21004   3.832   3.088   0.960
 6702SOL    HW121005   3.868   3.102   0.868
 6702SOL    HW221006   3.732   3.079   0.956
 6703SOL     OW21007   0.000   1.456   0.127
 6703SOL    HW121008   6.963   1.490   0.053
 6703SOL    HW221009   6.980   1.479   0.215
 6704SOL     OW21010   3.299   6.844   5.843
 6704SOL    HW121011   3.302   6.926   5.901
 6704SOL    HW221012   3.378   6.843   5.781
 6705SOL     OW21013   0.305   4.478   2.114
 6705SOL    HW121014   0.362   4.401   2.142
 6705SOL    HW221015   0.360   4.544   2.063
 6706SOL     OW21016   0.479   6.720   1.522
 6706SOL    HW121017   0.430   6.649   1.472
 6706SOL    HW221018   0.489   6.801   1.465
 6707SOL     OW21019   4.649   1.395   2.579
 6707SOL    HW121020   4.730   1.355   2.538
 6707SOL    HW221021   4.633   1.486   2.541
 6708SOL     OW21022   0.814   3.110   0.089
 6708SOL    HW121023   0.760   3.167   0.151
 6708SOL    HW221024   0.876   3.053   0.143
 6709SOL     OW21025   2.398   4.405   2.460
 6709SOL    HW121026   2.312   4.357   2.449
 6709SOL    HW221027   2.439   4.422   2.371
 6710SOL     OW21028   4.698   1.524   0.946
 6710SOL    HW121029   4.602   1.505   0.925
 6710SOL    HW221030   4.718   1.494   1.040
 6711SOL     OW21031   3.145   5.966   5.998
 6711SOL    HW121032   3.115   5.972   6.093
 6711SOL    HW221033   3.091   5.896   5.950
 6712SOL     OW21034   5.300   4.615   1.158
 6712SOL    HW121035   5.251   4.689   1.206
 6712SOL    HW221036   5.398   4.635   1.158
 6713SOL     OW21037   1.363   5.162   4.516
 6713SOL    HW121038   1.270   5.155   4.480
 6713SOL    HW221039   1.360   5.204   4.607
 6714SOL     OW21040   5.608   1.134   1.604
 6714SOL    HW121041   5.629   1.088   1.518
 6714SOL    HW221042   5.615   1.069   1.680
 6715SOL     OW21043   1.692   0.153   6.263
 6715SOL    HW121044   1.640   0.238   6.271
 6715SOL    HW221045   1.666   0.091   6.337
 6716SOL     OW21046   6.999   5.852   2.204
 6716SOL    HW121047   0.027   5.877   2.288
 6716SOL    HW221048   0.031   5.880   2.125
 6717SOL     OW21049   5.602   1.757   5.965
 6717SOL    HW121050   5.636   1.664   5.977
 6717SOL    HW221051   5.674   1.822   5.992
 6718SOL     OW21052   4.571   1.572   1.279
 6718SOL    HW121053   4.477   1.572   1.246
 6718SOL    HW221054   4.598   1.666   1.301
 6719SOL     OW21055   1.843   1.542   0.078
 6719SOL    HW121056   1.752   1.552   0.116
 6719SOL    HW221057   1.890   1.630   0.078
 6720SOL     OW21058   1.399   0.824   6.201
 6720SOL    HW121059   1.353   0.912   6.186
 6720SOL    HW221060   1.372   0.761   6.128
 6721SOL     OW21061   6.189   6.779   0.966
 6721SOL    HW121062   6.120   6.850   0.978
 6721SOL    HW221063   6.147   6.697   0.926
 6722SOL     OW21064   5.589   3.746   0.167
 6722SOL    HW121065   5.545   3.803   0.097
 6722SOL    HW221066   5.528   3.671   0.192
 6723SOL     OW21067   1.057   2.822   5.771
 6723SOL    HW121068   1.071   2.868   5.859
 6723SOL    HW221069   1.137   2.839   5.712
 6724SOL     OW21070   2.073   3.613   4.252
 6724SOL    HW121071   2.025   3.614   4.164
 6724SOL    HW221072   2.087   3.518   4.280
 6725SOL     OW21073   5.256   2.793   3.407
 6725SOL    HW121074   5.322   2.789   3.332
 6725SOL    HW221075   5.252   2.704   3.453
 6726SOL     OW21076   0.309   0.418   6.107
 6726SOL    HW121077   0.367   0.360   6.165
 6726SOL    HW221078   0.235   0.456   6.162
 6727SOL     OW21079   1.295   5.201   5.362
 6727SOL    HW121080   1.246   5.201   5.275
 6727SOL    HW221081   1.363   5.128   5.363
 6728SOL     OW21082   3.650   1.329   3.705
 6728SOL    HW121083   3.744   1.294   3.700
 6728SOL    HW221084   3.591   1.259   3.745
 6729SOL     OW21085   4.348   0.980   2.235
 6729SOL    HW121086   4.295   0.914   2.181
 6729SOL    HW221087   4.332   1.072   2.199
 6730SOL     OW21088   0.061   1.640   0.677
 6730SOL    HW121089   0.041   1.728   0.634
 6730SOL    HW221090   0.137   1.651   0.742
 6731SOL     OW21091   4.033   0.057   6.397
 6731SOL    HW121092   4.118   0.038   6.446
 6731SOL    HW221093   4.054   0.094   6.306
 6732SOL     OW21094   0.156   4.971   5.628
 6732SOL    HW121095   0.209   4.962   5.713
 6732SOL    HW221096   0.158   5.066   5.598
 6733SOL     OW21097   4.844   4.755   5.583
 6733SOL    HW121098   4.880   4.783   5.672
 6733SOL    HW221099   4.920   4.728   5.523
 6734SOL     OW21100   6.183   1.752   4.382
 6734SOL    HW121101   6.164   1.669   4.330
 6734SOL    HW221102   6.264   1.737   4.439
 6735SOL     OW21103   6.565   2.643   3.428
 6735SOL    HW121104   6.614   2.730   3.424
 6735SOL    HW221105   6.630   2.568   3.438
 6736SOL     OW21106   3.679   3.396   0.845
 6736SOL    HW121107   3.678   3.303   0.807
 6736SOL    HW221108   3.677   3.390   0.945
 6737SOL     OW21109   6.731   3.717   0.411
 6737SOL    HW121110   6.752   3.629   0.370
 6737SOL    HW221111   6.701   3.781   0.341
 6738SOL     OW21112   1.206   5.849   4.159
 6738SOL    HW121113   1.278   5.915   4.136
 6738SOL    HW221114   1.209   5.828   4.256
 6739SOL     OW21115   0.010   0.157   5.384
 6739SOL    HW121116   6.965   0.137   5.457
 6739SOL    HW221117   7.015   0.250   5.350
 6740SOL     OW21118   0.274   0.065   2.808
 6740SOL    HW121119   0.342   0.126   2.849
 6740SOL    HW221120   0.302   0.042   2.715
 6741SOL     OW21121   3.712   2.075   0.225
 6741SOL    HW121122   3.792   2.018   0.242
 6741SOL    HW221123   3.741   2.169   0.209
 6742SOL     OW21124   6.000   4.254   3.468
 6742SOL    HW121125   5.925   4.278   3.530
 6742SOL    HW221126   6.005   4.154   3.460
 6743SOL     OW21127   3.943   3.634   0.692
 6743SOL    HW121128   3.929   3.731   0.710
 6743SOL    HW221129   3.859   3.593   0.658
 6744SOL     OW21130   6.122   6.665   6.259
 6744SOL    HW121131   6.022   6.662   6.253
 6744SOL    HW221132   6.160   6.700   6.174
 6745SOL     OW21133   0.154   4.575   5.094
 6745SOL    HW121134   0.102   4.638   5.036
 6745SOL    HW221135   0.131   4.593   5.190
 6746SOL     OW21136   1.011   2.341   2.732
 6746SOL    HW121137   1.048   2.361   2.642
 6746SOL    HW221138   1.047   2.254   2.765
 6747SOL     OW21139   0.963   6.287   5.747
 6747SOL    HW121140   0.946   6.356   5.677
 6747SOL    HW221141   0.893   6.217   5.743
 6748SOL     OW21142   1.994   0.988   4.707
 6748SOL    HW121143   2.055   1.064   4.729
 6748SOL    HW221144   2.045   0.917   4.660
 6749SOL     OW21145   4.348   5.073   1.962
 6749SOL    HW121146   4.265   5.076   1.907
 6749SOL    HW221147   4.408   4.999   1.928
 6750SOL     OW21148   3.574   0.925   4.852
 6750SOL    HW121149   3.653   0.864   4.860
 6750SOL    HW221150   3.498   0.889   4.905
 6751SOL     OW21151   4.477   0.105   4.647
 6751SOL    HW121152   4.543   0.134   4.578
 6751SOL    HW221153   4.514   0.123   4.738
 6752SOL     OW21154   2.117   4.548   2.384
 6752SOL    HW121155   2.044   4.611   2.411
 6752SOL    HW221156   2.171   4.589   2.310
 6753SOL     OW21157   3.996   3.215   6.360
 6753SOL    HW121158   3.993   3.239   6.457
 6753SOL    HW221159   3.972   3.118   6.348
 6754SOL     OW21160   6.120   1.991   0.666
 6754SOL    HW121161   6.046   2.046   0.703
 6754SOL    HW221162   6.113   1.989   0.566
 6755SOL     OW21163   2.716   5.960   6.336
 6755SOL    HW121164   2.657   5.914   6.403
 6755SOL    HW221165   2.659   6.014   6.273
 6756SOL     OW21166   3.643   2.390   6.193
 6756SOL    HW121167   3.635   2.488   6.172
 6756SOL    HW221168   3.718   2.350   6.140
 6757SOL     OW21169   4.307   0.300   1.019
 6757SOL    HW121170   4.221   0.320   1.065
 6757SOL    HW221171   4.373   0.266   1.086
 6758SOL     OW21172   5.365   2.143   3.427
 6758SOL    HW121173   5.366   2.231   3.379
 6758SOL    HW221174   5.274   2.127   3.465
 6759SOL     OW21175   0.710   1.848   2.906
 6759SOL    HW121176   0.655   1.772   2.939
 6759SOL    HW221177   0.661   1.934   2.922
 6760SOL     OW21178   5.182   2.379   4.689
 6760SOL    HW121179   5.153   2.355   4.596
 6760SOL    HW221180   5.278   2.353   4.702
 6761SOL     OW21181   3.524   1.369   5.177
 6761SOL    HW121182   3.469   1.345   5.258
 6761SOL    HW221183   3.560   1.285   5.136
 6762SOL     OW21184   6.936   5.365   4.455
 6762SOL    HW121185   6.887   5.285   4.490
 6762SOL    HW221186   6.926   5.441   4.521
 6763SOL     OW21187   5.859   5.675   4.727
 6763SOL    HW121188   5.802   5.688   4.808
 6763SOL    HW221189   5.810   5.711   4.647
 6764SOL     OW21190   1.121   4.844   0.749
 6764SOL    HW121191   1.207   4.848   0.799
 6764SOL    HW221192   1.129   4.896   0.664
 6765SOL     OW21193   0.102   4.175   2.965
 6765SOL    HW121194   0.039   4.098   2.960
 6765SOL    HW221195   0.187   4.153   2.917
 6766SOL     OW21196   5.807   0.594   1.411
 6766SOL    HW121197   5.745   0.639   1.346
 6766SOL    HW221198   5.890   0.566   1.365
 6767SOL     OW21199   3.177   0.502   0.723
 6767SOL    HW121200   3.098   0.563   0.716
 6767SOL    HW221201   3.166   0.426   0.659
 6768SOL     OW21202   1.761   0.858   0.402
 6768SOL    HW121203   1.728   0.953   0.395
 6768SOL    HW221204   1.853   0.852   0.364
 6769SOL     OW21205   4.467   2.831   1.497
 6769SOL    HW121206   4.379   2.817   1.542
 6769SOL    HW221207   4.540   2.797   1.557
 6770SOL     OW21208   0.132   1.134   1.770
 6770SOL    HW121209   0.051   1.165   1.818
 6770SOL    HW221210   0.181   1.212   1.731
 6771SOL     OW21211   4.298   1.633   3.351
 6771SOL    HW121212   4.305   1.598   3.258
 6771SOL    HW221213   4.224   1.700   3.356
 6772SOL     OW21214   3.297   1.682   3.238
 6772SOL    HW121215   3.203   1.648   3.242
 6772SOL    HW221216   3.296   1.780   3.221
 6773SOL     OW21217   0.499   3.876   1.289
 6773SOL    HW121218   0.496   3.850   1.386
 6773SOL    HW221219   0.514   3.794   1.233
 6774SOL     OW21220   0.768   2.146   6.342
 6774SOL    HW121221   0.856   2.110   6.310
 6774SOL    HW221222   0.783   2.204   6.422
 6775SOL     OW21223   2.279   4.659   0.014
 6775SOL    HW121224   2.285   4.565   0.047
 6775SOL    HW221225   2.215   4.711   0.070
 6776SOL     OW21226   5.711   5.719   6.839
 6776SOL    HW121227   5.795   5.769   6.822
 6776SOL    HW221228   5.724   5.622   6.817
 6777SOL     OW21229   4.877   5.228   6.781
 6777SOL    HW121230   4.973   5.205   6.797
 6777SOL    HW221231   4.818   5.172   6.840
 6778SOL     OW21232   0.196   5.979   2.910
 6778SOL    HW121233   0.100   6.005   2.916
 6778SOL    HW221234   0.252   6.060   2.892
 6779SOL     OW21235   0.520   4.191   0.508
 6779SOL    HW121236   0.453   4.256   0.475
 6779SOL    HW221237   0.601   4.193   0.449
 6780SOL     OW21238   0.192   2.710   1.976
 6780SOL    HW121239   0.180   2.791   1.918
 6780SOL    HW221240   0.256   2.731   2.050
 6781SOL     OW21241   6.222   4.948   6.115
 6781SOL    HW121242   6.239   4.899   6.201
 6781SOL    HW221243   6.134   4.918   6.077
 6782SOL     OW21244   6.187   1.331   2.714
 6782SOL    HW121245   6.127   1.406   2.744
 6782SOL    HW221246   6.187   1.259   2.783
 6783SOL     OW21247   0.522   6.057   6.851
 6783SOL    HW121248   0.468   6.133   6.887
 6783SOL    HW221249   0.461   5.988   6.812
 6784SOL     OW21250   3.334   2.943   0.133
 6784SOL    HW121251   3.309   2.971   0.226
 6784SOL    HW221252   3.250   2.930   0.079
 6785SOL     OW21253   6.375   6.595   2.094
 6785SOL    HW121254   6.299   6.586   2.030
 6785SOL    HW221255   6.438   6.666   2.062
 6786SOL     OW21256   1.815   3.101   6.197
 6786SOL    HW121257   1.834   3.168   6.124
 6786SOL    HW221258   1.849   3.137   6.284
 6787SOL     OW21259   1.187   3.810   1.957
 6787SOL    HW121260   1.146   3.806   1.866
 6787SOL    HW221261   1.218   3.719   1.983
 6788SOL     OW21262   2.616   4.544   1.005
 6788SOL    HW121263   2.557   4.572   1.080
 6788SOL    HW221264   2.588   4.454   0.972
 6789SOL     OW21265   0.189   6.686   3.393
 6789SOL    HW121266   0.111   6.716   3.338
 6789SOL    HW221267   0.271   6.735   3.364
 6790SOL     OW21268   2.011   3.463   0.210
 6790SOL    HW121269   2.068   3.387   0.241
 6790SOL    HW221270   2.037   3.488   0.117
 6791SOL     OW21271   3.899   3.642   6.233
 6791SOL    HW121272   3.847   3.570   6.279
 6791SOL    HW221273   3.838   3.717   6.208
 6792SOL     OW21274   0.108   5.143   0.511
 6792SOL    HW121275   0.206   5.137   0.533
 6792SOL    HW221276   0.094   5.205   0.435
 6793SOL     OW21277   6.346   1.733   0.991
 6793SOL    HW121278   6.386   1.646   1.021
 6793SOL    HW221279   6.272   1.714   0.926
 6794SOL     OW21280   4.864   1.009   5.044
 6794SOL    HW121281   4.934   1.041   4.979
 6794SOL    HW221282   4.775   1.046   5.018
 6795SOL     OW21283   3.090   6.156   0.137
 6795SOL    HW121284   3.105   6.171   0.235
 6795SOL    HW221285   3.024   6.083   0.125
 6796SOL     OW21286   4.303   2.272   2.835
 6796SOL    HW121287   4.284   2.370   2.848
 6796SOL    HW221288   4.395   2.251   2.866
 6797SOL     OW21289   6.614   3.138   2.442
 6797SOL    HW121290   6.664   3.072   2.386
 6797SOL    HW221291   6.665   3.156   2.527
 6798SOL     OW21292   6.221   6.094   2.280
 6798SOL    HW121293   6.194   6.026   2.349
 6798SOL    HW221294   6.233   6.183   2.325
 6799SOL     OW21295   5.346   6.250   1.613
 6799SOL    HW121296   5.263   6.242   1.557
 6799SOL    HW221297   5.324   6.228   1.708
 6800SOL     OW21298   3.250   4.972   6.795
 6800SOL    HW121299   3.294   5.056   6.763
 6800SOL    HW221300   3.254   4.968   6.895
 6801SOL     OW21301   1.801   2.035   2.660
 6801SOL    HW121302   1.810   2.061   2.756
 6801SOL    HW221303   1.862   2.090   2.604
 6802SOL     OW21304   2.167   5.552   2.488
 6802SOL    HW121305   2.079   5.505   2.491
 6802SOL    HW221306   2.239   5.488   2.516
 6803SOL     OW21307   5.132   2.717   0.270
 6803SOL    HW121308   5.127   2.709   0.370
 6803SOL    HW221309   5.215   2.764   0.244
 6804SOL     OW21310   1.500   6.699   3.780
 6804SOL    HW121311   1.516   6.728   3.686
 6804SOL    HW221312   1.413   6.650   3.786
 6805SOL     OW21313   5.452   0.547   4.220
 6805SOL    HW121314   5.445   0.643   4.195
 6805SOL    HW221315   5.540   0.511   4.192
 6806SOL     OW21316   4.376   0.446   5.875
 6806SOL    HW121317   4.451   0.511   5.867
 6806SOL    HW221318   4.318   0.471   5.953
 6807SOL     OW21319   3.091   2.934   6.781
 6807SOL    HW121320   3.136   2.845   6.772
 6807SOL    HW221321   3.139   3.002   6.726
 6808SOL     OW21322   1.877   3.168   5.113
 6808SOL    HW121323   1.844   3.215   5.031
 6808SOL    HW221324   1.968   3.130   5.095
 6809SOL     OW21325   1.794   3.942   6.355
 6809SOL    HW121326   1.746   4.009   6.298
 6809SOL    HW221327   1.778   3.850   6.319
 6810SOL     OW21328   5.991   1.497   2.392
 6810SOL    HW121329   6.067   1.555   2.362
 6810SOL    HW221330   6.010   1.402   2.369
 6811SOL     OW21331   4.998   5.400   1.241
 6811SOL    HW121332   5.060   5.324   1.260
 6811SOL    HW221333   4.964   5.437   1.327
 6812SOL     OW21334   2.869   3.462   2.585
 6812SOL    HW121335   2.870   3.418   2.675
 6812SOL    HW221336   2.944   3.426   2.530
 6813SOL     OW21337   4.565   3.836   1.244
 6813SOL    HW121338   4.619   3.753   1.232
 6813SOL    HW221339   4.609   3.912   1.196
 6814SOL     OW21340   2.333   3.893   0.271
 6814SOL    HW121341   2.320   3.794   0.270
 6814SOL    HW221342   2.335   3.927   0.176
 6815SOL     OW21343   2.336   0.164   2.028
 6815SOL    HW121344   2.433   0.184   2.033
 6815SOL    HW221345   2.311   0.099   2.099
 6816SOL     OW21346   6.392   4.336   1.597
 6816SOL    HW121347   6.339   4.418   1.617
 6816SOL    HW221348   6.368   4.302   1.506
 6817SOL     OW21349   0.141   1.887   5.907
 6817SOL    HW121350   0.077   1.949   5.861
 6817SOL    HW221351   0.099   1.796   5.916
 6818SOL     OW21352   3.327   5.994   2.675
 6818SOL    HW121353   3.245   5.971   2.623
 6818SOL    HW221354   3.374   6.070   2.630
 6819SOL     OW21355   3.259   1.183   3.976
 6819SOL    HW121356   3.172   1.138   3.995
 6819SOL    HW221357   3.254   1.230   3.888
 6820SOL     OW21358   1.069   3.989   3.796
 6820SOL    HW121359   1.064   3.904   3.744
 6820SOL    HW221360   1.122   4.057   3.745
 6821SOL     OW21361   2.188   2.043   4.610
 6821SOL    HW121362   2.284   2.015   4.617
 6821SOL    HW221363   2.137   2.003   4.686
 6822SOL     OW21364   5.024   2.483   5.852
 6822SOL    HW121365   4.996   2.425   5.928
 6822SOL    HW221366   4.959   2.471   5.776
 6823SOL     OW21367   3.145   3.029   2.029
 6823SOL    HW121368   3.238   2.991   2.026
 6823SOL    HW221369   3.149   3.128   2.015
 6824SOL     OW21370   1.377   4.223   6.346
 6824SOL    HW121371   1.431   4.298   6.385
 6824SOL    HW221372   1.305   4.260   6.287
 6825SOL     OW21373   4.956   6.941   3.807
 6825SOL    HW121374   4.899   6.918   3.729
 6825SOL    HW221375   5.010   6.861   3.833
 6826SOL     OW21376   1.225   2.989   2.525
 6826SOL    HW121377   1.159   3.037   2.583
 6826SOL    HW221378   1.318   3.020   2.547
 6827SOL     OW21379   5.902   6.288   4.910
 6827SOL    HW121380   5.934   6.290   5.005
 6827SOL    HW221381   5.818   6.235   4.903
 6828SOL     OW21382   1.428   2.958   1.370
 6828SOL    HW121383   1.424   3.056   1.392
 6828SOL    HW221384   1.469   2.946   1.279
 6829SOL     OW21385   4.707   5.430   3.971
 6829SOL    HW121386   4.689   5.487   3.890
 6829SOL    HW221387   4.786   5.465   4.020
 6830SOL     OW21388   5.700   1.917   3.904
 6830SOL    HW121389   5.685   1.912   3.805
 6830SOL    HW221390   5.654   1.840   3.948
 6831SOL     OW21391   0.272   1.337   6.463
 6831SOL    HW121392   0.354   1.323   6.518
 6831SOL    HW221393   0.249   1.252   6.415
 6832SOL     OW21394   3.068   5.119   2.445
 6832SOL    HW121395   3.067   5.097   2.542
 6832SOL    HW221396   3.093   5.037   2.393
 6833SOL     OW21397   3.690   5.451   0.430
 6833SOL    HW121398   3.752   5.473   0.505
 6833SOL    HW221399   3.622   5.385   0.462
 6834SOL     OW21400   4.027   5.204   2.178
 6834SOL    HW121401   4.064   5.261   2.251
 6834SOL    HW221402   4.034   5.108   2.204
 6835SOL     OW21403   3.962   6.667   4.511
 6835SOL    HW121404   3.952   6.765   4.497
 6835SOL    HW221405   3.966   6.648   4.609
 6836SOL     OW21406   3.428   5.970   6.785
 6836SOL    HW121407   3.512   5.927   6.816
 6836SOL    HW221408   3.357   5.959   6.855
 6837SOL     OW21409   1.311   3.045   2.017
 6837SOL    HW121410   1.346   2.990   2.092
 6837SOL    HW221411   1.382   3.109   1.987
 6838SOL     OW21412   2.407   1.701   6.918
 6838SOL    HW121413   2.344   1.625   6.925
 6838SOL    HW221414   2.451   1.700   6.828
 6839SOL     OW21415   4.057   1.101   1.203
 6839SOL    HW121416   4.073   1.002   1.198
 6839SOL    HW221417   4.096   1.144   1.121
 6840SOL     OW21418   1.041   1.924   6.513
 6840SOL    HW121419   0.944   1.933   6.538
 6840SOL    HW221420   1.081   1.849   6.566
 6841SOL     OW21421   6.778   3.857   6.326
 6841SOL    HW121422   6.727   3.773   6.308
 6841SOL    HW221423   6.797   3.904   6.239
 6842SOL     OW21424   2.015   4.440   3.113
 6842SOL    HW121425   2.030   4.353   3.066
 6842SOL    HW221426   1.926   4.439   3.159
 6843SOL     OW21427   4.199   6.608   6.950
 6843SOL    HW121428   4.209   6.583   0.025
 6843SOL    HW221429   4.113   6.656   6.936
 6844SOL     OW21430   4.991   0.568   5.666
 6844SOL    HW121431   4.900   0.605   5.684
 6844SOL    HW221432   5.035   0.545   5.753
 6845SOL     OW21433   5.232   1.775   2.326
 6845SOL    HW121434   5.298   1.819   2.387
 6845SOL    HW221435   5.280   1.732   2.250
 6846SOL     OW21436   2.339   3.969   0.011
 6846SOL    HW121437   2.406   3.958   6.959
 6846SOL    HW221438   2.247   3.953   6.996
 6847SOL     OW21439   6.767   3.472   3.840
 6847SOL    HW121440   6.669   3.489   3.854
 6847SOL    HW221441   6.819   3.514   3.913
 6848SOL     OW21442   5.974   4.424   3.278
 6848SOL    HW121443   5.981   4.523   3.295
 6848SOL    HW221444   5.979   4.375   3.365
 6849SOL     OW21445   2.835   3.935   6.461
 6849SOL    HW121446   2.913   3.910   6.519
 6849SOL    HW221447   2.765   3.864   6.467
 6850SOL     OW21448   4.051   1.462   4.319
 6850SOL    HW121449   3.979   1.527   4.299
 6850SOL    HW221450   4.132   1.483   4.264
 6851SOL     OW21451   2.096   3.355   3.437
 6851SOL    HW121452   2.128   3.438   3.393
 6851SOL    HW221453   2.112   3.360   3.535
 6852SOL     OW21454   2.899   4.393   0.068
 6852SOL    HW121455   2.904   4.406   6.990
 6852SOL    HW221456   2.981   4.347   0.100
 6853SOL     OW21457   5.280   3.762   6.959
 6853SOL    HW121458   5.236   3.738   6.872
 6853SOL    HW221459   5.339   3.841   6.945
 6854SOL     OW21460   6.036   6.088   6.096
 6854SOL    HW121461   6.105   6.158   6.115
 6854SOL    HW221462   6.060   6.040   6.012
 6855SOL     OW21463   4.256   5.220   3.907
 6855SOL    HW121464   4.236   5.313   3.874
 6855SOL    HW221465   4.354   5.211   3.922
 6856SOL     OW21466   0.283   1.950   6.306
 6856SOL    HW121467   0.354   1.879   6.310
 6856SOL    HW221468   0.290   2.000   6.220
 6857SOL     OW21469   0.781   3.752   5.113
 6857SOL    HW121470   0.808   3.656   5.121
 6857SOL    HW221471   0.845   3.799   5.053
 6858SOL     OW21472   2.373   3.729   1.711
 6858SOL    HW121473   2.334   3.783   1.785
 6858SOL    HW221474   2.363   3.632   1.732
 6859SOL     OW21475   1.549   1.625   2.513
 6859SOL    HW121476   1.605   1.706   2.492
 6859SOL    HW221477   1.467   1.654   2.562
 6860SOL     OW21478   0.945   6.383   1.980
 6860SOL    HW121479   1.016   6.329   1.934
 6860SOL    HW221480   0.932   6.469   1.930
 6861SOL     OW21481   6.027   2.891   5.638
 6861SOL    HW121482   6.076   2.969   5.598
 6861SOL    HW221483   5.999   2.914   5.731
 6862SOL     OW21484   0.817   4.311   4.773
 6862SOL    HW121485   0.891   4.259   4.729
 6862SOL    HW221486   0.755   4.247   4.819
 6863SOL     OW21487   6.229   0.939   5.483
 6863SOL    HW121488   6.143   0.895   5.508
 6863SOL    HW221489   6.305   0.894   5.529
 6864SOL     OW21490   1.032   3.701   5.844
 6864SOL    HW121491   1.047   3.780   5.785
 6864SOL    HW221492   1.033   3.730   5.940
 6865SOL     OW21493   2.289   0.385   3.625
 6865SOL    HW121494   2.270   0.354   3.718
 6865SOL    HW221495   2.376   0.347   3.594
 6866SOL     OW21496   1.242   4.761   0.481
 6866SOL    HW121497   1.209   4.685   0.538
 6866SOL    HW221498   1.259   4.728   0.389
 6867SOL     OW21499   2.388   3.775   6.751
 6867SOL    HW121500   2.372   3.723   6.835
 6867SOL    HW221501   2.445   3.854   6.771
 6868SOL     OW21502   2.878   5.371   3.967
 6868SOL    HW121503   2.938   5.389   3.889
 6868SOL    HW221504   2.850   5.275   3.964
 6869SOL     OW21505   3.536   0.974   6.272
 6869SOL    HW121506   3.554   1.032   6.192
 6869SOL    HW221507   3.615   0.975   6.333
 6870SOL     OW21508   5.948   2.238   0.353
 6870SOL    HW121509   6.024   2.254   0.416
 6870SOL    HW221510   5.979   2.251   0.259
 6871SOL     OW21511   6.786   3.446   2.496
 6871SOL    HW121512   6.783   3.364   2.439
 6871SOL    HW221513   6.718   3.512   2.464
 6872SOL     OW21514   1.743   3.872   0.811
 6872SOL    HW121515   1.719   3.811   0.887
 6872SOL    HW221516   1.753   3.819   0.727
 6873SOL     OW21517   0.453   4.059   3.302
 6873SOL    HW121518   0.366   4.021   3.273
 6873SOL    HW221519   0.501   4.098   3.223
 6874SOL     OW21520   5.439   6.421   3.225
 6874SOL    HW121521   5.373   6.378   3.164
 6874SOL    HW221522   5.424   6.389   3.319
 6875SOL     OW21523   2.475   1.502   0.257
 6875SOL    HW121524   2.444   1.583   0.208
 6875SOL    HW221525   2.408   1.429   0.247
 6876SOL     OW21526   4.900   5.021   3.560
 6876SOL    HW121527   4.886   4.936   3.611
 6876SOL    HW221528   4.949   5.002   3.476
 6877SOL     OW21529   0.788   3.310   1.787
 6877SOL    HW121530   0.776   3.272   1.695
 6877SOL    HW221531   0.863   3.376   1.786
 6878SOL     OW21532   2.437   0.869   4.590
 6878SOL    HW121533   2.342   0.841   4.603
 6878SOL    HW221534   2.478   0.814   4.517
 6879SOL     OW21535   1.935   0.967   0.985
 6879SOL    HW121536   2.011   1.015   0.941
 6879SOL    HW221537   1.875   0.928   0.915
 6880SOL     OW21538   1.580   5.401   6.775
 6880SOL    HW121539   1.481   5.399   6.789
 6880SOL    HW221540   1.616   5.308   6.772
 6881SOL     OW21541   0.773   2.773   0.912
 6881SOL    HW121542   0.842   2.713   0.950
 6881SOL    HW221543   0.695   2.719   0.880
 6882SOL     OW21544   2.239   6.619   6.600
 6882SOL    HW121545   2.229   6.621   6.699
 6882SOL    HW221546   2.181   6.547   6.562
 6883SOL     OW21547   4.604   0.384   0.825
 6883SOL    HW121548   4.688   0.432   0.800
 6883SOL    HW221549   4.578   0.322   0.751
 6884SOL     OW21550   1.839   4.063   3.176
 6884SOL    HW121551   1.894   3.990   3.216
 6884SOL    HW221552   1.811   4.036   3.083
 6885SOL     OW21553   5.987   5.155   4.563
 6885SOL    HW121554   6.044   5.141   4.644
 6885SOL    HW221555   6.009   5.244   4.522
 6886SOL     OW21556   4.969   2.331   0.293
 6886SOL    HW121557   5.051   2.285   0.257
 6886SOL    HW221558   4.887   2.286   0.259
 6887SOL     OW21559   5.582   5.519   6.009
 6887SOL    HW121560   5.603   5.501   5.913
 6887SOL    HW221561   5.648   5.471   6.067
 6888SOL     OW21562   6.192   4.622   6.561
 6888SOL    HW121563   6.145   4.569   6.632
 6888SOL    HW221564   6.245   4.560   6.503
 6889SOL     OW21565   6.877   2.863   6.657
 6889SOL    HW121566   6.856   2.806   6.737
 6889SOL    HW221567   6.901   2.805   6.580
 6890SOL     OW21568   4.578   4.377   3.588
 6890SOL    HW121569   4.493   4.416   3.552
 6890SOL    HW221570   4.655   4.415   3.537
 6891SOL     OW21571   1.812   1.119   1.179
 6891SOL    HW121572   1.856   1.052   1.118
 6891SOL    HW221573   1.882   1.172   1.225
 6892SOL     OW21574   3.164   0.974   4.440
 6892SOL    HW121575   3.259   0.959   4.414
 6892SOL    HW221576   3.106   0.903   4.400
 6893SOL     OW21577   6.187   3.084   0.847
 6893SOL    HW121578   6.100   3.066   0.892
 6893SOL    HW221579   6.225   2.998   0.812
 6894SOL     OW21580   5.804   5.160   0.748
 6894SOL    HW121581   5.748   5.078   0.741
 6894SOL    HW221582   5.803   5.193   0.842
 6895SOL     OW21583   0.418   6.632   2.171
 6895SOL    HW121584   0.373   6.715   2.206
 6895SOL    HW221585   0.421   6.563   2.244
 6896SOL     OW21586   4.851   1.569   5.090
 6896SOL    HW121587   4.921   1.543   5.024
 6896SOL    HW221588   4.815   1.660   5.067
 6897SOL     OW21589   4.869   2.916   4.847
 6897SOL    HW121590   4.781   2.908   4.894
 6897SOL    HW221591   4.875   2.846   4.776
 6898SOL     OW21592   1.793   6.595   1.573
 6898SOL    HW121593   1.881   6.578   1.616
 6898SOL    HW221594   1.800   6.577   1.475
 6899SOL     OW21595   6.278   5.724   2.236
 6899SOL    HW121596   6.350   5.722   2.305
 6899SOL    HW221597   6.294   5.801   2.174
 6900SOL     OW21598   6.385   3.775   4.959
 6900SOL    HW121599   6.308   3.836   4.937
 6900SOL    HW221600   6.359   3.713   5.033
 6901SOL     OW21601   5.093   4.731   6.810
 6901SOL    HW121602   5.123   4.806   6.869
 6901SOL    HW221603   5.021   4.679   6.856
 6902SOL     OW21604   0.508   6.034   6.074
 6902SOL    HW121605   0.572   6.081   6.013
 6902SOL    HW221606   0.424   6.013   6.024
 6903SOL     OW21607   1.065   5.855   4.613
 6903SOL    HW121608   0.968   5.831   4.612
 6903SOL    HW221609   1.077   5.946   4.651
 6904SOL     OW21610   6.736   0.124   5.942
 6904SOL    HW121611   6.716   0.080   6.029
 6904SOL    HW221612   6.708   0.064   5.867
 6905SOL     OW21613   4.750   6.097   6.187
 6905SOL    HW121614   4.794   6.088   6.276
 6905SOL    HW221615   4.785   6.179   6.140
 6906SOL     OW21616   3.328   1.205   3.650
 6906SOL    HW121617   3.354   1.289   3.698
 6906SOL    HW221618   3.251   1.163   3.697
 6907SOL     OW21619   5.973   2.738   0.841
 6907SOL    HW121620   6.050   2.674   0.845
 6907SOL    HW221621   5.893   2.697   0.883
 6908SOL     OW21622   3.063   5.288   0.104
 6908SOL    HW121623   2.999   5.217   0.132
 6908SOL    HW221624   3.020   5.377   0.112
 6909SOL     OW21625   5.947   4.981   1.954
 6909SOL    HW121626   5.977   5.075   1.937
 6909SOL    HW221627   5.864   4.983   2.011
 6910SOL     OW21628   0.862   2.857   2.718
 6910SOL    HW121629   0.955   2.894   2.731
 6910SOL    HW221630   0.845   2.785   2.784
 6911SOL     OW21631   1.422   6.497   5.504
 6911SOL    HW121632   1.512   6.455   5.500
 6911SOL    HW221633   1.352   6.426   5.516
 6912SOL     OW21634   2.647   3.557   6.628
 6912SOL    HW121635   2.697   3.474   6.654
 6912SOL    HW221636   2.553   3.533   6.607
 6913SOL     OW21637   4.831   6.317   5.999
 6913SOL    HW121638   4.791   6.401   5.964
 6913SOL    HW221639   4.894   6.279   5.931
 6914SOL     OW21640   5.991   2.754   2.365
 6914SOL    HW121641   5.927   2.785   2.296
 6914SOL    HW221642   6.080   2.798   2.352
 6915SOL     OW21643   6.363   3.642   3.477
 6915SOL    HW121644   6.440   3.704   3.494
 6915SOL    HW221645   6.348   3.586   3.558
 6916SOL     OW21646   4.860   6.601   6.633
 6916SOL    HW121647   4.874   6.535   6.707
 6916SOL    HW221648   4.948   6.624   6.592
 6917SOL     OW21649   4.433   6.627   1.847
 6917SOL    HW121650   4.369   6.553   1.866
 6917SOL    HW221651   4.388   6.697   1.791
 6918SOL     OW21652   2.295   3.249   0.787
 6918SOL    HW121653   2.272   3.317   0.856
 6918SOL    HW221654   2.392   3.226   0.795
 6919SOL     OW21655   5.353   5.834   3.563
 6919SOL    HW121656   5.283   5.880   3.508
 6919SOL    HW221657   5.345   5.863   3.658
 6920SOL     OW21658   6.124   1.111   6.070
 6920SOL    HW121659   6.201   1.093   6.009
 6920SOL    HW221660   6.157   1.133   6.162
 6921SOL     OW21661   4.224   0.045   4.595
 6921SOL    HW121662   4.247   6.974   4.564
 6921SOL    HW221663   4.309   0.097   4.608
 6922SOL     OW21664   1.714   4.635   5.978
 6922SOL    HW121665   1.706   4.714   6.038
 6922SOL    HW221666   1.709   4.551   6.032
 6923SOL     OW21667   6.149   6.875   2.208
 6923SOL    HW121668   6.179   6.925   2.289
 6923SOL    HW221669   6.057   6.904   2.183
 6924SOL     OW21670   3.367   5.785   1.962
 6924SOL    HW121671   3.311   5.702   1.954
 6924SOL    HW221672   3.317   5.863   1.923
 6925SOL     OW21673   5.727   6.815   5.557
 6925SOL    HW121674   5.816   6.857   5.543
 6925SOL    HW221675   5.738   6.717   5.575
 6926SOL     OW21676   3.227   2.444   0.462
 6926SOL    HW121677   3.249   2.412   0.554
 6926SOL    HW221678   3.181   2.370   0.412
 6927SOL     OW21679   4.616   0.605   0.666
 6927SOL    HW121680   4.566   0.692   0.661
 6927SOL    HW221681   4.562   0.539   0.718
 6928SOL     OW21682   4.060   5.192   0.419
 6928SOL    HW121683   4.133   5.207   0.352
 6928SOL    HW221684   3.979   5.244   0.392
 6929SOL     OW21685   5.707   5.028   2.086
 6929SOL    HW121686   5.636   4.958   2.093
 6929SOL    HW221687   5.732   5.060   2.177
 6930SOL     OW21688   0.248   6.841   1.721
 6930SOL    HW121689   0.240   6.777   1.797
 6930SOL    HW221690   0.204   6.803   1.640
 6931SOL     OW21691   3.098   3.247   1.090
 6931SOL    HW121692   3.185   3.262   1.138
 6931SOL    HW221693   3.091   3.309   1.013
 6932SOL     OW21694   3.766   6.690   6.275
 6932SOL    HW121695   3.800   6.637   6.352
 6932SOL    HW221696   3.812   6.779   6.272
 6933SOL     OW21697   3.226   5.742   6.253
 6933SOL    HW121698   3.243   5.674   6.182
 6933SOL    HW221699   3.311   5.791   6.274
 6934SOL     OW21700   5.052   4.857   6.573
 6934SOL    HW121701   5.084   4.799   6.648
 6934SOL    HW221702   5.126   4.918   6.544
 6935SOL     OW21703   4.163   6.193   1.773
 6935SOL    HW121704   4.089   6.182   1.707
 6935SOL    HW221705   4.157   6.121   1.842
 6936SOL     OW21706   6.906   1.490   5.144
 6936SOL    HW121707   6.807   1.488   5.157
 6936SOL    HW221708   6.933   1.579   5.108
 6937SOL     OW21709   5.452   5.350   0.082
 6937SOL    HW121710   5.415   5.378   0.170
 6937SOL    HW221711   5.377   5.338   0.016
 6938SOL     OW21712   2.703   1.088   4.829
 6938SOL    HW121713   2.604   1.073   4.827
 6938SOL    HW221714   2.734   1.121   4.740
 6939SOL     OW21715   5.603   3.326   3.618
 6939SOL    HW121716   5.541   3.360   3.548
 6939SOL    HW221717   5.553   3.266   3.681
 6940SOL     OW21718   3.036   6.347   0.920
 6940SOL    HW121719   2.975   6.418   0.954
 6940SOL    HW221720   2.984   6.264   0.901
 6941SOL     OW21721   3.589   3.879   2.960
 6941SOL    HW121722   3.498   3.839   2.948
 6941SOL    HW221723   3.623   3.911   2.871
 6942SOL     OW21724   6.041   5.369   2.522
 6942SOL    HW121725   5.988   5.328   2.596
 6942SOL    HW221726   6.085   5.453   2.556
 6943SOL     OW21727   4.398   4.382   6.148
 6943SOL    HW121728   4.333   4.356   6.076
 6943SOL    HW221729   4.491   4.360   6.118
 6944SOL     OW21730   1.406   3.933   4.807
 6944SOL    HW121731   1.390   3.944   4.906
 6944SOL    HW221732   1.327   3.887   4.766
 6945SOL     OW21733   4.988   1.646   1.201
 6945SOL    HW121734   5.063   1.602   1.152
 6945SOL    HW221735   4.951   1.721   1.146
 6946SOL     OW21736   5.148   6.287   3.174
 6946SOL    HW121737   5.054   6.251   3.174
 6946SOL    HW221738   5.192   6.262   3.087
 6947SOL     OW21739   6.273   4.476   5.223
 6947SOL    HW121740   6.242   4.554   5.170
 6947SOL    HW221741   6.199   4.410   5.234
 6948SOL     OW21742   0.495   4.629   7.003
 6948SOL    HW121743   0.489   4.713   6.948
 6948SOL    HW221744   0.476   4.651   0.077
 6949SOL     OW21745   2.509   1.987   3.750
 6949SOL    HW121746   2.471   1.929   3.822
 6949SOL    HW221747   2.463   1.967   3.663
 6950SOL     OW21748   0.383   0.983   4.443
 6950SOL    HW121749   0.377   1.080   4.423
 6950SOL    HW221750   0.477   0.961   4.472
 6951SOL     OW21751   0.593   4.331   0.150
 6951SOL    HW121752   0.545   4.323   0.063
 6951SOL    HW221753   0.653   4.411   0.148
 6952SOL     OW21754   4.862   5.669   4.334
 6952SOL    HW121755   4.775   5.679   4.382
 6952SOL    HW221756   4.902   5.759   4.319
 6953SOL     OW21757   6.558   1.894   0.959
 6953SOL    HW121758   6.624   1.857   0.894
 6953SOL    HW221759   6.477   1.835   0.963
 6954SOL     OW21760   6.695   4.576   6.871
 6954SOL    HW121761   6.683   4.478   6.887
 6954SOL    HW221762   6.701   4.623   6.959
 6955SOL     OW21763   4.800   6.297   2.934
 6955SOL    HW121764   4.817   6.393   2.913
 6955SOL    HW221765   4.722   6.289   2.996
 6956SOL     OW21766   5.739   5.223   2.510
 6956SOL    HW121767   5.765   5.129   2.489
 6956SOL    HW221768   5.748   5.279   2.427
 6957SOL     OW21769   6.476   5.538   5.601
 6957SOL    HW121770   6.396   5.567   5.547
 6957SOL    HW221771   6.559   5.554   5.548
 6958SOL     OW21772   3.328   3.734   3.257
 6958SOL    HW121773   3.290   3.762   3.345
 6958SOL    HW221774   3.254   3.698   3.199
 6959SOL     OW21775   1.648   4.243   2.790
 6959SOL    HW121776   1.674   4.337   2.812
 6959SOL    HW221777   1.590   4.206   2.863
 6960SOL     OW21778   3.762   4.246   0.523
 6960SOL    HW121779   3.782   4.158   0.479
 6960SOL    HW221780   3.834   4.312   0.501
 6961SOL     OW21781   4.730   2.589   5.015
 6961SOL    HW121782   4.748   2.516   4.949
 6961SOL    HW221783   4.811   2.605   5.070
 6962SOL     OW21784   2.268   6.801   6.399
 6962SOL    HW121785   2.171   6.812   6.377
 6962SOL    HW221786   2.279   6.731   6.469
 6963SOL     OW21787   6.383   5.807   0.705
 6963SOL    HW121788   6.294   5.847   0.681
 6963SOL    HW221789   6.437   5.792   0.622
 6964SOL     OW21790   1.854   1.169   5.491
 6964SOL    HW121791   1.835   1.251   5.546
 6964SOL    HW221792   1.813   1.089   5.535
 6965SOL     OW21793   0.982   1.433   0.568
 6965SOL    HW121794   0.956   1.407   0.475
 6965SOL    HW221795   0.928   1.513   0.596
 6966SOL     OW21796   1.446   6.426   1.352
 6966SOL    HW121797   1.447   6.330   1.378
 6966SOL    HW221798   1.361   6.468   1.385
 6967SOL     OW21799   4.382   1.084   6.453
 6967SOL    HW121800   4.373   1.113   6.548
 6967SOL    HW221801   4.292   1.087   6.409
 6968SOL     OW21802   4.128   6.524   3.067
 6968SOL    HW121803   4.094   6.542   3.160
 6968SOL    HW221804   4.052   6.493   3.010
 6969SOL     OW21805   2.064   1.950   2.309
 6969SOL    HW121806   2.027   2.043   2.317
 6969SOL    HW221807   1.993   1.889   2.272
 6970SOL     OW21808   3.625   5.256   5.198
 6970SOL    HW121809   3.674   5.343   5.187
 6970SOL    HW221810   3.624   5.231   5.294
 6971SOL     OW21811   6.577   4.068   0.444
 6971SOL    HW121812   6.615   4.050   0.354
 6971SOL    HW221813   6.590   4.164   0.468
 6972SOL     OW21814   5.428   4.238   1.400
 6972SOL    HW121815   5.438   4.335   1.420
 6972SOL    HW221816   5.393   4.226   1.307
 6973SOL     OW21817   1.467   2.345   3.111
 6973SOL    HW121818   1.379   2.379   3.078
 6973SOL    HW221819   1.540   2.379   3.053
 6974SOL     OW21820   4.036   3.768   2.858
 6974SOL    HW121821   3.987   3.855   2.852
 6974SOL    HW221822   3.981   3.702   2.909
 6975SOL     OW21823   2.709   5.675   4.347
 6975SOL    HW121824   2.774   5.654   4.274
 6975SOL    HW221825   2.753   5.666   4.436
 6976SOL     OW21826   4.813   4.121   5.996
 6976SOL    HW121827   4.749   4.064   5.945
 6976SOL    HW221828   4.860   4.066   6.065
 6977SOL     OW21829   4.799   5.131   2.351
 6977SOL    HW121830   4.824   5.043   2.313
 6977SOL    HW221831   4.868   5.160   2.418
 6978SOL     OW21832   0.148   3.856   1.168
 6978SOL    HW121833   0.074   3.858   1.101
 6978SOL    HW221834   0.235   3.847   1.121
 6979SOL     OW21835   1.475   3.315   2.242
 6979SOL    HW121836   1.515   3.389   2.296
 6979SOL    HW221837   1.481   3.337   2.145
 6980SOL     OW21838   1.823   5.556   2.783
 6980SOL    HW121839   1.776   5.639   2.815
 6980SOL    HW221840   1.807   5.481   2.848
 6981SOL     OW21841   4.251   2.454   7.002
 6981SOL    HW121842   4.308   2.532   0.006
 6981SOL    HW221843   4.169   2.453   0.037
 6982SOL     OW21844   1.602   0.715   2.774
 6982SOL    HW121845   1.642   0.806   2.774
 6982SOL    HW221846   1.507   0.721   2.743
 6983SOL     OW21847   6.077   0.983   4.251
 6983SOL    HW121848   6.107   0.903   4.200
 6983SOL    HW221849   6.069   0.959   4.348
 6984SOL     OW21850   1.176   2.910   2.938
 6984SOL    HW121851   1.097   2.907   2.999
 6984SOL    HW221852   1.199   3.006   2.918
 6985SOL     OW21853   5.883   3.720   6.555
 6985SOL    HW121854   5.804   3.760   6.507
 6985SOL    HW221855   5.897   3.627   6.523
 6986SOL     OW21856   4.581   4.685   5.549
 6986SOL    HW121857   4.681   4.677   5.552
 6986SOL    HW221858   4.547   4.708   5.641
 6987SOL     OW21859   0.577   0.962   6.825
 6987SOL    HW121860   0.650   0.988   6.889
 6987SOL    HW221861   0.592   1.008   6.737
 6988SOL     OW21862   2.790   1.422   6.572
 6988SOL    HW121863   2.868   1.478   6.546
 6988SOL    HW221864   2.706   1.465   6.542
 6989SOL     OW21865   0.773   4.230   2.550
 6989SOL    HW121866   0.815   4.155   2.500
 6989SOL    HW221867   0.673   4.223   2.545
 6990SOL     OW21868   3.730   3.451   0.511
 6990SOL    HW121869   3.753   3.376   0.448
 6990SOL    HW221870   3.730   3.416   0.605
 6991SOL     OW21871   6.718   2.910   2.313
 6991SOL    HW121872   6.748   2.871   2.227
 6991SOL    HW221873   6.750   2.853   2.389
 6992SOL     OW21874   0.921   5.770   0.278
 6992SOL    HW121875   0.847   5.836   0.287
 6992SOL    HW221876   0.929   5.742   0.182
 6993SOL     OW21877   4.397   2.229   1.794
 6993SOL    HW121878   4.379   2.166   1.869
 6993SOL    HW221879   4.490   2.215   1.760
 6994SOL     OW21880   2.806   1.349   3.596
 6994SOL    HW121881   2.774   1.439   3.626
 6994SOL    HW221882   2.876   1.316   3.659
 6995SOL     OW21883   0.222   4.049   0.855
 6995SOL    HW121884   0.292   4.059   0.926
 6995SOL    HW221885   0.143   4.000   0.893
 6996SOL     OW21886   0.827   1.205   6.883
 6996SOL    HW121887   0.754   1.219   6.950
 6996SOL    HW221888   0.843   1.107   6.870
 6997SOL     OW21889   6.114   6.096   5.825
 6997SOL    HW121890   6.160   6.185   5.829
 6997SOL    HW221891   6.065   6.088   5.738
 6998SOL     OW21892   6.794   1.283   0.398
 6998SOL    HW121893   6.889   1.278   0.368
 6998SOL    HW221894   6.753   1.368   0.365
 6999SOL     OW21895   6.890   3.196   6.433
 6999SOL    HW121896   6.949   3.173   6.511
 6999SOL    HW221897   6.938   3.259   6.372
 7000SOL     OW21898   0.136   5.689   3.154
 7000SOL    HW121899   0.158   5.702   3.250
 7000SOL    HW221900   0.043   5.721   3.135
 7001SOL     OW21901   6.901   2.055   3.883
 7001SOL    HW121902   6.875   2.151   3.890
 7001SOL    HW221903   6.981   2.046   3.823
 7002SOL     OW21904   1.002   5.389   2.555
 7002SOL    HW121905   1.034   5.476   2.515
 7002SOL    HW221906   1.018   5.315   2.490
 7003SOL     OW21907   0.152   4.281   0.657
 7003SOL    HW121908   0.228   4.216   0.665
 7003SOL    HW221909   0.076   4.238   0.609
 7004SOL     OW21910   1.764   0.202   0.400
 7004SOL    HW121911   1.815   0.125   0.439
 7004SOL    HW221912   1.821   0.247   0.331
 7005SOL     OW21913   1.125   5.232   0.669
 7005SOL    HW121914   1.084   5.168   0.605
 7005SOL    HW221915   1.111   5.199   0.763
 7006SOL     OW21916   0.723   0.145   4.053
 7006SOL    HW121917   0.696   0.191   3.968
 7006SOL    HW221918   0.647   0.149   4.118
 7007SOL     OW21919   2.071   0.459   6.159
 7007SOL    HW121920   2.016   0.376   6.149
 7007SOL    HW221921   2.043   0.527   6.092
 7008SOL     OW21922   5.503   3.784   3.070
 7008SOL    HW121923   5.442   3.807   2.994
 7008SOL    HW221924   5.457   3.720   3.132
 7009SOL     OW21925   4.862   5.889   2.456
 7009SOL    HW121926   4.801   5.818   2.420
 7009SOL    HW221927   4.838   5.908   2.551
 7010SOL     OW21928   5.198   3.583   2.148
 7010SOL    HW121929   5.105   3.609   2.119
 7010SOL    HW221930   5.248   3.546   2.070
 7011SOL     OW21931   3.071   6.864   6.493
 7011SOL    HW121932   2.977   6.864   6.459
 7011SOL    HW221933   3.113   6.775   6.477
 7012SOL     OW21934   6.698   3.018   0.086
 7012SOL    HW121935   6.703   3.115   0.062
 7012SOL    HW221936   6.621   3.003   0.148
 7013SOL     OW21937   3.131   2.749   0.024
 7013SOL    HW121938   3.146   2.727   6.948
 7013SOL    HW221939   3.035   2.773   0.038
 7014SOL     OW21940   5.748   3.377   0.358
 7014SOL    HW121941   5.687   3.309   0.399
 7014SOL    HW221942   5.708   3.468   0.370
 7015SOL     OW21943   6.143   6.531   1.201
 7015SOL    HW121944   6.129   6.480   1.116
 7015SOL    HW221945   6.086   6.613   1.201
 7016SOL     OW21946   3.466   4.941   1.064
 7016SOL    HW121947   3.468   4.906   0.970
 7016SOL    HW221948   3.493   4.869   1.127
 7017SOL     OW21949   5.963   4.491   5.589
 7017SOL    HW121950   6.007   4.579   5.569
 7017SOL    HW221951   6.023   4.416   5.560
 7018SOL     OW21952   5.201   3.687   4.892
 7018SOL    HW121953   5.218   3.702   4.795
 7018SOL    HW221954   5.288   3.685   4.941
 7019SOL     OW21955   4.350   5.398   2.227
 7019SOL    HW121956   4.306   5.478   2.267
 7019SOL    HW221957   4.396   5.425   2.142
 7020SOL     OW21958   0.596   2.783   6.590
 7020SOL    HW121959   0.625   2.818   6.501
 7020SOL    HW221960   0.515   2.725   6.578
 7021SOL     OW21961   0.666   2.303   4.765
 7021SOL    HW121962   0.681   2.337   4.673
 7021SOL    HW221963   0.724   2.353   4.829
 7022SOL     OW21964   2.852   2.295   0.795
 7022SOL    HW121965   2.829   2.229   0.867
 7022SOL    HW221966   2.768   2.337   0.761
 7023SOL     OW21967   0.284   1.730   0.413
 7023SOL    HW121968   0.341   1.721   0.495
 7023SOL    HW221969   0.310   1.660   0.346
 7024SOL     OW21970   3.405   3.904   4.669
 7024SOL    HW121971   3.411   3.840   4.593
 7024SOL    HW221972   3.464   3.983   4.651
 7025SOL     OW21973   2.955   0.104   0.989
 7025SOL    HW121974   2.866   0.061   0.976
 7025SOL    HW221975   2.989   0.085   1.081
 7026SOL     OW21976   3.402   2.667   1.119
 7026SOL    HW121977   3.321   2.638   1.172
 7026SOL    HW221978   3.406   2.767   1.117
 7027SOL     OW21979   2.905   5.019   2.651
 7027SOL    HW121980   2.886   4.942   2.589
 7027SOL    HW221981   2.947   4.985   2.735
 7028SOL     OW21982   3.454   6.980   3.209
 7028SOL    HW121983   3.500   0.010   3.281
 7028SOL    HW221984   3.357   7.006   3.207
 7029SOL     OW21985   3.642   3.632   3.603
 7029SOL    HW121986   3.707   3.707   3.593
 7029SOL    HW221987   3.689   3.545   3.588
 7030SOL     OW21988   6.752   0.761   4.326
 7030SOL    HW121989   6.677   0.782   4.389
 7030SOL    HW221990   6.795   0.675   4.353
 7031SOL     OW21991   5.219   6.697   0.582
 7031SOL    HW121992   5.277   6.723   0.505
 7031SOL    HW221993   5.126   6.683   0.550
 7032SOL     OW21994   4.853   5.263   4.456
 7032SOL    HW121995   4.778   5.329   4.453
 7032SOL    HW221996   4.865   5.223   4.365
 7033SOL     OW21997   1.839   1.962   5.231
 7033SOL    HW121998   1.819   1.906   5.150
 7033SOL    HW221999   1.920   1.925   5.277
 7034SOL     OW22000   6.370   1.123   3.159
 7034SOL    HW122001   6.323   1.035   3.149
 7034SOL    HW222002   6.454   1.110   3.213
 7035SOL     OW22003   2.003   0.109   0.832
 7035SOL    HW122004   2.047   0.158   0.907
 7035SOL    HW222005   1.904   0.111   0.845
 7036SOL     OW22006   6.736   1.288   2.515
 7036SOL    HW122007   6.789   1.362   2.555
 7036SOL    HW222008   6.751   1.285   2.417
 7037SOL     OW22009   1.229   0.088   6.072
 7037SOL    HW122010   1.134   0.109   6.049
 7037SOL    HW222011   1.290   0.153   6.027
 7038SOL     OW22012   1.215   3.876   6.998
 7038SOL    HW122013   1.279   3.933   6.947
 7038SOL    HW222014   1.249   3.783   7.003
 7039SOL     OW22015   0.271   6.823   2.290
 7039SOL    HW122016   0.258   6.817   2.389
 7039SOL    HW222017   0.215   6.898   2.254
 7040SOL     OW22018   5.622   2.691   4.848
 7040SOL    HW122019   5.705   2.635   4.861
 7040SOL    HW222020   5.597   2.733   4.935
 7041SOL     OW22021   1.316   6.604   4.357
 7041SOL    HW122022   1.408   6.608   4.316
 7041SOL    HW222023   1.253   6.562   4.292
 7042SOL     OW22024   5.659   5.872   5.155
 7042SOL    HW122025   5.573   5.913   5.125
 7042SOL    HW222026   5.656   5.856   5.254
 7043SOL     OW22027   2.425   5.409   0.844
 7043SOL    HW122028   2.423   5.459   0.931
 7043SOL    HW222029   2.518   5.411   0.806
 7044SOL     OW22030   5.819   6.955   5.070
 7044SOL    HW122031   5.881   6.933   4.995
 7044SOL    HW222032   5.744   7.011   5.036
 7045SOL     OW22033   6.600   5.701   1.939
 7045SOL    HW122034   6.540   5.624   1.959
 7045SOL    HW222035   6.614   5.707   1.840
 7046SOL     OW22036   2.363   1.415   3.953
 7046SOL    HW122037   2.343   1.457   3.865
 7046SOL    HW222038   2.301   1.337   3.968
 7047SOL     OW22039   1.239   6.360   0.712
 7047SOL    HW122040   1.325   6.310   0.721
 7047SOL    HW222041   1.201   6.346   0.621
 7048SOL     OW22042   0.341   6.253   4.063
 7048SOL    HW122043   0.351   6.155   4.083
 7048SOL    HW222044   0.378   6.306   4.139
 7049SOL     OW22045   3.913   1.195   3.767
 7049SOL    HW122046   4.001   1.227   3.803
 7049SOL    HW222047   3.920   1.099   3.742
 7050SOL     OW22048   3.904   3.911   0.763
 7050SOL    HW122049   3.977   3.959   0.714
 7050SOL    HW222050   3.905   3.939   0.859
 7051SOL     OW22051   1.301   1.143   2.036
 7051SOL    HW122052   1.367   1.168   2.107
 7051SOL    HW222053   1.216   1.111   2.078
 7052SOL     OW22054   4.076   1.108   2.966
 7052SOL    HW122055   4.016   1.045   2.916
 7052SOL    HW222056   4.166   1.066   2.978
 7053SOL     OW22057   1.576   3.829   3.264
 7053SOL    HW122058   1.615   3.855   3.352
 7053SOL    HW222059   1.597   3.733   3.246
 7054SOL     OW22060   5.915   0.777   0.015
 7054SOL    HW122061   5.860   0.738   6.962
 7054SOL    HW222062   6.011   0.777   7.010
 7055SOL     OW22063   2.554   0.479   0.388
 7055SOL    HW122064   2.497   0.420   0.331
 7055SOL    HW222065   2.592   0.553   0.332
 7056SOL     OW22066   6.763   4.936   1.057
 7056SOL    HW122067   6.686   4.942   0.993
 7056SOL    HW222068   6.730   4.904   1.146
 7057SOL     OW22069   2.578   5.842   4.838
 7057SOL    HW122070   2.600   5.747   4.859
 7057SOL    HW222071   2.486   5.847   4.799
 7058SOL     OW22072   5.737   2.877   6.162
 7058SOL    HW122073   5.822   2.826   6.148
 7058SOL    HW222074   5.745   2.931   6.246
 7059SOL     OW22075   1.936   6.959   5.070
 7059SOL    HW122076   1.932   0.037   5.056
 7059SOL    HW222077   1.927   6.913   4.981
 7060SOL     OW22078   2.974   1.701   1.172
 7060SOL    HW122079   3.054   1.757   1.151
 7060SOL    HW222080   2.899   1.760   1.202
 7061SOL     OW22081   1.171   1.031   1.620
 7061SOL    HW122082   1.270   1.018   1.624
 7061SOL    HW222083   1.131   1.004   1.708
 7062SOL     OW22084   3.452   0.118   3.854
 7062SOL    HW122085   3.491   0.209   3.846
 7062SOL    HW222086   3.451   0.091   3.951
 7063SOL     OW22087   0.279   1.013   1.044
 7063SOL    HW122088   0.263   1.058   1.132
 7063SOL    HW222089   0.377   1.004   1.028
 7064SOL     OW22090   3.147   1.203   5.010
 7064SOL    HW122091   3.050   1.186   4.991
 7064SOL    HW222092   3.166   1.180   5.105
 7065SOL     OW22093   3.991   5.149   5.386
 7065SOL    HW122094   3.902   5.110   5.410
 7065SOL    HW222095   4.038   5.087   5.323
 7066SOL     OW22096   3.790   0.463   0.964
 7066SOL    HW122097   3.809   0.424   0.874
 7066SOL    HW222098   3.755   0.392   1.025
 7067SOL     OW22099   1.525   3.813   6.227
 7067SOL    HW122100   1.554   3.909   6.233
 7067SOL    HW222101   1.508   3.790   6.131
 7068SOL     OW22102   5.341   4.063   4.611
 7068SOL    HW122103   5.242   4.076   4.604
 7068SOL    HW222104   5.365   4.040   4.705
 7069SOL     OW22105   5.091   0.841   6.105
 7069SOL    HW122106   5.036   0.886   6.034
 7069SOL    HW222107   5.114   0.908   6.176
 7070SOL     OW22108   0.593   0.346   5.620
 7070SOL    HW122109   0.527   0.421   5.627
 7070SOL    HW222110   0.653   0.347   5.700
 7071SOL     OW22111   5.006   5.962   0.005
 7071SOL    HW122112   5.064   5.914   6.960
 7071SOL    HW222113   4.970   6.045   6.985
 7072SOL     OW22114   0.535   3.592   6.673
 7072SOL    HW122115   0.482   3.515   6.636
 7072SOL    HW222116   0.629   3.564   6.686
 7073SOL     OW22117   4.801   1.707   3.920
 7073SOL    HW122118   4.843   1.691   4.009
 7073SOL    HW222119   4.785   1.805   3.907
 7074SOL     OW22120   5.198   3.917   2.990
 7074SOL    HW122121   5.242   4.007   2.984
 7074SOL    HW222122   5.226   3.873   3.076
 7075SOL     OW22123   2.612   5.148   3.391
 7075SOL    HW122124   2.546   5.082   3.357
 7075SOL    HW222125   2.677   5.170   3.318
 7076SOL     OW22126   5.820   2.445   1.380
 7076SOL    HW122127   5.721   2.444   1.393
 7076SOL    HW222128   5.844   2.381   1.306
 7077SOL     OW22129   4.227   5.717   1.971
 7077SOL    HW122130   4.143   5.763   2.001
 7077SOL    HW222131   4.211   5.619   1.964
 7078SOL     OW22132   6.451   0.554   6.819
 7078SOL    HW122133   6.435   0.489   6.745
 7078SOL    HW222134   6.434   0.509   6.907
 7079SOL     OW22135   1.409   5.992   4.850
 7079SOL    HW122136   1.453   6.081   4.858
 7079SOL    HW222137   1.345   5.979   4.925
 7080SOL     OW22138   3.744   1.841   5.864
 7080SOL    HW122139   3.646   1.860   5.869
 7080SOL    HW222140   3.769   1.824   5.769
 7081SOL     OW22141   2.681   0.240   0.119
 7081SOL    HW122142   2.750   0.308   0.142
 7081SOL    HW222143   2.590   0.280   0.128
 7082SOL     OW22144   0.493   3.989   2.378
 7082SOL    HW122145   0.581   4.022   2.344
 7082SOL    HW222146   0.461   3.913   2.321
 7083SOL     OW22147   5.200   2.204   3.190
 7083SOL    HW122148   5.111   2.240   3.219
 7083SOL    HW222149   5.190   2.108   3.165
 7084SOL     OW22150   1.019   5.637   0.014
 7084SOL    HW122151   1.101   5.622   6.978
 7084SOL    HW222152   1.001   5.555   0.068
 7085SOL     OW22153   0.691   3.858   2.089
 7085SOL    HW122154   0.629   3.817   2.022
 7085SOL    HW222155   0.744   3.786   2.135
 7086SOL     OW22156   5.371   0.878   3.900
 7086SOL    HW122157   5.289   0.821   3.906
 7086SOL    HW222158   5.363   0.941   3.822
 7087SOL     OW22159   4.666   2.670   3.029
 7087SOL    HW122160   4.715   2.667   2.942
 7087SOL    HW222161   4.693   2.752   3.079
 7088SOL     OW22162   5.783   1.963   5.152
 7088SOL    HW122163   5.867   1.966   5.205
 7088SOL    HW222164   5.705   1.950   5.214
 7089SOL     OW22165   2.586   5.507   1.546
 7089SOL    HW122166   2.580   5.545   1.638
 7089SOL    HW222167   2.566   5.578   1.479
 7090SOL     OW22168   4.503   2.736   1.174
 7090SOL    HW122169   4.428   2.783   1.129
 7090SOL    HW222170   4.472   2.701   1.263
 7091SOL     OW22171   0.427   6.854   0.826
 7091SOL    HW122172   0.428   6.952   0.842
 7091SOL    HW222173   0.337   6.827   0.791
 7092SOL     OW22174   4.526   0.062   6.200
 7092SOL    HW122175   4.598   7.015   6.193
 7092SOL    HW222176   4.549   0.129   6.270
 7093SOL     OW22177   3.542   3.127   0.855
 7093SOL    HW122178   3.529   3.058   0.784
 7093SOL    HW222179   3.476   3.201   0.842
 7094SOL     OW22180   3.716   0.347   6.266
 7094SOL    HW122181   3.736   0.298   6.350
 7094SOL    HW222182   3.760   0.301   6.189
 7095SOL     OW22183   2.379   4.812   4.765
 7095SOL    HW122184   2.410   4.735   4.821
 7095SOL    HW222185   2.332   4.777   4.684
 7096SOL     OW22186   0.107   0.374   1.358
 7096SOL    HW122187   0.009   0.391   1.367
 7096SOL    HW222188   0.157   0.460   1.370
 7097SOL     OW22189   4.657   1.100   2.323
 7097SOL    HW122190   4.593   1.168   2.287
 7097SOL    HW222191   4.750   1.127   2.298
 7098SOL     OW22192   0.768   0.629   3.545
 7098SOL    HW122193   0.707   0.550   3.554
 7098SOL    HW222194   0.763   0.665   3.452
 7099SOL     OW22195   3.154   1.681   4.579
 7099SOL    HW122196   3.092   1.666   4.503
 7099SOL    HW222197   3.136   1.770   4.621
 7100SOL     OW22198   6.566   4.012   1.572
 7100SOL    HW122199   6.544   3.929   1.521
 7100SOL    HW222200   6.613   4.077   1.512
 7101SOL     OW22201   2.306   6.258   5.190
 7101SOL    HW122202   2.358   6.215   5.117
 7101SOL    HW222203   2.289   6.192   5.263
 7102SOL     OW22204   5.746   1.136   2.263
 7102SOL    HW122205   5.749   1.133   2.363
 7102SOL    HW222206   5.698   1.219   2.234
 7103SOL     OW22207   4.880   3.527   3.197
 7103SOL    HW122208   4.827   3.574   3.126
 7103SOL    HW222209   4.914   3.595   3.262
 7104SOL     OW22210   4.873   2.932   4.142
 7104SOL    HW122211   4.841   3.018   4.184
 7104SOL    HW222212   4.850   2.855   4.202
 7105SOL     OW22213   3.126   3.915   3.409
 7105SOL    HW122214   3.197   3.978   3.378
 7105SOL    HW222215   3.120   3.917   3.508
 7106SOL     OW22216   3.484   2.121   2.425
 7106SOL    HW122217   3.549   2.163   2.362
 7106SOL    HW222218   3.393   2.122   2.385
 7107SOL     OW22219   4.082   0.447   6.367
 7107SOL    HW122220   4.108   0.364   6.318
 7107SOL    HW222221   4.066   0.521   6.303
 7108SOL     OW22222   4.628   0.707   1.695
 7108SOL    HW122223   4.709   0.748   1.737
 7108SOL    HW222224   4.640   0.707   1.595
 7109SOL     OW22225   2.688   5.409   6.756
 7109SOL    HW122226   2.723   5.316   6.755
 7109SOL    HW222227   2.681   5.444   6.663
 7110SOL     OW22228   3.198   0.014   4.624
 7110SOL    HW122229   3.103   0.018   4.655
 7110SOL    HW222230   3.201   0.020   4.524
 7111SOL     OW22231   0.049   0.770   5.112
 7111SOL    HW122232   0.063   0.785   5.014
 7111SOL    HW222233   6.996   0.827   5.145
 7112SOL     OW22234   0.837   4.781   4.961
 7112SOL    HW122235   0.865   4.688   4.984
 7112SOL    HW222236   0.780   4.818   5.035
 7113SOL     OW22237   3.601   6.369   4.902
 7113SOL    HW122238   3.583   6.273   4.885
 7113SOL    HW222239   3.563   6.396   4.990
 7114SOL     OW22240   5.925   3.797   1.037
 7114SOL    HW122241   6.009   3.828   0.993
 7114SOL    HW222242   5.941   3.707   1.079
 7115SOL     OW22243   6.002   3.576   6.118
 7115SOL    HW122244   6.062   3.628   6.179
 7115SOL    HW222245   6.045   3.489   6.095
 7116SOL     OW22246   6.322   3.721   4.572
 7116SOL    HW122247   6.340   3.758   4.480
 7116SOL    HW222248   6.397   3.746   4.633
 7117SOL     OW22249   5.125   0.030   3.284
 7117SOL    HW122250   5.209   0.047   3.234
 7117SOL    HW222251   5.073   0.115   3.292
 7118SOL     OW22252   3.887   4.312   5.877
 7118SOL    HW122253   3.797   4.351   5.857
 7118SOL    HW222254   3.912   4.333   5.972
 7119SOL     OW22255   3.623   6.441   5.425
 7119SOL    HW122256   3.687   6.494   5.368
 7119SOL    HW222257   3.640   6.344   5.413
 7120SOL     OW22258   4.299   1.202   1.025
 7120SOL    HW122259   4.356   1.274   0.986
 7120SOL    HW222260   4.318   1.115   0.979
 7121SOL     OW22261   1.859   5.756   2.325
 7121SOL    HW122262   1.939   5.807   2.296
 7121SOL    HW222263   1.777   5.800   2.288
 7122SOL     OW22264   3.630   1.873   0.066
 7122SOL    HW122265   3.531   1.871   0.053
 7122SOL    HW222266   3.653   1.931   0.143
 7123SOL     OW22267   5.767   5.143   6.049
 7123SOL    HW122268   5.679   5.111   6.085
 7123SOL    HW222269   5.835   5.070   6.059
 7124SOL     OW22270   1.823   2.708   1.236
 7124SOL    HW122271   1.884   2.629   1.223
 7124SOL    HW222272   1.777   2.700   1.324
 7125SOL     OW22273   0.374   6.436   2.357
 7125SOL    HW122274   0.434   6.360   2.332
 7125SOL    HW222275   0.414   6.486   2.434
 7126SOL     OW22276   3.373   5.474   1.338
 7126SOL    HW122277   3.346   5.463   1.243
 7126SOL    HW222278   3.352   5.567   1.369
 7127SOL     OW22279   2.389   6.404   6.362
 7127SOL    HW122280   2.416   6.349   6.441
 7127SOL    HW222281   2.463   6.467   6.338
 7128SOL     OW22282   3.473   4.238   6.991
 7128SOL    HW122283   3.395   4.253   6.929
 7128SOL    HW222284   3.477   4.312   0.037
 7129SOL     OW22285   0.582   0.030   0.431
 7129SOL    HW122286   0.629   0.004   0.515
 7129SOL    HW222287   0.523   6.976   0.401
 7130SOL     OW22288   3.330   6.399   3.935
 7130SOL    HW122289   3.244   6.358   3.905
 7130SOL    HW222290   3.376   6.337   3.999
 7131SOL     OW22291   2.296   1.059   1.768
 7131SOL    HW122292   2.239   0.991   1.813
 7131SOL    HW222293   2.289   1.146   1.818
 7132SOL     OW22294   4.925   4.090   0.710
 7132SOL    HW122295   4.825   4.087   0.721
 7132SOL    HW222296   4.959   3.999   0.691
 7133SOL     OW22297   5.016   6.046   2.908
 7133SOL    HW122298   4.948   6.118   2.896
 7133SOL    HW222299   5.054   6.020   2.819
 7134SOL     OW22300   4.717   5.840   0.051
 7134SOL    HW122301   4.711   5.743   0.027
 7134SOL    HW222302   4.813   5.868   0.048
 7135SOL     OW22303   1.585   3.396   1.393
 7135SOL    HW122304   1.578   3.456   1.473
 7135SOL    HW222305   1.681   3.378   1.373
 7136SOL     OW22306   0.736   2.568   2.069
 7136SOL    HW122307   0.775   2.479   2.093
 7136SOL    HW222308   0.776   2.638   2.128
 7137SOL     OW22309   2.862   1.177   1.271
 7137SOL    HW122310   2.850   1.276   1.259
 7137SOL    HW222311   2.861   1.155   1.368
 7138SOL     OW22312   0.312   2.758   0.447
 7138SOL    HW122313   0.304   2.853   0.476
 7138SOL    HW222314   0.339   2.701   0.525
 7139SOL     OW22315   5.856   6.360   0.808
 7139SOL    HW122316   5.856   6.353   0.908
 7139SOL    HW222317   5.814   6.447   0.781
 7140SOL     OW22318   6.645   4.358   0.187
 7140SOL    HW122319   6.548   4.364   0.209
 7140SOL    HW222320   6.699   4.375   0.270
 7141SOL     OW22321   3.294   0.205   0.888
 7141SOL    HW122322   3.230   0.270   0.929
 7141SOL    HW222323   3.302   0.124   0.947
 7142SOL     OW22324   4.015   6.806   4.968
 7142SOL    HW122325   4.064   6.871   4.909
 7142SOL    HW222326   3.918   6.804   4.941
 7143SOL     OW22327   2.778   3.305   6.598
 7143SOL    HW122328   2.696   3.257   6.567
 7143SOL    HW222329   2.827   3.342   6.520
 7144SOL     OW22330   6.606   1.390   6.308
 7144SOL    HW122331   6.526   1.358   6.257
 7144SOL    HW222332   6.638   1.476   6.269
 7145SOL     OW22333   5.565   1.430   6.410
 7145SOL    HW122334   5.623   1.501   6.451
 7145SOL    HW222335   5.611   1.391   6.331
 7146SOL     OW22336   0.966   2.174   5.663
 7146SOL    HW122337   0.934   2.255   5.714
 7146SOL    HW222338   1.064   2.183   5.646
 7147SOL     OW22339   6.487   6.400   1.685
 7147SOL    HW122340   6.550   6.398   1.607
 7147SOL    HW222341   6.403   6.351   1.662
 7148SOL     OW22342   6.651   6.466   1.466
 7148SOL    HW122343   6.649   6.558   1.426
 7148SOL    HW222344   6.704   6.406   1.407
 7149SOL     OW22345   5.791   4.545   5.865
 7149SOL    HW122346   5.733   4.622   5.838
 7149SOL    HW222347   5.884   4.577   5.880
 7150SOL     OW22348   2.938   2.616   6.683
 7150SOL    HW122349   2.935   2.654   6.591
 7150SOL    HW222350   2.875   2.666   6.742
 7151SOL     OW22351   4.936   1.202   0.373
 7151SOL    HW122352   5.028   1.170   0.393
 7151SOL    HW222353   4.871   1.127   0.387
 7152SOL     OW22354   5.050   0.588   6.219
 7152SOL    HW122355   5.096   0.576   6.306
 7152SOL    HW222356   5.076   0.676   6.179
 7153SOL     OW22357   3.474   5.420   0.204
 7153SOL    HW122358   3.469   5.505   0.151
 7153SOL    HW222359   3.539   5.432   0.279
 7154SOL     OW22360   4.273   1.663   2.295
 7154SOL    HW122361   4.216   1.657   2.377
 7154SOL    HW222362   4.242   1.595   2.229
 7155SOL     OW22363   1.316   0.910   2.489
 7155SOL    HW122364   1.395   0.969   2.507
 7155SOL    HW222365   1.334   0.818   2.524
 7156SOL     OW22366   6.702   3.144   4.943
 7156SOL    HW122367   6.790   3.153   4.895
 7156SOL    HW222368   6.713   3.082   5.021
 7157SOL     OW22369   0.188   4.221   6.269
 7157SOL    HW122370   0.147   4.297   6.218
 7157SOL    HW222371   0.266   4.185   6.217
 7158SOL     OW22372   5.095   6.824   4.343
 7158SOL    HW122373   5.025   6.756   4.366
 7158SOL    HW222374   5.124   6.810   4.248
 7159SOL     OW22375   0.537   6.472   3.103
 7159SOL    HW122376   0.587   6.542   3.154
 7159SOL    HW222377   0.440   6.475   3.128
 7160SOL     OW22378   6.108   0.413   3.690
 7160SOL    HW122379   6.117   0.323   3.734
 7160SOL    HW222380   6.042   0.406   3.615
 7161SOL     OW22381   3.809   3.699   2.610
 7161SOL    HW122382   3.723   3.648   2.610
 7161SOL    HW222383   3.863   3.673   2.689
 7162SOL     OW22384   0.809   6.109   1.750
 7162SOL    HW122385   0.840   6.048   1.677
 7162SOL    HW222386   0.805   6.059   1.837
 7163SOL     OW22387   0.036   0.678   0.607
 7163SOL    HW122388   0.039   0.709   0.702
 7163SOL    HW222389   0.005   0.752   0.548
 7164SOL     OW22390   1.456   0.941   6.760
 7164SOL    HW122391   1.500   0.855   6.735
 7164SOL    HW222392   1.491   1.014   6.702
 7165SOL     OW22393   5.782   2.408   0.109
 7165SOL    HW122394   5.856   2.470   0.083
 7165SOL    HW222395   5.736   2.443   0.191
 7166SOL     OW22396   6.760   6.106   5.863
 7166SOL    HW122397   6.816   6.029   5.833
 7166SOL    HW222398   6.819   6.185   5.881
 7167SOL     OW22399   6.658   2.925   5.143
 7167SOL    HW122400   6.592   2.973   5.201
 7167SOL    HW222401   6.745   2.915   5.191
 7168SOL     OW22402   1.695   1.443   2.313
 7168SOL    HW122403   1.646   1.471   2.396
 7168SOL    HW222404   1.651   1.483   2.233
 7169SOL     OW22405   1.906   4.740   5.590
 7169SOL    HW122406   1.945   4.693   5.669
 7169SOL    HW222407   1.941   4.699   5.506
 7170SOL     OW22408   3.316   1.553   1.242
 7170SOL    HW122409   3.306   1.499   1.159
 7170SOL    HW222410   3.347   1.495   1.317
 7171SOL     OW22411   0.316   3.909   0.637
 7171SOL    HW122412   0.416   3.912   0.630
 7171SOL    HW222413   0.287   3.956   0.720
 7172SOL     OW22414   0.365   2.263   3.590
 7172SOL    HW122415   0.266   2.251   3.589
 7172SOL    HW222416   0.397   2.269   3.684
 7173SOL     OW22417   4.890   5.507   6.101
 7173SOL    HW122418   4.873   5.604   6.116
 7173SOL    HW222419   4.917   5.464   6.188
 7174SOL     OW22420   6.738   4.348   2.232
 7174SOL    HW122421   6.642   4.342   2.259
 7174SOL    HW222422   6.752   4.295   2.148
 7175SOL     OW22423   6.632   3.759   5.786
 7175SOL    HW122424   6.591   3.814   5.859
 7175SOL    HW222425   6.706   3.811   5.743
 7176SOL     OW22426   6.931   1.242   6.306
 7176SOL    HW122427   7.014   1.235   6.361
 7176SOL    HW222428   6.947   1.304   6.229
 7177SOL     OW22429   1.328   5.812   3.825
 7177SOL    HW122430   1.428   5.817   3.831
 7177SOL    HW222431   1.288   5.851   3.908
 7178SOL     OW22432   1.581   6.922   4.857
 7178SOL    HW122433   1.606   7.016   4.835
 7178SOL    HW222434   1.540   6.918   4.948
 7179SOL     OW22435   4.063   4.858   6.030
 7179SOL    HW122436   4.140   4.795   6.046
 7179SOL    HW222437   4.097   4.944   5.993
 7180SOL     OW22438   1.911   3.155   1.656
 7180SOL    HW122439   1.884   3.216   1.731
 7180SOL    HW222440   2.004   3.121   1.673
 7181SOL     OW22441   1.883   1.567   6.830
 7181SOL    HW122442   1.805   1.621   6.798
 7181SOL    HW222443   1.865   1.535   6.923
 7182SOL     OW22444   1.919   1.158   3.784
 7182SOL    HW122445   1.904   1.256   3.798
 7182SOL    HW222446   1.977   1.145   3.704
 7183SOL     OW22447   1.526   6.827   1.916
 7183SOL    HW122448   1.467   6.824   1.835
 7183SOL    HW222449   1.479   6.785   1.993
 7184SOL     OW22450   6.590   1.226   3.724
 7184SOL    HW122451   6.536   1.270   3.653
 7184SOL    HW222452   6.678   1.196   3.686
 7185SOL     OW22453   4.356   0.366   4.339
 7185SOL    HW122454   4.283   0.327   4.282
 7185SOL    HW222455   4.355   0.465   4.332
 7186SOL     OW22456   6.391   0.830   6.801
 7186SOL    HW122457   6.408   0.733   6.787
 7186SOL    HW222458   6.434   0.883   6.728
 7187SOL     OW22459   3.585   3.447   3.963
 7187SOL    HW122460   3.647   3.384   3.917
 7187SOL    HW222461   3.564   3.412   4.055
 7188SOL     OW22462   4.513   4.436   6.788
 7188SOL    HW122463   4.413   4.445   6.782
 7188SOL    HW222464   4.552   4.434   6.696
 7189SOL     OW22465   6.392   2.716   5.779
 7189SOL    HW122466   6.330   2.744   5.706
 7189SOL    HW222467   6.486   2.736   5.753
 7190SOL     OW22468   6.007   5.197   6.889
 7190SOL    HW122469   5.936   5.146   6.841
 7190SOL    HW222470   6.053   5.137   6.954
 7191SOL     OW22471   6.840   5.072   2.623
 7191SOL    HW122472   6.799   5.032   2.705
 7191SOL    HW222473   6.770   5.084   2.553
 7192SOL     OW22474   2.339   4.172   6.051
 7192SOL    HW122475   2.348   4.090   6.108
 7192SOL    HW222476   2.416   4.176   5.987
 7193SOL     OW22477   3.317   1.958   3.216
 7193SOL    HW122478   3.266   1.982   3.134
 7193SOL    HW222479   3.409   1.998   3.211
 7194SOL     OW22480   3.048   2.827   5.940
 7194SOL    HW122481   3.044   2.821   6.039
 7194SOL    HW222482   3.134   2.870   5.913
 7195SOL     OW22483   0.959   4.522   5.078
 7195SOL    HW122484   0.909   4.436   5.076
 7195SOL    HW222485   1.018   4.525   5.158
 7196SOL     OW22486   3.626   4.230   1.858
 7196SOL    HW122487   3.602   4.142   1.899
 7196SOL    HW222488   3.624   4.301   1.929
 7197SOL     OW22489   3.230   4.759   6.564
 7197SOL    HW122490   3.202   4.828   6.630
 7197SOL    HW222491   3.275   4.683   6.612
 7198SOL     OW22492   0.627   1.010   1.967
 7198SOL    HW122493   0.631   0.910   1.966
 7198SOL    HW222494   0.720   1.047   1.970
 7199SOL     OW22495   6.185   1.694   2.381
 7199SOL    HW122496   6.136   1.774   2.346
 7199SOL    HW222497   6.248   1.661   2.311
 7200SOL     OW22498   1.142   2.609   0.278
 7200SOL    HW122499   1.100   2.545   0.342
 7200SOL    HW222500   1.128   2.576   0.185
 7201SOL     OW22501   6.534   5.363   3.678
 7201SOL    HW122502   6.518   5.461   3.664
 7201SOL    HW222503   6.477   5.311   3.614
 7202SOL     OW22504   4.249   0.011   5.844
 7202SOL    HW122505   4.318   0.074   5.878
 7202SOL    HW222506   4.159   0.054   5.849
 7203SOL     OW22507   0.081   1.688   1.184
 7203SOL    HW122508   0.134   1.760   1.138
 7203SOL    HW222509   0.091   1.696   1.283
 7204SOL     OW22510   6.814   0.472   2.442
 7204SOL    HW122511   6.741   0.541   2.440
 7204SOL    HW222512   6.779   0.387   2.481
 7205SOL     OW22513   2.972   2.011   4.060
 7205SOL    HW122514   3.028   1.945   4.110
 7205SOL    HW222515   2.954   2.090   4.119
 7206SOL     OW22516   1.597   3.583   7.010
 7206SOL    HW122517   1.508   3.616   0.019
 7206SOL    HW222518   1.627   3.636   6.931
 7207SOL     OW22519   2.063   1.189   3.346
 7207SOL    HW122520   2.126   1.198   3.422
 7207SOL    HW222521   2.031   1.280   3.319
 7208SOL     OW22522   3.302   0.422   4.032
 7208SOL    HW122523   3.312   0.509   4.081
 7208SOL    HW222524   3.277   0.441   3.937
 7209SOL     OW22525   3.537   1.094   1.732
 7209SOL    HW122526   3.577   1.094   1.641
 7209SOL    HW222527   3.514   1.000   1.759
 7210SOL     OW22528   3.111   1.520   3.113
 7210SOL    HW122529   3.135   1.435   3.160
 7210SOL    HW222530   3.012   1.534   3.118
 7211SOL     OW22531   4.573   6.447   5.374
 7211SOL    HW122532   4.650   6.432   5.436
 7211SOL    HW222533   4.601   6.421   5.281
 7212SOL     OW22534   0.507   4.764   5.665
 7212SOL    HW122535   0.459   4.853   5.662
 7212SOL    HW222536   0.460   4.700   5.605
 7213SOL     OW22537   4.155   1.978   6.859
 7213SOL    HW122538   4.144   1.906   6.791
 7213SOL    HW222539   4.077   1.977   6.921
 7214SOL     OW22540   6.240   0.641   6.545
 7214SOL    HW122541   6.168   0.692   6.591
 7214SOL    HW222542   6.199   0.579   6.478
 7215SOL     OW22543   6.183   1.946   2.875
 7215SOL    HW122544   6.218   1.853   2.889
 7215SOL    HW222545   6.156   1.984   2.964
 7216SOL     OW22546   4.359   6.536   3.277
 7216SOL    HW122547   4.375   6.564   3.371
 7216SOL    HW222548   4.261   6.537   3.258
 7217SOL     OW22549   1.059   3.145   2.703
 7217SOL    HW122550   0.975   3.190   2.734
 7217SOL    HW222551   1.137   3.186   2.749
 7218SOL     OW22552   6.539   2.624   4.388
 7218SOL    HW122553   6.559   2.691   4.317
 7218SOL    HW222554   6.500   2.670   4.468
 7219SOL     OW22555   3.370   6.461   2.646
 7219SOL    HW122556   3.426   6.378   2.647
 7219SOL    HW222557   3.328   6.474   2.736
 7220SOL     OW22558   6.592   4.481   3.722
 7220SOL    HW122559   6.520   4.503   3.788
 7220SOL    HW222560   6.556   4.485   3.629
 7221SOL     OW22561   3.898   5.279   3.935
 7221SOL    HW122562   3.883   5.197   3.880
 7221SOL    HW222563   3.824   5.289   4.001
 7222SOL     OW22564   6.684   5.749   4.340
 7222SOL    HW122565   6.683   5.667   4.397
 7222SOL    HW222566   6.669   5.724   4.245
 7223SOL     OW22567   0.310   4.260   1.582
 7223SOL    HW122568   0.300   4.345   1.634
 7223SOL    HW222569   0.221   4.214   1.576
 7224SOL     OW22570   4.402   1.731   2.629
 7224SOL    HW122571   4.316   1.698   2.668
 7224SOL    HW222572   4.398   1.830   2.620
 7225SOL     OW22573   1.852   5.387   0.593
 7225SOL    HW122574   1.788   5.383   0.670
 7225SOL    HW222575   1.816   5.335   0.516
 7226SOL     OW22576   6.997   6.461   0.302
 7226SOL    HW122577   0.072   6.438   0.318
 7226SOL    HW222578   6.981   6.557   0.324
 7227SOL     OW22579   1.969   1.457   2.359
 7227SOL    HW122580   1.874   1.434   2.339
 7227SOL    HW222581   1.987   1.442   2.456
 7228SOL     OW22582   6.752   3.175   1.964
 7228SOL    HW122583   6.661   3.178   2.005
 7228SOL    HW222584   6.819   3.149   2.034
 7229SOL     OW22585   6.708   1.166   5.068
 7229SOL    HW122586   6.686   1.218   5.150
 7229SOL    HW222587   6.752   1.227   5.001
 7230SOL     OW22588   2.379   5.260   4.883
 7230SOL    HW122589   2.376   5.325   4.807
 7230SOL    HW222590   2.451   5.193   4.867
 7231SOL     OW22591   4.564   3.052   5.822
 7231SOL    HW122592   4.607   2.963   5.835
 7231SOL    HW222593   4.491   3.064   5.890
 7232SOL     OW22594   5.007   6.357   3.609
 7232SOL    HW122595   5.022   6.308   3.695
 7232SOL    HW222596   4.973   6.293   3.540
 7233SOL     OW22597   0.165   1.279   4.645
 7233SOL    HW122598   0.144   1.313   4.737
 7233SOL    HW222599   0.235   1.208   4.651
 7234SOL     OW22600   5.188   4.084   3.421
 7234SOL    HW122601   5.244   4.002   3.432
 7234SOL    HW222602   5.167   4.122   3.511
 7235SOL     OW22603   6.553   5.891   1.576
 7235SOL    HW122604   6.478   5.938   1.622
 7235SOL    HW222605   6.632   5.886   1.638
 7236SOL     OW22606   1.294   3.301   2.601
 7236SOL    HW122607   1.236   3.372   2.642
 7236SOL    HW222608   1.267   3.287   2.506
 7237SOL     OW22609   5.916   0.905   0.827
 7237SOL    HW122610   5.963   0.966   0.762
 7237SOL    HW222611   5.835   0.866   0.783
 7238SOL     OW22612   3.821   3.292   6.835
 7238SOL    HW122613   3.808   3.382   6.877
 7238SOL    HW222614   3.814   3.221   6.906
 7239SOL     OW22615   6.633   2.515   2.329
 7239SOL    HW122616   6.719   2.476   2.363
 7239SOL    HW222617   6.572   2.534   2.405
 7240SOL     OW22618   6.498   2.126   0.426
 7240SOL    HW122619   6.411   2.117   0.378
 7240SOL    HW222620   6.572   2.092   0.369
 7241SOL     OW22621   2.688   1.216   1.982
 7241SOL    HW122622   2.676   1.131   2.034
 7241SOL    HW222623   2.755   1.200   1.909
 7242SOL     OW22624   6.705   4.654   4.510
 7242SOL    HW122625   6.789   4.651   4.455
 7242SOL    HW222626   6.634   4.704   4.460
 7243SOL     OW22627   5.785   4.553   6.375
 7243SOL    HW122628   5.825   4.488   6.311
 7243SOL    HW222629   5.697   4.585   6.340
 7244SOL     OW22630   0.194   6.198   0.172
 7244SOL    HW122631   0.214   6.204   0.270
 7244SOL    HW222632   0.195   6.290   0.133
 7245SOL     OW22633   1.065   3.312   0.442
 7245SOL    HW122634   1.134   3.362   0.389
 7245SOL    HW222635   1.099   3.298   0.535
 7246SOL     OW22636   4.314   6.970   3.472
 7246SOL    HW122637   4.221   7.007   3.478
 7246SOL    HW222638   4.331   6.937   3.379
 7247SOL     OW22639   3.248   3.912   5.275
 7247SOL    HW122640   3.338   3.954   5.286
 7247SOL    HW222641   3.218   3.921   5.180
 7248SOL     OW22642   3.134   1.165   5.357
 7248SOL    HW122643   3.084   1.087   5.319
 7248SOL    HW222644   3.074   1.245   5.359
 7249SOL     OW22645   4.197   4.709   2.457
 7249SOL    HW122646   4.287   4.667   2.470
 7249SOL    HW222647   4.138   4.686   2.535
 7250SOL     OW22648   5.487   5.065   5.135
 7250SOL    HW122649   5.537   5.104   5.212
 7250SOL    HW222650   5.548   5.005   5.084
 7251SOL     OW22651   0.169   5.906   5.701
 7251SOL    HW122652   0.157   5.816   5.658
 7251SOL    HW222653   0.087   5.962   5.683
 7252SOL     OW22654   3.829   3.860   2.397
 7252SOL    HW122655   3.815   3.796   2.472
 7252SOL    HW222656   3.916   3.841   2.353
 7253SOL     OW22657   2.316   5.848   4.701
 7253SOL    HW122658   2.290   5.778   4.766
 7253SOL    HW222659   2.301   5.815   4.607
 7254SOL     OW22660   5.491   3.017   4.123
 7254SOL    HW122661   5.488   3.000   4.024
 7254SOL    HW222662   5.399   3.007   4.161
 7255SOL     OW22663   5.247   3.217   6.788
 7255SOL    HW122664   5.297   3.225   6.874
 7255SOL    HW222665   5.277   3.134   6.739
 7256SOL     OW22666   3.119   0.480   5.285
 7256SOL    HW122667   3.077   0.403   5.333
 7256SOL    HW222668   3.201   0.449   5.236
 7257SOL     OW22669   0.524   1.563   4.584
 7257SOL    HW122670   0.519   1.660   4.563
 7257SOL    HW222671   0.505   1.510   4.501
 7258SOL     OW22672   5.933   2.810   2.844
 7258SOL    HW122673   5.983   2.860   2.773
 7258SOL    HW222674   5.993   2.794   2.922
 7259SOL     OW22675   1.282   3.712   2.611
 7259SOL    HW122676   1.231   3.769   2.676
 7259SOL    HW222677   1.288   3.760   2.523
 7260SOL     OW22678   5.515   3.373   1.057
 7260SOL    HW122679   5.569   3.289   1.064
 7260SOL    HW222680   5.576   3.451   1.050
 7261SOL     OW22681   0.037   4.907   0.418
 7261SOL    HW122682   0.037   5.002   0.448
 7261SOL    HW222683   0.049   4.903   0.319
 7262SOL     OW22684   6.189   1.133   5.059
 7262SOL    HW122685   6.166   1.109   5.153
 7262SOL    HW222686   6.106   1.132   5.003
 7263SOL     OW22687   0.228   5.792   0.001
 7263SOL    HW122688   0.273   5.834   0.080
 7263SOL    HW222689   0.201   5.698   0.024
 7264SOL     OW22690   6.336   1.565   0.371
 7264SOL    HW122691   6.287   1.487   0.409
 7264SOL    HW222692   6.377   1.618   0.446
 7265SOL     OW22693   4.146   6.026   5.913
 7265SOL    HW122694   4.120   6.043   5.818
 7265SOL    HW222695   4.065   6.000   5.966
 7266SOL     OW22696   0.821   1.007   3.718
 7266SOL    HW122697   0.870   1.023   3.805
 7266SOL    HW222698   0.776   0.918   3.722
 7267SOL     OW22699   6.298   4.541   4.681
 7267SOL    HW122700   6.326   4.629   4.642
 7267SOL    HW222701   6.324   4.537   4.778
 7268SOL     OW22702   6.515   6.375   4.562
 7268SOL    HW122703   6.540   6.371   4.658
 7268SOL    HW222704   6.590   6.340   4.506
 7269SOL     OW22705   2.596   4.710   5.144
 7269SOL    HW122706   2.682   4.705   5.093
 7269SOL    HW222707   2.533   4.639   5.110
 7270SOL     OW22708   0.692   1.133   4.723
 7270SOL    HW122709   0.742   1.047   4.715
 7270SOL    HW222710   0.699   1.168   4.816
 7271SOL     OW22711   1.021   4.473   3.539
 7271SOL    HW122712   0.929   4.434   3.538
 7271SOL    HW222713   1.070   4.445   3.456
 7272SOL     OW22714   6.715   4.579   2.508
 7272SOL    HW122715   6.688   4.550   2.600
 7272SOL    HW222716   6.801   4.536   2.483
 7273SOL     OW22717   0.691   2.279   5.295
 7273SOL    HW122718   0.677   2.232   5.382
 7273SOL    HW222719   0.620   2.251   5.231
 7274SOL     OW22720   0.799   4.534   0.158
 7274SOL    HW122721   0.890   4.535   0.118
 7274SOL    HW222722   0.764   4.627   0.165
 7275SOL     OW22723   6.779   0.319   2.804
 7275SOL    HW122724   6.849   0.345   2.871
 7275SOL    HW222725   6.750   0.400   2.753
 7276SOL     OW22726   5.761   6.392   4.621
 7276SOL    HW122727   5.682   6.340   4.653
 7276SOL    HW222728   5.829   6.329   4.584
 7277SOL     OW22729   4.734   0.265   6.153
 7277SOL    HW122730   4.745   0.317   6.068
 7277SOL    HW222731   4.811   0.203   6.164
 7278SOL     OW22732   2.930   3.312   2.358
 7278SOL    HW122733   2.835   3.302   2.387
 7278SOL    HW222734   2.942   3.401   2.314
 7279SOL     OW22735   3.085   6.757   6.118
 7279SOL    HW122736   2.990   6.739   6.093
 7279SOL    HW222737   3.140   6.676   6.100
 7280SOL     OW22738   4.627   1.519   5.967
 7280SOL    HW122739   4.656   1.436   6.014
 7280SOL    HW222740   4.574   1.576   6.030
 7281SOL     OW22741   5.159   1.376   6.259
 7281SOL    HW122742   5.231   1.406   6.197
 7281SOL    HW222743   5.081   1.341   6.207
 7282SOL     OW22744   5.491   5.381   2.484
 7282SOL    HW122745   5.574   5.341   2.524
 7282SOL    HW222746   5.415   5.318   2.496
 7283SOL     OW22747   1.985   0.960   3.587
 7283SOL    HW122748   2.007   0.867   3.616
 7283SOL    HW222749   1.892   0.963   3.551
 7284SOL     OW22750   0.173   3.857   4.903
 7284SOL    HW122751   0.174   3.939   4.845
 7284SOL    HW222752   0.084   3.812   4.894
 7285SOL     OW22753   5.297   5.626   1.423
 7285SOL    HW122754   5.272   5.545   1.476
 7285SOL    HW222755   5.315   5.599   1.328
 7286SOL     OW22756   1.884   3.628   1.398
 7286SOL    HW122757   1.787   3.606   1.414
 7286SOL    HW222758   1.939   3.585   1.470
 7287SOL     OW22759   5.972   1.348   6.453
 7287SOL    HW122760   5.992   1.362   6.550
 7287SOL    HW222761   6.044   1.391   6.398
 7288SOL     OW22762   3.616   6.465   0.014
 7288SOL    HW122763   3.628   6.496   6.941
 7288SOL    HW222764   3.639   6.368   0.021
 7289SOL     OW22765   4.682   1.689   3.472
 7289SOL    HW122766   4.662   1.741   3.555
 7289SOL    HW222767   4.636   1.600   3.476
 7290SOL     OW22768   2.482   5.342   4.411
 7290SOL    HW122769   2.511   5.436   4.431
 7290SOL    HW222770   2.552   5.297   4.355
 7291SOL     OW22771   2.666   5.370   1.901
 7291SOL    HW122772   2.733   5.323   1.958
 7291SOL    HW222773   2.661   5.466   1.928
 7292SOL     OW22774   2.833   0.067   4.380
 7292SOL    HW122775   2.776   0.124   4.321
 7292SOL    HW222776   2.854   7.002   4.333
 7293SOL     OW22777   1.215   2.687   5.490
 7293SOL    HW122778   1.294   2.639   5.453
 7293SOL    HW222779   1.131   2.649   5.448
 7294SOL     OW22780   3.361   5.188   1.045
 7294SOL    HW122781   3.397   5.099   1.073
 7294SOL    HW222782   3.316   5.180   0.956
 7295SOL     OW22783   6.003   0.515   1.724
 7295SOL    HW122784   6.067   0.588   1.697
 7295SOL    HW222785   6.011   0.438   1.661
 7296SOL     OW22786   4.143   4.722   1.639
 7296SOL    HW122787   4.087   4.699   1.719
 7296SOL    HW222788   4.158   4.640   1.584
 7297SOL     OW22789   5.233   0.209   1.519
 7297SOL    HW122790   5.134   0.216   1.534
 7297SOL    HW222791   5.274   0.301   1.523
 7298SOL     OW22792   5.814   3.519   4.197
 7298SOL    HW122793   5.767   3.579   4.262
 7298SOL    HW222794   5.802   3.424   4.225
 7299SOL     OW22795   6.501   3.974   6.414
 7299SOL    HW122796   6.437   4.034   6.463
 7299SOL    HW222797   6.593   3.986   6.452
 7300SOL     OW22798   4.244   4.981   0.934
 7300SOL    HW122799   4.202   5.069   0.956
 7300SOL    HW222800   4.331   4.972   0.984
 7301SOL     OW22801   6.377   0.462   6.131
 7301SOL    HW122802   6.452   0.483   6.194
 7301SOL    HW222803   6.410   0.403   6.058
 7302SOL     OW22804   5.027   1.190   6.505
 7302SOL    HW122805   5.028   1.290   6.504
 7302SOL    HW222806   5.041   1.159   6.599
 7303SOL     OW22807   3.602   1.491   0.479
 7303SOL    HW122808   3.678   1.436   0.513
 7303SOL    HW222809   3.516   1.457   0.516
 7304SOL     OW22810   3.321   3.864   5.609
 7304SOL    HW122811   3.371   3.813   5.540
 7304SOL    HW222812   3.274   3.942   5.566
 7305SOL     OW22813   5.173   1.114   0.442
 7305SOL    HW122814   5.187   1.087   0.537
 7305SOL    HW222815   5.204   1.208   0.429
 7306SOL     OW22816   4.806   4.746   1.752
 7306SOL    HW122817   4.829   4.843   1.744
 7306SOL    HW222818   4.780   4.724   1.846
 7307SOL     OW22819   4.036   6.567   2.363
 7307SOL    HW122820   4.093   6.606   2.291
 7307SOL    HW222821   4.084   6.571   2.450
 7308SOL     OW22822   6.570   1.974   4.327
 7308SOL    HW122823   6.523   2.062   4.330
 7308SOL    HW222824   6.641   1.976   4.257
 7309SOL     OW22825   4.358   6.171   1.457
 7309SOL    HW122826   4.293   6.098   1.436
 7309SOL    HW222827   4.419   6.185   1.379
 7310SOL     OW22828   2.969   5.206   1.471
 7310SOL    HW122829   2.904   5.255   1.530
 7310SOL    HW222830   2.959   5.107   1.485
 7311SOL     OW22831   2.727   2.167   1.888
 7311SOL    HW122832   2.778   2.224   1.952
 7311SOL    HW222833   2.791   2.127   1.822
 7312SOL     OW22834   6.989   1.095   5.716
 7312SOL    HW122835   6.972   1.047   5.630
 7312SOL    HW222836   6.902   1.110   5.763
 7313SOL     OW22837   4.319   2.448   6.679
 7313SOL    HW122838   4.412   2.484   6.691
 7313SOL    HW222839   4.270   2.453   6.766
 7314SOL     OW22840   0.258   3.332   4.161
 7314SOL    HW122841   0.251   3.317   4.259
 7314SOL    HW222842   0.304   3.254   4.118
 7315SOL     OW22843   6.681   0.125   4.359
 7315SOL    HW122844   6.621   0.118   4.439
 7315SOL    HW222845   6.664   0.211   4.312
 7316SOL     OW22846   3.524   3.723   5.460
 7316SOL    HW122847   3.488   3.685   5.375
 7316SOL    HW222848   3.574   3.653   5.510
 7317SOL     OW22849   3.722   1.097   4.076
 7317SOL    HW122850   3.767   1.156   4.142
 7317SOL    HW222851   3.788   1.033   4.037
 7318SOL     OW22852   2.191   2.284   1.140
 7318SOL    HW122853   2.244   2.323   1.065
 7318SOL    HW222854   2.139   2.356   1.186
 7319SOL     OW22855   5.717   4.927   6.750
 7319SOL    HW122856   5.810   4.892   6.743
 7319SOL    HW222857   5.676   4.933   6.659
 7320SOL     OW22858   0.176   2.977   1.884
 7320SOL    HW122859   0.146   2.983   1.789
 7320SOL    HW222860   0.098   2.991   1.944
 7321SOL     OW22861   2.889   1.225   4.220
 7321SOL    HW122862   2.837   1.303   4.186
 7321SOL    HW222863   2.921   1.243   4.313
 7322SOL     OW22864   0.261   3.989   3.137
 7322SOL    HW122865   0.327   3.998   3.063
 7322SOL    HW222866   0.168   4.003   3.102
 7323SOL     OW22867   2.141   3.558   3.275
 7323SOL    HW122868   2.226   3.591   3.316
 7323SOL    HW222869   2.119   3.614   3.195
 7324SOL     OW22870   5.411   6.830   2.744
 7324SOL    HW122871   5.434   6.753   2.803
 7324SOL    HW222872   5.487   6.849   2.683
 7325SOL     OW22873   3.359   6.161   0.054
 7325SOL    HW122874   3.265   6.131   0.068
 7325SOL    HW222875   3.375   6.245   0.107
 7326SOL     OW22876   3.124   6.870   5.459
 7326SOL    HW122877   3.123   6.779   5.419
 7326SOL    HW222878   3.103   6.864   5.557
 7327SOL     OW22879   1.297   2.948   5.520
 7327SOL    HW122880   1.374   2.965   5.458
 7327SOL    HW222881   1.277   2.850   5.522
 7328SOL     OW22882   2.465   0.151   6.785
 7328SOL    HW122883   2.548   0.147   6.841
 7328SOL    HW222884   2.397   0.086   6.820
 7329SOL     OW22885   4.204   2.833   1.059
 7329SOL    HW122886   4.158   2.915   1.095
 7329SOL    HW222887   4.162   2.751   1.099
 7330SOL     OW22888   3.944   1.620   6.883
 7330SOL    HW122889   3.869   1.597   6.945
 7330SOL    HW222890   4.031   1.599   6.926
 7331SOL     OW22891   5.724   0.263   1.780
 7331SOL    HW122892   5.775   0.330   1.834
 7331SOL    HW222893   5.682   0.308   1.701
 7332SOL     OW22894   3.319   5.221   1.466
 7332SOL    HW122895   3.334   5.304   1.412
 7332SOL    HW222896   3.254   5.162   1.418
 7333SOL     OW22897   1.050   4.872   2.532
 7333SOL    HW122898   1.062   4.944   2.463
 7333SOL    HW222899   1.136   4.859   2.581
 7334SOL     OW22900   4.177   6.592   4.131
 7334SOL    HW122901   4.176   6.653   4.210
 7334SOL    HW222902   4.098   6.530   4.135
 7335SOL     OW22903   1.847   2.290   2.777
 7335SOL    HW122904   1.865   2.380   2.736
 7335SOL    HW222905   1.748   2.274   2.778
 7336SOL     OW22906   1.895   6.592   3.609
 7336SOL    HW122907   1.871   6.676   3.658
 7336SOL    HW222908   1.835   6.583   3.529
 7337SOL     OW22909   6.497   3.172   2.078
 7337SOL    HW122910   6.444   3.121   2.146
 7337SOL    HW222911   6.475   3.269   2.086
 7338SOL     OW22912   6.806   2.734   0.672
 7338SOL    HW122913   6.881   2.785   0.630
 7338SOL    HW222914   6.804   2.752   0.770
 7339SOL     OW22915   0.118   5.680   4.543
 7339SOL    HW122916   0.141   5.611   4.474
 7339SOL    HW222917   0.047   5.741   4.507
 7340SOL     OW22918   2.390   0.376   6.673
 7340SOL    HW122919   2.407   0.286   6.712
 7340SOL    HW222920   2.312   0.371   6.611
 7341SOL     OW22921   6.253   2.558   6.659
 7341SOL    HW122922   6.171   2.542   6.604
 7341SOL    HW222923   6.270   2.656   6.665
 7342SOL     OW22924   6.952   6.872   2.448
 7342SOL    HW122925   6.901   6.922   2.378
 7342SOL    HW222926   6.900   6.871   2.533
 7343SOL     OW22927   5.396   3.526   0.049
 7343SOL    HW122928   5.342   3.493   0.126
 7343SOL    HW222929   5.351   3.606   0.009
 7344SOL     OW22930   1.392   6.495   5.882
 7344SOL    HW122931   1.370   6.498   5.980
 7344SOL    HW222932   1.363   6.406   5.845
 7345SOL     OW22933   3.775   5.407   6.094
 7345SOL    HW122934   3.681   5.391   6.125
 7345SOL    HW222935   3.807   5.495   6.130
 7346SOL     OW22936   4.885   4.506   3.027
 7346SOL    HW122937   4.951   4.443   3.068
 7346SOL    HW222938   4.913   4.528   2.934
 7347SOL     OW22939   5.630   2.466   6.820
 7347SOL    HW122940   5.596   2.372   6.814
 7347SOL    HW222941   5.667   2.482   6.912
 7348SOL     OW22942   6.959   4.821   1.514
 7348SOL    HW122943   6.905   4.761   1.455
 7348SOL    HW222944   6.950   4.792   1.609
 7349SOL     OW22945   3.969   1.844   1.991
 7349SOL    HW122946   4.015   1.894   2.065
 7349SOL    HW222947   3.875   1.877   1.983
 7350SOL     OW22948   3.332   0.366   5.208
 7350SOL    HW122949   3.376   0.375   5.119
 7350SOL    HW222950   3.334   0.270   5.237
 7351SOL     OW22951   3.316   4.883   4.170
 7351SOL    HW122952   3.415   4.870   4.180
 7351SOL    HW222953   3.270   4.856   4.254
 7352SOL     OW22954   6.761   2.660   3.938
 7352SOL    HW122955   6.782   2.584   4.000
 7352SOL    HW222956   6.836   2.727   3.941
 7353SOL     OW22957   6.209   0.372   6.710
 7353SOL    HW122958   6.113   0.398   6.726
 7353SOL    HW222959   6.255   0.445   6.660
 7354SOL     OW22960   0.597   1.903   3.200
 7354SOL    HW122961   0.500   1.919   3.182
 7354SOL    HW222962   0.651   1.967   3.146
 7355SOL     OW22963   1.530   1.825   0.010
 7355SOL    HW122964   1.620   1.851   6.997
 7355SOL    HW222965   1.539   1.743   0.067
 7356SOL     OW22966   4.204   3.931   6.245
 7356SOL    HW122967   4.188   3.837   6.213
 7356SOL    HW222968   4.247   3.984   6.172
 7357SOL     OW22969   5.296   5.743   2.308
 7357SOL    HW122970   5.245   5.782   2.384
 7357SOL    HW222971   5.252   5.658   2.278
 7358SOL     OW22972   5.873   1.019   3.879
 7358SOL    HW122973   5.827   1.106   3.897
 7358SOL    HW222974   5.807   0.952   3.847
 7359SOL     OW22975   4.931   0.271   1.090
 7359SOL    HW122976   4.968   0.355   1.049
 7359SOL    HW222977   4.904   0.208   1.017
 7360SOL     OW22978   2.973   3.730   4.646
 7360SOL    HW122979   2.919   3.673   4.708
 7360SOL    HW222980   2.935   3.724   4.554
 7361SOL     OW22981   5.426   0.522   3.763
 7361SOL    HW122982   5.349   0.586   3.768
 7361SOL    HW222983   5.404   0.440   3.816
 7362SOL     OW22984   3.467   5.169   6.393
 7362SOL    HW122985   3.485   5.078   6.357
 7362SOL    HW222986   3.546   5.202   6.444
 7363SOL     OW22987   3.976   0.713   0.654
 7363SOL    HW122988   3.945   0.618   0.662
 7363SOL    HW222989   3.925   0.759   0.582
 7364SOL     OW22990   5.876   0.077   1.342
 7364SOL    HW122991   5.836   0.166   1.321
 7364SOL    HW222992   5.975   0.086   1.348
 7365SOL     OW22993   5.874   4.834   2.333
 7365SOL    HW122994   5.844   4.760   2.272
 7365SOL    HW222995   5.820   4.831   2.417
 7366SOL     OW22996   2.200   1.227   4.067
 7366SOL    HW122997   2.103   1.222   4.094
 7366SOL    HW222998   2.240   1.136   4.072
 7367SOL     OW22999   4.299   0.305   6.719
 7367SOL    HW123000   4.367   0.275   6.652
 7367SOL    HW223001   4.208   0.271   6.693
 7368SOL     OW23002   3.845   3.855   3.626
 7368SOL    HW123003   3.883   3.900   3.708
 7368SOL    HW223004   3.783   3.918   3.580
 7369SOL     OW23005   5.343   2.086   0.483
 7369SOL    HW123006   5.267   2.151   0.482
 7369SOL    HW223007   5.416   2.120   0.542
 7370SOL     OW23008   2.051   1.579   4.312
 7370SOL    HW123009   2.144   1.613   4.296
 7370SOL    HW223010   2.052   1.515   4.389
 7371SOL     OW23011   3.966   0.938   3.902
 7371SOL    HW123012   3.993   0.842   3.895
 7371SOL    HW223013   3.879   0.952   3.854
 7372SOL     OW23014   5.484   0.879   5.561
 7372SOL    HW123015   5.556   0.813   5.579
 7372SOL    HW223016   5.443   0.909   5.647
 7373SOL     OW23017   5.517   3.321   4.301
 7373SOL    HW123018   5.531   3.363   4.391
 7373SOL    HW223019   5.600   3.273   4.273
 7374SOL     OW23020   6.377   1.931   5.372
 7374SOL    HW123021   6.447   1.951   5.304
 7374SOL    HW223022   6.318   1.857   5.338
 7375SOL     OW23023   1.771   3.585   2.060
 7375SOL    HW123024   1.744   3.639   1.980
 7375SOL    HW223025   1.723   3.619   2.141
 7376SOL     OW23026   0.172   3.857   0.282
 7376SOL    HW123027   0.270   3.837   0.282
 7376SOL    HW223028   0.139   3.860   0.376
 7377SOL     OW23029   2.824   6.020   1.255
 7377SOL    HW123030   2.743   6.060   1.212
 7377SOL    HW223031   2.802   5.990   1.348
 7378SOL     OW23032   1.004   5.672   4.043
 7378SOL    HW123033   0.989   5.580   4.080
 7378SOL    HW223034   1.068   5.722   4.101
 7379SOL     OW23035   3.782   0.987   1.190
 7379SOL    HW123036   3.760   0.889   1.193
 7379SOL    HW223037   3.873   1.001   1.229
 7380SOL     OW23038   5.322   3.999   2.108
 7380SOL    HW123039   5.377   4.043   2.179
 7380SOL    HW223040   5.360   4.021   2.018
 7381SOL     OW23041   3.685   1.021   0.870
 7381SOL    HW123042   3.672   0.975   0.957
 7381SOL    HW223043   3.627   1.102   0.866
 7382SOL     OW23044   6.389   1.327   6.133
 7382SOL    HW123045   6.320   1.398   6.117
 7382SOL    HW223046   6.344   1.245   6.168
 7383SOL     OW23047   2.028   0.121   0.495
 7383SOL    HW123048   2.021   0.221   0.495
 7383SOL    HW223049   2.082   0.093   0.574
 7384SOL     OW23050   6.790   0.023   1.356
 7384SOL    HW123051   6.709   6.996   1.389
 7384SOL    HW223052   6.869   7.018   1.412
 7385SOL     OW23053   5.908   4.178   3.171
 7385SOL    HW123054   5.989   4.122   3.191
 7385SOL    HW223055   5.925   4.273   3.198
 7386SOL     OW23056   5.513   3.518   0.424
 7386SOL    HW123057   5.432   3.480   0.378
 7386SOL    HW223058   5.501   3.511   0.523
 7387SOL     OW23059   6.913   6.008   5.479
 7387SOL    HW123060   6.824   6.047   5.458
 7387SOL    HW223061   6.971   6.078   5.521
 7388SOL     OW23062   2.103   4.973   3.096
 7388SOL    HW123063   2.042   4.918   3.153
 7388SOL    HW223064   2.106   5.066   3.131
 7389SOL     OW23065   5.573   2.843   6.985
 7389SOL    HW123066   5.578   2.857   0.062
 7389SOL    HW223067   5.666   2.838   6.947
 7390SOL     OW23068   2.423   2.644   3.066
 7390SOL    HW123069   2.468   2.674   3.150
 7390SOL    HW223070   2.354   2.576   3.088
 7391SOL     OW23071   3.769   3.278   3.116
 7391SOL    HW123072   3.851   3.279   3.173
 7391SOL    HW223073   3.791   3.309   3.024
 7392SOL     OW23074   2.829   6.141   6.763
 7392SOL    HW123075   2.826   6.223   6.820
 7392SOL    HW223076   2.877   6.068   6.812
 7393SOL     OW23077   5.335   5.241   4.228
 7393SOL    HW123078   5.365   5.334   4.207
 7393SOL    HW223079   5.237   5.232   4.208
 7394SOL     OW23080   2.683   1.977   6.001
 7394SOL    HW123081   2.700   1.977   5.903
 7394SOL    HW223082   2.657   1.885   6.030
 7395SOL     OW23083   2.921   5.677   0.984
 7395SOL    HW123084   2.928   5.777   0.976
 7395SOL    HW223085   2.875   5.641   0.903
 7396SOL     OW23086   2.466   5.134   1.896
 7396SOL    HW123087   2.425   5.147   1.806
 7396SOL    HW223088   2.514   5.217   1.923
 7397SOL     OW23089   5.786   4.295   3.850
 7397SOL    HW123090   5.701   4.255   3.884
 7397SOL    HW223091   5.779   4.311   3.751
 7398SOL     OW23092   2.542   4.652   2.480
 7398SOL    HW123093   2.610   4.699   2.536
 7398SOL    HW223094   2.499   4.579   2.533
 7399SOL     OW23095   5.143   2.299   5.319
 7399SOL    HW123096   5.172   2.375   5.378
 7399SOL    HW223097   5.092   2.233   5.373
 7400SOL     OW23098   5.545   2.890   5.789
 7400SOL    HW123099   5.548   2.940   5.875
 7400SOL    HW223100   5.458   2.842   5.781
 7401SOL     OW23101   1.556   3.092   3.896
 7401SOL    HW123102   1.651   3.067   3.912
 7401SOL    HW223103   1.503   3.009   3.877
 7402SOL     OW23104   3.481   5.990   4.606
 7402SOL    HW123105   3.463   6.085   4.629
 7402SOL    HW223106   3.569   5.962   4.644
 7403SOL     OW23107   2.037   3.910   4.055
 7403SOL    HW123108   1.966   3.980   4.056
 7403SOL    HW223109   2.109   3.934   4.120
 7404SOL     OW23110   3.630   3.288   1.193
 7404SOL    HW123111   3.639   3.190   1.210
 7404SOL    HW223112   3.721   3.329   1.181
 7405SOL     OW23113   3.776   6.548   3.959
 7405SOL    HW123114   3.694   6.506   3.998
 7405SOL    HW223115   3.752   6.596   3.874
 7406SOL     OW23116   0.942   1.410   4.997
 7406SOL    HW123117   0.982   1.395   4.906
 7406SOL    HW223118   0.982   1.491   5.039
 7407SOL     OW23119   0.882   5.762   5.421
 7407SOL    HW123120   0.833   5.746   5.506
 7407SOL    HW223121   0.839   5.838   5.372
 7408SOL     OW23122   3.825   4.705   5.275
 7408SOL    HW123123   3.874   4.728   5.191
 7408SOL    HW223124   3.848   4.771   5.347
 7409SOL     OW23125   6.528   3.528   1.024
 7409SOL    HW123126   6.492   3.449   0.973
 7409SOL    HW223127   6.624   3.511   1.047
 7410SOL     OW23128   0.579   0.931   1.007
 7410SOL    HW123129   0.652   0.907   1.071
 7410SOL    HW223130   0.594   1.025   0.974
 7411SOL     OW23131   1.605   1.529   5.052
 7411SOL    HW123132   1.609   1.576   4.964
 7411SOL    HW223133   1.697   1.524   5.091
 7412SOL     OW23134   4.341   6.630   0.425
 7412SOL    HW123135   4.347   6.593   0.518
 7412SOL    HW223136   4.429   6.670   0.400
 7413SOL     OW23137   4.501   0.084   3.596
 7413SOL    HW123138   4.439   0.023   3.546
 7413SOL    HW223139   4.481   0.179   3.570
 7414SOL     OW23140   3.353   1.420   4.287
 7414SOL    HW123141   3.302   1.476   4.222
 7414SOL    HW223142   3.339   1.323   4.268
 7415SOL     OW23143   3.819   6.465   6.490
 7415SOL    HW123144   3.778   6.421   6.410
 7415SOL    HW223145   3.794   6.414   6.572
 7416SOL     OW23146   1.422   0.630   2.049
 7416SOL    HW123147   1.395   0.723   2.072
 7416SOL    HW223148   1.456   0.628   1.955
 7417SOL     OW23149   0.258   1.108   3.093
 7417SOL    HW123150   0.333   1.045   3.070
 7417SOL    HW223151   0.251   1.118   3.192
 7418SOL     OW23152   1.549   4.156   5.908
 7418SOL    HW123153   1.483   4.081   5.904
 7418SOL    HW223154   1.619   4.142   5.838
 7419SOL     OW23155   6.853   3.866   3.815
 7419SOL    HW123156   6.775   3.805   3.832
 7419SOL    HW223157   6.819   3.960   3.803
 7420SOL     OW23158   0.143   0.080   1.776
 7420SOL    HW123159   0.210   0.143   1.736
 7420SOL    HW223160   0.181   7.009   1.779
 7421SOL     OW23161   5.422   3.765   1.047
 7421SOL    HW123162   5.355   3.823   1.092
 7421SOL    HW223163   5.380   3.678   1.022
 7422SOL     OW23164   5.872   2.355   2.781
 7422SOL    HW123165   5.952   2.392   2.734
 7422SOL    HW223166   5.799   2.338   2.714
 7423SOL     OW23167   5.376   1.749   5.833
 7423SOL    HW123168   5.306   1.815   5.860
 7423SOL    HW223169   5.455   1.756   5.895
 7424SOL     OW23170   0.604   2.233   3.486
 7424SOL    HW123171   0.514   2.251   3.525
 7424SOL    HW223172   0.614   2.135   3.468
 7425SOL     OW23173   6.037   0.506   1.273
 7425SOL    HW123174   6.044   0.588   1.217
 7425SOL    HW223175   6.111   0.505   1.341
 7426SOL     OW23176   4.104   3.178   5.639
 7426SOL    HW123177   4.121   3.268   5.678
 7426SOL    HW223178   4.187   3.122   5.647
 7427SOL     OW23179   3.058   0.953   3.475
 7427SOL    HW123180   3.070   0.999   3.387
 7427SOL    HW223181   2.984   0.886   3.468
 7428SOL     OW23182   4.677   6.187   4.777
 7428SOL    HW123183   4.772   6.172   4.751
 7428SOL    HW223184   4.655   6.132   4.858
 7429SOL     OW23185   1.163   6.712   3.005
 7429SOL    HW123186   1.191   6.753   3.092
 7429SOL    HW223187   1.196   6.769   2.929
 7430SOL     OW23188   6.679   5.377   2.659
 7430SOL    HW123189   6.651   5.324   2.579
 7430SOL    HW223190   6.661   5.323   2.742
 7431SOL     OW23191   1.379   1.879   3.459
 7431SOL    HW123192   1.360   1.968   3.501
 7431SOL    HW223193   1.415   1.816   3.528
 7432SOL     OW23194   2.501   0.420   3.118
 7432SOL    HW123195   2.408   0.385   3.123
 7432SOL    HW223196   2.502   0.518   3.141
 7433SOL     OW23197   2.702   0.002   6.600
 7433SOL    HW123198   2.633   6.992   6.665
 7433SOL    HW223199   2.674   0.089   6.561
 7434SOL     OW23200   4.178   6.733   4.377
 7434SOL    HW123201   4.086   6.713   4.411
 7434SOL    HW223202   4.230   6.781   4.448
 7435SOL     OW23203   5.151   4.175   2.766
 7435SOL    HW123204   5.080   4.143   2.703
 7435SOL    HW223205   5.204   4.248   2.723
 7436SOL     OW23206   5.483   2.890   6.071
 7436SOL    HW123207   5.428   2.873   6.153
 7436SOL    HW223208   5.579   2.872   6.091
 7437SOL     OW23209   3.101   6.891   0.536
 7437SOL    HW123210   3.116   6.978   0.584
 7437SOL    HW223211   3.116   6.904   0.438
 7438SOL     OW23212   1.808   0.554   0.051
 7438SOL    HW123213   1.826   0.501   6.990
 7438SOL    HW223214   1.803   0.493   0.130
 7439SOL     OW23215   1.164   4.218   6.708
 7439SOL    HW123216   1.222   4.294   6.738
 7439SOL    HW223217   1.137   4.163   6.787
 7440SOL     OW23218   5.552   3.724   4.098
 7440SOL    HW123219   5.605   3.656   4.148
 7440SOL    HW223220   5.477   3.679   4.050
 7441SOL     OW23221   5.676   5.695   1.336
 7441SOL    HW123222   5.711   5.783   1.306
 7441SOL    HW223223   5.593   5.709   1.391
 7442SOL     OW23224   5.316   0.581   5.687
 7442SOL    HW123225   5.309   0.654   5.619
 7442SOL    HW223226   5.296   0.618   5.778
 7443SOL     OW23227   0.322   0.921   1.776
 7443SOL    HW123228   0.264   1.003   1.783
 7443SOL    HW223229   0.345   0.889   1.868
 7444SOL     OW23230   1.995   6.567   6.998
 7444SOL    HW123231   2.004   6.613   0.065
 7444SOL    HW223232   1.943   6.482   7.010
 7445SOL     OW23233   3.820   6.308   1.816
 7445SOL    HW123234   3.868   6.335   1.732
 7445SOL    HW223235   3.782   6.390   1.860
 7446SOL     OW23236   5.331   4.318   0.162
 7446SOL    HW123237   5.302   4.409   0.134
 7446SOL    HW223238   5.423   4.299   0.128
 7447SOL     OW23239   0.267   4.635   0.656
 7447SOL    HW123240   0.261   4.563   0.725
 7447SOL    HW223241   0.187   4.631   0.596
 7448SOL     OW23242   4.601   5.552   0.062
 7448SOL    HW123243   4.512   5.523   0.025
 7448SOL    HW223244   4.645   5.474   0.107
 7449SOL     OW23245   0.169   4.564   6.048
 7449SOL    HW123246   0.076   4.529   6.051
 7449SOL    HW223247   0.183   4.614   5.962
 7450SOL     OW23248   5.378   2.144   5.272
 7450SOL    HW123249   5.416   2.102   5.355
 7450SOL    HW223250   5.304   2.206   5.298
 7451SOL     OW23251   4.689   4.208   3.337
 7451SOL    HW123252   4.596   4.219   3.373
 7451SOL    HW223253   4.754   4.212   3.412
 7452SOL     OW23254   5.837   5.402   6.066
 7452SOL    HW123255   5.814   5.304   6.064
 7452SOL    HW223256   5.936   5.411   6.079
 7453SOL     OW23257   3.425   5.959   6.103
 7453SOL    HW123258   3.483   6.041   6.097
 7453SOL    HW223259   3.333   5.981   6.071
 7454SOL     OW23260   4.335   2.128   1.083
 7454SOL    HW123261   4.300   2.222   1.087
 7454SOL    HW223262   4.375   2.104   1.172
 7455SOL     OW23263   6.719   1.792   3.168
 7455SOL    HW123264   6.740   1.769   3.073
 7455SOL    HW223265   6.698   1.708   3.219
 7456SOL     OW23266   2.693   2.255   6.311
 7456SOL    HW123267   2.633   2.288   6.384
 7456SOL    HW223268   2.637   2.232   6.231
 7457SOL     OW23269   2.006   1.112   2.452
 7457SOL    HW123270   1.969   1.203   2.432
 7457SOL    HW223271   2.049   1.075   2.370
 7458SOL     OW23272   1.740   5.104   5.331
 7458SOL    HW123273   1.804   5.058   5.393
 7458SOL    HW223274   1.775   5.099   5.238
 7459SOL     OW23275   5.943   0.211   2.598
 7459SOL    HW123276   5.873   0.269   2.557
 7459SOL    HW223277   5.916   0.187   2.692
 7460SOL     OW23278   1.949   6.461   0.819
 7460SOL    HW123279   1.881   6.475   0.891
 7460SOL    HW223280   2.009   6.385   0.845
 7461SOL     OW23281   2.139   4.358   5.803
 7461SOL    HW123282   2.061   4.313   5.758
 7461SOL    HW223283   2.133   4.345   5.902
 7462SOL     OW23284   1.271   4.173   0.796
 7462SOL    HW123285   1.234   4.093   0.748
 7462SOL    HW223286   1.255   4.164   0.894
 7463SOL     OW23287   3.923   5.549   1.347
 7463SOL    HW123288   3.895   5.469   1.400
 7463SOL    HW223289   4.023   5.556   1.348
 7464SOL     OW23290   6.080   6.319   5.125
 7464SOL    HW123291   6.047   6.315   5.219
 7464SOL    HW223292   6.133   6.403   5.111
 7465SOL     OW23293   1.675   4.623   0.211
 7465SOL    HW123294   1.708   4.666   0.295
 7465SOL    HW223295   1.622   4.541   0.234
 7466SOL     OW23296   0.382   0.579   5.014
 7466SOL    HW123297   0.379   0.676   5.037
 7466SOL    HW223298   0.475   0.545   5.022
 7467SOL     OW23299   0.424   3.518   5.003
 7467SOL    HW123300   0.445   3.608   5.040
 7467SOL    HW223301   0.348   3.477   5.054
 7468SOL     OW23302   5.754   3.740   5.691
 7468SOL    HW123303   5.806   3.749   5.607
 7468SOL    HW223304   5.658   3.764   5.675
 7469SOL     OW23305   0.220   1.970   0.758
 7469SOL    HW123306   0.126   1.995   0.778
 7469SOL    HW223307   0.245   2.002   0.667
 7470SOL     OW23308   5.772   2.776   3.445
 7470SOL    HW123309   5.788   2.835   3.524
 7470SOL    HW223310   5.764   2.681   3.475
 7471SOL     OW23311   4.088   5.855   6.219
 7471SOL    HW123312   4.148   5.810   6.153
 7471SOL    HW223313   4.006   5.889   6.172
 7472SOL     OW23314   6.548   0.347   5.931
 7472SOL    HW123315   6.477   0.287   5.892
 7472SOL    HW223316   6.623   0.291   5.965
 7473SOL     OW23317   3.214   5.920   3.852
 7473SOL    HW123318   3.229   5.999   3.912
 7473SOL    HW223319   3.253   5.839   3.895
 7474SOL     OW23320   5.961   1.849   0.017
 7474SOL    HW123321   5.905   1.801   0.084
 7474SOL    HW223322   5.923   1.940   0.000
 7475SOL     OW23323   5.129   1.988   0.879
 7475SOL    HW123324   5.094   2.042   0.955
 7475SOL    HW223325   5.226   1.966   0.895
 7476SOL     OW23326   2.227   0.335   3.086
 7476SOL    HW123327   2.146   0.317   3.142
 7476SOL    HW223328   2.214   0.422   3.036
 7477SOL     OW23329   0.860   3.858   4.779
 7477SOL    HW123330   0.798   3.780   4.769
 7477SOL    HW223331   0.914   3.869   4.695
 7478SOL     OW23332   0.622   1.012   6.118
 7478SOL    HW123333   0.602   0.937   6.055
 7478SOL    HW223334   0.536   1.049   6.154
 7479SOL     OW23335   5.085   2.626   0.511
 7479SOL    HW123336   5.083   2.527   0.496
 7479SOL    HW223337   5.057   2.646   0.604
 7480SOL     OW23338   3.677   4.942   2.617
 7480SOL    HW123339   3.581   4.914   2.618
 7480SOL    HW223340   3.688   5.018   2.553
 7481SOL     OW23341   0.319   3.781   6.866
 7481SOL    HW123342   0.338   3.781   6.768
 7481SOL    HW223343   0.393   3.829   6.914
 7482SOL     OW23344   5.134   2.119   2.905
 7482SOL    HW123345   5.070   2.056   2.861
 7482SOL    HW223346   5.139   2.098   3.003
 7483SOL     OW23347   4.853   2.064   5.715
 7483SOL    HW123348   4.764   2.103   5.735
 7483SOL    HW223349   4.860   1.973   5.755
 7484SOL     OW23350   3.594   6.904   3.755
 7484SOL    HW123351   3.670   6.970   3.763
 7484SOL    HW223352   3.538   6.909   3.837
 7485SOL     OW23353   3.523   6.413   5.666
 7485SOL    HW123354   3.539   6.429   5.569
 7485SOL    HW223355   3.599   6.451   5.719
 7486SOL     OW23356   2.556   6.772   1.010
 7486SOL    HW123357   2.521   6.724   1.090
 7486SOL    HW223358   2.563   6.870   1.029
 7487SOL     OW23359   3.881   6.025   4.513
 7487SOL    HW123360   3.948   6.098   4.520
 7487SOL    HW223361   3.810   6.037   4.583
 7488SOL     OW23362   0.614   5.588   4.098
 7488SOL    HW123363   0.686   5.526   4.068
 7488SOL    HW223364   0.534   5.577   4.040
 7489SOL     OW23365   5.658   3.100   6.764
 7489SOL    HW123366   5.722   3.102   6.840
 7489SOL    HW223367   5.565   3.116   6.798
 7490SOL     OW23368   1.014   2.494   2.278
 7490SOL    HW123369   1.049   2.490   2.372
 7490SOL    HW223370   0.966   2.581   2.265
 7491SOL     OW23371   4.147   3.242   0.381
 7491SOL    HW123372   4.240   3.231   0.415
 7491SOL    HW223373   4.146   3.239   0.282
 7492SOL     OW23374   1.342   7.002   4.555
 7492SOL    HW123375   1.403   0.021   4.486
 7492SOL    HW223376   1.288   0.053   4.597
 7493SOL     OW23377   6.636   4.668   5.238
 7493SOL    HW123378   6.724   4.655   5.282
 7493SOL    HW223379   6.647   4.720   5.154
 7494SOL     OW23380   6.847   1.092   1.750
 7494SOL    HW123381   6.832   1.086   1.651
 7494SOL    HW223382   6.896   1.011   1.782
 7495SOL     OW23383   1.676   3.765   4.805
 7495SOL    HW123384   1.732   3.834   4.851
 7495SOL    HW223385   1.580   3.794   4.807
 7496SOL     OW23386   5.887   4.495   2.564
 7496SOL    HW123387   5.931   4.493   2.474
 7496SOL    HW223388   5.883   4.588   2.598
 7497SOL     OW23389   0.086   6.368   1.115
 7497SOL    HW123390   0.174   6.325   1.095
 7497SOL    HW223391   0.070   6.442   1.049
 7498SOL     OW23392   3.250   6.567   2.880
 7498SOL    HW123393   3.158   6.591   2.910
 7498SOL    HW223394   3.315   6.633   2.917
 7499SOL     OW23395   2.912   1.651   3.983
 7499SOL    HW123396   2.927   1.678   3.888
 7499SOL    HW223397   2.915   1.733   4.041
 7500SOL     OW23398   3.775   0.271   3.436
 7500SOL    HW123399   3.846   0.327   3.393
 7500SOL    HW223400   3.709   0.330   3.483
 7501SOL     OW23401   6.151   2.499   5.388
 7501SOL    HW123402   6.206   2.497   5.305
 7501SOL    HW223403   6.059   2.533   5.367
 7502SOL     OW23404   4.555   0.775   4.178
 7502SOL    HW123405   4.516   0.854   4.129
 7502SOL    HW223406   4.599   0.714   4.112
 7503SOL     OW23407   1.896   5.503   1.688
 7503SOL    HW123408   1.967   5.443   1.651
 7503SOL    HW223409   1.876   5.477   1.783
 7504SOL     OW23410   6.650   6.712   4.756
 7504SOL    HW123411   6.571   6.654   4.735
 7504SOL    HW223412   6.732   6.672   4.716
 7505SOL     OW23413   0.374   6.267   4.976
 7505SOL    HW123414   0.419   6.332   5.037
 7505SOL    HW223415   0.296   6.225   5.023
 7506SOL     OW23416   3.413   1.629   3.976
 7506SOL    HW123417   3.369   1.705   3.929
 7506SOL    HW223418   3.380   1.623   4.070
 7507SOL     OW23419   6.426   4.495   5.730
 7507SOL    HW123420   6.460   4.589   5.726
 7507SOL    HW223421   6.502   4.432   5.715
 7508SOL     OW23422   2.872   5.984   0.202
 7508SOL    HW123423   2.885   5.942   0.112
 7508SOL    HW223424   2.851   5.913   0.269
 7509SOL     OW23425   6.381   5.136   2.128
 7509SOL    HW123426   6.432   5.222   2.136
 7509SOL    HW223427   6.284   5.154   2.143
 7510SOL     OW23428   3.349   3.739   2.910
 7510SOL    HW123429   3.293   3.787   2.977
 7510SOL    HW223430   3.296   3.663   2.871
 7511SOL     OW23431   4.656   6.672   4.333
 7511SOL    HW123432   4.627   6.723   4.251
 7511SOL    HW223433   4.593   6.596   4.349
 7512SOL     OW23434   3.574   1.168   0.419
 7512SOL    HW123435   3.667   1.160   0.455
 7512SOL    HW223436   3.540   1.078   0.394
 7513SOL     OW23437   1.424   2.059   2.469
 7513SOL    HW123438   1.415   1.971   2.422
 7513SOL    HW223439   1.431   2.132   2.401
 7514SOL     OW23440   1.161   5.711   1.790
 7514SOL    HW123441   1.131   5.635   1.733
 7514SOL    HW223442   1.183   5.678   1.882
 7515SOL     OW23443   0.672   4.880   5.164
 7515SOL    HW123444   0.603   4.951   5.149
 7515SOL    HW223445   0.672   4.853   5.260
 7516SOL     OW23446   1.665   6.116   5.468
 7516SOL    HW123447   1.756   6.096   5.504
 7516SOL    HW223448   1.623   6.032   5.434
 7517SOL     OW23449   0.781   1.509   6.225
 7517SOL    HW123450   0.813   1.415   6.224
 7517SOL    HW223451   0.748   1.535   6.135
 7518SOL     OW23452   4.814   2.134   3.658
 7518SOL    HW123453   4.728   2.155   3.704
 7518SOL    HW223454   4.883   2.110   3.726
 7519SOL     OW23455   3.935   6.132   4.166
 7519SOL    HW123456   3.855   6.118   4.108
 7519SOL    HW223457   3.907   6.130   4.262
 7520SOL     OW23458   1.615   1.889   0.688
 7520SOL    HW123459   1.715   1.888   0.697
 7520SOL    HW223460   1.582   1.795   0.682
 7521SOL     OW23461   3.824   2.031   5.292
 7521SOL    HW123462   3.898   1.994   5.349
 7521SOL    HW223463   3.770   1.956   5.255
 7522SOL     OW23464   1.969   6.835   3.185
 7522SOL    HW123465   1.960   6.934   3.201
 7522SOL    HW223466   2.057   6.804   3.220
 7523SOL     OW23467   5.502   0.978   0.583
 7523SOL    HW123468   5.515   0.937   0.493
 7523SOL    HW223469   5.538   1.071   0.583
 7524SOL     OW23470   0.159   3.316   4.430
 7524SOL    HW123471   0.117   3.247   4.487
 7524SOL    HW223472   0.096   3.392   4.417
 7525SOL     OW23473   4.231   5.474   6.322
 7525SOL    HW123474   4.323   5.475   6.282
 7525SOL    HW223475   4.165   5.450   6.251
 7526SOL     OW23476   2.444   3.352   1.489
 7526SOL    HW123477   2.431   3.433   1.431
 7526SOL    HW223478   2.518   3.369   1.554
 7527SOL     OW23479   3.986   4.792   3.904
 7527SOL    HW123480   4.060   4.829   3.960
 7527SOL    HW223481   3.999   4.819   3.809
 7528SOL     OW23482   5.971   3.184   6.454
 7528SOL    HW123483   6.054   3.232   6.482
 7528SOL    HW223484   5.919   3.241   6.391
 7529SOL     OW23485   5.995   3.151   4.042
 7529SOL    HW123486   6.033   3.229   3.993
 7529SOL    HW223487   6.023   3.066   3.997
 7530SOL     OW23488   0.738   2.184   1.800
 7530SOL    HW123489   0.639   2.195   1.806
 7530SOL    HW223490   0.762   2.088   1.815
 7531SOL     OW23491   4.180   1.876   4.032
 7531SOL    HW123492   4.110   1.807   4.052
 7531SOL    HW223493   4.137   1.960   4.002
 7532SOL     OW23494   4.611   5.378   6.674
 7532SOL    HW123495   4.666   5.418   6.747
 7532SOL    HW223496   4.515   5.374   6.702
 7533SOL     OW23497   4.451   4.245   1.533
 7533SOL    HW123498   4.407   4.169   1.485
 7533SOL    HW223499   4.442   4.232   1.632
 7534SOL     OW23500   3.859   6.911   4.504
 7534SOL    HW123501   3.909   6.993   4.475
 7534SOL    HW223502   3.773   6.938   4.547
 7535SOL     OW23503   0.756   6.622   4.136
 7535SOL    HW123504   0.822   6.558   4.097
 7535SOL    HW223505   0.679   6.634   4.073
 7536SOL     OW23506   5.510   5.846   4.626
 7536SOL    HW123507   5.604   5.812   4.618
 7536SOL    HW223508   5.461   5.793   4.696
 7537SOL     OW23509   2.758   6.764   3.045
 7537SOL    HW123510   2.812   6.838   3.086
 7537SOL    HW223511   2.748   6.780   2.947
 7538SOL     OW23512   0.589   3.469   0.453
 7538SOL    HW123513   0.549   3.525   0.380
 7538SOL    HW223514   0.635   3.529   0.519
 7539SOL     OW23515   0.049   0.301   4.501
 7539SOL    HW123516   0.092   0.294   4.411
 7539SOL    HW223517   0.113   0.343   4.566
 7540SOL     OW23518   6.068   5.623   3.295
 7540SOL    HW123519   6.078   5.603   3.198
 7540SOL    HW223520   5.974   5.652   3.314
 7541SOL     OW23521   2.550   4.163   5.846
 7541SOL    HW123522   2.541   4.087   5.781
 7541SOL    HW223523   2.542   4.249   5.797
 7542SOL     OW23524   6.323   5.625   5.199
 7542SOL    HW123525   6.320   5.527   5.217
 7542SOL    HW223526   6.365   5.641   5.109
 7543SOL     OW23527   2.548   1.034   6.667
 7543SOL    HW123528   2.508   0.962   6.611
 7543SOL    HW223529   2.629   1.071   6.621
 7544SOL     OW23530   6.489   1.782   4.163
 7544SOL    HW123531   6.554   1.715   4.128
 7544SOL    HW223532   6.534   1.838   4.233
 7545SOL     OW23533   1.485   4.986   5.621
 7545SOL    HW123534   1.551   4.918   5.652
 7545SOL    HW223535   1.466   4.971   5.524
 7546SOL     OW23536   2.406   2.721   1.862
 7546SOL    HW123537   2.388   2.630   1.823
 7546SOL    HW223538   2.484   2.762   1.815
 7547SOL     OW23539   4.320   0.612   1.451
 7547SOL    HW123540   4.235   0.566   1.427
 7547SOL    HW223541   4.391   0.590   1.384
 7548SOL     OW23542   3.536   3.058   6.041
 7548SOL    HW123543   3.540   2.959   6.053
 7548SOL    HW223544   3.628   3.095   6.034
 7549SOL     OW23545   5.286   1.652   4.201
 7549SOL    HW123546   5.212   1.719   4.205
 7549SOL    HW223547   5.337   1.654   4.287
 7550SOL     OW23548   2.641   4.732   4.137
 7550SOL    HW123549   2.702   4.721   4.058
 7550SOL    HW223550   2.695   4.738   4.221
 7551SOL     OW23551   6.532   2.602   6.210
 7551SOL    HW123552   6.548   2.661   6.289
 7551SOL    HW223553   6.476   2.651   6.143
 7552SOL     OW23554   2.490   6.917   4.924
 7552SOL    HW123555   2.445   6.932   4.836
 7552SOL    HW223556   2.584   6.953   4.920
 7553SOL     OW23557   5.338   6.062   5.407
 7553SOL    HW123558   5.410   6.107   5.460
 7553SOL    HW223559   5.357   5.964   5.402
 7554SOL     OW23560   4.855   0.728   0.729
 7554SOL    HW123561   4.851   0.827   0.739
 7554SOL    HW223562   4.765   0.694   0.701
 7555SOL     OW23563   4.235   5.354   4.988
 7555SOL    HW123564   4.245   5.297   4.906
 7555SOL    HW223565   4.270   5.304   5.067
 7556SOL     OW23566   0.665   6.323   1.880
 7556SOL    HW123567   0.676   6.409   1.829
 7556SOL    HW223568   0.722   6.252   1.840
 7557SOL     OW23569   5.003   0.584   0.550
 7557SOL    HW123570   5.092   0.555   0.586
 7557SOL    HW223571   4.964   0.654   0.610
 7558SOL     OW23572   1.079   1.913   4.068
 7558SOL    HW123573   1.100   1.943   4.161
 7558SOL    HW223574   1.110   1.819   4.054
 7559SOL     OW23575   2.783   1.880   5.249
 7559SOL    HW123576   2.815   1.968   5.285
 7559SOL    HW223577   2.765   1.889   5.151
 7560SOL     OW23578   1.007   1.616   6.058
 7560SOL    HW123579   0.923   1.611   6.003
 7560SOL    HW223580   0.987   1.594   6.153
 7561SOL     OW23581   6.070   1.362   5.247
 7561SOL    HW123582   6.001   1.367   5.320
 7561SOL    HW223583   6.026   1.374   5.158
 7562SOL     OW23584   2.383   5.845   3.341
 7562SOL    HW123585   2.303   5.834   3.401
 7562SOL    HW223586   2.458   5.789   3.375
 7563SOL     OW23587   3.769   5.301   2.117
 7563SOL    HW123588   3.851   5.245   2.105
 7563SOL    HW223589   3.795   5.396   2.129
 7564SOL     OW23590   3.241   2.127   5.449
 7564SOL    HW123591   3.320   2.162   5.398
 7564SOL    HW223592   3.157   2.151   5.401
 7565SOL     OW23593   6.565   3.950   5.960
 7565SOL    HW123594   6.530   4.025   5.904
 7565SOL    HW223595   6.505   3.936   6.039
 7566SOL     OW23596   4.423   4.833   1.104
 7566SOL    HW123597   4.365   4.831   1.185
 7566SOL    HW223598   4.458   4.741   1.086
 7567SOL     OW23599   0.895   0.335   4.158
 7567SOL    HW123600   0.994   0.316   4.159
 7567SOL    HW223601   0.847   0.256   4.120
 7568SOL     OW23602   5.944   5.657   2.073
 7568SOL    HW123603   5.964   5.755   2.067
 7568SOL    HW223604   5.949   5.628   2.168
 7569SOL     OW23605   4.530   3.784   0.344
 7569SOL    HW123606   4.567   3.762   0.254
 7569SOL    HW223607   4.588   3.852   0.389
 7570SOL     OW23608   0.335   3.035   2.762
 7570SOL    HW123609   0.280   3.117   2.744
 7570SOL    HW223610   0.426   3.062   2.793
 7571SOL     OW23611   5.420   2.000   2.795
 7571SOL    HW123612   5.391   1.905   2.786
 7571SOL    HW223613   5.345   2.060   2.768
 7572SOL     OW23614   4.855   0.210   3.655
 7572SOL    HW123615   4.807   0.297   3.643
 7572SOL    HW223616   4.950   0.227   3.679
 7573SOL     OW23617   4.682   6.550   5.882
 7573SOL    HW123618   4.593   6.574   5.844
 7573SOL    HW223619   4.753   6.570   5.815
 7574SOL     OW23620   1.179   3.001   3.592
 7574SOL    HW123621   1.270   2.991   3.549
 7574SOL    HW223622   1.134   2.912   3.593
 7575SOL     OW23623   0.383   6.950   1.959
 7575SOL    HW123624   0.388   6.910   1.868
 7575SOL    HW223625   0.290   6.941   1.995
 7576SOL     OW23626   4.872   2.588   0.289
 7576SOL    HW123627   4.963   2.629   0.291
 7576SOL    HW223628   4.879   2.490   0.307
 7577SOL     OW23629   0.669   0.046   1.161
 7577SOL    HW123630   0.685   0.143   1.183
 7577SOL    HW223631   0.690   0.029   1.065
 7578SOL     OW23632   6.591   5.982   3.186
 7578SOL    HW123633   6.586   6.082   3.182
 7578SOL    HW223634   6.571   5.944   3.096
 7579SOL     OW23635   0.569   1.184   0.078
 7579SOL    HW123636   0.566   1.108   0.143
 7579SOL    HW223637   0.484   1.236   0.085
 7580SOL     OW23638   2.684   5.006   3.630
 7580SOL    HW123639   2.626   4.924   3.635
 7580SOL    HW223640   2.680   5.043   3.538
 7581SOL     OW23641   6.721   0.924   2.434
 7581SOL    HW123642   6.663   1.001   2.460
 7581SOL    HW223643   6.774   0.948   2.353
 7582SOL     OW23644   2.454   1.772   5.840
 7582SOL    HW123645   2.515   1.764   5.920
 7582SOL    HW223646   2.495   1.722   5.763
 7583SOL     OW23647   5.037   2.896   3.190
 7583SOL    HW123648   5.043   2.799   3.166
 7583SOL    HW223649   5.009   2.905   3.286
 7584SOL     OW23650   0.467   1.001   3.714
 7584SOL    HW123651   0.399   0.942   3.671
 7584SOL    HW223652   0.526   0.945   3.773
 7585SOL     OW23653   1.076   1.438   6.575
 7585SOL    HW123654   1.093   1.519   6.631
 7585SOL    HW223655   1.141   1.366   6.599
 7586SOL     OW23656   1.646   0.724   2.478
 7586SOL    HW123657   1.633   0.662   2.555
 7586SOL    HW223658   1.691   0.808   2.510
 7587SOL     OW23659   3.943   0.454   0.672
 7587SOL    HW123660   3.900   0.419   0.589
 7587SOL    HW223661   4.030   0.408   0.687
 7588SOL     OW23662   2.400   2.713   4.062
 7588SOL    HW123663   2.322   2.671   4.108
 7588SOL    HW223664   2.483   2.662   4.084
 7589SOL     OW23665   0.627   0.620   2.496
 7589SOL    HW123666   0.575   0.535   2.506
 7589SOL    HW223667   0.647   0.657   2.587
 7590SOL     OW23668   6.942   0.766   6.993
 7590SOL    HW123669   6.893   0.680   6.974
 7590SOL    HW223670   6.877   0.835   0.002
 7591SOL     OW23671   3.846   2.991   4.471
 7591SOL    HW123672   3.920   3.053   4.449
 7591SOL    HW223673   3.821   2.937   4.390
 7592SOL     OW23674   6.863   6.577   4.678
 7592SOL    HW123675   6.953   6.611   4.649
 7592SOL    HW223676   6.868   6.478   4.693
 7593SOL     OW23677   0.868   1.254   5.853
 7593SOL    HW123678   0.911   1.180   5.801
 7593SOL    HW223679   0.854   1.333   5.794
 7594SOL     OW23680   0.301   4.295   0.166
 7594SOL    HW123681   0.400   4.299   0.167
 7594SOL    HW223682   0.270   4.211   0.211
 7595SOL     OW23683   1.177   3.299   6.380
 7595SOL    HW123684   1.140   3.343   6.297
 7595SOL    HW223685   1.272   3.327   6.393
 7596SOL     OW23686   3.283   1.230   5.862
 7596SOL    HW123687   3.343   1.254   5.785
 7596SOL    HW223688   3.317   1.146   5.905
 7597SOL     OW23689   1.334   4.262   1.960
 7597SOL    HW123690   1.367   4.216   1.878
 7597SOL    HW223691   1.329   4.196   2.035
 7598SOL     OW23692   6.414   0.865   2.708
 7598SOL    HW123693   6.353   0.941   2.688
 7598SOL    HW223694   6.508   0.891   2.685
 7599SOL     OW23695   3.444   3.688   1.118
 7599SOL    HW123696   3.398   3.663   1.204
 7599SOL    HW223697   3.392   3.653   1.041
 7600SOL     OW23698   1.571   6.587   4.209
 7600SOL    HW123699   1.621   6.627   4.132
 7600SOL    HW223700   1.631   6.583   4.289
 7601SOL     OW23701   3.123   6.683   2.083
 7601SOL    HW123702   3.065   6.624   2.139
 7601SOL    HW223703   3.146   6.766   2.135
 7602SOL     OW23704   7.000   2.083   0.366
 7602SOL    HW123705   0.044   2.088   0.291
 7602SOL    HW223706   6.951   2.170   0.374
 7603SOL     OW23707   3.669   6.792   5.952
 7603SOL    HW123708   3.583   6.771   5.999
 7603SOL    HW223709   3.727   6.710   5.949
 7604SOL     OW23710   0.479   2.215   5.149
 7604SOL    HW123711   0.447   2.124   5.123
 7604SOL    HW223712   0.470   2.277   5.071
 7605SOL     OW23713   2.403   6.221   6.911
 7605SOL    HW123714   2.367   6.192   6.823
 7605SOL    HW223715   2.418   6.320   6.910
 7606SOL     OW23716   6.553   1.307   3.034
 7606SOL    HW123717   6.475   1.248   3.054
 7606SOL    HW223718   6.638   1.259   3.059
 7607SOL     OW23719   1.689   6.162   5.773
 7607SOL    HW123720   1.779   6.118   5.777
 7607SOL    HW223721   1.687   6.229   5.699
 7608SOL     OW23722   5.664   2.130   6.568
 7608SOL    HW123723   5.664   2.036   6.601
 7608SOL    HW223724   5.574   2.171   6.584
 7609SOL     OW23725   1.667   1.848   5.038
 7609SOL    HW123726   1.588   1.800   5.077
 7609SOL    HW223727   1.636   1.911   4.967
 7610SOL     OW23728   3.920   5.233   4.570
 7610SOL    HW123729   3.890   5.142   4.599
 7610SOL    HW223730   4.007   5.225   4.522
 7611SOL     OW23731   4.839   3.294   0.135
 7611SOL    HW123732   4.938   3.297   0.122
 7611SOL    HW223733   4.815   3.215   0.192
 7612SOL     OW23734   3.886   1.840   3.514
 7612SOL    HW123735   3.812   1.873   3.456
 7612SOL    HW223736   3.848   1.779   3.584
 7613SOL     OW23737   0.886   1.695   1.119
 7613SOL    HW123738   0.823   1.618   1.131
 7613SOL    HW223739   0.913   1.731   1.208
 7614SOL     OW23740   5.190   3.754   0.378
 7614SOL    HW123741   5.197   3.813   0.298
 7614SOL    HW223742   5.094   3.739   0.400
 7615SOL     OW23743   5.779   3.472   5.066
 7615SOL    HW123744   5.711   3.456   4.995
 7615SOL    HW223745   5.736   3.520   5.143
 7616SOL     OW23746   5.882   0.283   3.535
 7616SOL    HW123747   5.840   0.346   3.470
 7616SOL    HW223748   5.889   0.192   3.495
 7617SOL     OW23749   6.496   3.979   3.526
 7617SOL    HW123750   6.553   4.042   3.579
 7617SOL    HW223751   6.400   4.006   3.535
 7618SOL     OW23752   2.127   2.950   0.531
 7618SOL    HW123753   2.163   2.874   0.585
 7618SOL    HW223754   2.028   2.938   0.519
 7619SOL     OW23755   1.382   1.728   4.636
 7619SOL    HW123756   1.336   1.812   4.610
 7619SOL    HW223757   1.463   1.715   4.578
 7620SOL     OW23758   4.085   4.252   0.533
 7620SOL    HW123759   4.037   4.296   0.457
 7620SOL    HW223760   4.098   4.317   0.607
 7621SOL     OW23761   6.186   4.417   6.999
 7621SOL    HW123762   6.168   4.320   7.012
 7621SOL    HW223763   6.123   4.470   0.035
 7622SOL     OW23764   3.198   3.918   1.385
 7622SOL    HW123765   3.126   3.945   1.321
 7622SOL    HW223766   3.168   3.937   1.479
 7623SOL     OW23767   5.009   4.301   1.174
 7623SOL    HW123768   4.993   4.383   1.229
 7623SOL    HW223769   4.974   4.220   1.224
 7624SOL     OW23770   1.191   3.302   2.319
 7624SOL    HW123771   1.286   3.303   2.287
 7624SOL    HW223772   1.150   3.214   2.295
 7625SOL     OW23773   5.399   0.830   1.418
 7625SOL    HW123774   5.399   0.817   1.517
 7625SOL    HW223775   5.373   0.744   1.373
 7626SOL     OW23776   4.491   0.804   5.920
 7626SOL    HW123777   4.436   0.883   5.947
 7626SOL    HW223778   4.542   0.770   5.999
 7627SOL     OW23779   4.051   2.657   6.740
 7627SOL    HW123780   3.981   2.720   6.707
 7627SOL    HW223781   4.009   2.571   6.768
 7628SOL     OW23782   3.307   2.556   0.121
 7628SOL    HW123783   3.246   2.626   0.083
 7628SOL    HW223784   3.259   2.504   0.191
 7629SOL     OW23785   6.148   2.395   2.930
 7629SOL    HW123786   6.057   2.353   2.939
 7629SOL    HW223787   6.156   2.471   2.994
 7630SOL     OW23788   0.720   6.361   4.926
 7630SOL    HW123789   0.723   6.431   4.997
 7630SOL    HW223790   0.652   6.387   4.857
 7631SOL     OW23791   1.006   0.480   5.830
 7631SOL    HW123792   0.907   0.469   5.839
 7631SOL    HW223793   1.043   0.519   5.914
 7632SOL     OW23794   4.283   5.946   0.091
 7632SOL    HW123795   4.367   5.966   0.039
 7632SOL    HW223796   4.304   5.948   0.189
 7633SOL     OW23797   6.642   1.209   1.348
 7633SOL    HW123798   6.566   1.154   1.313
 7633SOL    HW223799   6.678   1.267   1.275
 7634SOL     OW23800   6.833   2.820   6.936
 7634SOL    HW123801   6.776   2.845   7.014
 7634SOL    HW223802   6.871   2.728   6.951
 7635SOL     OW23803   2.364   3.582   5.745
 7635SOL    HW123804   2.279   3.620   5.780
 7635SOL    HW223805   2.375   3.606   5.648
 7636SOL     OW23806   6.827   4.068   4.341
 7636SOL    HW123807   6.891   3.991   4.338
 7636SOL    HW223808   6.845   4.129   4.264
 7637SOL     OW23809   1.368   5.285   4.789
 7637SOL    HW123810   1.460   5.254   4.765
 7637SOL    HW223811   1.369   5.326   4.880
 7638SOL     OW23812   0.401   6.214   1.205
 7638SOL    HW123813   0.441   6.186   1.292
 7638SOL    HW223814   0.464   6.274   1.156
 7639SOL     OW23815   1.527   1.098   0.191
 7639SOL    HW123816   1.582   1.038   0.133
 7639SOL    HW223817   1.571   1.106   0.281
 7640SOL     OW23818   3.169   0.884   0.896
 7640SOL    HW123819   3.146   0.967   0.949
 7640SOL    HW223820   3.111   0.809   0.926
 7641SOL     OW23821   0.257   3.839   3.747
 7641SOL    HW123822   0.217   3.874   3.663
 7641SOL    HW223823   0.352   3.811   3.731
 7642SOL     OW23824   5.747   1.312   3.068
 7642SOL    HW123825   5.695   1.350   2.992
 7642SOL    HW223826   5.715   1.218   3.086
 7643SOL     OW23827   5.253   3.546   3.735
 7643SOL    HW123828   5.215   3.567   3.825
 7643SOL    HW223829   5.193   3.481   3.688
 7644SOL     OW23830   5.537   3.849   1.471
 7644SOL    HW123831   5.582   3.768   1.510
 7644SOL    HW223832   5.599   3.894   1.407
 7645SOL     OW23833   3.561   4.945   6.631
 7645SOL    HW123834   3.519   4.987   6.711
 7645SOL    HW223835   3.557   5.009   6.554
 7646SOL     OW23836   6.005   1.385   0.654
 7646SOL    HW123837   5.965   1.475   0.671
 7646SOL    HW223838   5.954   1.340   0.580
 7647SOL     OW23839   0.091   2.236   4.267
 7647SOL    HW123840   0.125   2.143   4.278
 7647SOL    HW223841   0.064   2.251   4.172
 7648SOL     OW23842   2.480   2.094   2.038
 7648SOL    HW123843   2.529   2.177   2.065
 7648SOL    HW223844   2.424   2.061   2.114
 7649SOL     OW23845   3.811   1.000   6.302
 7649SOL    HW123846   3.862   0.955   6.375
 7649SOL    HW223847   3.799   1.097   6.325
 7650SOL     OW23848   4.077   2.754   0.574
 7650SOL    HW123849   4.160   2.738   0.627
 7650SOL    HW223850   3.998   2.758   0.636
 7651SOL     OW23851   3.285   4.899   6.142
 7651SOL    HW123852   3.197   4.915   6.097
 7651SOL    HW223853   3.290   4.951   6.227
 7652SOL     OW23854   1.330   0.764   4.134
 7652SOL    HW123855   1.303   0.735   4.225
 7652SOL    HW223856   1.385   0.692   4.091
 7653SOL     OW23857   1.796   0.931   6.475
 7653SOL    HW123858   1.734   0.920   6.398
 7653SOL    HW223859   1.758   0.886   6.556
 7654SOL     OW23860   5.966   2.034   6.218
 7654SOL    HW123861   6.047   1.976   6.210
 7654SOL    HW223862   5.955   2.063   6.313
 7655SOL     OW23863   3.622   1.328   3.308
 7655SOL    HW123864   3.556   1.262   3.344
 7655SOL    HW223865   3.575   1.394   3.249
 7656SOL     OW23866   6.818   3.676   6.777
 7656SOL    HW123867   6.730   3.643   6.811
 7656SOL    HW223868   6.803   3.731   6.694
 7657SOL     OW23869   1.235   4.358   4.469
 7657SOL    HW123870   1.275   4.389   4.555
 7657SOL    HW223871   1.145   4.319   4.487
 7658SOL     OW23872   2.349   0.699   1.160
 7658SOL    HW123873   2.396   0.758   1.095
 7658SOL    HW223874   2.327   0.752   1.243
 7659SOL     OW23875   4.523   3.952   5.648
 7659SOL    HW123876   4.508   3.856   5.624
 7659SOL    HW223877   4.446   4.006   5.614
 7660SOL     OW23878   6.842   5.065   5.383
 7660SOL    HW123879   6.761   5.115   5.353
 7660SOL    HW223880   6.823   5.019   5.469
 7661SOL     OW23881   4.057   1.346   5.575
 7661SOL    HW123882   4.082   1.280   5.645
 7661SOL    HW223883   4.002   1.301   5.504
 7662SOL     OW23884   6.685   6.282   1.193
 7662SOL    HW123885   6.716   6.201   1.142
 7662SOL    HW223886   6.763   6.324   1.240
 7663SOL     OW23887   0.336   5.375   5.200
 7663SOL    HW123888   0.431   5.359   5.227
 7663SOL    HW223889   0.285   5.289   5.202
 7664SOL     OW23890   3.761   2.007   2.200
 7664SOL    HW123891   3.731   2.076   2.134
 7664SOL    HW223892   3.826   2.048   2.264
 7665SOL     OW23893   3.547   0.519   5.746
 7665SOL    HW123894   3.558   0.486   5.652
 7665SOL    HW223895   3.452   0.549   5.759
 7666SOL     OW23896   5.277   4.315   3.221
 7666SOL    HW123897   5.242   4.247   3.285
 7666SOL    HW223898   5.242   4.406   3.246
 7667SOL     OW23899   4.039   5.859   2.774
 7667SOL    HW123900   4.031   5.765   2.740
 7667SOL    HW223901   3.960   5.912   2.742
 7668SOL     OW23902   2.399   5.752   0.782
 7668SOL    HW123903   2.331   5.751   0.709
 7668SOL    HW223904   2.390   5.669   0.838
 7669SOL     OW23905   2.393   1.259   6.434
 7669SOL    HW123906   2.455   1.284   6.508
 7669SOL    HW223907   2.393   1.160   6.423
 7670SOL     OW23908   0.775   0.293   1.275
 7670SOL    HW123909   0.841   0.316   1.203
 7670SOL    HW223910   0.728   0.376   1.305
 7671SOL     OW23911   3.299   0.105   0.479
 7671SOL    HW123912   3.256   0.060   0.401
 7671SOL    HW223913   3.232   0.164   0.525
 7672SOL     OW23914   4.866   4.530   2.203
 7672SOL    HW123915   4.937   4.595   2.232
 7672SOL    HW223916   4.907   4.461   2.143
 7673SOL     OW23917   1.742   6.610   4.427
 7673SOL    HW123918   1.781   6.529   4.472
 7673SOL    HW223919   1.735   6.685   4.492
 7674SOL     OW23920   4.924   6.100   4.678
 7674SOL    HW123921   5.000   6.040   4.704
 7674SOL    HW223922   4.880   6.063   4.596
 7675SOL     OW23923   4.888   6.137   3.172
 7675SOL    HW123924   4.826   6.066   3.205
 7675SOL    HW223925   4.871   6.151   3.074
 7676SOL     OW23926   3.580   2.912   5.449
 7676SOL    HW123927   3.586   3.000   5.495
 7676SOL    HW223928   3.585   2.926   5.350
 7677SOL     OW23929   6.449   4.681   0.253
 7677SOL    HW123930   6.431   4.745   0.178
 7677SOL    HW223931   6.380   4.609   0.253
 7678SOL     OW23932   2.281   1.049   5.123
 7678SOL    HW123933   2.227   1.132   5.134
 7678SOL    HW223934   2.371   1.061   5.165
 7679SOL     OW23935   3.503   5.933   5.109
 7679SOL    HW123936   3.506   5.840   5.146
 7679SOL    HW223937   3.584   5.950   5.053
 7680SOL     OW23938   1.873   6.962   4.265
 7680SOL    HW123939   1.946   7.021   4.229
 7680SOL    HW223940   1.909   6.871   4.282
 7681SOL     OW23941   2.567   3.383   6.098
 7681SOL    HW123942   2.586   3.287   6.117
 7681SOL    HW223943   2.480   3.390   6.049
 7682SOL     OW23944   3.037   0.779   2.791
 7682SOL    HW123945   2.995   0.779   2.882
 7682SOL    HW223946   3.136   0.764   2.800
 7683SOL     OW23947   0.311   5.001   4.617
 7683SOL    HW123948   0.224   5.034   4.581
 7683SOL    HW223949   0.362   4.956   4.543
 7684SOL     OW23950   4.811   3.354   1.300
 7684SOL    HW123951   4.849   3.325   1.388
 7684SOL    HW223952   4.853   3.302   1.226
 7685SOL     OW23953   2.671   0.228   0.449
 7685SOL    HW123954   2.611   0.307   0.438
 7685SOL    HW223955   2.635   0.152   0.395
 7686SOL     OW23956   6.509   6.856   5.100
 7686SOL    HW123957   6.579   6.892   5.038
 7686SOL    HW223958   6.445   6.799   5.049
 7687SOL     OW23959   5.513   4.303   6.271
 7687SOL    HW123960   5.601   4.337   6.236
 7687SOL    HW223961   5.455   4.277   6.194
 7688SOL     OW23962   6.945   4.343   6.387
 7688SOL    HW123963   6.986   4.256   6.415
 7688SOL    HW223964   6.855   4.352   6.430
 7689SOL     OW23965   4.298   0.951   1.571
 7689SOL    HW123966   4.276   0.859   1.603
 7689SOL    HW223967   4.392   0.953   1.537
 7690SOL     OW23968   5.729   5.753   1.911
 7690SOL    HW123969   5.666   5.699   1.966
 7690SOL    HW223970   5.815   5.704   1.901
 7691SOL     OW23971   4.969   3.370   3.651
 7691SOL    HW123972   5.004   3.366   3.557
 7691SOL    HW223973   4.911   3.290   3.668
 7692SOL     OW23974   3.157   0.153   2.520
 7692SOL    HW123975   3.102   0.070   2.515
 7692SOL    HW223976   3.097   0.232   2.530
 7693SOL     OW23977   2.709   0.660   1.626
 7693SOL    HW123978   2.675   0.606   1.703
 7693SOL    HW223979   2.640   0.729   1.602
 7694SOL     OW23980   4.982   1.397   5.701
 7694SOL    HW123981   4.899   1.445   5.731
 7694SOL    HW223982   5.062   1.456   5.716
 7695SOL     OW23983   4.446   7.017   3.849
 7695SOL    HW123984   4.451   0.042   3.760
 7695SOL    HW223985   4.537   7.008   3.887
 7696SOL     OW23986   1.991   2.904   5.825
 7696SOL    HW123987   2.034   2.930   5.912
 7696SOL    HW223988   2.054   2.846   5.773
 7697SOL     OW23989   4.953   0.262   3.264
 7697SOL    HW123990   5.005   0.331   3.315
 7697SOL    HW223991   4.936   0.295   3.171
 7698SOL     OW23992   6.041   2.987   1.114
 7698SOL    HW123993   5.941   2.993   1.113
 7698SOL    HW223994   6.073   2.988   1.209
 7699SOL     OW23995   4.777   5.594   5.696
 7699SOL    HW123996   4.752   5.628   5.605
 7699SOL    HW223997   4.781   5.494   5.694
 7700SOL     OW23998   5.247   6.215   2.318
 7700SOL    HW123999   5.300   6.214   2.403
 7700SOL    HW224000   5.257   6.127   2.272
 7701SOL     OW24001   1.297   2.596   6.129
 7701SOL    HW124002   1.276   2.586   6.032
 7701SOL    HW224003   1.394   2.621   6.139
 7702SOL     OW24004   4.628   0.147   4.441
 7702SOL    HW124005   4.718   0.109   4.418
 7702SOL    HW224006   4.624   0.243   4.413
 7703SOL     OW24007   6.769   0.056   5.497
 7703SOL    HW124008   6.745   0.090   5.589
 7703SOL    HW224009   6.705   7.006   5.470
 7704SOL     OW24010   1.004   1.864   4.834
 7704SOL    HW124011   0.923   1.818   4.798
 7704SOL    HW224012   0.978   1.952   4.874
 7705SOL     OW24013   1.534   4.922   6.939
 7705SOL    HW124014   1.482   4.952   6.859
 7705SOL    HW224015   1.569   5.002   6.988
 7706SOL     OW24016   3.542   2.953   2.593
 7706SOL    HW124017   3.571   2.888   2.523
 7706SOL    HW224018   3.446   2.976   2.580
 7707SOL     OW24019   0.051   4.035   0.076
 7707SOL    HW124020   0.066   3.976   7.017
 7707SOL    HW224021   0.113   4.006   0.149
 7708SOL     OW24022   2.132   0.574   4.035
 7708SOL    HW124023   2.226   0.583   4.003
 7708SOL    HW224024   2.104   0.658   4.081
 7709SOL     OW24025   0.161   4.948   1.396
 7709SOL    HW124026   0.132   4.976   1.304
 7709SOL    HW224027   0.086   4.900   1.441
 7710SOL     OW24028   6.972   3.011   1.009
 7710SOL    HW124029   0.022   2.954   1.051
 7710SOL    HW224030   7.015   3.086   0.959
 7711SOL     OW24031   0.147   4.711   4.709
 7711SOL    HW124032   0.102   4.666   4.786
 7711SOL    HW224033   0.246   4.700   4.717
 7712SOL     OW24034   0.193   5.631   5.601
 7712SOL    HW124035   0.167   5.637   5.504
 7712SOL    HW224036   0.287   5.598   5.607
 7713SOL     OW24037   1.287   4.259   0.034
 7713SOL    HW124038   1.360   4.326   0.020
 7713SOL    HW224039   1.302   4.181   6.994
 7714SOL     OW24040   6.673   1.890   4.789
 7714SOL    HW124041   6.634   1.811   4.836
 7714SOL    HW224042   6.689   1.868   4.694
 7715SOL     OW24043   3.862   3.415   5.031
 7715SOL    HW124044   3.775   3.378   4.999
 7715SOL    HW224045   3.845   3.484   5.102
 7716SOL     OW24046   0.838   6.400   6.172
 7716SOL    HW124047   0.777   6.446   6.237
 7716SOL    HW224048   0.820   6.434   6.080
 7717SOL     OW24049   6.835   2.487   6.588
 7717SOL    HW124050   6.863   2.521   6.498
 7717SOL    HW224051   6.886   2.404   6.610
 7718SOL     OW24052   1.003   3.539   2.932
 7718SOL    HW124053   0.994   3.615   2.996
 7718SOL    HW224054   1.033   3.457   2.981
 7719SOL     OW24055   1.667   5.499   4.692
 7719SOL    HW124056   1.606   5.525   4.767
 7719SOL    HW224057   1.671   5.400   4.685
 7720SOL     OW24058   4.697   1.276   6.509
 7720SOL    HW124059   4.782   1.325   6.487
 7720SOL    HW224060   4.715   1.178   6.508
 7721SOL     OW24061   0.154   6.846   2.587
 7721SOL    HW124062   0.202   6.933   2.575
 7721SOL    HW224063   0.066   6.849   2.541
 7722SOL     OW24064   0.902   5.710   3.652
 7722SOL    HW124065   0.986   5.691   3.702
 7722SOL    HW224066   0.823   5.687   3.708
 7723SOL     OW24067   4.924   3.704   0.058
 7723SOL    HW124068   4.957   3.614   0.028
 7723SOL    HW224069   5.002   3.764   0.074
 7724SOL     OW24070   2.131   3.681   1.311
 7724SOL    HW124071   2.118   3.743   1.234
 7724SOL    HW224072   2.044   3.638   1.335
 7725SOL     OW24073   5.308   2.776   4.144
 7725SOL    HW124074   5.256   2.692   4.161
 7725SOL    HW224075   5.403   2.761   4.170
 7726SOL     OW24076   1.382   2.967   6.005
 7726SOL    HW124077   1.453   3.019   6.052
 7726SOL    HW224078   1.366   3.007   5.915
 7727SOL     OW24079   4.177   0.724   2.171
 7727SOL    HW124080   4.226   0.699   2.255
 7727SOL    HW224081   4.092   0.671   2.165
 7728SOL     OW24082   2.032   3.811   4.726
 7728SOL    HW124083   1.965   3.782   4.795
 7728SOL    HW224084   2.058   3.906   4.742
 7729SOL     OW24085   6.485   1.573   3.072
 7729SOL    HW124086   6.512   1.476   3.071
 7729SOL    HW224087   6.560   1.628   3.036
 7730SOL     OW24088   6.440   4.591   4.948
 7730SOL    HW124089   6.494   4.676   4.950
 7730SOL    HW224090   6.347   4.610   4.979
 7731SOL     OW24091   6.729   6.710   6.116
 7731SOL    HW124092   6.695   6.655   6.193
 7731SOL    HW224093   6.822   6.681   6.093
 7732SOL     OW24094   3.755   0.214   6.499
 7732SOL    HW124095   3.775   0.117   6.492
 7732SOL    HW224096   3.663   0.226   6.537
 7733SOL     OW24097   6.421   5.387   1.335
 7733SOL    HW124098   6.501   5.437   1.366
 7733SOL    HW224099   6.365   5.360   1.414
 7734SOL     OW24100   3.451   3.876   4.104
 7734SOL    HW124101   3.437   3.975   4.114
 7734SOL    HW224102   3.455   3.853   4.007
 7735SOL     OW24103   0.600   6.630   1.176
 7735SOL    HW124104   0.580   6.718   1.219
 7735SOL    HW224105   0.603   6.642   1.076
 7736SOL     OW24106   1.152   3.049   6.771
 7736SOL    HW124107   1.169   3.059   6.673
 7736SOL    HW224108   1.076   3.109   6.798
 7737SOL     OW24109   4.332   4.185   0.139
 7737SOL    HW124110   4.411   4.210   0.083
 7737SOL    HW224111   4.267   4.133   0.083
 7738SOL     OW24112   2.258   0.377   4.999
 7738SOL    HW124113   2.239   0.460   4.947
 7738SOL    HW224114   2.298   0.401   5.087
 7739SOL     OW24115   1.887   1.890   0.804
 7739SOL    HW124116   1.890   1.804   0.855
 7739SOL    HW224117   1.939   1.959   0.853
 7740SOL     OW24118   2.038   0.590   4.757
 7740SOL    HW124119   2.055   0.494   4.736
 7740SOL    HW224120   1.939   0.607   4.759
 7741SOL     OW24121   1.047   4.694   6.066
 7741SOL    HW124122   1.141   4.714   6.094
 7741SOL    HW224123   1.047   4.646   5.979
 7742SOL     OW24124   4.609   2.128   4.086
 7742SOL    HW124125   4.530   2.077   4.121
 7742SOL    HW224126   4.581   2.182   4.007
 7743SOL     OW24127   4.216   1.952   5.808
 7743SOL    HW124128   4.185   1.889   5.879
 7743SOL    HW224129   4.150   2.027   5.799
 7744SOL     OW24130   1.350   6.783   4.740
 7744SOL    HW124131   1.298   6.860   4.703
 7744SOL    HW224132   1.445   6.811   4.754
 7745SOL     OW24133   3.209   6.959   0.882
 7745SOL    HW124134   3.290   6.925   0.834
 7745SOL    HW224135   3.141   6.886   0.887
 7746SOL     OW24136   0.802   5.779   1.140
 7746SOL    HW124137   0.813   5.719   1.061
 7746SOL    HW224138   0.752   5.730   1.212
 7747SOL     OW24139   0.589   5.892   0.993
 7747SOL    HW124140   0.620   5.884   0.899
 7747SOL    HW224141   0.668   5.889   1.055
 7748SOL     OW24142   4.621   2.159   6.230
 7748SOL    HW124143   4.702   2.112   6.194
 7748SOL    HW224144   4.634   2.179   6.327
 7749SOL     OW24145   3.678   3.693   3.955
 7749SOL    HW124146   3.629   3.738   3.881
 7749SOL    HW224147   3.632   3.608   3.979
 7750SOL     OW24148   5.495   4.280   5.810
 7750SOL    HW124149   5.469   4.375   5.792
 7750SOL    HW224150   5.459   4.221   5.737
 7751SOL     OW24151   0.238   1.590   4.452
 7751SOL    HW124152   0.245   1.665   4.517
 7751SOL    HW224153   0.148   1.546   4.461
 7752SOL     OW24154   6.224   5.293   5.484
 7752SOL    HW124155   6.296   5.322   5.421
 7752SOL    HW224156   6.260   5.222   5.545
 7753SOL     OW24157   2.885   1.100   5.010
 7753SOL    HW124158   2.821   1.100   4.934
 7753SOL    HW224159   2.844   1.054   5.089
 7754SOL     OW24160   6.497   0.570   1.710
 7754SOL    HW124161   6.494   0.485   1.763
 7754SOL    HW224162   6.528   0.645   1.769
 7755SOL     OW24163   1.087   5.754   5.161
 7755SOL    HW124164   1.152   5.694   5.209
 7755SOL    HW224165   1.013   5.779   5.222
 7756SOL     OW24166   3.873   5.403   2.854
 7756SOL    HW124167   3.942   5.412   2.925
 7756SOL    HW224168   3.897   5.326   2.795
 7757SOL     OW24169   4.213   6.285   5.996
 7757SOL    HW124170   4.195   6.195   5.955
 7757SOL    HW224171   4.226   6.275   6.094
 7758SOL     OW24172   3.338   2.637   6.238
 7758SOL    HW124173   3.285   2.602   6.161
 7758SOL    HW224174   3.296   2.607   6.324
 7759SOL     OW24175   2.251   0.630   4.898
 7759SOL    HW124176   2.166   0.625   4.847
 7759SOL    HW224177   2.238   0.687   4.979
 7760SOL     OW24178   5.114   1.679   3.367
 7760SOL    HW124179   5.185   1.624   3.324
 7760SOL    HW224180   5.155   1.732   3.442
 7761SOL     OW24181   3.843   6.959   6.560
 7761SOL    HW124182   3.918   6.990   6.502
 7761SOL    HW224183   3.870   6.876   6.608
 7762SOL     OW24184   2.362   1.944   0.990
 7762SOL    HW124185   2.383   2.012   0.920
 7762SOL    HW224186   2.302   1.986   1.059
 7763SOL     OW24187   2.094   1.926   1.129
 7763SOL    HW124188   2.056   1.867   1.058
 7763SOL    HW224189   2.118   1.872   1.209
 7764SOL     OW24190   4.085   3.364   2.875
 7764SOL    HW124191   4.115   3.275   2.840
 7764SOL    HW224192   3.993   3.383   2.843
 7765SOL     OW24193   0.037   2.141   2.500
 7765SOL    HW124194   7.003   2.060   2.517
 7765SOL    HW224195   0.036   2.162   2.402
 7766SOL     OW24196   6.987   3.696   0.206
 7766SOL    HW124197   6.969   3.697   0.107
 7766SOL    HW224198   0.054   3.740   0.224
 7767SOL     OW24199   5.601   4.311   5.195
 7767SOL    HW124200   5.603   4.367   5.278
 7767SOL    HW224201   5.580   4.216   5.219
 7768SOL     OW24202   4.142   5.457   1.989
 7768SOL    HW124203   4.051   5.493   1.968
 7768SOL    HW224204   4.142   5.357   1.980
 7769SOL     OW24205   6.208   1.891   1.996
 7769SOL    HW124206   6.296   1.847   2.013
 7769SOL    HW224207   6.214   1.987   2.021
 7770SOL     OW24208   3.759   5.635   1.720
 7770SOL    HW124209   3.691   5.594   1.659
 7770SOL    HW224210   3.770   5.732   1.697
 7771SOL     OW24211   2.181   1.327   5.061
 7771SOL    HW124212   2.192   1.378   5.147
 7771SOL    HW224213   2.122   1.380   4.999
 7772SOL     OW24214   5.324   1.233   4.990
 7772SOL    HW124215   5.386   1.156   5.006
 7772SOL    HW224216   5.277   1.256   5.075
 7773SOL     OW24217   3.896   4.481   5.389
 7773SOL    HW124218   3.885   4.575   5.356
 7773SOL    HW224219   3.844   4.418   5.332
 7774SOL     OW24220   4.549   1.874   6.363
 7774SOL    HW124221   4.623   1.911   6.308
 7774SOL    HW224222   4.585   1.841   6.450
 7775SOL     OW24223   3.184   0.029   1.986
 7775SOL    HW124224   3.188   0.060   2.081
 7775SOL    HW224225   3.268   7.000   1.963
 7776SOL     OW24226   3.498   3.671   0.608
 7776SOL    HW124227   3.568   3.654   0.678
 7776SOL    HW224228   3.542   3.676   0.518
 7777SOL     OW24229   1.544   0.518   6.814
 7777SOL    HW124230   1.585   0.427   6.815
 7777SOL    HW224231   1.543   0.556   6.907
 7778SOL     OW24232   5.723   1.112   1.131
 7778SOL    HW124233   5.628   1.099   1.100
 7778SOL    HW224234   5.762   1.193   1.087
 7779SOL     OW24235   3.275   3.187   6.913
 7779SOL    HW124236   3.361   3.237   6.924
 7779SOL    HW224237   3.234   3.211   6.825
 7780SOL     OW24238   1.375   0.335   4.490
 7780SOL    HW124239   1.318   0.268   4.538
 7780SOL    HW224240   1.444   0.287   4.436
 7781SOL     OW24241   1.473   4.909   5.052
 7781SOL    HW124242   1.539   4.843   5.017
 7781SOL    HW224243   1.518   4.997   5.069
 7782SOL     OW24244   3.377   4.574   6.694
 7782SOL    HW124245   3.354   4.500   6.757
 7782SOL    HW224246   3.462   4.618   6.723
 7783SOL     OW24247   3.125   5.240   6.082
 7783SOL    HW124248   3.052   5.246   6.013
 7783SOL    HW224249   3.214   5.242   6.036
 7784SOL     OW24250   0.079   2.919   6.871
 7784SOL    HW124251   0.095   2.981   6.947
 7784SOL    HW224252   7.008   2.880   6.879
 7785SOL     OW24253   2.448   6.295   4.242
 7785SOL    HW124254   2.429   6.261   4.150
 7785SOL    HW224255   2.478   6.219   4.300
 7786SOL     OW24256   3.088   3.980   4.317
 7786SOL    HW124257   3.124   4.022   4.401
 7786SOL    HW224258   2.989   3.986   4.317
 7787SOL     OW24259   2.741   2.354   5.598
 7787SOL    HW124260   2.791   2.329   5.680
 7787SOL    HW224261   2.792   2.423   5.547
 7788SOL     OW24262   0.323   1.472   0.287
 7788SOL    HW124263   0.399   1.436   0.340
 7788SOL    HW224264   0.237   1.441   0.327
 7789SOL     OW24265   2.023   0.132   1.225
 7789SOL    HW124266   1.958   0.055   1.230
 7789SOL    HW224267   1.979   0.214   1.260
 7790SOL     OW24268   6.187   3.904   2.525
 7790SOL    HW124269   6.164   4.001   2.527
 7790SOL    HW224270   6.279   3.893   2.487
 7791SOL     OW24271   1.580   4.907   4.718
 7791SOL    HW124272   1.572   4.958   4.803
 7791SOL    HW224273   1.499   4.922   4.662
 7792SOL     OW24274   2.712   5.313   5.666
 7792SOL    HW124275   2.778   5.386   5.649
 7792SOL    HW224276   2.698   5.260   5.583
 7793SOL     OW24277   0.803   0.537   6.629
 7793SOL    HW124278   0.842   0.609   6.687
 7793SOL    HW224279   0.790   0.454   6.683
 7794SOL     OW24280   5.232   5.597   3.691
 7794SOL    HW124281   5.165   5.592   3.766
 7794SOL    HW224282   5.277   5.686   3.693
 7795SOL     OW24283   1.956   4.965   5.196
 7795SOL    HW124284   1.971   4.953   5.098
 7795SOL    HW224285   2.043   4.964   5.244
 7796SOL     OW24286   3.996   3.248   3.513
 7796SOL    HW124287   3.952   3.159   3.507
 7796SOL    HW224288   4.057   3.249   3.593
 7797SOL     OW24289   1.207   0.141   2.605
 7797SOL    HW124290   1.168   0.222   2.650
 7797SOL    HW224291   1.138   0.100   2.545
 7798SOL     OW24292   4.290   5.664   6.693
 7798SOL    HW124293   4.311   5.680   6.596
 7798SOL    HW224294   4.322   5.574   6.720
 7799SOL     OW24295   6.363   4.816   1.267
 7799SOL    HW124296   6.456   4.837   1.297
 7799SOL    HW224297   6.339   4.723   1.295
 7800SOL     OW24298   1.007   6.085   2.353
 7800SOL    HW124299   0.959   6.160   2.308
 7800SOL    HW224300   1.007   6.099   2.452
 7801SOL     OW24301   3.977   2.103   6.611
 7801SOL    HW124302   3.899   2.129   6.668
 7801SOL    HW224303   3.995   2.006   6.622
 7802SOL     OW24304   5.950   1.819   1.073
 7802SOL    HW124305   5.995   1.737   1.108
 7802SOL    HW224306   5.876   1.847   1.135
 7803SOL     OW24307   3.747   4.110   5.405
 7803SOL    HW124308   3.810   4.037   5.434
 7803SOL    HW224309   3.729   4.171   5.482
 7804SOL     OW24310   4.996   1.478   6.470
 7804SOL    HW124311   4.925   1.516   6.411
 7804SOL    HW224312   5.078   1.459   6.415
 7805SOL     OW24313   5.065   3.994   1.966
 7805SOL    HW124314   5.119   4.014   2.048
 7805SOL    HW224315   4.977   3.955   1.993
 7806SOL     OW24316   4.457   2.897   6.615
 7806SOL    HW124317   4.502   2.808   6.607
 7806SOL    HW224318   4.494   2.946   6.693
 7807SOL     OW24319   0.215   3.827   6.574
 7807SOL    HW124320   0.208   3.729   6.557
 7807SOL    HW224321   0.150   3.876   6.517
 7808SOL     OW24322   0.526   1.464   4.835
 7808SOL    HW124323   0.576   1.530   4.891
 7808SOL    HW224324   0.507   1.504   4.745
 7809SOL     OW24325   1.473   5.487   5.266
 7809SOL    HW124326   1.459   5.483   5.365
 7809SOL    HW224327   1.570   5.472   5.246
 7810SOL     OW24328   2.703   1.330   0.087
 7810SOL    HW124329   2.615   1.285   0.072
 7810SOL    HW224330   2.749   1.344   7.020
 7811SOL     OW24331   0.118   4.205   4.387
 7811SOL    HW124332   0.144   4.275   4.454
 7811SOL    HW224333   0.034   4.235   4.340
 7812SOL     OW24334   1.356   1.247   3.683
 7812SOL    HW124335   1.302   1.194   3.748
 7812SOL    HW224336   1.295   1.298   3.621
 7813SOL     OW24337   6.290   2.863   0.716
 7813SOL    HW124338   6.360   2.933   0.703
 7813SOL    HW224339   6.251   2.838   0.628
 7814SOL     OW24340   1.359   3.715   3.715
 7814SOL    HW124341   1.363   3.676   3.806
 7814SOL    HW224342   1.264   3.723   3.685
 7815SOL     OW24343   6.321   1.727   5.804
 7815SOL    HW124344   6.373   1.762   5.882
 7815SOL    HW224345   6.259   1.655   5.834
 7816SOL     OW24346   1.161   3.843   5.211
 7816SOL    HW124347   1.255   3.844   5.177
 7816SOL    HW224348   1.099   3.877   5.140
 7817SOL     OW24349   5.145   3.427   5.011
 7817SOL    HW124350   5.206   3.379   4.948
 7817SOL    HW224351   5.136   3.523   4.983
 7818SOL     OW24352   5.290   5.170   2.482
 7818SOL    HW124353   5.360   5.120   2.432
 7818SOL    HW224354   5.284   5.134   2.575
 7819SOL     OW24355   6.966   1.312   1.358
 7819SOL    HW124356   6.975   1.215   1.335
 7819SOL    HW224357   6.890   1.352   1.306
 7820SOL     OW24358   1.838   6.944   6.159
 7820SOL    HW124359   1.884   6.954   6.071
 7820SOL    HW224360   1.789   0.008   6.181
 7821SOL     OW24361   3.015   5.454   1.367
 7821SOL    HW124362   3.016   5.506   1.452
 7821SOL    HW224363   3.021   5.356   1.387
 7822SOL     OW24364   1.671   5.850   5.284
 7822SOL    HW124365   1.617   5.843   5.200
 7822SOL    HW224366   1.769   5.848   5.260
 7823SOL     OW24367   1.544   4.434   4.993
 7823SOL    HW124368   1.560   4.532   4.995
 7823SOL    HW224369   1.598   4.393   4.920
 7824SOL     OW24370   0.442   3.221   5.446
 7824SOL    HW124371   0.391   3.306   5.458
 7824SOL    HW224372   0.533   3.230   5.487
 7825SOL     OW24373   2.832   1.390   6.859
 7825SOL    HW124374   2.821   1.404   6.761
 7825SOL    HW224375   2.896   1.458   6.896
 7826SOL     OW24376   0.727   3.264   5.823
 7826SOL    HW124377   0.733   3.202   5.901
 7826SOL    HW224378   0.631   3.278   5.800
 7827SOL     OW24379   6.334   5.342   5.001
 7827SOL    HW124380   6.426   5.321   4.970
 7827SOL    HW224381   6.290   5.404   4.935
 7828SOL     OW24382   0.824   5.037   0.053
 7828SOL    HW124383   0.807   5.029   6.976
 7828SOL    HW224384   0.912   4.996   0.075
 7829SOL     OW24385   3.776   3.124   0.664
 7829SOL    HW124386   3.870   3.128   0.628
 7829SOL    HW224387   3.742   3.030   0.657
 7830SOL     OW24388   2.948   5.249   3.626
 7830SOL    HW124389   2.873   5.315   3.633
 7830SOL    HW224390   2.928   5.170   3.684
 7831SOL     OW24391   1.567   0.216   6.787
 7831SOL    HW124392   1.475   0.177   6.793
 7831SOL    HW224393   1.608   0.188   6.700
 7832SOL     OW24394   6.037   0.967   4.526
 7832SOL    HW124395   5.990   0.893   4.576
 7832SOL    HW224396   6.067   1.037   4.590
 7833SOL     OW24397   1.393   0.366   3.190
 7833SOL    HW124398   1.426   0.367   3.285
 7833SOL    HW224399   1.447   0.429   3.135
 7834SOL     OW24400   6.283   3.624   5.169
 7834SOL    HW124401   6.330   3.625   5.257
 7834SOL    HW224402   6.269   3.530   5.139
 7835SOL     OW24403   4.259   2.416   5.440
 7835SOL    HW124404   4.233   2.452   5.351
 7835SOL    HW224405   4.237   2.484   5.511
 7836SOL     OW24406   3.252   3.310   3.855
 7836SOL    HW124407   3.226   3.229   3.907
 7836SOL    HW224408   3.170   3.360   3.828
 7837SOL     OW24409   6.944   5.901   0.568
 7837SOL    HW124410   6.874   5.962   0.528
 7837SOL    HW224411   6.906   5.857   0.649
 7838SOL     OW24412   4.641   5.735   2.365
 7838SOL    HW124413   4.582   5.782   2.431
 7838SOL    HW224414   4.602   5.646   2.343
 7839SOL     OW24415   5.903   2.747   4.143
 7839SOL    HW124416   5.921   2.667   4.201
 7839SOL    HW224417   5.840   2.809   4.190
 7840SOL     OW24418   1.963   2.996   4.358
 7840SOL    HW124419   2.052   3.041   4.350
 7840SOL    HW224420   1.900   3.055   4.408
 7841SOL     OW24421   3.800   1.694   6.247
 7841SOL    HW124422   3.816   1.787   6.279
 7841SOL    HW224423   3.788   1.633   6.325
 7842SOL     OW24424   1.581   0.784   1.841
 7842SOL    HW124425   1.647   0.821   1.775
 7842SOL    HW224426   1.529   0.710   1.797
 7843SOL     OW24427   0.028   6.050   3.270
 7843SOL    HW124428   7.002   5.967   3.302
 7843SOL    HW224429   0.107   6.068   3.329
 7844SOL     OW24430   4.042   1.081   2.248
 7844SOL    HW124431   3.960   1.026   2.230
 7844SOL    HW224432   4.095   1.038   2.321
 7845SOL     OW24433   6.736   3.070   0.893
 7845SOL    HW124434   6.832   3.046   0.909
 7845SOL    HW224435   6.681   2.987   0.897
 7846SOL     OW24436   0.903   1.912   0.714
 7846SOL    HW124437   0.994   1.907   0.674
 7846SOL    HW224438   0.910   1.920   0.813
 7847SOL     OW24439   5.167   4.057   5.796
 7847SOL    HW124440   5.123   4.139   5.833
 7847SOL    HW224441   5.164   3.984   5.865
 7848SOL     OW24442   3.815   4.311   1.248
 7848SOL    HW124443   3.815   4.328   1.346
 7848SOL    HW224444   3.723   4.283   1.219
 7849SOL     OW24445   4.526   4.835   6.700
 7849SOL    HW124446   4.476   4.915   6.665
 7849SOL    HW224447   4.624   4.851   6.694
 7850SOL     OW24448   6.927   1.135   4.080
 7850SOL    HW124449   6.872   1.117   4.161
 7850SOL    HW224450   0.003   1.134   4.105
 7851SOL     OW24451   6.994   4.756   1.121
 7851SOL    HW124452   7.015   4.853   1.106
 7851SOL    HW224453   6.922   4.748   1.190
 7852SOL     OW24454   0.958   2.866   6.462
 7852SOL    HW124455   1.040   2.856   6.405
 7852SOL    HW224456   0.978   2.926   6.539
 7853SOL     OW24457   4.129   2.935   1.749
 7853SOL    HW124458   4.052   2.960   1.808
 7853SOL    HW224459   4.202   3.004   1.759
 7854SOL     OW24460   4.709   1.992   6.575
 7854SOL    HW124461   4.793   2.044   6.590
 7854SOL    HW224462   4.636   2.054   6.545
 7855SOL     OW24463   5.258   6.964   4.554
 7855SOL    HW124464   5.203   6.919   4.483
 7855SOL    HW224465   5.241   6.920   4.642
 7856SOL     OW24466   2.010   6.749   4.406
 7856SOL    HW124467   2.103   6.728   4.375
 7856SOL    HW224468   1.958   6.664   4.411
 7857SOL     OW24469   6.002   4.457   1.368
 7857SOL    HW124470   6.065   4.427   1.439
 7857SOL    HW224471   5.907   4.445   1.400
 7858SOL     OW24472   6.735   4.380   6.559
 7858SOL    HW124473   6.640   4.406   6.543
 7858SOL    HW224474   6.792   4.462   6.562
 7859SOL     OW24475   5.206   2.369   0.789
 7859SOL    HW124476   5.196   2.349   0.887
 7859SOL    HW224477   5.115   2.380   0.748
 7860SOL     OW24478   2.732   1.576   4.916
 7860SOL    HW124479   2.821   1.538   4.890
 7860SOL    HW224480   2.744   1.667   4.953
 7861SOL     OW24481   2.160   6.370   0.272
 7861SOL    HW124482   2.098   6.448   0.280
 7861SOL    HW224483   2.255   6.403   0.276
 7862SOL     OW24484   2.120   5.629   6.561
 7862SOL    HW124485   2.166   5.656   6.645
 7862SOL    HW224486   2.098   5.711   6.508
 7863SOL     OW24487   0.680   4.106   3.485
 7863SOL    HW124488   0.676   4.074   3.579
 7863SOL    HW224489   0.599   4.074   3.435
 7864SOL     OW24490   1.954   6.103   5.751
 7864SOL    HW124491   2.008   6.187   5.739
 7864SOL    HW224492   1.978   6.061   5.838
 7865SOL     OW24493   5.362   4.413   3.637
 7865SOL    HW124494   5.420   4.333   3.649
 7865SOL    HW224495   5.377   4.453   3.547
 7866SOL     OW24496   6.927   0.886   6.186
 7866SOL    HW124497   6.990   0.824   6.138
 7866SOL    HW224498   6.952   0.981   6.166
 7867SOL     OW24499   4.569   4.936   3.523
 7867SOL    HW124500   4.599   5.031   3.532
 7867SOL    HW224501   4.572   4.891   3.612
 7868SOL     OW24502   2.891   6.663   1.505
 7868SOL    HW124503   2.881   6.564   1.514
 7868SOL    HW224504   2.932   6.685   1.416
 7869SOL     OW24505   5.958   4.737   6.476
 7869SOL    HW124506   5.894   4.673   6.433
 7869SOL    HW224507   6.039   4.687   6.507
 7870SOL     OW24508   5.528   5.543   4.499
 7870SOL    HW124509   5.428   5.539   4.500
 7870SOL    HW224510   5.565   5.467   4.552
 7871SOL     OW24511   5.092   1.409   0.698
 7871SOL    HW124512   5.069   1.413   0.601
 7871SOL    HW224513   5.036   1.474   0.749
 7872SOL     OW24514   1.411   5.593   3.161
 7872SOL    HW124515   1.472   5.528   3.207
 7872SOL    HW224516   1.348   5.633   3.228
 7873SOL     OW24517   4.930   2.263   6.995
 7873SOL    HW124518   4.884   2.180   6.964
 7873SOL    HW224519   5.016   2.238   0.020
 7874SOL     OW24520   5.824   2.641   0.624
 7874SOL    HW124521   5.880   2.679   0.698
 7874SOL    HW224522   5.764   2.713   0.589
 7875SOL     OW24523   6.065   4.718   5.847
 7875SOL    HW124524   6.052   4.728   5.749
 7875SOL    HW224525   6.120   4.636   5.866
 7876SOL     OW24526   1.356   0.083   3.779
 7876SOL    HW124527   1.428   0.152   3.789
 7876SOL    HW224528   1.320   0.059   3.869
 7877SOL     OW24529   0.073   2.798   3.305
 7877SOL    HW124530   0.106   2.720   3.359
 7877SOL    HW224531   6.994   2.804   3.312
 7878SOL     OW24532   4.440   5.009   3.196
 7878SOL    HW124533   4.377   4.966   3.260
 7878SOL    HW224534   4.428   4.970   3.105
 7879SOL     OW24535   3.318   5.053   3.088
 7879SOL    HW124536   3.270   5.029   3.171
 7879SOL    HW224537   3.366   5.140   3.101
 7880SOL     OW24538   1.188   4.255   2.272
 7880SOL    HW124539   1.124   4.306   2.330
 7880SOL    HW224540   1.136   4.197   2.208
 7881SOL     OW24541   4.792   3.980   3.680
 7881SOL    HW124542   4.845   3.945   3.603
 7881SOL    HW224543   4.824   3.938   3.765
 7882SOL     OW24544   1.060   3.347   0.123
 7882SOL    HW124545   1.138   3.324   0.064
 7882SOL    HW224546   1.017   3.262   0.155
 7883SOL     OW24547   0.688   0.694   5.319
 7883SOL    HW124548   0.616   0.655   5.376
 7883SOL    HW224549   0.650   0.719   5.230
 7884SOL     OW24550   0.735   2.851   4.362
 7884SOL    HW124551   0.774   2.855   4.270
 7884SOL    HW224552   0.790   2.906   4.425
 7885SOL     OW24553   6.635   6.008   6.370
 7885SOL    HW124554   6.556   5.947   6.369
 7885SOL    HW224555   6.632   6.069   6.291
 7886SOL     OW24556   5.140   4.528   0.633
 7886SOL    HW124557   5.106   4.621   0.648
 7886SOL    HW224558   5.239   4.532   0.615
 7887SOL     OW24559   4.776   3.086   6.217
 7887SOL    HW124560   4.825   3.000   6.201
 7887SOL    HW224561   4.695   3.068   6.274
 7888SOL     OW24562   5.301   0.210   4.493
 7888SOL    HW124563   5.267   0.116   4.500
 7888SOL    HW224564   5.401   0.208   4.486
 7889SOL     OW24565   0.809   5.093   2.478
 7889SOL    HW124566   0.752   5.022   2.438
 7889SOL    HW224567   0.792   5.098   2.577
 7890SOL     OW24568   1.915   2.872   2.542
 7890SOL    HW124569   1.862   2.869   2.458
 7890SOL    HW224570   1.911   2.783   2.588
 7891SOL     OW24571   1.068   4.666   2.918
 7891SOL    HW124572   1.105   4.620   2.999
 7891SOL    HW224573   1.143   4.700   2.862
 7892SOL     OW24574   1.978   2.587   5.872
 7892SOL    HW124575   1.952   2.491   5.863
 7892SOL    HW224576   2.051   2.608   5.807
 7893SOL     OW24577   6.332   6.227   1.521
 7893SOL    HW124578   6.240   6.263   1.539
 7893SOL    HW224579   6.341   6.207   1.423
 7894SOL     OW24580   2.986   0.160   1.676
 7894SOL    HW124581   3.029   0.083   1.630
 7894SOL    HW224582   2.938   0.128   1.758
 7895SOL     OW24583   6.703   1.040   3.473
 7895SOL    HW124584   6.777   1.050   3.406
 7895SOL    HW224585   6.737   0.990   3.553
 7896SOL     OW24586   4.319   1.497   6.304
 7896SOL    HW124587   4.276   1.423   6.253
 7896SOL    HW224588   4.257   1.575   6.309
 7897SOL     OW24589   2.627   2.783   6.404
 7897SOL    HW124590   2.598   2.839   6.327
 7897SOL    HW224591   2.570   2.700   6.409
 7898SOL     OW24592   4.387   2.272   3.462
 7898SOL    HW124593   4.450   2.347   3.481
 7898SOL    HW224594   4.439   2.190   3.437
 7899SOL     OW24595   4.648   1.018   2.939
 7899SOL    HW124596   4.732   0.992   2.891
 7899SOL    HW224597   4.596   0.936   2.963
 7900SOL     OW24598   1.832   5.136   0.862
 7900SOL    HW124599   1.931   5.144   0.870
 7900SOL    HW224600   1.792   5.225   0.843
 7901SOL     OW24601   5.689   5.528   0.733
 7901SOL    HW124602   5.641   5.582   0.802
 7901SOL    HW224603   5.698   5.434   0.764
 7902SOL     OW24604   5.218   5.049   6.502
 7902SOL    HW124605   5.177   5.090   6.421
 7902SOL    HW224606   5.317   5.065   6.501
 7903SOL     OW24607   0.118   2.651   0.081
 7903SOL    HW124608   0.096   2.714   0.156
 7903SOL    HW224609   0.217   2.636   0.078
 7904SOL     OW24610   6.563   1.105   2.639
 7904SOL    HW124611   6.606   1.190   2.608
 7904SOL    HW224612   6.613   1.069   2.718
 7905SOL     OW24613   2.552   1.740   0.970
 7905SOL    HW124614   2.622   1.766   0.904
 7905SOL    HW224615   2.491   1.818   0.985
 7906SOL     OW24616   0.161   5.521   0.061
 7906SOL    HW124617   0.149   5.501   6.985
 7906SOL    HW224618   0.074   5.552   0.100
 7907SOL     OW24619   5.685   2.920   2.236
 7907SOL    HW124620   5.702   2.929   2.334
 7907SOL    HW224621   5.586   2.917   2.220
 7908SOL     OW24622   6.280   1.572   2.898
 7908SOL    HW124623   6.194   1.578   2.950
 7908SOL    HW224624   6.357   1.575   2.961
 7909SOL     OW24625   4.765   5.740   5.444
 7909SOL    HW124626   4.822   5.661   5.418
 7909SOL    HW224627   4.817   5.824   5.429
 7910SOL     OW24628   5.696   4.065   6.145
 7910SOL    HW124629   5.751   4.017   6.077
 7910SOL    HW224630   5.740   4.151   6.170
 7911SOL     OW24631   6.982   5.112   0.150
 7911SOL    HW124632   6.920   5.062   0.211
 7911SOL    HW224633   6.960   5.091   0.055
 7912SOL     OW24634   0.244   5.126   5.258
 7912SOL    HW124635   0.230   5.158   5.352
 7912SOL    HW224636   0.230   5.027   5.255
 7913SOL     OW24637   0.895   6.113   6.761
 7913SOL    HW124638   0.895   6.211   6.743
 7913SOL    HW224639   0.842   6.094   6.843
 7914SOL     OW24640   0.297   3.456   2.560
 7914SOL    HW124641   0.333   3.397   2.487
 7914SOL    HW224642   0.232   3.405   2.615
 7915SOL     OW24643   4.578   0.866   2.137
 7915SOL    HW124644   4.592   0.895   2.043
 7915SOL    HW224645   4.514   0.929   2.182
 7916SOL     OW24646   4.503   3.652   5.631
 7916SOL    HW124647   4.584   3.632   5.575
 7916SOL    HW224648   4.429   3.589   5.608
 7917SOL     OW24649   3.598   3.936   3.425
 7917SOL    HW124650   3.502   3.948   3.401
 7917SOL    HW224651   3.646   3.892   3.349
 7918SOL     OW24652   6.127   2.405   2.178
 7918SOL    HW124653   6.119   2.313   2.139
 7918SOL    HW224654   6.223   2.432   2.182
 7919SOL     OW24655   6.113   4.759   1.929
 7919SOL    HW124656   6.057   4.842   1.930
 7919SOL    HW224657   6.180   4.764   2.003
 7920SOL     OW24658   0.552   6.240   2.130
 7920SOL    HW124659   0.521   6.147   2.149
 7920SOL    HW224660   0.596   6.243   2.041
 7921SOL     OW24661   3.342   6.507   2.165
 7921SOL    HW124662   3.264   6.569   2.149
 7921SOL    HW224663   3.425   6.561   2.176
 7922SOL     OW24664   0.904   5.137   6.502
 7922SOL    HW124665   0.807   5.113   6.510
 7922SOL    HW224666   0.950   5.067   6.447
 7923SOL     OW24667   0.707   1.632   3.237
 7923SOL    HW124668   0.782   1.692   3.209
 7923SOL    HW224669   0.622   1.685   3.238
 7924SOL     OW24670   2.522   1.279   3.626
 7924SOL    HW124671   2.621   1.273   3.639
 7924SOL    HW224672   2.503   1.323   3.539
 7925SOL     OW24673   0.314   1.041   6.843
 7925SOL    HW124674   0.404   1.002   6.860
 7925SOL    HW224675   0.321   1.140   6.830
 7926SOL     OW24676   3.461   0.228   1.607
 7926SOL    HW124677   3.384   0.187   1.658
 7926SOL    HW224678   3.427   0.301   1.549
 7927SOL     OW24679   5.039   4.196   3.998
 7927SOL    HW124680   4.949   4.154   4.005
 7927SOL    HW224681   5.035   4.274   3.935
 7928SOL     OW24682   1.039   4.560   0.002
 7928SOL    HW124683   1.099   4.502   0.056
 7928SOL    HW224684   1.042   4.533   6.927
 7929SOL     OW24685   3.993   3.800   4.482
 7929SOL    HW124686   3.896   3.795   4.459
 7929SOL    HW224687   4.040   3.720   4.445
 7930SOL     OW24688   5.158   5.816   4.320
 7930SOL    HW124689   5.091   5.837   4.249
 7930SOL    HW224690   5.224   5.891   4.328
 7931SOL     OW24691   2.209   3.505   0.424
 7931SOL    HW124692   2.113   3.501   0.451
 7931SOL    HW224693   2.267   3.506   0.505
 7932SOL     OW24694   3.238   6.874   1.162
 7932SOL    HW124695   3.267   6.916   1.076
 7932SOL    HW224696   3.319   6.848   1.215
 7933SOL     OW24697   1.312   1.081   6.164
 7933SOL    HW124698   1.346   1.166   6.205
 7933SOL    HW224699   1.269   1.102   6.076
 7934SOL     OW24700   3.922   2.915   5.555
 7934SOL    HW124701   3.998   2.937   5.616
 7934SOL    HW224702   3.948   2.933   5.461
 7935SOL     OW24703   4.647   6.156   1.626
 7935SOL    HW124704   4.703   6.223   1.675
 7935SOL    HW224705   4.705   6.101   1.567
 7936SOL     OW24706   4.430   5.306   3.164
 7936SOL    HW124707   4.473   5.348   3.085
 7936SOL    HW224708   4.431   5.206   3.154
 7937SOL     OW24709   6.247   0.061   6.061
 7937SOL    HW124710   6.178   0.130   6.084
 7937SOL    HW224711   6.270   0.010   6.144
 7938SOL     OW24712   5.488   4.729   4.290
 7938SOL    HW124713   5.517   4.800   4.356
 7938SOL    HW224714   5.397   4.697   4.316
 7939SOL     OW24715   0.585   6.967   4.507
 7939SOL    HW124716   0.517   6.963   4.434
 7939SOL    HW224717   0.632   6.879   4.514
 7940SOL     OW24718   1.790   5.826   0.840
 7940SOL    HW124719   1.873   5.815   0.895
 7940SOL    HW224720   1.726   5.753   0.862
 7941SOL     OW24721   0.387   0.440   0.255
 7941SOL    HW124722   0.360   0.431   0.350
 7941SOL    HW224723   0.306   0.450   0.197
 7942SOL     OW24724   1.340   1.513   1.084
 7942SOL    HW124725   1.335   1.422   1.124
 7942SOL    HW224726   1.263   1.526   1.022
 7943SOL     OW24727   5.663   2.102   0.387
 7943SOL    HW124728   5.627   2.014   0.355
 7943SOL    HW224729   5.763   2.097   0.396
 7944SOL     OW24730   0.034   3.821   2.406
 7944SOL    HW124731   0.060   3.725   2.399
 7944SOL    HW224732   6.964   3.834   2.367
 7945SOL     OW24733   5.621   6.895   1.272
 7945SOL    HW124734   5.532   6.857   1.300
 7945SOL    HW224735   5.656   6.842   1.195
 7946SOL     OW24736   1.550   2.121   6.061
 7946SOL    HW124737   1.625   2.186   6.049
 7946SOL    HW224738   1.559   2.076   6.149
 7947SOL     OW24739   4.607   5.006   6.357
 7947SOL    HW124740   4.661   5.060   6.421
 7947SOL    HW224741   4.610   5.048   6.266
 7948SOL     OW24742   1.176   4.885   6.869
 7948SOL    HW124743   1.234   4.829   6.927
 7948SOL    HW224744   1.217   4.892   6.778
 7949SOL     OW24745   6.431   4.274   4.074
 7949SOL    HW124746   6.349   4.217   4.068
 7949SOL    HW224747   6.407   4.362   4.114
 7950SOL     OW24748   3.404   5.069   4.440
 7950SOL    HW124749   3.419   5.167   4.428
 7950SOL    HW224750   3.457   5.018   4.372
 7951SOL     OW24751   3.256   3.577   0.917
 7951SOL    HW124752   3.166   3.550   0.950
 7951SOL    HW224753   3.257   3.574   0.817
 7952SOL     OW24754   4.897   4.751   7.012
 7952SOL    HW124755   4.944   4.722   0.074
 7952SOL    HW224756   4.825   4.685   6.991
 7953SOL     OW24757   2.195   2.976   3.211
 7953SOL    HW124758   2.176   3.018   3.299
 7953SOL    HW224759   2.165   3.037   3.137
 7954SOL     OW24760   5.215   5.512   4.951
 7954SOL    HW124761   5.204   5.435   5.014
 7954SOL    HW224762   5.310   5.520   4.924
 7955SOL     OW24763   1.397   0.056   6.303
 7955SOL    HW124764   1.332   0.075   6.230
 7955SOL    HW224765   1.456   7.002   6.276
 7956SOL     OW24766   6.056   0.302   3.958
 7956SOL    HW124767   5.961   0.331   3.944
 7956SOL    HW224768   6.074   0.297   4.056
 7957SOL     OW24769   1.455   2.381   1.388
 7957SOL    HW124770   1.439   2.449   1.317
 7957SOL    HW224771   1.545   2.339   1.375
 7958SOL     OW24772   1.741   5.327   2.952
 7958SOL    HW124773   1.669   5.322   3.021
 7958SOL    HW224774   1.746   5.239   2.903
 7959SOL     OW24775   4.604   5.132   0.482
 7959SOL    HW124776   4.594   5.228   0.457
 7959SOL    HW224777   4.701   5.108   0.485
 7960SOL     OW24778   2.308   2.811   0.755
 7960SOL    HW124779   2.257   2.729   0.728
 7960SOL    HW224780   2.247   2.874   0.802
 7961SOL     OW24781   1.826   5.657   0.119
 7961SOL    HW124782   1.890   5.733   0.104
 7961SOL    HW224783   1.801   5.653   0.215
 7962SOL     OW24784   1.307   0.395   2.068
 7962SOL    HW124785   1.364   0.475   2.053
 7962SOL    HW224786   1.307   0.372   2.165
 7963SOL     OW24787   1.114   7.016   4.300
 7963SOL    HW124788   1.173   6.987   4.375
 7963SOL    HW224789   1.027   0.027   4.337
 7964SOL     OW24790   6.329   5.664   3.391
 7964SOL    HW124791   6.341   5.670   3.490
 7964SOL    HW224792   6.234   5.643   3.370
 7965SOL     OW24793   5.944   2.187   0.732
 7965SOL    HW124794   5.879   2.135   0.788
 7965SOL    HW224795   5.894   2.243   0.666
 7966SOL     OW24796   6.570   6.127   3.446
 7966SOL    HW124797   6.653   6.079   3.473
 7966SOL    HW224798   6.531   6.084   3.365
 7967SOL     OW24799   2.934   6.573   2.894
 7967SOL    HW124800   2.866   6.618   2.836
 7967SOL    HW224801   2.893   6.492   2.937
 7968SOL     OW24802   1.950   0.920   1.450
 7968SOL    HW124803   2.009   0.996   1.476
 7968SOL    HW224804   1.980   0.837   1.497
 7969SOL     OW24805   3.177   1.895   3.431
 7969SOL    HW124806   3.113   1.826   3.398
 7969SOL    HW224807   3.235   1.925   3.355
 7970SOL     OW24808   0.632   4.810   3.329
 7970SOL    HW124809   0.543   4.821   3.372
 7970SOL    HW224810   0.701   4.788   3.398
 7971SOL     OW24811   2.361   1.594   2.043
 7971SOL    HW124812   2.338   1.676   2.095
 7971SOL    HW224813   2.450   1.560   2.071
 7972SOL     OW24814   0.928   4.968   1.773
 7972SOL    HW124815   0.845   4.983   1.720
 7972SOL    HW224816   0.949   4.870   1.777
 7973SOL     OW24817   4.723   2.227   2.457
 7973SOL    HW124818   4.637   2.262   2.493
 7973SOL    HW224819   4.708   2.137   2.416
 7974SOL     OW24820   5.486   6.698   4.072
 7974SOL    HW124821   5.464   6.793   4.052
 7974SOL    HW224822   5.545   6.692   4.152
 7975SOL     OW24823   2.712   0.806   2.919
 7975SOL    HW124824   2.627   0.769   2.881
 7975SOL    HW224825   2.690   0.874   2.989
 7976SOL     OW24826   0.349   6.551   6.121
 7976SOL    HW124827   0.375   6.457   6.097
 7976SOL    HW224828   0.260   6.550   6.165
 7977SOL     OW24829   4.946   6.577   1.978
 7977SOL    HW124830   5.042   6.573   2.007
 7977SOL    HW224831   4.907   6.485   1.979
 7978SOL     OW24832   3.864   2.531   6.477
 7978SOL    HW124833   3.871   2.434   6.456
 7978SOL    HW224834   3.866   2.544   6.576
 7979SOL     OW24835   4.542   6.910   4.389
 7979SOL    HW124836   4.602   6.831   4.404
 7979SOL    HW224837   4.596   6.994   4.392
 7980SOL     OW24838   2.708   0.359   2.441
 7980SOL    HW124839   2.702   0.439   2.501
 7980SOL    HW224840   2.623   0.349   2.390
 7981SOL     OW24841   1.421   6.084   3.048
 7981SOL    HW124842   1.326   6.110   3.065
 7981SOL    HW224843   1.427   5.985   3.035
 7982SOL     OW24844   0.175   2.414   0.617
 7982SOL    HW124845   0.173   2.495   0.676
 7982SOL    HW224846   0.158   2.441   0.522
 7983SOL     OW24847   4.733   2.629   2.155
 7983SOL    HW124848   4.723   2.543   2.204
 7983SOL    HW224849   4.731   2.705   2.220
 7984SOL     OW24850   0.456   0.552   0.014
 7984SOL    HW124851   0.444   0.503   0.100
 7984SOL    HW224852   0.379   0.532   6.974
 7985SOL     OW24853   0.468   1.245   0.991
 7985SOL    HW124854   0.552   1.262   1.041
 7985SOL    HW224855   0.392   1.290   1.038
 7986SOL     OW24856   4.153   2.691   0.327
 7986SOL    HW124857   4.105   2.724   0.408
 7986SOL    HW224858   4.090   2.640   0.269
 7987SOL     OW24859   0.491   2.611   4.805
 7987SOL    HW124860   0.520   2.628   4.711
 7987SOL    HW224861   0.397   2.643   4.817
 7988SOL     OW24862   2.267   1.944   5.689
 7988SOL    HW124863   2.238   1.880   5.759
 7988SOL    HW224864   2.329   2.012   5.729
 7989SOL     OW24865   3.694   3.314   5.366
 7989SOL    HW124866   3.767   3.371   5.329
 7989SOL    HW224867   3.632   3.288   5.292
 7990SOL     OW24868   2.384   2.592   4.928
 7990SOL    HW124869   2.463   2.580   4.988
 7990SOL    HW224870   2.319   2.518   4.943
 7991SOL     OW24871   6.992   3.610   4.622
 7991SOL    HW124872   0.070   3.625   4.625
 7991SOL    HW224873   6.970   3.548   4.546
 7992SOL     OW24874   2.169   0.470   0.320
 7992SOL    HW124875   2.132   0.541   0.260
 7992SOL    HW224876   2.110   0.458   0.400
 7993SOL     OW24877   2.126   6.550   6.104
 7993SOL    HW124878   2.048   6.584   6.051
 7993SOL    HW224879   2.198   6.620   6.104
 7994SOL     OW24880   5.841   0.684   4.349
 7994SOL    HW124881   5.775   0.650   4.415
 7994SOL    HW224882   5.930   0.640   4.364
 7995SOL     OW24883   4.198   5.282   3.330
 7995SOL    HW124884   4.138   5.359   3.355
 7995SOL    HW224885   4.275   5.317   3.276
 7996SOL     OW24886   3.993   0.912   5.290
 7996SOL    HW124887   3.949   1.000   5.276
 7996SOL    HW224888   4.033   0.908   5.381
 7997SOL     OW24889   5.474   2.442   2.435
 7997SOL    HW124890   5.433   2.476   2.350
 7997SOL    HW224891   5.469   2.513   2.505
 7998SOL     OW24892   5.935   5.072   6.475
 7998SOL    HW124893   5.865   5.132   6.513
 7998SOL    HW224894   5.958   5.001   6.541
 7999SOL     OW24895   1.426   0.621   5.419
 7999SOL    HW124896   1.376   0.535   5.424
 7999SOL    HW224897   1.455   0.637   5.325
 8000SOL     OW24898   5.544   6.975   5.692
 8000SOL    HW124899   5.613   6.921   5.644
 8000SOL    HW224900   5.454   6.935   5.675
 8001SOL     OW24901   2.418   6.707   1.228
 8001SOL    HW124902   2.385   6.632   1.285
 8001SOL    HW224903   2.454   6.780   1.286
 8002SOL     OW24904   5.413   3.265   5.654
 8002SOL    HW124905   5.324   3.296   5.687
 8002SOL    HW224906   5.484   3.327   5.686
 8003SOL     OW24907   3.802   5.722   3.553
 8003SOL    HW124908   3.783   5.664   3.632
 8003SOL    HW224909   3.723   5.719   3.491
 8004SOL     OW24910   1.264   3.916   2.393
 8004SOL    HW124911   1.231   3.989   2.453
 8004SOL    HW224912   1.187   3.864   2.358
 8005SOL     OW24913   2.868   0.924   1.843
 8005SOL    HW124914   2.873   1.022   1.861
 8005SOL    HW224915   2.813   0.908   1.761
 8006SOL     OW24916   3.502   6.435   0.976
 8006SOL    HW124917   3.412   6.411   1.014
 8006SOL    HW224918   3.498   6.526   0.936
 8007SOL     OW24919   0.868   0.994   4.366
 8007SOL    HW124920   0.791   0.967   4.424
 8007SOL    HW224921   0.888   0.921   4.301
 8008SOL     OW24922   5.963   5.619   0.682
 8008SOL    HW124923   5.951   5.521   0.664
 8008SOL    HW224924   5.890   5.669   0.636
 8009SOL     OW24925   6.981   6.930   3.830
 8009SOL    HW124926   6.898   6.880   3.857
 8009SOL    HW224927   6.959   0.005   3.814
 8010SOL     OW24928   1.819   2.938   6.776
 8010SOL    HW124929   1.759   2.921   6.697
 8010SOL    HW224930   1.912   2.953   6.743
 8011SOL     OW24931   2.294   2.415   0.899
 8011SOL    HW124932   2.233   2.483   0.940
 8011SOL    HW224933   2.385   2.423   0.939
 8012SOL     OW24934   3.068   6.661   3.339
 8012SOL    HW124935   3.137   6.620   3.280
 8012SOL    HW224936   2.979   6.656   3.293
 8013SOL     OW24937   6.256   5.080   5.164
 8013SOL    HW124938   6.278   5.081   5.262
 8013SOL    HW224939   6.297   5.159   5.120
 8014SOL     OW24940   2.124   0.140   6.790
 8014SOL    HW124941   2.130   0.190   6.703
 8014SOL    HW224942   2.082   0.051   6.774
 8015SOL     OW24943   1.454   2.038   6.617
 8015SOL    HW124944   1.529   1.977   6.644
 8015SOL    HW224945   1.463   2.125   6.665
 8016SOL     OW24946   3.545   6.672   1.145
 8016SOL    HW124947   3.512   6.578   1.137
 8016SOL    HW224948   3.496   6.718   1.220
 8017SOL     OW24949   5.943   4.347   4.561
 8017SOL    HW124950   5.991   4.433   4.582
 8017SOL    HW224951   5.846   4.366   4.549
 8018SOL     OW24952   5.415   2.799   4.725
 8018SOL    HW124953   5.491   2.754   4.773
 8018SOL    HW224954   5.362   2.730   4.675
 8019SOL     OW24955   2.534   4.878   1.516
 8019SOL    HW124956   2.596   4.916   1.448
 8019SOL    HW224957   2.569   4.898   1.608
 8020SOL     OW24958   6.024   6.393   6.372
 8020SOL    HW124959   5.966   6.397   6.290
 8020SOL    HW224960   6.038   6.485   6.408
 8021SOL     OW24961   0.770   1.001   1.290
 8021SOL    HW124962   0.859   1.035   1.323
 8021SOL    HW224963   0.784   0.916   1.239
 8022SOL     OW24964   4.371   5.904   3.623
 8022SOL    HW124965   4.306   5.894   3.698
 8022SOL    HW224966   4.463   5.915   3.659
 8023SOL     OW24967   6.068   6.394   3.787
 8023SOL    HW124968   6.003   6.468   3.766
 8023SOL    HW224969   6.160   6.432   3.795
 8024SOL     OW24970   4.889   4.944   4.528
 8024SOL    HW124971   4.875   5.034   4.568
 8024SOL    HW224972   4.808   4.888   4.543
 8025SOL     OW24973   3.164   5.739   0.435
 8025SOL    HW124974   3.245   5.797   0.441
 8025SOL    HW224975   3.184   5.649   0.474
 8026SOL     OW24976   2.126   3.007   0.858
 8026SOL    HW124977   2.029   3.028   0.868
 8026SOL    HW224978   2.172   3.082   0.811
 8027SOL     OW24979   5.125   3.466   5.902
 8027SOL    HW124980   5.118   3.523   5.984
 8027SOL    HW224981   5.073   3.508   5.828
 8028SOL     OW24982   5.312   5.046   0.355
 8028SOL    HW124983   5.404   5.084   0.340
 8028SOL    HW224984   5.261   5.106   0.416
 8029SOL     OW24985   3.095   4.813   0.405
 8029SOL    HW124986   3.068   4.818   0.309
 8029SOL    HW224987   3.025   4.765   0.457
 8030SOL     OW24988   6.161   4.075   6.950
 8030SOL    HW124989   6.167   3.982   6.988
 8030SOL    HW224990   6.094   4.077   6.877
 8031SOL     OW24991   3.722   5.872   1.584
 8031SOL    HW124992   3.630   5.909   1.580
 8031SOL    HW224993   3.777   5.910   1.510
 8032SOL     OW24994   5.160   4.920   5.919
 8032SOL    HW124995   5.132   4.908   6.014
 8032SOL    HW224996   5.187   5.015   5.903
 8033SOL     OW24997   6.235   2.624   0.567
 8033SOL    HW124998   6.332   2.600   0.554
 8033SOL    HW224999   6.198   2.572   0.644
 8034SOL     OW25000   6.094   1.101   5.330
 8034SOL    HW125001   6.164   1.062   5.390
 8034SOL    HW225002   6.104   1.200   5.328
 8035SOL     OW25003   5.428   6.038   6.987
 8035SOL    HW125004   5.443   5.995   6.897
 8035SOL    HW225005   5.509   6.027   0.022
 8036SOL     OW25006   2.076   4.102   1.545
 8036SOL    HW125007   2.165   4.146   1.558
 8036SOL    HW225008   2.084   4.005   1.568
 8037SOL     OW25009   2.027   3.559   1.086
 8037SOL    HW125010   2.024   3.477   1.029
 8037SOL    HW225011   2.100   3.550   1.154
 8038SOL     OW25012   0.030   1.537   3.970
 8038SOL    HW125013   7.001   1.618   3.941
 8038SOL    HW225014   0.003   1.512   4.063
 8039SOL     OW25015   2.904   6.570   4.725
 8039SOL    HW125016   2.821   6.595   4.675
 8039SOL    HW225017   2.951   6.653   4.755
 8040SOL     OW25018   6.522   5.389   0.884
 8040SOL    HW125019   6.498   5.332   0.806
 8040SOL    HW225020   6.498   5.341   0.969
 8041SOL     OW25021   3.927   2.110   0.544
 8041SOL    HW125022   3.891   2.044   0.479
 8041SOL    HW225023   3.968   2.062   0.622
 8042SOL     OW25024   2.467   3.624   1.035
 8042SOL    HW125025   2.465   3.723   1.026
 8042SOL    HW225026   2.562   3.592   1.032
 8043SOL     OW25027   2.283   0.012   1.617
 8043SOL    HW125028   2.382   0.011   1.627
 8043SOL    HW225029   2.258   0.061   1.533
 8044SOL     OW25030   3.285   4.137   1.830
 8044SOL    HW125031   3.307   4.218   1.775
 8044SOL    HW225032   3.245   4.165   1.917
 8045SOL     OW25033   6.309   3.042   3.450
 8045SOL    HW125034   6.287   3.089   3.364
 8045SOL    HW225035   6.249   2.963   3.460
 8046SOL     OW25036   0.055   5.304   5.986
 8046SOL    HW125037   0.001   5.249   5.923
 8046SOL    HW225038   0.122   5.246   6.033
 8047SOL     OW25039   2.930   5.928   4.086
 8047SOL    HW125040   2.936   5.957   3.990
 8047SOL    HW225041   2.874   5.993   4.137
 8048SOL     OW25042   6.498   0.786   5.734
 8048SOL    HW125043   6.596   0.801   5.730
 8048SOL    HW225044   6.471   0.720   5.664
 8049SOL     OW25045   1.593   5.694   0.497
 8049SOL    HW125046   1.655   5.709   0.574
 8049SOL    HW225047   1.501   5.725   0.521
 8050SOL     OW25048   1.275   2.720   1.322
 8050SOL    HW125049   1.198   2.696   1.381
 8050SOL    HW225050   1.310   2.810   1.348
 8051SOL     OW25051   3.721   1.580   3.615
 8051SOL    HW125052   3.694   1.487   3.641
 8051SOL    HW225053   3.744   1.582   3.517
 8052SOL     OW25054   3.177   2.158   3.045
 8052SOL    HW125055   3.096   2.176   3.102
 8052SOL    HW225056   3.161   2.192   2.952
 8053SOL     OW25057   3.955   3.328   1.987
 8053SOL    HW125058   3.972   3.426   1.981
 8053SOL    HW225059   4.043   3.280   1.994
 8054SOL     OW25060   4.111   5.804   4.347
 8054SOL    HW125061   4.054   5.757   4.415
 8054SOL    HW225062   4.184   5.854   4.393
 8055SOL     OW25063   1.210   6.840   4.988
 8055SOL    HW125064   1.276   6.915   5.002
 8055SOL    HW225065   1.230   6.795   4.900
 8056SOL     OW25066   3.909   1.594   3.042
 8056SOL    HW125067   3.858   1.575   3.126
 8056SOL    HW225068   3.847   1.588   2.963
 8057SOL     OW25069   3.971   6.677   3.640
 8057SOL    HW125070   3.884   6.681   3.688
 8057SOL    HW225071   3.983   6.759   3.583
 8058SOL     OW25072   1.951   0.088   3.210
 8058SOL    HW125073   1.907   0.113   3.125
 8058SOL    HW225074   1.895   0.119   3.287
 8059SOL     OW25075   2.514   1.595   4.090
 8059SOL    HW125076   2.452   1.529   4.049
 8059SOL    HW225077   2.606   1.556   4.094
 8060SOL     OW25078   0.271   1.768   5.214
 8060SOL    HW125079   0.189   1.816   5.245
 8060SOL    HW225080   0.284   1.784   5.116
 8061SOL     OW25081   0.160   5.515   1.609
 8061SOL    HW125082   0.095   5.555   1.674
 8061SOL    HW225083   0.125   5.525   1.516
 8062SOL     OW25084   2.164   3.758   2.161
 8062SOL    HW125085   2.085   3.728   2.214
 8062SOL    HW225086   2.243   3.702   2.184
 8063SOL     OW25087   2.999   3.079   7.017
 8063SOL    HW125088   3.090   3.117   0.011
 8063SOL    HW225089   2.996   3.035   6.927
 8064SOL     OW25090   6.387   3.241   6.851
 8064SOL    HW125091   6.291   3.250   6.824
 8064SOL    HW225092   6.399   3.277   6.943
 8065SOL     OW25093   4.261   0.005   6.186
 8065SOL    HW125094   4.358   7.021   6.164
 8065SOL    HW225095   4.208   6.984   6.113
 8066SOL     OW25096   2.324   0.185   1.367
 8066SOL    HW125097   2.300   0.282   1.374
 8066SOL    HW225098   2.423   0.174   1.381
 8067SOL     OW25099   5.120   1.902   1.900
 8067SOL    HW125100   5.198   1.845   1.875
 8067SOL    HW225101   5.071   1.930   1.818
 8068SOL     OW25102   0.323   4.401   3.914
 8068SOL    HW125103   0.249   4.353   3.866
 8068SOL    HW225104   0.402   4.410   3.852
 8069SOL     OW25105   1.951   6.269   2.352
 8069SOL    HW125106   1.985   6.344   2.408
 8069SOL    HW225107   1.889   6.304   2.282
 8070SOL     OW25108   3.852   0.248   2.095
 8070SOL    HW125109   3.927   0.314   2.088
 8070SOL    HW225110   3.768   0.296   2.120
 8071SOL     OW25111   3.555   6.222   0.369
 8071SOL    HW125112   3.519   6.291   0.307
 8071SOL    HW225113   3.637   6.181   0.328
 8072SOL     OW25114   5.472   0.694   2.089
 8072SOL    HW125115   5.532   0.774   2.083
 8072SOL    HW225116   5.407   0.706   2.164
 8073SOL     OW25117   3.943   6.548   5.595
 8073SOL    HW125118   3.978   6.496   5.673
 8073SOL    HW225119   3.844   6.560   5.605
 8074SOL     OW25120   2.971   3.863   0.021
 8074SOL    HW125121   2.924   3.945   0.052
 8074SOL    HW225122   3.033   3.831   0.093
 8075SOL     OW25123   6.068   1.250   2.291
 8075SOL    HW125124   6.056   1.161   2.333
 8075SOL    HW225125   6.037   1.247   2.196
 8076SOL     OW25126   5.180   3.002   6.440
 8076SOL    HW125127   5.092   2.962   6.464
 8076SOL    HW225128   5.248   2.978   6.509
 8077SOL     OW25129   1.231   1.027   0.535
 8077SOL    HW125130   1.323   1.034   0.572
 8077SOL    HW225131   1.164   1.040   0.608
 8078SOL     OW25132   6.076   3.634   0.330
 8078SOL    HW125133   6.129   3.716   0.308
 8078SOL    HW225134   5.980   3.659   0.345
 8079SOL     OW25135   0.198   1.817   1.784
 8079SOL    HW125136   0.173   1.720   1.783
 8079SOL    HW225137   0.296   1.826   1.801
 8080SOL     OW25138   3.779   5.188   0.232
 8080SOL    HW125139   3.694   5.226   0.270
 8080SOL    HW225140   3.769   5.089   0.221
 8081SOL     OW25141   5.932   0.773   5.607
 8081SOL    HW125142   5.990   0.738   5.680
 8081SOL    HW225143   5.853   0.712   5.596
 8082SOL     OW25144   6.279   3.137   4.336
 8082SOL    HW125145   6.187   3.101   4.318
 8082SOL    HW225146   6.317   3.091   4.416
 8083SOL     OW25147   5.563   2.505   4.463
 8083SOL    HW125148   5.555   2.436   4.391
 8083SOL    HW225149   5.595   2.461   4.547
 8084SOL     OW25150   7.015   7.008   1.506
 8084SOL    HW125151   7.020   6.917   1.546
 8084SOL    HW225152   0.085   0.026   1.498
 8085SOL     OW25153   6.597   2.197   0.979
 8085SOL    HW125154   6.558   2.111   0.947
 8085SOL    HW225155   6.678   2.177   1.035
 8086SOL     OW25156   3.313   6.531   5.828
 8086SOL    HW125157   3.379   6.529   5.753
 8086SOL    HW225158   3.279   6.624   5.841
 8087SOL     OW25159   2.779   3.059   1.188
 8087SOL    HW125160   2.766   3.147   1.142
 8087SOL    HW225161   2.695   3.035   1.238
 8088SOL     OW25162   4.545   0.436   2.477
 8088SOL    HW125163   4.560   0.475   2.567
 8088SOL    HW225164   4.497   0.348   2.487
 8089SOL     OW25165   5.879   2.978   0.772
 8089SOL    HW125166   5.822   2.952   0.694
 8089SOL    HW225167   5.922   2.897   0.811
 8090SOL     OW25168   4.645   2.190   4.964
 8090SOL    HW125169   4.661   2.210   5.061
 8090SOL    HW225170   4.582   2.259   4.926
 8091SOL     OW25171   3.312   5.296   5.887
 8091SOL    HW125172   3.298   5.227   5.816
 8091SOL    HW225173   3.391   5.353   5.864
 8092SOL     OW25174   0.397   1.780   3.977
 8092SOL    HW125175   0.328   1.766   3.907
 8092SOL    HW225176   0.361   1.752   4.066
 8093SOL     OW25177   5.638   6.088   1.144
 8093SOL    HW125178   5.681   6.051   1.226
 8093SOL    HW225179   5.558   6.142   1.170
 8094SOL     OW25180   1.433   3.864   4.362
 8094SOL    HW125181   1.424   3.770   4.392
 8094SOL    HW225182   1.499   3.868   4.287
 8095SOL     OW25183   5.796   3.645   4.687
 8095SOL    HW125184   5.823   3.591   4.767
 8095SOL    HW225185   5.878   3.670   4.634
 8096SOL     OW25186   3.933   0.132   0.825
 8096SOL    HW125187   3.846   0.173   0.796
 8096SOL    HW225188   4.006   0.200   0.818
 8097SOL     OW25189   4.522   0.765   4.885
 8097SOL    HW125190   4.477   0.698   4.828
 8097SOL    HW225191   4.466   0.784   4.966
 8098SOL     OW25192   2.770   0.629   4.122
 8098SOL    HW125193   2.811   0.716   4.150
 8098SOL    HW225194   2.831   0.554   4.147
 8099SOL     OW25195   5.315   6.332   5.075
 8099SOL    HW125196   5.294   6.428   5.094
 8099SOL    HW225197   5.241   6.274   5.108
 8100SOL     OW25198   0.917   6.063   1.063
 8100SOL    HW125199   0.879   5.983   1.110
 8100SOL    HW225200   0.987   6.034   0.999
 8101SOL     OW25201   0.792   5.341   2.723
 8101SOL    HW125202   0.801   5.402   2.802
 8101SOL    HW225203   0.862   5.363   2.655
 8102SOL     OW25204   0.187   0.155   6.548
 8102SOL    HW125205   0.256   0.084   6.536
 8102SOL    HW225206   0.159   0.157   6.644
 8103SOL     OW25207   2.765   1.475   2.453
 8103SOL    HW125208   2.806   1.553   2.405
 8103SOL    HW225209   2.794   1.475   2.548
 8104SOL     OW25210   2.845   6.152   6.083
 8104SOL    HW125211   2.757   6.111   6.107
 8104SOL    HW225212   2.919   6.089   6.107
 8105SOL     OW25213   1.559   2.628   2.622
 8105SOL    HW125214   1.643   2.653   2.671
 8105SOL    HW225215   1.483   2.625   2.687
 8106SOL     OW25216   0.519   4.073   4.679
 8106SOL    HW125217   0.587   4.055   4.749
 8106SOL    HW225218   0.564   4.104   4.595
 8107SOL     OW25219   1.537   5.825   6.462
 8107SOL    HW125220   1.488   5.901   6.420
 8107SOL    HW225221   1.632   5.825   6.430
 8108SOL     OW25222   2.054   3.333   4.805
 8108SOL    HW125223   2.097   3.417   4.773
 8108SOL    HW225224   2.118   3.257   4.793
 8109SOL     OW25225   0.856   5.498   5.412
 8109SOL    HW125226   0.916   5.451   5.347
 8109SOL    HW225227   0.873   5.596   5.408
 8110SOL     OW25228   1.530   4.288   0.799
 8110SOL    HW125229   1.466   4.234   0.744
 8110SOL    HW225230   1.604   4.228   0.831
 8111SOL     OW25231   2.521   6.089   4.384
 8111SOL    HW125232   2.488   6.035   4.307
 8111SOL    HW225233   2.581   6.033   4.441
 8112SOL     OW25234   4.034   0.970   4.851
 8112SOL    HW125235   4.005   0.874   4.845
 8112SOL    HW225236   4.074   0.987   4.941
 8113SOL     OW25237   4.087   3.036   5.960
 8113SOL    HW125238   4.033   2.952   5.954
 8113SOL    HW225239   4.028   3.113   5.982
 8114SOL     OW25240   3.150   3.994   1.634
 8114SOL    HW125241   3.115   4.075   1.587
 8114SOL    HW225242   3.206   4.022   1.712
 8115SOL     OW25243   3.978   2.283   0.905
 8115SOL    HW125244   3.918   2.261   0.982
 8115SOL    HW225245   4.018   2.374   0.919
 8116SOL     OW25246   4.970   0.949   5.876
 8116SOL    HW125247   5.037   1.012   5.838
 8116SOL    HW225248   4.878   0.979   5.853
 8117SOL     OW25249   2.355   2.066   5.981
 8117SOL    HW125250   2.416   2.140   6.011
 8117SOL    HW225251   2.410   1.985   5.960
 8118SOL     OW25252   1.090   2.590   4.208
 8118SOL    HW125253   0.997   2.601   4.171
 8118SOL    HW225254   1.092   2.621   4.303
 8119SOL     OW25255   1.491   5.682   2.166
 8119SOL    HW125256   1.415   5.663   2.228
 8119SOL    HW225257   1.523   5.775   2.180
 8120SOL     OW25258   4.674   4.033   1.830
 8120SOL    HW125259   4.595   4.094   1.821
 8120SOL    HW225260   4.646   3.939   1.809
 8121SOL     OW25261   6.585   6.587   3.185
 8121SOL    HW125262   6.567   6.670   3.237
 8121SOL    HW225263   6.649   6.529   3.235
 8122SOL     OW25264   0.735   5.781   1.435
 8122SOL    HW125265   0.645   5.807   1.400
 8122SOL    HW225266   0.804   5.846   1.401
 8123SOL     OW25267   0.437   5.923   0.137
 8123SOL    HW125268   0.412   6.020   0.142
 8123SOL    HW225269   0.462   5.891   0.228
 8124SOL     OW25270   0.788   6.043   3.018
 8124SOL    HW125271   0.866   6.084   2.971
 8124SOL    HW225272   0.734   6.115   3.064
 8125SOL     OW25273   5.943   5.340   2.849
 8125SOL    HW125274   5.967   5.432   2.879
 8125SOL    HW225275   5.845   5.337   2.826
 8126SOL     OW25276   6.136   4.798   2.420
 8126SOL    HW125277   6.179   4.720   2.374
 8126SOL    HW225278   6.043   4.810   2.385
 8127SOL     OW25279   3.728   4.556   1.028
 8127SOL    HW125280   3.657   4.547   0.959
 8127SOL    HW225281   3.757   4.466   1.059
 8128SOL     OW25282   3.950   2.443   5.376
 8128SOL    HW125283   3.884   2.387   5.326
 8128SOL    HW225284   4.013   2.487   5.311
 8129SOL     OW25285   4.859   6.595   6.992
 8129SOL    HW125286   4.909   6.510   6.979
 8129SOL    HW225287   4.775   6.578   0.022
 8130SOL     OW25288   1.139   7.004   0.801
 8130SOL    HW125289   1.193   6.989   0.718
 8130SOL    HW225290   1.143   6.921   0.858
 8131SOL     OW25291   1.407   1.672   0.374
 8131SOL    HW125292   1.386   1.764   0.340
 8131SOL    HW225293   1.431   1.677   0.471
 8132SOL     OW25294   6.024   4.451   2.956
 8132SOL    HW125295   5.996   4.430   3.049
 8132SOL    HW225296   6.071   4.372   2.917
 8133SOL     OW25297   0.880   5.791   1.844
 8133SOL    HW125298   0.819   5.759   1.771
 8133SOL    HW225299   0.967   5.743   1.838
 8134SOL     OW25300   1.894   2.563   2.159
 8134SOL    HW125301   1.904   2.471   2.122
 8134SOL    HW225302   1.943   2.570   2.246
 8135SOL     OW25303   3.911   5.918   2.406
 8135SOL    HW125304   3.885   5.953   2.317
 8135SOL    HW225305   3.997   5.960   2.435
 8136SOL     OW25306   3.112   6.202   1.707
 8136SOL    HW125307   3.205   6.199   1.743
 8136SOL    HW225308   3.114   6.218   1.608
 8137SOL     OW25309   3.179   3.717   4.958
 8137SOL    HW125310   3.248   3.644   4.960
 8137SOL    HW225311   3.103   3.688   4.899
 8138SOL     OW25312   5.194   0.669   3.903
 8138SOL    HW125313   5.201   0.584   3.955
 8138SOL    HW225314   5.097   0.694   3.893
 8139SOL     OW25315   1.759   3.005   4.776
 8139SOL    HW125316   1.822   2.937   4.740
 8139SOL    HW225317   1.669   2.963   4.792
 8140SOL     OW25318   4.615   0.876   0.895
 8140SOL    HW125319   4.515   0.872   0.905
 8140SOL    HW225320   4.638   0.905   0.803
 8141SOL     OW25321   5.755   0.379   5.249
 8141SOL    HW125322   5.679   0.410   5.306
 8141SOL    HW225323   5.798   0.458   5.205
 8142SOL     OW25324   2.427   5.122   1.123
 8142SOL    HW125325   2.517   5.166   1.123
 8142SOL    HW225326   2.356   5.191   1.112
 8143SOL     OW25327   5.682   4.938   0.764
 8143SOL    HW125328   5.592   4.940   0.807
 8143SOL    HW225329   5.674   4.898   0.673
 8144SOL     OW25330   0.488   5.317   0.421
 8144SOL    HW125331   0.575   5.269   0.414
 8144SOL    HW225332   0.423   5.261   0.472
 8145SOL     OW25333   5.465   5.828   6.771
 8145SOL    HW125334   5.542   5.765   6.782
 8145SOL    HW225335   5.459   5.858   6.676
 8146SOL     OW25336   6.159   7.011   4.727
 8146SOL    HW125337   6.098   6.993   4.650
 8146SOL    HW225338   6.254   7.008   4.696
 8147SOL     OW25339   1.634   0.653   6.230
 8147SOL    HW125340   1.576   0.731   6.255
 8147SOL    HW225341   1.730   0.675   6.247
 8148SOL     OW25342   4.704   3.970   0.438
 8148SOL    HW125343   4.795   4.006   0.416
 8148SOL    HW225344   4.687   3.980   0.536
 8149SOL     OW25345   0.807   0.396   5.468
 8149SOL    HW125346   0.732   0.370   5.529
 8149SOL    HW225347   0.771   0.452   5.393
 8150SOL     OW25348   0.603   3.956   0.673
 8150SOL    HW125349   0.581   4.040   0.623
 8150SOL    HW225350   0.621   3.978   0.769
 8151SOL     OW25351   6.594   5.881   2.928
 8151SOL    HW125352   6.527   5.956   2.925
 8151SOL    HW225353   6.658   5.891   2.852
 8152SOL     OW25354   4.829   1.289   2.980
 8152SOL    HW125355   4.816   1.384   2.949
 8152SOL    HW225356   4.827   1.286   3.080
 8153SOL     OW25357   0.154   1.631   2.098
 8153SOL    HW125358   0.134   1.620   2.000
 8153SOL    HW225359   0.217   1.707   2.110
 8154SOL     OW25360   2.049   1.436   2.641
 8154SOL    HW125361   2.022   1.526   2.674
 8154SOL    HW225362   2.045   1.370   2.716
 8155SOL     OW25363   1.658   5.257   3.447
 8155SOL    HW125364   1.664   5.350   3.410
 8155SOL    HW225365   1.562   5.233   3.459
 8156SOL     OW25366   0.746   4.623   0.685
 8156SOL    HW125367   0.703   4.653   0.599
 8156SOL    HW225368   0.705   4.537   0.713
 8157SOL     OW25369   6.643   4.400   4.879
 8157SOL    HW125370   6.641   4.401   4.779
 8157SOL    HW225371   6.562   4.448   4.914
 8158SOL     OW25372   5.955   5.636   6.605
 8158SOL    HW125373   6.030   5.699   6.623
 8158SOL    HW225374   5.960   5.560   6.669
 8159SOL     OW25375   2.790   6.878   4.855
 8159SOL    HW125376   2.753   6.873   4.762
 8159SOL    HW225377   2.883   6.913   4.852
 8160SOL     OW25378   5.717   1.642   2.084
 8160SOL    HW125379   5.803   1.593   2.067
 8160SOL    HW225380   5.702   1.651   2.182
 8161SOL     OW25381   5.778   2.817   1.758
 8161SOL    HW125382   5.846   2.820   1.831
 8161SOL    HW225383   5.820   2.781   1.674
 8162SOL     OW25384   0.584   5.633   5.181
 8162SOL    HW125385   0.489   5.661   5.165
 8162SOL    HW225386   0.589   5.533   5.182
 8163SOL     OW25387   4.264   4.599   5.697
 8163SOL    HW125388   4.208   4.516   5.696
 8163SOL    HW225389   4.242   4.654   5.778
 8164SOL     OW25390   5.597   1.590   0.442
 8164SOL    HW125391   5.525   1.565   0.507
 8164SOL    HW225392   5.583   1.539   0.356
 8165SOL     OW25393   0.533   1.580   6.770
 8165SOL    HW125394   0.589   1.658   6.743
 8165SOL    HW225395   0.567   1.543   6.857
 8166SOL     OW25396   1.132   1.804   5.701
 8166SOL    HW125397   1.155   1.849   5.787
 8166SOL    HW225398   1.193   1.837   5.628
 8167SOL     OW25399   1.934   3.433   3.822
 8167SOL    HW125400   1.836   3.419   3.839
 8167SOL    HW225401   1.965   3.513   3.873
 8168SOL     OW25402   1.778   0.369   2.211
 8168SOL    HW125403   1.852   0.428   2.244
 8168SOL    HW225404   1.697   0.424   2.192
 8169SOL     OW25405   5.063   2.955   0.604
 8169SOL    HW125406   5.112   2.907   0.676
 8169SOL    HW225407   5.010   2.890   0.550
 8170SOL     OW25408   0.189   4.883   2.120
 8170SOL    HW125409   0.101   4.925   2.146
 8170SOL    HW225410   0.253   4.890   2.197
 8171SOL     OW25411   2.381   1.478   0.910
 8171SOL    HW125412   2.406   1.408   0.976
 8171SOL    HW225413   2.436   1.560   0.925
 8172SOL     OW25414   1.448   2.623   0.409
 8172SOL    HW125415   1.410   2.708   0.445
 8172SOL    HW225416   1.377   2.570   0.364
 8173SOL     OW25417   5.935   1.127   1.641
 8173SOL    HW125418   5.930   1.074   1.725
 8173SOL    HW225419   6.023   1.174   1.635
 8174SOL     OW25420   2.761   5.781   3.663
 8174SOL    HW125421   2.852   5.782   3.622
 8174SOL    HW225422   2.769   5.765   3.761
 8175SOL     OW25423   0.371   1.860   5.742
 8175SOL    HW125424   0.311   1.883   5.818
 8175SOL    HW225425   0.356   1.925   5.667
 8176SOL     OW25426   2.405   4.532   0.375
 8176SOL    HW125427   2.390   4.577   0.463
 8176SOL    HW225428   2.431   4.437   0.392
 8177SOL     OW25429   3.441   1.140   4.184
 8177SOL    HW125430   3.531   1.151   4.142
 8177SOL    HW225431   3.372   1.135   4.112
 8178SOL     OW25432   2.915   6.586   1.015
 8178SOL    HW125433   2.953   6.647   1.085
 8178SOL    HW225434   2.817   6.575   1.030
 8179SOL     OW25435   5.668   0.764   3.532
 8179SOL    HW125436   5.767   0.763   3.518
 8179SOL    HW225437   5.634   0.670   3.531
 8180SOL     OW25438   4.961   6.414   0.462
 8180SOL    HW125439   5.048   6.390   0.421
 8180SOL    HW225440   4.927   6.338   0.518
 8181SOL     OW25441   6.996   0.325   6.765
 8181SOL    HW125442   6.996   0.228   6.740
 8181SOL    HW225443   6.913   0.347   6.815
 8182SOL     OW25444   3.337   3.415   4.110
 8182SOL    HW125445   3.378   3.332   4.148
 8182SOL    HW225446   3.289   3.393   4.025
 8183SOL     OW25447   6.912   0.653   5.793
 8183SOL    HW125448   6.954   0.597   5.722
 8183SOL    HW225449   6.896   0.745   5.758
 8184SOL     OW25450   0.038   6.034   6.126
 8184SOL    HW125451   0.033   6.110   6.191
 8184SOL    HW225452   0.009   5.950   6.170
 8185SOL     OW25453   0.147   6.267   5.856
 8185SOL    HW125454   0.216   6.219   5.910
 8185SOL    HW225455   0.124   6.213   5.776
 8186SOL     OW25456   1.906   5.380   6.930
 8186SOL    HW125457   1.918   5.281   6.937
 8186SOL    HW225458   1.971   5.426   6.990
 8187SOL     OW25459   1.293   0.391   5.577
 8187SOL    HW125460   1.272   0.312   5.635
 8187SOL    HW225461   1.216   0.455   5.579
 8188SOL     OW25462   1.483   2.879   2.894
 8188SOL    HW125463   1.461   2.943   2.821
 8188SOL    HW225464   1.434   2.793   2.879
 8189SOL     OW25465   5.657   4.980   3.899
 8189SOL    HW125466   5.673   5.073   3.932
 8189SOL    HW225467   5.661   4.916   3.976
 8190SOL     OW25468   6.505   3.784   2.861
 8190SOL    HW125469   6.529   3.814   2.953
 8190SOL    HW225470   6.519   3.685   2.854
 8191SOL     OW25471   4.141   5.213   1.114
 8191SOL    HW125472   4.152   5.212   1.214
 8191SOL    HW225473   4.046   5.191   1.091
 8192SOL     OW25474   0.804   6.387   3.476
 8192SOL    HW125475   0.727   6.332   3.445
 8192SOL    HW225476   0.775   6.481   3.490
 8193SOL     OW25477   1.017   4.938   4.007
 8193SOL    HW125478   0.996   4.958   4.103
 8193SOL    HW225479   1.089   4.868   4.002
 8194SOL     OW25480   4.643   0.057   1.679
 8194SOL    HW125481   4.581   0.090   1.750
 8194SOL    HW225482   4.608   0.082   1.589
 8195SOL     OW25483   6.065   6.801   3.978
 8195SOL    HW125484   5.991   6.867   3.990
 8195SOL    HW225485   6.101   6.774   4.067
 8196SOL     OW25486   4.808   1.266   1.662
 8196SOL    HW125487   4.853   1.278   1.574
 8196SOL    HW225488   4.728   1.326   1.667
 8197SOL     OW25489   3.585   2.060   2.909
 8197SOL    HW125490   3.580   1.960   2.900
 8197SOL    HW225491   3.539   2.103   2.832
 8198SOL     OW25492   1.426   5.941   1.585
 8198SOL    HW125493   1.453   5.903   1.673
 8198SOL    HW225494   1.361   5.879   1.541
 8199SOL     OW25495   5.347   2.874   0.265
 8199SOL    HW125496   5.394   2.815   0.330
 8199SOL    HW225497   5.387   2.966   0.268
 8200SOL     OW25498   4.390   3.101   0.793
 8200SOL    HW125499   4.396   3.040   0.714
 8200SOL    HW225500   4.396   3.046   0.877
 8201SOL     OW25501   6.330   6.945   5.306
 8201SOL    HW125502   6.386   6.896   5.240
 8201SOL    HW225503   6.236   6.949   5.273
 8202SOL     OW25504   0.842   6.263   2.189
 8202SOL    HW125505   0.864   6.326   2.115
 8202SOL    HW225506   0.743   6.249   2.193
 8203SOL     OW25507   1.773   3.430   1.153
 8203SOL    HW125508   1.818   3.416   1.241
 8203SOL    HW225509   1.817   3.506   1.105
 8204SOL     OW25510   2.942   2.902   0.823
 8204SOL    HW125511   2.896   2.820   0.789
 8204SOL    HW225512   2.882   2.981   0.812
 8205SOL     OW25513   0.935   3.598   0.212
 8205SOL    HW125514   0.840   3.573   0.193
 8205SOL    HW225515   0.994   3.519   0.193
 8206SOL     OW25516   2.921   0.442   0.570
 8206SOL    HW125517   2.913   0.373   0.642
 8206SOL    HW225518   2.945   0.530   0.611
 8207SOL     OW25519   3.818   4.113   4.680
 8207SOL    HW125520   3.896   4.054   4.701
 8207SOL    HW225521   3.842   4.208   4.698
 8208SOL     OW25522   2.030   0.845   0.351
 8208SOL    HW125523   2.042   0.942   0.330
 8208SOL    HW225524   2.083   0.790   0.287
 8209SOL     OW25525   6.341   1.460   4.726
 8209SOL    HW125526   6.384   1.407   4.653
 8209SOL    HW225527   6.364   1.418   4.814
 8210SOL     OW25528   1.887   2.572   6.599
 8210SOL    HW125529   1.942   2.625   6.535
 8210SOL    HW225530   1.790   2.586   6.579
 8211SOL     OW25531   3.732   4.813   1.689
 8211SOL    HW125532   3.661   4.786   1.754
 8211SOL    HW225533   3.795   4.877   1.734
 8212SOL     OW25534   1.629   3.123   3.457
 8212SOL    HW125535   1.684   3.042   3.436
 8212SOL    HW225536   1.678   3.180   3.523
 8213SOL     OW25537   6.659   4.850   1.306
 8213SOL    HW125538   6.657   4.750   1.303
 8213SOL    HW225539   6.628   4.882   1.396
 8214SOL     OW25540   5.729   3.896   3.656
 8214SOL    HW125541   5.645   3.931   3.697
 8214SOL    HW225542   5.726   3.796   3.652
 8215SOL     OW25543   3.481   5.244   2.913
 8215SOL    HW125544   3.455   5.338   2.939
 8215SOL    HW225545   3.402   5.197   2.875
 8216SOL     OW25546   5.527   3.972   3.829
 8216SOL    HW125547   5.476   3.902   3.878
 8216SOL    HW225548   5.511   4.062   3.871
 8217SOL     OW25549   2.334   5.990   0.357
 8217SOL    HW125550   2.355   6.028   0.267
 8217SOL    HW225551   2.264   6.046   0.401
 8218SOL     OW25552   6.114   2.447   6.880
 8218SOL    HW125553   6.163   2.505   6.815
 8218SOL    HW225554   6.088   2.362   6.835
 8219SOL     OW25555   5.582   1.891   6.919
 8219SOL    HW125556   5.538   1.805   6.946
 8219SOL    HW225557   5.583   1.953   6.998
 8220SOL     OW25558   4.130   3.573   1.918
 8220SOL    HW125559   4.112   3.662   1.875
 8220SOL    HW225560   4.228   3.552   1.909
 8221SOL     OW25561   5.206   6.232   3.427
 8221SOL    HW125562   5.187   6.258   3.332
 8221SOL    HW225563   5.304   6.231   3.443
 8222SOL     OW25564   6.491   2.259   1.946
 8222SOL    HW125565   6.456   2.286   1.856
 8222SOL    HW225566   6.586   2.230   1.936
 8223SOL     OW25567   0.578   5.456   5.810
 8223SOL    HW125568   0.537   5.496   5.892
 8223SOL    HW225569   0.660   5.404   5.835
 8224SOL     OW25570   1.570   3.304   4.034
 8224SOL    HW125571   1.576   3.221   3.978
 8224SOL    HW225572   1.642   3.303   4.103
 8225SOL     OW25573   4.716   1.727   0.248
 8225SOL    HW125574   4.662   1.690   0.324
 8225SOL    HW225575   4.806   1.684   0.247
 8226SOL     OW25576   4.445   0.567   0.427
 8226SOL    HW125577   4.472   0.653   0.384
 8226SOL    HW225578   4.475   0.566   0.522
 8227SOL     OW25579   6.128   3.219   2.573
 8227SOL    HW125580   6.045   3.187   2.526
 8227SOL    HW225581   6.128   3.183   2.666
 8228SOL     OW25582   6.625   2.587   4.871
 8228SOL    HW125583   6.693   2.660   4.860
 8228SOL    HW225584   6.583   2.594   4.962
 8229SOL     OW25585   3.612   5.143   0.770
 8229SOL    HW125586   3.586   5.048   0.788
 8229SOL    HW225587   3.691   5.166   0.827
 8230SOL     OW25588   4.889   0.049   4.037
 8230SOL    HW125589   4.947   0.012   4.110
 8230SOL    HW225590   4.924   0.019   3.948
 8231SOL     OW25591   4.341   6.277   0.637
 8231SOL    HW125592   4.284   6.288   0.555
 8231SOL    HW225593   4.286   6.236   0.710
 8232SOL     OW25594   2.879   2.393   6.155
 8232SOL    HW125595   2.822   2.328   6.206
 8232SOL    HW225596   2.837   2.484   6.158
 8233SOL     OW25597   0.191   5.415   6.803
 8233SOL    HW125598   0.283   5.387   6.833
 8233SOL    HW225599   0.189   5.419   6.703
 8234SOL     OW25600   3.726   2.176   6.661
 8234SOL    HW125601   3.690   2.183   6.568
 8234SOL    HW225602   3.679   2.242   6.720
 8235SOL     OW25603   4.540   2.326   0.451
 8235SOL    HW125604   4.475   2.373   0.391
 8235SOL    HW225605   4.552   2.379   0.535
 8236SOL     OW25606   5.307   2.814   1.055
 8236SOL    HW125607   5.262   2.873   1.122
 8236SOL    HW225608   5.392   2.858   1.025
 8237SOL     OW25609   4.331   6.301   5.399
 8237SOL    HW125610   4.365   6.214   5.436
 8237SOL    HW225611   4.408   6.359   5.373
 8238SOL     OW25612   1.624   1.217   6.340
 8238SOL    HW125613   1.703   1.272   6.368
 8238SOL    HW225614   1.571   1.267   6.272
 8239SOL     OW25615   6.831   1.886   6.328
 8239SOL    HW125616   6.765   1.905   6.400
 8239SOL    HW225617   6.910   1.838   6.366
 8240SOL     OW25618   3.626   4.101   3.707
 8240SOL    HW125619   3.644   4.085   3.610
 8240SOL    HW225620   3.565   4.030   3.742
 8241SOL     OW25621   4.764   6.733   1.098
 8241SOL    HW125622   4.736   6.785   1.018
 8241SOL    HW225623   4.849   6.685   1.078
 8242SOL     OW25624   0.841   4.131   5.699
 8242SOL    HW125625   0.901   4.170   5.769
 8242SOL    HW225626   0.771   4.199   5.675
 8243SOL     OW25627   1.040   3.338   4.928
 8243SOL    HW125628   1.009   3.252   4.887
 8243SOL    HW225629   0.964   3.380   4.977
 8244SOL     OW25630   0.924   6.532   4.551
 8244SOL    HW125631   1.006   6.588   4.541
 8244SOL    HW225632   0.950   6.435   4.551
 8245SOL     OW25633   3.691   2.874   0.749
 8245SOL    HW125634   3.661   2.822   0.829
 8245SOL    HW225635   3.656   2.830   0.666
 8246SOL     OW25636   5.184   3.714   5.691
 8246SOL    HW125637   5.225   3.790   5.639
 8246SOL    HW225638   5.108   3.675   5.638
 8247SOL     OW25639   1.186   0.163   1.679
 8247SOL    HW125640   1.263   0.227   1.674
 8247SOL    HW225641   1.111   0.197   1.622
 8248SOL     OW25642   6.823   4.187   3.478
 8248SOL    HW125643   6.876   4.271   3.471
 8248SOL    HW225644   6.853   4.121   3.410
 8249SOL     OW25645   1.765   4.937   3.217
 8249SOL    HW125646   1.829   4.864   3.193
 8249SOL    HW225647   1.742   4.990   3.135
 8250SOL     OW25648   4.091   3.754   2.311
 8250SOL    HW125649   4.069   3.659   2.291
 8250SOL    HW225650   4.102   3.766   2.410
 8251SOL     OW25651   5.735   1.663   4.885
 8251SOL    HW125652   5.744   1.607   4.802
 8251SOL    HW225653   5.801   1.738   4.881
 8252SOL     OW25654   1.690   3.648   4.507
 8252SOL    HW125655   1.598   3.627   4.473
 8252SOL    HW225656   1.683   3.694   4.595
 8253SOL     OW25657   3.307   2.912   5.435
 8253SOL    HW125658   3.404   2.890   5.449
 8253SOL    HW225659   3.289   3.005   5.465
 8254SOL     OW25660   4.008   5.717   3.784
 8254SOL    HW125661   3.946   5.687   3.712
 8254SOL    HW225662   4.049   5.804   3.758
 8255SOL     OW25663   4.558   5.186   3.975
 8255SOL    HW125664   4.615   5.268   3.969
 8255SOL    HW225665   4.586   5.121   3.905
 8256SOL     OW25666   6.828   1.721   3.903
 8256SOL    HW125667   6.788   1.768   3.824
 8256SOL    HW225668   6.755   1.683   3.960
 8257SOL     OW25669   6.880   4.471   3.710
 8257SOL    HW125670   6.934   4.439   3.632
 8257SOL    HW225671   6.785   4.481   3.682
 8258SOL     OW25672   4.634   1.973   0.136
 8258SOL    HW125673   4.545   1.948   0.098
 8258SOL    HW225674   4.676   1.893   0.178
 8259SOL     OW25675   3.854   1.504   1.811
 8259SOL    HW125676   3.936   1.531   1.761
 8259SOL    HW225677   3.795   1.584   1.824
 8260SOL     OW25678   2.795   6.255   0.552
 8260SOL    HW125679   2.845   6.223   0.632
 8260SOL    HW225680   2.703   6.216   0.553
 8261SOL     OW25681   5.715   1.544   1.540
 8261SOL    HW125682   5.632   1.491   1.520
 8261SOL    HW225683   5.772   1.494   1.605
 8262SOL     OW25684   1.009   2.567   0.722
 8262SOL    HW125685   1.048   2.475   0.723
 8262SOL    HW225686   0.924   2.566   0.669
 8263SOL     OW25687   6.278   1.068   0.791
 8263SOL    HW125688   6.363   1.121   0.789
 8263SOL    HW225689   6.293   0.980   0.745
 8264SOL     OW25690   1.757   4.784   2.850
 8264SOL    HW125691   1.837   4.730   2.875
 8264SOL    HW225692   1.726   4.756   2.759
 8265SOL     OW25693   2.056   0.711   1.578
 8265SOL    HW125694   2.006   0.680   1.658
 8265SOL    HW225695   2.136   0.653   1.563
 8266SOL     OW25696   3.445   0.274   3.194
 8266SOL    HW125697   3.365   0.256   3.137
 8266SOL    HW225698   3.503   0.341   3.149
 8267SOL     OW25699   0.597   3.056   0.941
 8267SOL    HW125700   0.667   2.985   0.948
 8267SOL    HW225701   0.607   3.104   0.854
 8268SOL     OW25702   3.114   6.335   5.744
 8268SOL    HW125703   3.182   6.398   5.782
 8268SOL    HW225704   3.159   6.255   5.706
 8269SOL     OW25705   5.910   1.728   1.611
 8269SOL    HW125706   5.858   1.811   1.632
 8269SOL    HW225707   5.847   1.658   1.575
 8270SOL     OW25708   3.684   6.263   3.764
 8270SOL    HW125709   3.641   6.217   3.687
 8270SOL    HW225710   3.625   6.338   3.795
 8271SOL     OW25711   0.015   2.145   2.230
 8271SOL    HW125712   0.079   2.132   2.154
 8271SOL    HW225713   6.952   2.187   2.196
 8272SOL     OW25714   3.404   1.454   3.744
 8272SOL    HW125715   3.500   1.438   3.724
 8272SOL    HW225716   3.394   1.493   3.835
 8273SOL     OW25717   2.336   6.379   0.677
 8273SOL    HW125718   2.248   6.395   0.721
 8273SOL    HW225719   2.377   6.468   0.654
 8274SOL     OW25720   5.671   5.184   3.542
 8274SOL    HW125721   5.626   5.229   3.464
 8274SOL    HW225722   5.609   5.118   3.583
 8275SOL     OW25723   5.115   2.699   6.036
 8275SOL    HW125724   5.157   2.672   6.123
 8275SOL    HW225725   5.067   2.620   5.996
 8276SOL     OW25726   0.439   2.321   3.249
 8276SOL    HW125727   0.530   2.341   3.287
 8276SOL    HW225728   0.432   2.223   3.233
 8277SOL     OW25729   6.273   0.167   6.495
 8277SOL    HW125730   6.229   0.218   6.568
 8277SOL    HW225731   6.205   0.112   6.447
 8278SOL     OW25732   2.066   2.372   0.181
 8278SOL    HW125733   2.020   2.388   0.268
 8278SOL    HW225734   2.097   2.460   0.143
 8279SOL     OW25735   6.890   6.219   3.721
 8279SOL    HW125736   6.829   6.266   3.786
 8279SOL    HW225737   6.982   6.258   3.727
 8280SOL     OW25738   2.523   2.929   5.961
 8280SOL    HW125739   2.476   2.945   5.875
 8280SOL    HW225740   2.622   2.939   5.948
 8281SOL     OW25741   6.141   5.474   2.089
 8281SOL    HW125742   6.070   5.543   2.077
 8281SOL    HW225743   6.197   5.498   2.168
 8282SOL     OW25744   5.259   2.494   5.756
 8282SOL    HW125745   5.318   2.419   5.786
 8282SOL    HW225746   5.172   2.489   5.806
 8283SOL     OW25747   1.654   4.146   5.660
 8283SOL    HW125748   1.618   4.203   5.586
 8283SOL    HW225749   1.663   4.052   5.629
 8284SOL     OW25750   6.829   4.615   2.111
 8284SOL    HW125751   6.923   4.594   2.137
 8284SOL    HW225752   6.767   4.557   2.164
 8285SOL     OW25753   3.573   3.594   4.617
 8285SOL    HW125754   3.647   3.632   4.672
 8285SOL    HW225755   3.581   3.626   4.522
 8286SOL     OW25756   6.328   2.089   6.000
 8286SOL    HW125757   6.313   2.188   6.006
 8286SOL    HW225758   6.265   2.042   6.063
 8287SOL     OW25759   1.077   5.566   4.724
 8287SOL    HW125760   1.050   5.483   4.676
 8287SOL    HW225761   1.023   5.644   4.691
 8288SOL     OW25762   2.559   2.374   2.967
 8288SOL    HW125763   2.608   2.306   2.911
 8288SOL    HW225764   2.529   2.449   2.909
 8289SOL     OW25765   0.370   6.233   6.969
 8289SOL    HW125766   0.427   6.307   7.003
 8289SOL    HW225767   0.339   6.176   0.025
 8290SOL     OW25768   6.561   2.857   0.881
 8290SOL    HW125769   6.623   2.781   0.901
 8290SOL    HW225770   6.473   2.841   0.924
 8291SOL     OW25771   4.647   0.212   0.604
 8291SOL    HW125772   4.578   0.178   0.668
 8291SOL    HW225773   4.704   0.136   0.573
 8292SOL     OW25774   3.280   6.994   6.407
 8292SOL    HW125775   3.189   6.960   6.435
 8292SOL    HW225776   3.332   7.021   6.488
 8293SOL     OW25777   5.420   5.784   5.384
 8293SOL    HW125778   5.395   5.774   5.288
 8293SOL    HW225779   5.506   5.736   5.401
 8294SOL     OW25780   5.547   2.326   0.315
 8294SOL    HW125781   5.448   2.315   0.308
 8294SOL    HW225782   5.588   2.239   0.342
 8295SOL     OW25783   5.402   3.482   0.801
 8295SOL    HW125784   5.487   3.518   0.840
 8295SOL    HW225785   5.380   3.395   0.845
 8296SOL     OW25786   1.658   5.384   0.139
 8296SOL    HW125787   1.621   5.437   0.216
 8296SOL    HW225788   1.607   5.298   0.131
 8297SOL     OW25789   0.746   2.704   2.996
 8297SOL    HW125790   0.810   2.763   3.044
 8297SOL    HW225791   0.795   2.628   2.953
 8298SOL     OW25792   4.327   1.307   1.370
 8298SOL    HW125793   4.273   1.224   1.382
 8298SOL    HW225794   4.414   1.284   1.328
 8299SOL     OW25795   6.460   2.353   1.660
 8299SOL    HW125796   6.532   2.401   1.610
 8299SOL    HW225797   6.416   2.287   1.600
 8300SOL     OW25798   0.725   4.990   3.588
 8300SOL    HW125799   0.804   5.024   3.537
 8300SOL    HW225800   0.754   4.962   3.679
 8301SOL     OW25801   3.695   3.110   6.630
 8301SOL    HW125802   3.596   3.113   6.634
 8301SOL    HW225803   3.733   3.186   6.683
 8302SOL     OW25804   5.992   5.750   6.249
 8302SOL    HW125805   6.012   5.789   6.159
 8302SOL    HW225806   5.896   5.768   6.273
 8303SOL     OW25807   0.351   0.865   5.069
 8303SOL    HW125808   0.364   0.922   5.150
 8303SOL    HW225809   0.282   0.906   5.010
 8304SOL     OW25810   0.583   3.278   6.772
 8304SOL    HW125811   0.642   3.359   6.778
 8304SOL    HW225812   0.638   3.196   6.793
 8305SOL     OW25813   3.378   5.781   3.184
 8305SOL    HW125814   3.317   5.838   3.240
 8305SOL    HW225815   3.393   5.825   3.095
 8306SOL     OW25816   0.834   3.280   4.152
 8306SOL    HW125817   0.880   3.300   4.065
 8306SOL    HW225818   0.841   3.359   4.212
 8307SOL     OW25819   3.468   6.023   1.347
 8307SOL    HW125820   3.532   5.947   1.335
 8307SOL    HW225821   3.519   6.106   1.371
 8308SOL     OW25822   4.040   6.306   2.415
 8308SOL    HW125823   3.994   6.282   2.500
 8308SOL    HW225824   4.037   6.405   2.401
 8309SOL     OW25825   4.937   5.924   2.203
 8309SOL    HW125826   4.943   5.921   2.303
 8309SOL    HW225827   4.842   5.913   2.175
 8310SOL     OW25828   0.049   4.637   0.455
 8310SOL    HW125829   0.038   4.736   0.451
 8310SOL    HW225830   6.993   4.596   0.504
 8311SOL     OW25831   6.676   0.654   0.497
 8311SOL    HW125832   6.694   0.591   0.422
 8311SOL    HW225833   6.595   0.623   0.548
 8312SOL     OW25834   5.808   6.747   1.477
 8312SOL    HW125835   5.767   6.661   1.447
 8312SOL    HW225836   5.814   6.748   1.577
 8313SOL     OW25837   3.557   1.099   2.267
 8313SOL    HW125838   3.596   1.061   2.351
 8313SOL    HW225839   3.581   1.196   2.260
 8314SOL     OW25840   6.251   0.073   3.107
 8314SOL    HW125841   6.246   0.138   3.183
 8314SOL    HW225842   6.331   0.015   3.119
 8315SOL     OW25843   5.004   4.011   6.482
 8315SOL    HW125844   4.954   4.016   6.568
 8315SOL    HW225845   5.054   3.925   6.477
 8316SOL     OW25846   2.173   4.562   6.553
 8316SOL    HW125847   2.074   4.553   6.563
 8316SOL    HW225848   2.203   4.646   6.599
 8317SOL     OW25849   2.042   4.234   2.105
 8317SOL    HW125850   2.013   4.327   2.081
 8317SOL    HW225851   1.963   4.173   2.104
 8318SOL     OW25852   3.805   1.634   5.063
 8318SOL    HW125853   3.734   1.572   5.030
 8318SOL    HW225854   3.891   1.583   5.071
 8319SOL     OW25855   3.591   1.052   4.591
 8319SOL    HW125856   3.499   1.024   4.562
 8319SOL    HW225857   3.605   1.025   4.686
 8320SOL     OW25858   3.346   4.561   1.658
 8320SOL    HW125859   3.378   4.466   1.665
 8320SOL    HW225860   3.399   4.619   1.719
 8321SOL     OW25861   0.555   0.873   1.458
 8321SOL    HW125862   0.475   0.844   1.405
 8321SOL    HW225863   0.620   0.920   1.398
 8322SOL     OW25864   6.272   6.743   0.104
 8322SOL    HW125865   6.221   6.667   0.063
 8322SOL    HW225866   6.337   6.707   0.170
 8323SOL     OW25867   1.282   1.904   1.563
 8323SOL    HW125868   1.194   1.951   1.574
 8323SOL    HW225869   1.304   1.854   1.647
 8324SOL     OW25870   6.736   0.941   2.056
 8324SOL    HW125871   6.765   1.035   2.039
 8324SOL    HW225872   6.814   0.888   2.089
 8325SOL     OW25873   3.485   3.140   3.797
 8325SOL    HW125874   3.561   3.205   3.800
 8325SOL    HW225875   3.400   3.189   3.774
 8326SOL     OW25876   3.873   3.436   5.724
 8326SOL    HW125877   3.897   3.463   5.817
 8326SOL    HW225878   3.869   3.336   5.718
 8327SOL     OW25879   5.218   2.172   5.825
 8327SOL    HW125880   5.314   2.201   5.834
 8327SOL    HW225881   5.183   2.200   5.736
 8328SOL     OW25882   2.616   2.216   5.211
 8328SOL    HW125883   2.660   2.198   5.298
 8328SOL    HW225884   2.528   2.168   5.206
 8329SOL     OW25885   6.965   3.303   5.203
 8329SOL    HW125886   6.896   3.237   5.174
 8329SOL    HW225887   6.920   3.391   5.223
 8330SOL     OW25888   2.738   6.415   6.891
 8330SOL    HW125889   2.665   6.419   6.960
 8330SOL    HW225890   2.716   6.476   6.816
 8331SOL     OW25891   2.420   7.001   0.446
 8331SOL    HW125892   2.467   0.022   0.523
 8331SOL    HW225893   2.365   6.924   0.478
 8332SOL     OW25894   5.026   5.587   2.519
 8332SOL    HW125895   5.083   5.590   2.601
 8332SOL    HW225896   4.931   5.569   2.545
 8333SOL     OW25897   0.519   5.735   6.212
 8333SOL    HW125898   0.524   5.824   6.258
 8333SOL    HW225899   0.430   5.726   6.168
 8334SOL     OW25900   6.332   1.557   3.687
 8334SOL    HW125901   6.311   1.459   3.683
 8334SOL    HW225902   6.425   1.572   3.653
 8335SOL     OW25903   5.397   6.693   5.846
 8335SOL    HW125904   5.353   6.759   5.785
 8335SOL    HW225905   5.387   6.722   5.941
 8336SOL     OW25906   0.332   1.831   2.116
 8336SOL    HW125907   0.309   1.926   2.094
 8336SOL    HW225908   0.381   1.829   2.203
 8337SOL     OW25909   0.582   6.315   2.627
 8337SOL    HW125910   0.630   6.339   2.712
 8337SOL    HW225911   0.640   6.255   2.572
 8338SOL     OW25912   1.718   4.839   1.185
 8338SOL    HW125913   1.741   4.781   1.107
 8338SOL    HW225914   1.619   4.855   1.188
 8339SOL     OW25915   5.815   1.390   2.646
 8339SOL    HW125916   5.869   1.457   2.696
 8339SOL    HW225917   5.777   1.432   2.564
 8340SOL     OW25918   5.003   3.489   0.497
 8340SOL    HW125919   4.939   3.425   0.537
 8340SOL    HW225920   4.965   3.581   0.500
 8341SOL     OW25921   2.515   6.200   0.798
 8341SOL    HW125922   2.457   6.129   0.837
 8341SOL    HW225923   2.459   6.271   0.756
 8342SOL     OW25924   4.243   0.939   0.493
 8342SOL    HW125925   4.270   0.883   0.571
 8342SOL    HW225926   4.146   0.961   0.500
 8343SOL     OW25927   1.378   5.398   6.232
 8343SOL    HW125928   1.372   5.469   6.302
 8343SOL    HW225929   1.381   5.440   6.141
 8344SOL     OW25930   3.918   6.253   5.519
 8344SOL    HW125931   3.968   6.339   5.515
 8344SOL    HW225932   3.923   6.208   5.429
 8345SOL     OW25933   6.458   1.163   2.288
 8345SOL    HW125934   6.377   1.220   2.302
 8345SOL    HW225935   6.538   1.208   2.325
 8346SOL     OW25936   3.227   5.672   1.468
 8346SOL    HW125937   3.229   5.767   1.498
 8346SOL    HW225938   3.201   5.614   1.546
 8347SOL     OW25939   3.271   6.053   4.955
 8347SOL    HW125940   3.354   6.018   4.997
 8347SOL    HW225941   3.294   6.102   4.871
 8348SOL     OW25942   1.632   0.455   0.296
 8348SOL    HW125943   1.695   0.383   0.267
 8348SOL    HW225944   1.566   0.473   0.223
 8349SOL     OW25945   5.329   4.881   1.558
 8349SOL    HW125946   5.274   4.945   1.611
 8349SOL    HW225947   5.409   4.853   1.611
 8350SOL     OW25948   6.174   0.778   4.723
 8350SOL    HW125949   6.075   0.770   4.706
 8350SOL    HW225950   6.223   0.714   4.664
 8351SOL     OW25951   3.533   6.207   2.827
 8351SOL    HW125952   3.530   6.198   2.727
 8351SOL    HW225953   3.558   6.119   2.867
 8352SOL     OW25954   0.188   6.031   2.044
 8352SOL    HW125955   0.276   5.989   2.069
 8352SOL    HW225956   0.200   6.128   2.026
 8353SOL     OW25957   0.142   3.601   2.125
 8353SOL    HW125958   0.133   3.605   2.225
 8353SOL    HW225959   0.233   3.631   2.098
 8354SOL     OW25960   2.522   1.336   6.674
 8354SOL    HW125961   2.517   1.429   6.637
 8354SOL    HW225962   2.585   1.334   6.751
 8355SOL     OW25963   2.838   0.788   0.025
 8355SOL    HW125964   2.778   0.710   0.042
 8355SOL    HW225965   2.847   0.802   6.947
 8356SOL     OW25966   2.242   5.289   0.139
 8356SOL    HW125967   2.305   5.220   0.103
 8356SOL    HW225968   2.184   5.247   0.209
 8357SOL     OW25969   4.730   5.517   4.835
 8357SOL    HW125970   4.731   5.617   4.826
 8357SOL    HW225971   4.778   5.476   4.758
 8358SOL     OW25972   2.117   2.689   5.640
 8358SOL    HW125973   2.215   2.675   5.629
 8358SOL    HW225974   2.081   2.738   5.561
 8359SOL     OW25975   4.465   5.404   4.437
 8359SOL    HW125976   4.513   5.371   4.518
 8359SOL    HW225977   4.512   5.372   4.355
 8360SOL     OW25978   4.456   0.344   3.486
 8360SOL    HW125979   4.456   0.432   3.533
 8360SOL    HW225980   4.454   0.360   3.387
 8361SOL     OW25981   1.897   0.445   2.638
 8361SOL    HW125982   1.857   0.480   2.723
 8361SOL    HW225983   1.909   0.346   2.644
 8362SOL     OW25984   2.659   2.309   0.128
 8362SOL    HW125985   2.754   2.288   0.149
 8362SOL    HW225986   2.649   2.407   0.115
 8363SOL     OW25987   0.161   3.179   0.539
 8363SOL    HW125988   0.212   3.253   0.495
 8363SOL    HW225989   0.066   3.181   0.509
 8364SOL     OW25990   6.428   3.969   3.837
 8364SOL    HW125991   6.462   4.046   3.784
 8364SOL    HW225992   6.358   4.000   3.901
 8365SOL     OW25993   2.348   3.370   5.945
 8365SOL    HW125994   2.285   3.295   5.928
 8365SOL    HW225995   2.353   3.428   5.863
 8366SOL     OW25996   2.834   6.333   2.958
 8366SOL    HW125997   2.735   6.336   2.973
 8366SOL    HW225998   2.864   6.238   2.956
 8367SOL     OW25999   5.795   5.711   3.838
 8367SOL    HW126000   5.826   5.803   3.862
 8367SOL    HW226001   5.829   5.646   3.906
 8368SOL     OW26002   3.186   5.166   6.349
 8368SOL    HW126003   3.153   5.213   6.267
 8368SOL    HW226004   3.285   5.180   6.358
 8369SOL     OW26005   2.156   1.106   0.859
 8369SOL    HW126006   2.106   1.170   0.801
 8369SOL    HW226007   2.223   1.056   0.804
 8370SOL     OW26008   1.368   1.746   6.290
 8370SOL    HW126009   1.338   1.835   6.254
 8370SOL    HW226010   1.322   1.673   6.240
 8371SOL     OW26011   2.066   3.218   0.632
 8371SOL    HW126012   2.069   3.130   0.584
 8371SOL    HW226013   2.155   3.235   0.674
 8372SOL     OW26014   0.453   1.124   2.474
 8372SOL    HW126015   0.522   1.098   2.405
 8372SOL    HW226016   0.416   1.214   2.451
 8373SOL     OW26017   1.705   6.575   5.219
 8373SOL    HW126018   1.702   6.545   5.123
 8373SOL    HW226019   1.799   6.602   5.242
 8374SOL     OW26020   6.423   6.633   6.733
 8374SOL    HW126021   6.435   6.557   6.798
 8374SOL    HW226022   6.477   6.616   6.651
 8375SOL     OW26023   3.503   0.434   6.911
 8375SOL    HW126024   3.477   0.340   6.931
 8375SOL    HW226025   3.561   0.469   6.985
 8376SOL     OW26026   3.127   0.675   4.488
 8376SOL    HW126027   3.131   0.578   4.463
 8376SOL    HW226028   3.206   0.700   4.543
 8377SOL     OW26029   5.617   4.326   0.890
 8377SOL    HW126030   5.580   4.254   0.948
 8377SOL    HW226031   5.576   4.413   0.914
 8378SOL     OW26032   4.697   2.470   3.234
 8378SOL    HW126033   4.674   2.540   3.165
 8378SOL    HW226034   4.676   2.380   3.197
 8379SOL     OW26035   5.992   2.636   2.608
 8379SOL    HW126036   5.998   2.686   2.694
 8379SOL    HW226037   5.977   2.700   2.533
 8380SOL     OW26038   4.610   1.435   3.506
 8380SOL    HW126039   4.520   1.403   3.475
 8380SOL    HW226040   4.656   1.362   3.556
 8381SOL     OW26041   2.019   5.867   4.705
 8381SOL    HW126042   1.991   5.773   4.723
 8381SOL    HW226043   2.081   5.898   4.777
 8382SOL     OW26044   1.218   2.697   2.179
 8382SOL    HW126045   1.178   2.732   2.263
 8382SOL    HW226046   1.146   2.668   2.116
 8383SOL     OW26047   2.643   2.592   6.158
 8383SOL    HW126048   2.622   2.525   6.229
 8383SOL    HW226049   2.572   2.663   6.156
 8384SOL     OW26050   0.580   6.954   2.135
 8384SOL    HW126051   0.659   6.915   2.088
 8384SOL    HW226052   0.496   6.924   2.089
 8385SOL     OW26053   5.171   2.079   1.273
 8385SOL    HW126054   5.254   2.133   1.292
 8385SOL    HW226055   5.182   2.030   1.187
 8386SOL     OW26056   1.015   4.386   2.438
 8386SOL    HW126057   0.941   4.338   2.485
 8386SOL    HW226058   0.981   4.473   2.402
 8387SOL     OW26059   0.610   2.390   1.327
 8387SOL    HW126060   0.544   2.322   1.359
 8387SOL    HW226061   0.650   2.360   1.241
 8388SOL     OW26062   1.861   6.814   2.501
 8388SOL    HW126063   1.766   6.799   2.474
 8388SOL    HW226064   1.920   6.810   2.420
 8389SOL     OW26065   5.023   2.718   2.413
 8389SOL    HW126066   5.039   2.630   2.368
 8389SOL    HW226067   5.051   2.792   2.353
 8390SOL     OW26068   5.375   0.981   5.807
 8390SOL    HW126069   5.474   0.974   5.825
 8390SOL    HW226070   5.330   1.021   5.886
 8391SOL     OW26071   6.561   6.764   1.397
 8391SOL    HW126072   6.471   6.774   1.438
 8391SOL    HW226073   6.553   6.767   1.297
 8392SOL     OW26074   5.316   3.013   5.113
 8392SOL    HW126075   5.382   3.057   5.052
 8392SOL    HW226076   5.239   2.978   5.060
 8393SOL     OW26077   5.312   0.601   1.283
 8393SOL    HW126078   5.221   0.643   1.286
 8393SOL    HW226079   5.323   0.551   1.198
 8394SOL     OW26080   5.404   3.281   1.921
 8394SOL    HW126081   5.481   3.290   1.984
 8394SOL    HW226082   5.354   3.368   1.917
 8395SOL     OW26083   1.973   1.439   4.887
 8395SOL    HW126084   1.975   1.525   4.937
 8395SOL    HW226085   1.901   1.381   4.924
 8396SOL     OW26086   3.839   5.451   4.700
 8396SOL    HW126087   3.886   5.443   4.788
 8396SOL    HW226088   3.874   5.383   4.636
 8397SOL     OW26089   6.082   1.021   2.451
 8397SOL    HW126090   6.168   1.061   2.483
 8397SOL    HW226091   6.022   1.005   2.530
 8398SOL     OW26092   4.397   2.286   6.121
 8398SOL    HW126093   4.411   2.215   6.052
 8398SOL    HW226094   4.480   2.294   6.177
 8399SOL     OW26095   6.506   5.168   0.667
 8399SOL    HW126096   6.506   5.123   0.757
 8399SOL    HW226097   6.474   5.104   0.598
 8400SOL     OW26098   1.511   2.585   4.402
 8400SOL    HW126099   1.539   2.586   4.498
 8400SOL    HW226100   1.463   2.670   4.380
 8401SOL     OW26101   2.838   0.074   6.061
 8401SOL    HW126102   2.862   0.135   5.986
 8401SOL    HW226103   2.921   0.041   6.105
 8402SOL     OW26104   3.476   0.446   6.152
 8402SOL    HW126105   3.568   0.411   6.167
 8402SOL    HW226106   3.474   0.545   6.168
 8403SOL     OW26107   6.055   4.703   4.289
 8403SOL    HW126108   6.018   4.746   4.206
 8403SOL    HW226109   6.036   4.605   4.287
 8404SOL     OW26110   1.181   1.969   6.168
 8404SOL    HW126111   1.201   2.066   6.158
 8404SOL    HW226112   1.083   1.958   6.188
 8405SOL     OW26113   3.781   0.515   5.966
 8405SOL    HW126114   3.867   0.474   5.936
 8405SOL    HW226115   3.712   0.443   5.975
 8406SOL     OW26116   4.857   0.236   5.758
 8406SOL    HW126117   4.804   0.299   5.816
 8406SOL    HW226118   4.937   0.285   5.721
 8407SOL     OW26119   3.423   6.983   4.128
 8407SOL    HW126120   3.445   0.055   4.156
 8407SOL    HW226121   3.467   6.919   4.192
 8408SOL     OW26122   3.746   1.350   1.607
 8408SOL    HW126123   3.777   1.388   1.694
 8408SOL    HW226124   3.665   1.399   1.576
 8409SOL     OW26125   4.268   2.266   2.454
 8409SOL    HW126126   4.354   2.262   2.504
 8409SOL    HW226127   4.191   2.259   2.517
 8410SOL     OW26128   6.687   1.874   1.201
 8410SOL    HW126129   6.641   1.884   1.112
 8410SOL    HW226130   6.726   1.783   1.209
 8411SOL     OW26131   2.055   5.463   0.764
 8411SOL    HW126132   1.989   5.416   0.705
 8411SOL    HW226133   2.099   5.396   0.823
 8412SOL     OW26134   2.170   2.574   6.405
 8412SOL    HW126135   2.237   2.503   6.430
 8412SOL    HW226136   2.182   2.598   6.309
 8413SOL     OW26137   4.375   5.766   5.170
 8413SOL    HW126138   4.338   5.716   5.092
 8413SOL    HW226139   4.474   5.774   5.161
 8414SOL     OW26140   1.557   0.765   1.405
 8414SOL    HW126141   1.552   0.807   1.496
 8414SOL    HW226142   1.611   0.681   1.410
 8415SOL     OW26143   2.360   1.162   5.385
 8415SOL    HW126144   2.392   1.137   5.476
 8415SOL    HW226145   2.275   1.213   5.392
 8416SOL     OW26146   6.636   1.614   5.234
 8416SOL    HW126147   6.598   1.585   5.321
 8416SOL    HW226148   6.683   1.702   5.246
 8417SOL     OW26149   1.454   3.583   5.393
 8417SOL    HW126150   1.464   3.483   5.398
 8417SOL    HW226151   1.524   3.620   5.333
 8418SOL     OW26152   0.566   6.003   2.394
 8418SOL    HW126153   0.634   6.025   2.464
 8418SOL    HW226154   0.576   5.907   2.367
 8419SOL     OW26155   3.984   1.899   4.250
 8419SOL    HW126156   3.896   1.918   4.205
 8419SOL    HW226157   3.985   1.941   4.340
 8420SOL     OW26158   3.421   0.379   2.203
 8420SOL    HW126159   3.346   0.440   2.179
 8420SOL    HW226160   3.461   0.341   2.120
 8421SOL     OW26161   4.736   6.919   6.284
 8421SOL    HW126162   4.744   6.837   6.228
 8421SOL    HW226163   4.708   6.894   6.377
 8422SOL     OW26164   4.870   2.045   3.396
 8422SOL    HW126165   4.885   1.946   3.405
 8422SOL    HW226166   4.820   2.078   3.476
 8423SOL     OW26167   6.819   5.456   6.343
 8423SOL    HW126168   6.868   5.478   6.259
 8423SOL    HW226169   6.885   5.440   6.416
 8424SOL     OW26170   2.587   0.150   4.264
 8424SOL    HW126171   2.590   0.236   4.317
 8424SOL    HW226172   2.544   0.167   4.176
 8425SOL     OW26173   3.786   4.031   2.613
 8425SOL    HW126174   3.767   3.983   2.527
 8425SOL    HW226175   3.878   4.006   2.646
 8426SOL     OW26176   3.919   3.047   2.020
 8426SOL    HW126177   3.903   3.145   2.005
 8426SOL    HW226178   3.976   3.035   2.102
 8427SOL     OW26179   3.408   3.605   3.775
 8427SOL    HW126180   3.452   3.542   3.839
 8427SOL    HW226181   3.457   3.603   3.688
 8428SOL     OW26182   6.634   6.902   0.941
 8428SOL    HW126183   6.625   6.821   0.998
 8428SOL    HW226184   6.730   6.916   0.917
 8429SOL     OW26185   2.496   5.848   5.606
 8429SOL    HW126186   2.416   5.905   5.622
 8429SOL    HW226187   2.467   5.760   5.568
 8430SOL     OW26188   4.355   6.719   5.051
 8430SOL    HW126189   4.286   6.747   5.118
 8430SOL    HW226190   4.377   6.796   4.991
 8431SOL     OW26191   2.720   3.599   6.193
 8431SOL    HW126192   2.665   3.519   6.170
 8431SOL    HW226193   2.691   3.635   6.281
 8432SOL     OW26194   6.698   4.816   6.198
 8432SOL    HW126195   6.719   4.837   6.294
 8432SOL    HW226196   6.606   4.779   6.191
 8433SOL     OW26197   5.521   2.612   1.106
 8433SOL    HW126198   5.452   2.685   1.100
 8433SOL    HW226199   5.497   2.539   1.042
 8434SOL     OW26200   2.232   6.066   5.393
 8434SOL    HW126201   2.224   6.038   5.488
 8434SOL    HW226202   2.156   6.028   5.340
 8435SOL     OW26203   4.915   1.265   3.267
 8435SOL    HW126204   4.905   1.301   3.360
 8435SOL    HW226205   4.989   1.198   3.265
 8436SOL     OW26206   2.288   5.647   2.213
 8436SOL    HW126207   2.224   5.623   2.286
 8436SOL    HW226208   2.339   5.728   2.240
 8437SOL     OW26209   1.399   4.413   2.257
 8437SOL    HW126210   1.315   4.360   2.266
 8437SOL    HW226211   1.403   4.455   2.167
 8438SOL     OW26212   1.016   4.059   2.161
 8438SOL    HW126213   0.959   4.010   2.227
 8438SOL    HW226214   1.020   4.007   2.075
 8439SOL     OW26215   6.057   5.106   3.291
 8439SOL    HW126216   6.005   5.160   3.224
 8439SOL    HW226217   6.077   5.163   3.371
 8440SOL     OW26218   2.255   1.156   3.135
 8440SOL    HW126219   2.187   1.220   3.171
 8440SOL    HW226220   2.311   1.122   3.210
 8441SOL     OW26221   6.092   1.113   4.733
 8441SOL    HW126222   6.053   1.096   4.824
 8441SOL    HW226223   6.191   1.119   4.740
 8442SOL     OW26224   3.231   1.528   6.708
 8442SOL    HW126225   3.184   1.609   6.744
 8442SOL    HW226226   3.191   1.446   6.747
 8443SOL     OW26227   0.921   4.037   3.346
 8443SOL    HW126228   0.993   3.991   3.398
 8443SOL    HW226229   0.834   4.028   3.395
 8444SOL     OW26230   5.237   5.043   4.623
 8444SOL    HW126231   5.255   4.996   4.536
 8444SOL    HW226232   5.187   4.982   4.684
 8445SOL     OW26233   4.792   6.160   6.929
 8445SOL    HW126234   4.715   6.174   6.866
 8445SOL    HW226235   4.758   6.160   0.002
 8446SOL     OW26236   0.110   5.605   4.832
 8446SOL    HW126237   0.076   5.512   4.823
 8446SOL    HW226238   0.135   5.640   4.742
 8447SOL     OW26239   4.224   2.243   3.243
 8447SOL    HW126240   4.146   2.246   3.306
 8447SOL    HW226241   4.303   2.285   3.288
 8448SOL     OW26242   3.598   6.460   2.934
 8448SOL    HW126243   3.601   6.377   2.878
 8448SOL    HW226244   3.528   6.449   3.005
 8449SOL     OW26245   2.331   2.083   2.955
 8449SOL    HW126246   2.264   2.076   3.028
 8449SOL    HW226247   2.304   2.025   2.878
 8450SOL     OW26248   0.114   1.222   0.122
 8450SOL    HW126249   0.208   1.245   0.098
 8450SOL    HW226250   0.058   1.305   0.119
 8451SOL     OW26251   4.537   2.499   1.005
 8451SOL    HW126252   4.454   2.449   1.028
 8451SOL    HW226253   4.548   2.576   1.067
 8452SOL     OW26254   4.980   2.102   5.468
 8452SOL    HW126255   4.934   2.110   5.556
 8452SOL    HW226256   5.049   2.031   5.472
 8453SOL     OW26257   0.268   6.208   0.800
 8453SOL    HW126258   0.285   6.153   0.882
 8453SOL    HW226259   0.259   6.148   0.721
 8454SOL     OW26260   6.544   4.127   6.786
 8454SOL    HW126261   6.602   4.191   6.836
 8454SOL    HW226262   6.600   4.062   6.736
 8455SOL     OW26263   0.215   0.935   2.863
 8455SOL    HW126264   0.193   1.024   2.904
 8455SOL    HW226265   0.275   0.949   2.784
 8456SOL     OW26266   6.244   0.768   3.321
 8456SOL    HW126267   6.337   0.798   3.345
 8456SOL    HW226268   6.178   0.817   3.378
 8457SOL     OW26269   6.626   0.129   5.272
 8457SOL    HW126270   6.658   0.142   5.366
 8457SOL    HW226271   6.593   0.036   5.260
 8458SOL     OW26272   0.047   6.464   6.784
 8458SOL    HW126273   6.971   6.471   6.806
 8458SOL    HW226274   0.088   6.555   6.781
 8459SOL     OW26275   1.354   5.536   3.649
 8459SOL    HW126276   1.453   5.519   3.642
 8459SOL    HW226277   1.339   5.631   3.676
 8460SOL     OW26278   3.310   4.086   3.331
 8460SOL    HW126279   3.328   4.135   3.245
 8460SOL    HW226280   3.320   4.150   3.408
 8461SOL     OW26281   6.602   3.769   3.883
 8461SOL    HW126282   6.551   3.695   3.925
 8461SOL    HW226283   6.543   3.850   3.876
 8462SOL     OW26284   2.192   3.063   1.703
 8462SOL    HW126285   2.209   3.159   1.728
 8462SOL    HW226286   2.194   3.007   1.785
 8463SOL     OW26287   5.401   1.104   2.173
 8463SOL    HW126288   5.449   1.191   2.180
 8463SOL    HW226289   5.326   1.112   2.107
 8464SOL     OW26290   6.679   1.757   4.504
 8464SOL    HW126291   6.648   1.671   4.463
 8464SOL    HW226292   6.637   1.834   4.454
 8465SOL     OW26293   1.352   2.299   7.013
 8465SOL    HW126294   1.402   2.317   0.076
 8465SOL    HW226295   1.364   2.376   6.950
 8466SOL     OW26296   0.376   0.062   4.098
 8466SOL    HW126297   0.402   0.153   4.131
 8466SOL    HW226298   0.278   0.049   4.109
 8467SOL     OW26299   3.057   5.408   0.724
 8467SOL    HW126300   2.980   5.452   0.770
 8467SOL    HW226301   3.119   5.478   0.688
 8468SOL     OW26302   4.937   1.813   0.777
 8468SOL    HW126303   4.891   1.836   0.691
 8468SOL    HW226304   4.995   1.890   0.804
 8469SOL     OW26305   3.752   2.545   6.749
 8469SOL    HW126306   3.767   2.483   6.827
 8469SOL    HW226307   3.681   2.611   6.772
 8470SOL     OW26308   1.541   2.857   6.765
 8470SOL    HW126309   1.443   2.845   6.749
 8470SOL    HW226310   1.571   2.795   6.838
 8471SOL     OW26311   4.111   1.323   3.903
 8471SOL    HW126312   4.082   1.360   3.991
 8471SOL    HW226313   4.182   1.381   3.864
 8472SOL     OW26314   1.296   6.121   3.617
 8472SOL    HW126315   1.220   6.106   3.680
 8472SOL    HW226316   1.275   6.080   3.528
 8473SOL     OW26317   6.343   5.761   0.183
 8473SOL    HW126318   6.372   5.744   0.089
 8473SOL    HW226319   6.400   5.706   0.245
 8474SOL     OW26320   4.386   4.934   0.688
 8474SOL    HW126321   4.364   5.018   0.637
 8474SOL    HW226322   4.327   4.928   0.768
 8475SOL     OW26323   4.402   1.172   3.326
 8475SOL    HW126324   4.492   1.153   3.285
 8475SOL    HW226325   4.388   1.271   3.331
 8476SOL     OW26326   4.837   0.417   2.714
 8476SOL    HW126327   4.846   0.326   2.673
 8476SOL    HW226328   4.741   0.433   2.738
 8477SOL     OW26329   2.847   1.396   2.117
 8477SOL    HW126330   2.775   1.336   2.081
 8477SOL    HW226331   2.896   1.350   2.191
 8478SOL     OW26332   1.665   0.247   5.818
 8478SOL    HW126333   1.760   0.276   5.811
 8478SOL    HW226334   1.613   0.285   5.741
 8479SOL     OW26335   4.797   0.720   2.188
 8479SOL    HW126336   4.719   0.784   2.187
 8479SOL    HW226337   4.812   0.686   2.096
 8480SOL     OW26338   1.329   1.304   1.425
 8480SOL    HW126339   1.331   1.268   1.332
 8480SOL    HW226340   1.319   1.403   1.423
 8481SOL     OW26341   3.850   0.030   4.186
 8481SOL    HW126342   3.907   0.008   4.265
 8481SOL    HW226343   3.870   6.987   4.112
 8482SOL     OW26344   0.694   0.362   2.170
 8482SOL    HW126345   0.690   0.344   2.072
 8482SOL    HW226346   0.631   0.437   2.192
 8483SOL     OW26347   4.678   5.858   2.129
 8483SOL    HW126348   4.677   5.813   2.218
 8483SOL    HW226349   4.584   5.865   2.094
 8484SOL     OW26350   0.647   4.624   4.812
 8484SOL    HW126351   0.717   4.553   4.809
 8484SOL    HW226352   0.690   4.712   4.832
 8485SOL     OW26353   2.889   3.216   5.834
 8485SOL    HW126354   2.828   3.293   5.854
 8485SOL    HW226355   2.978   3.251   5.804
 8486SOL     OW26356   4.367   0.644   2.364
 8486SOL    HW126357   4.406   0.563   2.408
 8486SOL    HW226358   4.440   0.705   2.336
 8487SOL     OW26359   4.395   6.793   1.136
 8487SOL    HW126360   4.388   6.694   1.126
 8487SOL    HW226361   4.423   6.816   1.229
 8488SOL     OW26362   5.059   3.053   4.560
 8488SOL    HW126363   5.075   3.151   4.551
 8488SOL    HW226364   5.129   3.012   4.618
 8489SOL     OW26365   4.179   5.015   3.047
 8489SOL    HW126366   4.166   5.111   3.021
 8489SOL    HW226367   4.093   4.977   3.081
 8490SOL     OW26368   3.952   5.582   2.690
 8490SOL    HW126369   3.923   5.559   2.597
 8490SOL    HW226370   3.922   5.510   2.753
 8491SOL     OW26371   2.016   0.846   2.057
 8491SOL    HW126372   1.942   0.816   2.117
 8491SOL    HW226373   2.065   0.922   2.099
 8492SOL     OW26374   5.675   3.660   4.402
 8492SOL    HW126375   5.638   3.603   4.476
 8492SOL    HW226376   5.722   3.739   4.442
 8493SOL     OW26377   3.504   2.130   0.644
 8493SOL    HW126378   3.450   2.215   0.645
 8493SOL    HW226379   3.538   2.114   0.551
 8494SOL     OW26380   3.700   5.879   0.171
 8494SOL    HW126381   3.608   5.916   0.178
 8494SOL    HW226382   3.728   5.875   0.075
 8495SOL     OW26383   0.397   2.760   0.089
 8495SOL    HW126384   0.386   2.836   0.153
 8495SOL    HW226385   0.494   2.745   0.071
 8496SOL     OW26386   6.354   3.020   3.008
 8496SOL    HW126387   6.442   3.009   2.962
 8496SOL    HW226388   6.367   3.018   3.107
 8497SOL     OW26389   6.046   5.333   3.472
 8497SOL    HW126390   5.953   5.369   3.478
 8497SOL    HW226391   6.102   5.393   3.414
 8498SOL     OW26392   0.032   0.948   0.536
 8498SOL    HW126393   0.098   0.957   0.610
 8498SOL    HW226394   0.073   0.981   0.451
 8499SOL     OW26395   3.262   3.979   6.405
 8499SOL    HW126396   3.213   3.971   6.491
 8499SOL    HW226397   3.231   4.060   6.355
 8500SOL     OW26398   3.256   1.011   6.339
 8500SOL    HW126399   3.355   1.004   6.326
 8500SOL    HW226400   3.235   1.101   6.379
 8501SOL     OW26401   2.359   4.485   5.807
 8501SOL    HW126402   2.287   4.415   5.806
 8501SOL    HW226403   2.432   4.458   5.744
 8502SOL     OW26404   0.178   0.358   2.205
 8502SOL    HW126405   0.118   0.384   2.129
 8502SOL    HW226406   0.259   0.312   2.168
 8503SOL     OW26407   3.005   5.453   3.218
 8503SOL    HW126408   3.061   5.442   3.300
 8503SOL    HW226409   3.050   5.409   3.140
 8504SOL     OW26410   0.821   5.485   2.949
 8504SOL    HW126411   0.882   5.469   3.027
 8504SOL    HW226412   0.726   5.476   2.980
 8505SOL     OW26413   4.957   2.835   3.899
 8505SOL    HW126414   4.940   2.877   3.988
 8505SOL    HW226415   4.872   2.797   3.863
 8506SOL     OW26416   0.969   6.528   0.465
 8506SOL    HW126417   1.056   6.533   0.416
 8506SOL    HW226418   0.918   6.612   0.452
 8507SOL     OW26419   2.452   1.040   4.840
 8507SOL    HW126420   2.395   1.034   4.922
 8507SOL    HW226421   2.443   0.956   4.787
 8508SOL     OW26422   1.092   2.990   5.952
 8508SOL    HW126423   1.071   3.054   5.879
 8508SOL    HW226424   1.186   3.005   5.984
 8509SOL     OW26425   6.000   1.854   4.620
 8509SOL    HW126426   6.014   1.758   4.645
 8509SOL    HW226427   6.072   1.909   4.662
 8510SOL     OW26428   4.906   0.385   3.020
 8510SOL    HW126429   4.959   0.377   2.936
 8510SOL    HW226430   4.820   0.334   3.011
 8511SOL     OW26431   6.944   4.813   1.822
 8511SOL    HW126432   6.990   4.764   1.896
 8511SOL    HW226433   6.865   4.760   1.790
 8512SOL     OW26434   4.494   2.032   0.449
 8512SOL    HW126435   4.483   2.103   0.379
 8512SOL    HW226436   4.500   2.074   0.539
 8513SOL     OW26437   0.341   4.359   1.211
 8513SOL    HW126438   0.340   4.269   1.255
 8513SOL    HW226439   0.320   4.429   1.279
 8514SOL     OW26440   2.345   2.619   5.856
 8514SOL    HW126441   2.314   2.530   5.821
 8514SOL    HW226442   2.370   2.678   5.780
 8515SOL     OW26443   1.388   0.317   1.043
 8515SOL    HW126444   1.338   0.390   1.090
 8515SOL    HW226445   1.347   0.301   0.953
 8516SOL     OW26446   5.528   2.331   3.796
 8516SOL    HW126447   5.535   2.265   3.722
 8516SOL    HW226448   5.558   2.421   3.764
 8517SOL     OW26449   1.676   2.063   5.616
 8517SOL    HW126450   1.641   1.971   5.633
 8517SOL    HW226451   1.762   2.074   5.665
 8518SOL     OW26452   5.006   4.648   0.220
 8518SOL    HW126453   4.969   4.569   0.269
 8518SOL    HW226454   5.095   4.624   0.181
 8519SOL     OW26455   1.459   3.559   1.187
 8519SOL    HW126456   1.521   3.513   1.252
 8519SOL    HW226457   1.365   3.545   1.216
 8520SOL     OW26458   3.946   3.907   6.007
 8520SOL    HW126459   3.909   3.944   5.921
 8520SOL    HW226460   4.044   3.889   5.995
 8521SOL     OW26461   1.905   6.579   5.643
 8521SOL    HW126462   1.844   6.547   5.571
 8521SOL    HW226463   1.963   6.503   5.674
 8522SOL     OW26464   0.666   6.898   0.656
 8522SOL    HW126465   0.679   6.952   0.740
 8522SOL    HW226466   0.619   6.813   0.678
 8523SOL     OW26467   3.160   1.574   0.245
 8523SOL    HW126468   3.258   1.560   0.229
 8523SOL    HW226469   3.140   1.567   0.342
 8524SOL     OW26470   2.278   6.067   4.526
 8524SOL    HW126471   2.291   6.007   4.605
 8524SOL    HW226472   2.363   6.075   4.475
 8525SOL     OW26473   6.361   4.613   1.550
 8525SOL    HW126474   6.415   4.697   1.546
 8525SOL    HW226475   6.293   4.622   1.623
 8526SOL     OW26476   0.853   5.457   0.710
 8526SOL    HW126477   0.782   5.514   0.667
 8526SOL    HW226478   0.934   5.455   0.651
 8527SOL     OW26479   3.016   0.938   5.273
 8527SOL    HW126480   3.014   0.880   5.192
 8527SOL    HW226481   3.053   0.886   5.350
 8528SOL     OW26482   5.103   1.646   0.339
 8528SOL    HW126483   5.036   1.582   0.377
 8528SOL    HW226484   5.177   1.595   0.296
 8529SOL     OW26485   0.989   6.193   6.454
 8529SOL    HW126486   0.918   6.256   6.486
 8529SOL    HW226487   0.952   6.101   6.450
 8530SOL     OW26488   2.912   3.705   3.937
 8530SOL    HW126489   2.900   3.716   3.838
 8530SOL    HW226490   2.915   3.607   3.960
 8531SOL     OW26491   6.845   5.232   4.219
 8531SOL    HW126492   6.884   5.281   4.296
 8531SOL    HW226493   6.909   5.162   4.188
 8532SOL     OW26494   2.493   5.057   5.571
 8532SOL    HW126495   2.509   5.080   5.667
 8532SOL    HW226496   2.453   5.136   5.524
 8533SOL     OW26497   2.666   6.254   5.879
 8533SOL    HW126498   2.740   6.207   5.927
 8533SOL    HW226499   2.684   6.255   5.781
 8534SOL     OW26500   2.512   2.248   3.862
 8534SOL    HW126501   2.511   2.149   3.850
 8534SOL    HW226502   2.588   2.274   3.921
 8535SOL     OW26503   6.105   0.623   2.768
 8535SOL    HW126504   6.129   0.679   2.847
 8535SOL    HW226505   6.174   0.633   2.697
 8536SOL     OW26506   0.688   1.277   4.987
 8536SOL    HW126507   0.778   1.316   5.006
 8536SOL    HW226508   0.630   1.345   4.943
 8537SOL     OW26509   0.131   0.992   2.576
 8537SOL    HW126510   0.185   0.941   2.509
 8537SOL    HW226511   0.183   1.071   2.608
 8538SOL     OW26512   1.136   2.559   0.029
 8538SOL    HW126513   1.127   2.642   6.996
 8538SOL    HW226514   1.090   2.483   7.002
 8539SOL     OW26515   5.889   2.232   3.087
 8539SOL    HW126516   5.818   2.221   3.157
 8539SOL    HW226517   5.858   2.299   3.019
 8540SOL     OW26518   3.692   0.280   0.749
 8540SOL    HW126519   3.726   0.319   0.663
 8540SOL    HW226520   3.622   0.212   0.729
 8541SOL     OW26521   1.956   2.850   4.676
 8541SOL    HW126522   2.010   2.831   4.758
 8541SOL    HW226523   1.912   2.765   4.645
 8542SOL     OW26524   3.511   4.870   0.806
 8542SOL    HW126525   3.599   4.825   0.790
 8542SOL    HW226526   3.441   4.827   0.749
 8543SOL     OW26527   2.390   2.299   6.410
 8543SOL    HW126528   2.383   2.244   6.494
 8543SOL    HW226529   2.358   2.245   6.332
 8544SOL     OW26530   6.721   3.083   3.384
 8544SOL    HW126531   6.662   3.127   3.316
 8544SOL    HW226532   6.665   3.045   3.457
 8545SOL     OW26533   5.016   6.358   5.079
 8545SOL    HW126534   4.995   6.355   4.981
 8545SOL    HW226535   4.938   6.398   5.128
 8546SOL     OW26536   4.481   1.653   6.162
 8546SOL    HW126537   4.420   1.587   6.206
 8546SOL    HW226538   4.505   1.725   6.227
 8547SOL     OW26539   0.524   4.332   2.992
 8547SOL    HW126540   0.481   4.383   3.067
 8547SOL    HW226541   0.622   4.326   3.007
 8548SOL     OW26542   6.093   1.380   5.632
 8548SOL    HW126543   6.014   1.340   5.585
 8548SOL    HW226544   6.062   1.449   5.697
 8549SOL     OW26545   5.489   3.384   4.930
 8549SOL    HW126546   5.440   3.399   4.844
 8549SOL    HW226547   5.499   3.286   4.947
 8550SOL     OW26548   0.816   3.835   6.821
 8550SOL    HW126549   0.749   3.785   6.876
 8550SOL    HW226550   0.770   3.909   6.772
 8551SOL     OW26551   3.270   3.859   0.681
 8551SOL    HW126552   3.355   3.808   0.673
 8551SOL    HW226553   3.285   3.955   0.658
 8552SOL     OW26554   3.297   6.588   4.179
 8552SOL    HW126555   3.259   6.503   4.141
 8552SOL    HW226556   3.272   6.595   4.276
 8553SOL     OW26557   5.702   5.773   0.433
 8553SOL    HW126558   5.721   5.855   0.489
 8553SOL    HW226559   5.612   5.737   0.456
 8554SOL     OW26560   6.370   4.373   6.780
 8554SOL    HW126561   6.418   4.292   6.812
 8554SOL    HW226562   6.335   4.425   6.858
 8555SOL     OW26563   0.905   6.776   4.321
 8555SOL    HW126564   0.982   6.815   4.269
 8555SOL    HW226565   0.850   6.720   4.260
 8556SOL     OW26566   6.360   0.387   3.958
 8556SOL    HW126567   6.383   0.352   4.049
 8556SOL    HW226568   6.261   0.387   3.947
 8557SOL     OW26569   0.389   0.783   0.312
 8557SOL    HW126570   0.355   0.756   0.402
 8557SOL    HW226571   0.312   0.787   0.247
 8558SOL     OW26572   1.007   5.443   1.851
 8558SOL    HW126573   1.029   5.345   1.861
 8558SOL    HW226574   0.941   5.470   1.921
 8559SOL     OW26575   0.559   1.352   6.304
 8559SOL    HW126576   0.490   1.400   6.358
 8559SOL    HW226577   0.646   1.399   6.313
 8560SOL     OW26578   6.616   2.789   6.429
 8560SOL    HW126579   6.708   2.825   6.415
 8560SOL    HW226580   6.617   2.724   6.506
 8561SOL     OW26581   5.032   6.666   4.652
 8561SOL    HW126582   5.007   6.603   4.578
 8561SOL    HW226583   5.117   6.636   4.694
 8562SOL     OW26584   3.611   6.841   4.259
 8562SOL    HW126585   3.610   6.769   4.329
 8562SOL    HW226586   3.701   6.884   4.256
 8563SOL     OW26587   2.411   2.794   6.178
 8563SOL    HW126588   2.325   2.831   6.212
 8563SOL    HW226589   2.441   2.847   6.098
 8564SOL     OW26590   0.171   6.982   3.650
 8564SOL    HW126591   0.096   6.965   3.714
 8564SOL    HW226592   0.258   6.971   3.698
 8565SOL     OW26593   4.570   0.393   1.685
 8565SOL    HW126594   4.514   0.450   1.745
 8565SOL    HW226595   4.666   0.422   1.692
 8566SOL     OW26596   2.115   3.719   3.011
 8566SOL    HW126597   2.157   3.792   2.958
 8566SOL    HW226598   2.064   3.658   2.950
 8567SOL     OW26599   5.276   6.765   0.856
 8567SOL    HW126600   5.217   6.728   0.928
 8567SOL    HW226601   5.242   6.736   0.767
 8568SOL     OW26602   5.483   1.369   0.227
 8568SOL    HW126603   5.465   1.277   0.193
 8568SOL    HW226604   5.582   1.386   0.226
 8569SOL     OW26605   4.346   1.660   5.352
 8569SOL    HW126606   4.438   1.650   5.314
 8569SOL    HW226607   4.285   1.700   5.284
 8570SOL     OW26608   0.953   4.439   6.752
 8570SOL    HW126609   0.870   4.477   6.713
 8570SOL    HW226610   0.944   4.340   6.760
 8571SOL     OW26611   6.995   4.582   4.871
 8571SOL    HW126612   6.976   4.497   4.921
 8571SOL    HW226613   6.914   4.609   4.819
 8572SOL     OW26614   2.990   4.784   5.470
 8572SOL    HW126615   2.956   4.835   5.391
 8572SOL    HW226616   3.056   4.716   5.440
 8573SOL     OW26617   4.239   5.611   4.975
 8573SOL    HW126618   4.254   5.615   4.876
 8573SOL    HW226619   4.220   5.517   5.002
 8574SOL     OW26620   0.556   3.568   4.379
 8574SOL    HW126621   0.547   3.494   4.445
 8574SOL    HW226622   0.561   3.530   4.286
 8575SOL     OW26623   3.130   3.204   6.654
 8575SOL    HW126624   3.212   3.180   6.602
 8575SOL    HW226625   3.052   3.214   6.592
 8576SOL     OW26626   1.945   6.961   1.716
 8576SOL    HW126627   2.000   0.009   1.762
 8576SOL    HW226628   1.915   6.893   1.783
 8577SOL     OW26629   6.774   5.255   3.318
 8577SOL    HW126630   6.857   5.288   3.272
 8577SOL    HW226631   6.705   5.328   3.319
 8578SOL     OW26632   4.509   6.573   3.731
 8578SOL    HW126633   4.457   6.557   3.814
 8578SOL    HW226634   4.591   6.516   3.730
 8579SOL     OW26635   0.626   5.738   2.952
 8579SOL    HW126636   0.665   5.650   2.981
 8579SOL    HW226637   0.644   5.807   3.022
 8580SOL     OW26638   3.044   4.192   6.013
 8580SOL    HW126639   3.052   4.285   6.051
 8580SOL    HW226640   2.952   4.157   6.029
 8581SOL     OW26641   3.303   2.529   0.918
 8581SOL    HW126642   3.339   2.594   0.985
 8581SOL    HW226643   3.294   2.574   0.829
 8582SOL     OW26644   4.633   4.081   1.121
 8582SOL    HW126645   4.714   4.115   1.073
 8582SOL    HW226646   4.570   4.157   1.137
 8583SOL     OW26647   5.431   0.127   6.092
 8583SOL    HW126648   5.419   0.078   6.178
 8583SOL    HW226649   5.342   0.145   6.051
 8584SOL     OW26650   0.148   5.221   6.388
 8584SOL    HW126651   0.233   5.262   6.354
 8584SOL    HW226652   0.100   5.286   6.446
 8585SOL     OW26653   1.019   1.119   0.974
 8585SOL    HW126654   0.958   1.150   0.901
 8585SOL    HW226655   0.989   1.159   1.061
 8586SOL     OW26656   4.315   5.440   4.151
 8586SOL    HW126657   4.331   5.354   4.200
 8586SOL    HW226658   4.218   5.445   4.124
 8587SOL     OW26659   0.144   1.712   1.452
 8587SOL    HW126660   0.107   1.797   1.490
 8587SOL    HW226661   0.086   1.636   1.479
 8588SOL     OW26662   4.370   2.199   0.225
 8588SOL    HW126663   4.376   2.190   0.126
 8588SOL    HW226664   4.359   2.295   0.250
 8589SOL     OW26665   2.983   1.482   4.748
 8589SOL    HW126666   3.054   1.544   4.713
 8589SOL    HW226667   3.002   1.462   4.844
 8590SOL     OW26668   6.384   4.950   5.859
 8590SOL    HW126669   6.483   4.958   5.866
 8590SOL    HW226670   6.344   4.934   5.949
 8591SOL     OW26671   1.125   2.782   6.909
 8591SOL    HW126672   1.031   2.812   6.895
 8591SOL    HW226673   1.181   2.807   6.830
 8592SOL     OW26674   6.586   5.568   6.221
 8592SOL    HW126675   6.660   5.523   6.270
 8592SOL    HW226676   6.501   5.517   6.235
 8593SOL     OW26677   0.467   0.250   2.957
 8593SOL    HW126678   0.542   0.244   2.892
 8593SOL    HW226679   0.480   0.330   3.016
 8594SOL     OW26680   3.386   3.560   3.493
 8594SOL    HW126681   3.481   3.565   3.526
 8594SOL    HW226682   3.376   3.618   3.413
 8595SOL     OW26683   1.824   2.682   1.819
 8595SOL    HW126684   1.887   2.617   1.776
 8595SOL    HW226685   1.877   2.753   1.866
 8596SOL     OW26686   6.234   4.542   2.413
 8596SOL    HW126687   6.214   4.487   2.332
 8596SOL    HW226688   6.323   4.587   2.401
 8597SOL     OW26689   2.041   1.629   0.699
 8597SOL    HW126690   2.079   1.697   0.761
 8597SOL    HW226691   1.947   1.608   0.725
 8598SOL     OW26692   5.251   4.180   0.727
 8598SOL    HW126693   5.329   4.137   0.680
 8598SOL    HW226694   5.229   4.127   0.809
 8599SOL     OW26695   1.543   3.072   2.350
 8599SOL    HW126696   1.529   3.158   2.302
 8599SOL    HW226697   1.480   3.003   2.315
 8600SOL     OW26698   6.135   3.755   6.298
 8600SOL    HW126699   6.163   3.732   6.391
 8600SOL    HW226700   6.081   3.840   6.299
 8601SOL     OW26701   0.369   0.610   4.478
 8601SOL    HW126702   0.400   0.570   4.564
 8601SOL    HW226703   0.434   0.589   4.405
 8602SOL     OW26704   2.649   5.968   2.324
 8602SOL    HW126705   2.665   5.967   2.423
 8602SOL    HW226706   2.737   5.978   2.277
 8603SOL     OW26707   4.409   3.542   1.034
 8603SOL    HW126708   4.383   3.613   0.969
 8603SOL    HW226709   4.477   3.482   0.992
 8604SOL     OW26710   5.390   2.375   3.058
 8604SOL    HW126711   5.332   2.303   3.097
 8604SOL    HW226712   5.374   2.381   2.960
 8605SOL     OW26713   2.995   6.942   2.391
 8605SOL    HW126714   2.967   7.015   2.330
 8605SOL    HW226715   3.077   6.897   2.354
 8606SOL     OW26716   4.149   5.102   5.913
 8606SOL    HW126717   4.177   5.143   5.999
 8606SOL    HW226718   4.167   5.165   5.838
 8607SOL     OW26719   3.575   6.172   1.647
 8607SOL    HW126720   3.498   6.189   1.709
 8607SOL    HW226721   3.660   6.204   1.690
 8608SOL     OW26722   5.368   6.235   2.577
 8608SOL    HW126723   5.404   6.143   2.594
 8608SOL    HW226724   5.415   6.300   2.636
 8609SOL     OW26725   4.090   0.446   5.952
 8609SOL    HW126726   4.070   0.362   6.002
 8609SOL    HW226727   4.118   0.423   5.859
 8610SOL     OW26728   0.113   6.753   4.530
 8610SOL    HW126729   0.213   6.759   4.526
 8610SOL    HW226730   0.075   6.841   4.557
 8611SOL     OW26731   1.538   1.908   3.221
 8611SOL    HW126732   1.617   1.960   3.254
 8611SOL    HW226733   1.482   1.878   3.299
 8612SOL     OW26734   4.537   2.889   5.219
 8612SOL    HW126735   4.577   2.864   5.130
 8612SOL    HW226736   4.456   2.832   5.236
 8613SOL     OW26737   0.969   1.410   0.272
 8613SOL    HW126738   1.066   1.434   0.273
 8613SOL    HW226739   0.919   1.475   0.214
 8614SOL     OW26740   1.168   1.402   3.579
 8614SOL    HW126741   1.115   1.340   3.521
 8614SOL    HW226742   1.180   1.490   3.532
 8615SOL     OW26743   4.640   2.377   5.358
 8615SOL    HW126744   4.582   2.442   5.311
 8615SOL    HW226745   4.629   2.286   5.318
 8616SOL     OW26746   1.686   3.541   6.616
 8616SOL    HW126747   1.675   3.470   6.686
 8616SOL    HW226748   1.674   3.631   6.658
 8617SOL     OW26749   5.993   3.570   1.180
 8617SOL    HW126750   5.988   3.486   1.126
 8617SOL    HW226751   5.966   3.551   1.274
 8618SOL     OW26752   4.959   0.722   3.459
 8618SOL    HW126753   4.890   0.665   3.415
 8618SOL    HW226754   4.990   0.793   3.396
 8619SOL     OW26755   4.261   5.695   0.519
 8619SOL    HW126756   4.190   5.765   0.511
 8619SOL    HW226757   4.326   5.705   0.444
 8620SOL     OW26758   6.010   6.504   3.474
 8620SOL    HW126759   5.953   6.529   3.552
 8620SOL    HW226760   6.084   6.571   3.463
 8621SOL     OW26761   5.916   0.901   3.138
 8621SOL    HW126762   5.832   0.954   3.132
 8621SOL    HW226763   5.980   0.946   3.200
 8622SOL     OW26764   5.229   5.720   6.877
 8622SOL    HW126765   5.179   5.783   6.818
 8622SOL    HW226766   5.327   5.726   6.858
 8623SOL     OW26767   6.544   2.998   2.824
 8623SOL    HW126768   6.487   3.014   2.743
 8623SOL    HW226769   6.623   2.942   2.799
 8624SOL     OW26770   0.314   5.115   3.495
 8624SOL    HW126771   0.258   5.108   3.578
 8624SOL    HW226772   0.345   5.210   3.484
 8625SOL     OW26773   3.660   0.768   5.882
 8625SOL    HW126774   3.628   0.684   5.838
 8625SOL    HW226775   3.720   0.745   5.958
 8626SOL     OW26776   3.156   3.010   2.300
 8626SOL    HW126777   3.111   3.030   2.214
 8626SOL    HW226778   3.224   2.938   2.286
 8627SOL     OW26779   2.140   0.255   6.540
 8627SOL    HW126780   2.157   0.186   6.470
 8627SOL    HW226781   2.118   0.343   6.497
 8628SOL     OW26782   5.875   1.262   0.017
 8628SOL    HW126783   5.836   1.180   6.996
 8628SOL    HW226784   5.966   1.279   7.000
 8629SOL     OW26785   0.980   5.329   3.705
 8629SOL    HW126786   0.942   5.393   3.772
 8629SOL    HW226787   0.914   5.316   3.631
 8630SOL     OW26788   5.277   4.550   4.065
 8630SOL    HW126789   5.208   4.616   4.094
 8630SOL    HW226790   5.345   4.596   4.008
 8631SOL     OW26791   3.583   5.813   3.928
 8631SOL    HW126792   3.603   5.718   3.951
 8631SOL    HW226793   3.518   5.850   3.995
 8632SOL     OW26794   4.776   0.543   3.358
 8632SOL    HW126795   4.729   0.455   3.364
 8632SOL    HW226796   4.777   0.575   3.264
 8633SOL     OW26797   6.443   0.648   3.929
 8633SOL    HW126798   6.444   0.552   3.957
 8633SOL    HW226799   6.407   0.654   3.836
 8634SOL     OW26800   6.037   5.247   1.937
 8634SOL    HW126801   6.100   5.281   2.006
 8634SOL    HW226802   6.053   5.295   1.851
 8635SOL     OW26803   6.467   3.987   5.463
 8635SOL    HW126804   6.407   4.034   5.399
 8635SOL    HW226805   6.547   4.044   5.481
 8636SOL     OW26806   5.269   5.794   0.119
 8636SOL    HW126807   5.277   5.811   0.021
 8636SOL    HW226808   5.346   5.836   0.166
 8637SOL     OW26809   1.532   0.345   1.450
 8637SOL    HW126810   1.538   0.294   1.364
 8637SOL    HW226811   1.597   0.421   1.448
 8638SOL     OW26812   4.314   5.247   0.320
 8638SOL    HW126813   4.397   5.274   0.369
 8638SOL    HW226814   4.315   5.285   0.228
 8639SOL     OW26815   6.840   2.817   1.639
 8639SOL    HW126816   6.912   2.749   1.646
 8639SOL    HW226817   6.775   2.806   1.714
 8640SOL     OW26818   5.378   6.436   1.388
 8640SOL    HW126819   5.283   6.463   1.403
 8640SOL    HW226820   5.412   6.389   1.470
 8641SOL     OW26821   5.111   4.861   3.833
 8641SOL    HW126822   5.052   4.807   3.773
 8641SOL    HW226823   5.101   4.829   3.927
 8642SOL     OW26824   4.799   1.629   1.957
 8642SOL    HW126825   4.781   1.716   1.911
 8642SOL    HW226826   4.898   1.614   1.963
 8643SOL     OW26827   4.533   1.146   6.221
 8643SOL    HW126828   4.614   1.087   6.225
 8643SOL    HW226829   4.475   1.127   6.300
 8644SOL     OW26830   6.386   3.515   5.421
 8644SOL    HW126831   6.429   3.594   5.465
 8644SOL    HW226832   6.318   3.475   5.484
 8645SOL     OW26833   5.709   4.470   1.514
 8645SOL    HW126834   5.620   4.484   1.471
 8645SOL    HW226835   5.711   4.380   1.557
 8646SOL     OW26836   5.446   0.675   0.307
 8646SOL    HW126837   5.507   0.635   0.375
 8646SOL    HW226838   5.371   0.722   0.353
 8647SOL     OW26839   4.469   4.851   1.867
 8647SOL    HW126840   4.496   4.825   1.775
 8647SOL    HW226841   4.380   4.810   1.889
 8648SOL     OW26842   5.305   1.881   4.482
 8648SOL    HW126843   5.210   1.854   4.499
 8648SOL    HW226844   5.322   1.971   4.523
 8649SOL     OW26845   0.376   4.591   5.477
 8649SOL    HW126846   0.377   4.495   5.502
 8649SOL    HW226847   0.381   4.600   5.378
 8650SOL     OW26848   1.371   4.695   2.260
 8650SOL    HW126849   1.362   4.688   2.161
 8650SOL    HW226850   1.384   4.603   2.299
 8651SOL     OW26851   3.011   2.064   1.163
 8651SOL    HW126852   3.087   2.023   1.112
 8651SOL    HW226853   3.047   2.132   1.227
 8652SOL     OW26854   1.721   3.966   3.989
 8652SOL    HW126855   1.704   3.953   4.087
 8652SOL    HW226856   1.673   3.896   3.937
 8653SOL     OW26857   6.374   3.193   6.461
 8653SOL    HW126858   6.310   3.241   6.522
 8653SOL    HW226859   6.441   3.143   6.516
 8654SOL     OW26860   0.074   6.969   3.130
 8654SOL    HW126861   0.162   6.940   3.093
 8654SOL    HW226862   0.062   0.046   3.114
 8655SOL     OW26863   5.777   6.141   4.112
 8655SOL    HW126864   5.682   6.136   4.143
 8655SOL    HW226865   5.801   6.237   4.093
 8656SOL     OW26866   6.197   2.332   1.394
 8656SOL    HW126867   6.242   2.254   1.436
 8656SOL    HW226868   6.265   2.401   1.369
 8657SOL     OW26869   3.257   4.127   0.614
 8657SOL    HW126870   3.329   4.107   0.548
 8657SOL    HW226871   3.186   4.182   0.570
 8658SOL     OW26872   0.149   5.268   0.270
 8658SOL    HW126873   0.160   5.339   0.201
 8658SOL    HW226874   0.083   5.200   0.237
 8659SOL     OW26875   4.798   0.399   3.990
 8659SOL    HW126876   4.804   0.375   3.893
 8659SOL    HW226877   4.709   0.372   4.025
 8660SOL     OW26878   5.557   4.596   0.922
 8660SOL    HW126879   5.516   4.687   0.923
 8660SOL    HW226880   5.648   4.600   0.964
 8661SOL     OW26881   6.046   3.713   1.699
 8661SOL    HW126882   6.146   3.718   1.691
 8661SOL    HW226883   6.010   3.647   1.633
 8662SOL     OW26884   0.121   0.386   0.612
 8662SOL    HW126885   0.210   0.396   0.567
 8662SOL    HW226886   0.075   0.474   0.616
 8663SOL     OW26887   2.724   5.935   0.434
 8663SOL    HW126888   2.662   5.869   0.478
 8663SOL    HW226889   2.698   6.027   0.460
 8664SOL     OW26890   4.251   5.094   1.629
 8664SOL    HW126891   4.193   5.058   1.702
 8664SOL    HW226892   4.219   5.184   1.602
 8665SOL     OW26893   4.761   5.316   5.734
 8665SOL    HW126894   4.852   5.332   5.696
 8665SOL    HW226895   4.752   5.220   5.761
 8666SOL     OW26896   5.317   3.881   4.247
 8666SOL    HW126897   5.362   3.806   4.199
 8666SOL    HW226898   5.386   3.936   4.294
 8667SOL     OW26899   5.227   1.503   3.216
 8667SOL    HW126900   5.222   1.422   3.275
 8667SOL    HW226901   5.322   1.517   3.187
 8668SOL     OW26902   3.534   1.891   4.309
 8668SOL    HW126903   3.585   1.955   4.252
 8668SOL    HW226904   3.504   1.938   4.392
 8669SOL     OW26905   4.002   0.608   6.130
 8669SOL    HW126906   3.906   0.612   6.100
 8669SOL    HW226907   4.057   0.560   6.062
 8670SOL     OW26908   3.981   4.837   4.508
 8670SOL    HW126909   3.893   4.849   4.555
 8670SOL    HW226910   4.050   4.812   4.576
 8671SOL     OW26911   5.874   6.534   2.912
 8671SOL    HW126912   5.843   6.527   3.007
 8671SOL    HW226913   5.848   6.624   2.876
 8672SOL     OW26914   3.258   4.855   5.044
 8672SOL    HW126915   3.242   4.758   5.061
 8672SOL    HW226916   3.331   4.888   5.103
 8673SOL     OW26917   5.785   1.949   0.890
 8673SOL    HW126918   5.854   1.898   0.941
 8673SOL    HW226919   5.746   1.892   0.818
 8674SOL     OW26920   0.648   0.297   2.748
 8674SOL    HW126921   0.733   0.254   2.717
 8674SOL    HW226922   0.590   0.315   2.668
 8675SOL     OW26923   1.965   1.693   2.674
 8675SOL    HW126924   2.019   1.746   2.609
 8675SOL    HW226925   1.874   1.734   2.684
 8676SOL     OW26926   4.303   6.662   3.528
 8676SOL    HW126927   4.379   6.616   3.574
 8676SOL    HW226928   4.278   6.744   3.578
 8677SOL     OW26929   2.284   4.357   5.035
 8677SOL    HW126930   2.323   4.269   5.008
 8677SOL    HW226931   2.318   4.382   5.126
 8678SOL     OW26932   1.079   0.564   6.479
 8678SOL    HW126933   0.999   0.624   6.478
 8678SOL    HW226934   1.162   0.618   6.480
 8679SOL     OW26935   6.629   2.365   4.719
 8679SOL    HW126936   6.622   2.451   4.770
 8679SOL    HW226937   6.624   2.385   4.621
 8680SOL     OW26938   1.466   3.304   0.395
 8680SOL    HW126939   1.535   3.355   0.345
 8680SOL    HW226940   1.499   3.211   0.413
 8681SOL     OW26941   4.349   3.643   0.786
 8681SOL    HW126942   4.395   3.643   0.697
 8681SOL    HW226943   4.288   3.722   0.792
 8682SOL     OW26944   2.034   5.863   2.621
 8682SOL    HW126945   1.936   5.858   2.638
 8682SOL    HW226946   2.080   5.786   2.666
 8683SOL     OW26947   6.465   3.386   6.293
 8683SOL    HW126948   6.444   3.366   6.198
 8683SOL    HW226949   6.408   3.330   6.353
 8684SOL     OW26950   6.435   2.476   4.125
 8684SOL    HW126951   6.476   2.504   4.212
 8684SOL    HW226952   6.378   2.550   4.091
 8685SOL     OW26953   0.860   1.807   5.128
 8685SOL    HW126954   0.818   1.771   5.212
 8685SOL    HW226955   0.875   1.905   5.138
 8686SOL     OW26956   6.350   2.559   3.175
 8686SOL    HW126957   6.301   2.629   3.124
 8686SOL    HW226958   6.417   2.603   3.236
 8687SOL     OW26959   4.521   0.244   2.747
 8687SOL    HW126960   4.505   0.158   2.796
 8687SOL    HW226961   4.549   0.224   2.654
 8688SOL     OW26962   2.112   0.180   2.354
 8688SOL    HW126963   2.026   0.143   2.389
 8688SOL    HW226964   2.189   0.129   2.393
 8689SOL     OW26965   4.338   5.820   0.766
 8689SOL    HW126966   4.334   5.791   0.670
 8689SOL    HW226967   4.285   5.757   0.822
 8690SOL     OW26968   0.661   1.437   2.806
 8690SOL    HW126969   0.648   1.361   2.870
 8690SOL    HW226970   0.690   1.401   2.717
 8691SOL     OW26971   5.673   1.816   0.658
 8691SOL    HW126972   5.750   1.760   0.631
 8691SOL    HW226973   5.598   1.758   0.690
 8692SOL     OW26974   1.652   1.407   4.309
 8692SOL    HW126975   1.574   1.427   4.370
 8692SOL    HW226976   1.710   1.488   4.303
 8693SOL     OW26977   5.549   2.196   0.646
 8693SOL    HW126978   5.512   2.288   0.630
 8693SOL    HW226979   5.631   2.183   0.590
 8694SOL     OW26980   4.420   6.664   5.826
 8694SOL    HW126981   4.389   6.594   5.890
 8694SOL    HW226982   4.362   6.663   5.745
 8695SOL     OW26983   4.221   4.328   5.920
 8695SOL    HW126984   4.228   4.299   5.825
 8695SOL    HW226985   4.142   4.283   5.963
 8696SOL     OW26986   2.089   5.121   1.109
 8696SOL    HW126987   2.117   5.025   1.117
 8696SOL    HW226988   2.079   5.161   1.200
 8697SOL     OW26989   5.885   4.261   0.829
 8697SOL    HW126990   5.789   4.284   0.845
 8697SOL    HW226991   5.938   4.276   0.912
 8698SOL     OW26992   5.730   5.727   4.518
 8698SOL    HW126993   5.736   5.774   4.430
 8698SOL    HW226994   5.672   5.646   4.508
 8699SOL     OW26995   1.168   1.444   5.405
 8699SOL    HW126996   1.243   1.450   5.340
 8699SOL    HW226997   1.201   1.410   5.492
 8700SOL     OW26998   2.687   1.316   5.639
 8700SOL    HW126999   2.725   1.263   5.715
 8700SOL    HW227000   2.756   1.382   5.608
 8701SOL     OW27001   1.321   1.986   4.575
 8701SOL    HW127002   1.279   2.065   4.620
 8701SOL    HW227003   1.414   2.008   4.547
 8702SOL     OW27004   4.767   6.193   0.161
 8702SOL    HW127005   4.855   6.169   0.203
 8702SOL    HW227006   4.745   6.288   0.180
 8703SOL     OW27007   2.579   5.601   1.010
 8703SOL    HW127008   2.523   5.591   1.092
 8703SOL    HW227009   2.613   5.695   1.004
 8704SOL     OW27010   0.535   4.121   1.475
 8704SOL    HW127011   0.500   4.034   1.439
 8704SOL    HW227012   0.460   4.174   1.512
 8705SOL     OW27013   4.609   0.136   5.592
 8705SOL    HW127014   4.699   0.168   5.623
 8705SOL    HW227015   4.588   0.049   5.637
 8706SOL     OW27016   5.374   1.993   0.220
 8706SOL    HW127017   5.292   1.948   0.186
 8706SOL    HW227018   5.358   2.026   0.313
 8707SOL     OW27019   4.679   2.808   5.786
 8707SOL    HW127020   4.702   2.737   5.852
 8707SOL    HW227021   4.744   2.807   5.710
 8708SOL     OW27022   4.202   1.660   1.010
 8708SOL    HW127023   4.103   1.645   1.015
 8708SOL    HW227024   4.244   1.632   1.097
 8709SOL     OW27025   0.015   3.886   0.894
 8709SOL    HW127026   6.937   3.892   0.906
 8709SOL    HW227027   0.040   3.792   0.870
 8710SOL     OW27028   1.149   3.238   3.367
 8710SOL    HW127029   1.229   3.216   3.422
 8710SOL    HW227030   1.068   3.197   3.409
 8711SOL     OW27031   0.535   1.446   4.142
 8711SOL    HW127032   0.616   1.389   4.153
 8711SOL    HW227033   0.563   1.542   4.137
 8712SOL     OW27034   3.597   1.623   5.614
 8712SOL    HW127035   3.650   1.688   5.669
 8712SOL    HW227036   3.533   1.674   5.556
 8713SOL     OW27037   0.019   4.781   3.494
 8713SOL    HW127038   0.065   4.699   3.529
 8713SOL    HW227039   0.067   4.815   3.413
 8714SOL     OW27040   1.639   1.626   4.809
 8714SOL    HW127041   1.574   1.648   4.736
 8714SOL    HW227042   1.728   1.668   4.789
 8715SOL     OW27043   6.143   1.701   1.419
 8715SOL    HW127044   6.113   1.657   1.334
 8715SOL    HW227045   6.067   1.700   1.485
 8716SOL     OW27046   1.538   1.986   1.493
 8716SOL    HW127047   1.441   1.962   1.502
 8716SOL    HW227048   1.558   2.067   1.549
 8717SOL     OW27049   3.369   3.318   0.840
 8717SOL    HW127050   3.283   3.268   0.843
 8717SOL    HW227051   3.357   3.408   0.881
 8718SOL     OW27052   6.158   3.097   5.442
 8718SOL    HW127053   6.089   3.148   5.391
 8718SOL    HW227054   6.210   3.038   5.380
 8719SOL     OW27055   6.763   0.802   6.399
 8719SOL    HW127056   6.830   0.810   6.326
 8719SOL    HW227057   6.791   0.731   6.463
 8720SOL     OW27058   5.051   3.849   5.943
 8720SOL    HW127059   5.103   3.828   5.860
 8720SOL    HW227060   4.955   3.829   5.929
 8721SOL     OW27061   0.064   2.509   4.236
 8721SOL    HW127062   6.990   2.532   4.216
 8721SOL    HW227063   0.070   2.412   4.263
 8722SOL     OW27064   3.508   2.676   0.297
 8722SOL    HW127065   3.479   2.614   0.224
 8722SOL    HW227066   3.473   2.768   0.278
 8723SOL     OW27067   6.813   4.593   0.933
 8723SOL    HW127068   6.760   4.656   0.876
 8723SOL    HW227069   6.846   4.642   1.014
 8724SOL     OW27070   5.149   6.902   6.510
 8724SOL    HW127071   5.130   6.985   6.457
 8724SOL    HW227072   5.245   6.877   6.498
 8725SOL     OW27073   2.650   5.884   0.828
 8725SOL    HW127074   2.730   5.910   0.774
 8725SOL    HW227075   2.610   5.801   0.789
 8726SOL     OW27076   5.673   0.387   1.536
 8726SOL    HW127077   5.741   0.459   1.521
 8726SOL    HW227078   5.612   0.382   1.458
 8727SOL     OW27079   6.029   5.597   1.286
 8727SOL    HW127080   5.956   5.558   1.228
 8727SOL    HW227081   6.117   5.586   1.240
 8728SOL     OW27082   2.545   0.120   5.123
 8728SOL    HW127083   2.504   0.150   5.209
 8728SOL    HW227084   2.612   0.048   5.142
 8729SOL     OW27085   5.985   6.086   4.734
 8729SOL    HW127086   5.971   6.166   4.792
 8729SOL    HW227087   5.994   6.114   4.639
 8730SOL     OW27088   0.143   6.333   1.470
 8730SOL    HW127089   0.242   6.334   1.453
 8730SOL    HW227090   0.123   6.390   1.549
 8731SOL     OW27091   1.136   1.749   2.821
 8731SOL    HW127092   1.062   1.682   2.820
 8731SOL    HW227093   1.162   1.768   2.916
 8732SOL     OW27094   5.188   4.773   1.355
 8732SOL    HW127095   5.232   4.822   1.430
 8732SOL    HW227096   5.116   4.830   1.315
 8733SOL     OW27097   0.450   6.353   1.514
 8733SOL    HW127098   0.487   6.261   1.527
 8733SOL    HW227099   0.524   6.416   1.491
 8734SOL     OW27100   6.122   5.114   0.892
 8734SOL    HW127101   6.107   5.212   0.907
 8734SOL    HW227102   6.185   5.080   0.962
 8735SOL     OW27103   6.425   2.319   6.707
 8735SOL    HW127104   6.362   2.393   6.682
 8735SOL    HW227105   6.374   2.248   6.756
 8736SOL     OW27106   0.456   4.907   6.619
 8736SOL    HW127107   0.361   4.875   6.617
 8736SOL    HW227108   0.478   4.938   6.711
 8737SOL     OW27109   3.557   5.823   6.336
 8737SOL    HW127110   3.528   5.850   6.245
 8737SOL    HW227111   3.610   5.898   6.378
 8738SOL     OW27112   1.429   3.607   4.452
 8738SOL    HW127113   1.397   3.556   4.373
 8738SOL    HW227114   1.409   3.555   4.535
 8739SOL     OW27115   1.242   3.080   5.086
 8739SOL    HW127116   1.243   3.165   5.139
 8739SOL    HW227117   1.161   3.027   5.111
 8740SOL     OW27118   2.169   6.182   1.229
 8740SOL    HW127119   2.151   6.107   1.292
 8740SOL    HW227120   2.130   6.267   1.265
 8741SOL     OW27121   1.280   3.587   2.081
 8741SOL    HW127122   1.298   3.579   2.179
 8741SOL    HW227123   1.353   3.541   2.030
 8742SOL     OW27124   4.441   0.040   1.911
 8742SOL    HW127125   4.354   0.061   1.866
 8742SOL    HW227126   4.439   0.074   2.005
 8743SOL     OW27127   2.508   4.627   3.113
 8743SOL    HW127128   2.536   4.599   3.021
 8743SOL    HW227129   2.444   4.703   3.107
 8744SOL     OW27130   3.311   2.875   5.810
 8744SOL    HW127131   3.300   2.974   5.821
 8744SOL    HW227132   3.246   2.842   5.742
 8745SOL     OW27133   6.504   2.337   6.344
 8745SOL    HW127134   6.504   2.429   6.304
 8745SOL    HW227135   6.483   2.343   6.442
 8746SOL     OW27136   5.217   4.444   5.334
 8746SOL    HW127137   5.149   4.500   5.285
 8746SOL    HW227138   5.214   4.351   5.299
 8747SOL     OW27139   1.715   2.618   4.156
 8747SOL    HW127140   1.792   2.554   4.151
 8747SOL    HW227141   1.629   2.567   4.157
 8748SOL     OW27142   1.835   0.343   6.876
 8748SOL    HW127143   1.786   0.327   6.791
 8748SOL    HW227144   1.924   0.296   6.873
 8749SOL     OW27145   4.301   1.000   3.547
 8749SOL    HW127146   4.264   1.055   3.622
 8749SOL    HW227147   4.359   1.056   3.489
 8750SOL     OW27148   2.541   1.126   5.192
 8750SOL    HW127149   2.488   1.162   5.270
 8750SOL    HW227150   2.577   1.202   5.138
 8751SOL     OW27151   1.963   6.894   2.770
 8751SOL    HW127152   2.025   6.825   2.808
 8751SOL    HW227153   1.934   6.866   2.678
 8752SOL     OW27154   1.718   2.480   6.277
 8752SOL    HW127155   1.768   2.562   6.249
 8752SOL    HW227156   1.620   2.497   6.273
 8753SOL     OW27157   5.184   1.359   5.184
 8753SOL    HW127158   5.162   1.363   5.281
 8753SOL    HW227159   5.222   1.447   5.155
 8754SOL     OW27160   1.275   1.061   5.762
 8754SOL    HW127161   1.291   0.965   5.786
 8754SOL    HW227162   1.253   1.068   5.664
 8755SOL     OW27163   2.052   2.115   0.908
 8755SOL    HW127164   1.998   2.196   0.882
 8755SOL    HW227165   2.097   2.132   0.996
 8756SOL     OW27166   2.210   3.127   4.424
 8756SOL    HW127167   2.218   3.116   4.524
 8756SOL    HW227168   2.253   3.049   4.379
 8757SOL     OW27169   5.313   6.036   4.629
 8757SOL    HW127170   5.377   5.960   4.621
 8757SOL    HW227171   5.337   6.107   4.563
 8758SOL     OW27172   5.783   6.438   2.138
 8758SOL    HW127173   5.851   6.406   2.204
 8758SOL    HW227174   5.719   6.364   2.119
 8759SOL     OW27175   4.936   1.300   6.046
 8759SOL    HW127176   4.922   1.233   5.973
 8759SOL    HW227177   4.856   1.302   6.105
 8760SOL     OW27178   1.920   3.100   3.696
 8760SOL    HW127179   1.887   3.097   3.790
 8760SOL    HW227180   1.880   3.179   3.649
 8761SOL     OW27181   4.942   6.551   0.977
 8761SOL    HW127182   4.933   6.452   0.976
 8761SOL    HW227183   4.892   6.590   0.899
 8762SOL     OW27184   0.685   3.633   0.639
 8762SOL    HW127185   0.683   3.667   0.733
 8762SOL    HW227186   0.674   3.710   0.576
 8763SOL     OW27187   6.922   6.328   5.939
 8763SOL    HW127188   6.924   6.428   5.945
 8763SOL    HW227189   7.013   6.295   5.914
 8764SOL     OW27190   3.365   2.102   4.981
 8764SOL    HW127191   3.343   2.056   4.895
 8764SOL    HW227192   3.283   2.145   5.019
 8765SOL     OW27193   0.153   0.418   4.952
 8765SOL    HW127194   0.223   0.347   4.957
 8765SOL    HW227195   0.194   0.506   4.975
 8766SOL     OW27196   2.460   4.477   2.720
 8766SOL    HW127197   2.429   4.417   2.794
 8766SOL    HW227198   2.443   4.432   2.632
 8767SOL     OW27199   5.021   1.761   4.536
 8767SOL    HW127200   5.010   1.772   4.635
 8767SOL    HW227201   4.961   1.826   4.488
 8768SOL     OW27202   1.252   3.388   6.827
 8768SOL    HW127203   1.185   3.354   6.762
 8768SOL    HW227204   1.273   3.317   6.894
 8769SOL     OW27205   1.898   0.726   5.204
 8769SOL    HW127206   1.974   0.752   5.264
 8769SOL    HW227207   1.890   0.793   5.130
 8770SOL     OW27208   5.389   2.184   2.389
 8770SOL    HW127209   5.398   2.274   2.433
 8770SOL    HW227210   5.479   2.155   2.356
 8771SOL     OW27211   1.419   2.436   6.329
 8771SOL    HW127212   1.428   2.336   6.321
 8771SOL    HW227213   1.342   2.467   6.274
 8772SOL     OW27214   5.352   6.978   6.974
 8772SOL    HW127215   5.269   6.998   6.923
 8772SOL    HW227216   5.421   6.940   6.912
 8773SOL     OW27217   2.680   2.325   3.193
 8773SOL    HW127218   2.634   2.368   3.116
 8773SOL    HW227219   2.633   2.240   3.216
 8774SOL     OW27220   1.213   0.889   6.868
 8774SOL    HW127221   1.163   0.975   6.883
 8774SOL    HW227222   1.302   0.909   6.827
 8775SOL     OW27223   6.177   0.027   4.280
 8775SOL    HW127224   6.221   6.970   4.236
 8775SOL    HW227225   6.241   0.069   4.345
 8776SOL     OW27226   3.628   3.134   4.825
 8776SOL    HW127227   3.535   3.100   4.812
 8776SOL    HW227228   3.693   3.069   4.785
 8777SOL     OW27229   6.217   5.451   1.827
 8777SOL    HW127230   6.210   5.469   1.925
 8777SOL    HW227231   6.175   5.526   1.776
 8778SOL     OW27232   0.739   2.306   3.032
 8778SOL    HW127233   0.690   2.337   3.114
 8778SOL    HW227234   0.780   2.385   2.986
 8779SOL     OW27235   1.960   4.231   0.640
 8779SOL    HW127236   2.032   4.173   0.601
 8779SOL    HW227237   1.963   4.321   0.597
 8780SOL     OW27238   1.849   5.834   4.077
 8780SOL    HW127239   1.844   5.822   4.176
 8780SOL    HW227240   1.944   5.843   4.049
 8781SOL     OW27241   0.687   1.988   2.660
 8781SOL    HW127242   0.729   2.045   2.590
 8781SOL    HW227243   0.750   1.976   2.736
 8782SOL     OW27244   4.679   1.815   2.717
 8782SOL    HW127245   4.584   1.796   2.694
 8782SOL    HW227246   4.707   1.901   2.673
 8783SOL     OW27247   5.188   3.397   5.317
 8783SOL    HW127248   5.125   3.325   5.348
 8783SOL    HW227249   5.164   3.423   5.224
 8784SOL     OW27250   5.515   4.180   5.494
 8784SOL    HW127251   5.502   4.121   5.415
 8784SOL    HW227252   5.612   4.186   5.516
 8785SOL     OW27253   5.488   4.847   6.898
 8785SOL    HW127254   5.469   4.931   6.948
 8785SOL    HW227255   5.554   4.866   6.825
 8786SOL     OW27256   1.174   6.113   0.444
 8786SOL    HW127257   1.247   6.167   0.401
 8786SOL    HW227258   1.180   6.019   0.411
 8787SOL     OW27259   1.261   2.836   0.470
 8787SOL    HW127260   1.269   2.881   0.560
 8787SOL    HW227261   1.203   2.755   0.479
 8788SOL     OW27262   0.905   1.932   5.584
 8788SOL    HW127263   0.967   1.868   5.630
 8788SOL    HW227264   0.918   2.023   5.622
 8789SOL     OW27265   0.046   0.080   6.803
 8789SOL    HW127266   0.064   0.123   6.892
 8789SOL    HW227267   6.972   0.052   6.798
 8790SOL     OW27268   5.185   1.970   6.893
 8790SOL    HW127269   5.093   1.944   6.922
 8790SOL    HW227270   5.248   1.894   6.909
 8791SOL     OW27271   4.879   6.609   5.696
 8791SOL    HW127272   4.974   6.580   5.710
 8791SOL    HW227273   4.879   6.702   5.658
 8792SOL     OW27274   4.652   0.278   3.031
 8792SOL    HW127275   4.594   0.253   3.109
 8792SOL    HW227276   4.605   0.253   2.946
 8793SOL     OW27277   1.132   4.982   4.561
 8793SOL    HW127278   1.086   5.064   4.528
 8793SOL    HW227279   1.064   4.914   4.588
 8794SOL     OW27280   3.071   6.843   2.763
 8794SOL    HW127281   3.003   6.852   2.690
 8794SOL    HW227282   3.094   6.746   2.775
 8795SOL     OW27283   1.697   6.425   5.477
 8795SOL    HW127284   1.691   6.459   5.383
 8795SOL    HW227285   1.768   6.356   5.483
 8796SOL     OW27286   5.322   2.795   5.467
 8796SOL    HW127287   5.373   2.875   5.497
 8796SOL    HW227288   5.230   2.797   5.505
 8797SOL     OW27289   0.412   6.555   6.957
 8797SOL    HW127290   0.403   6.548   6.858
 8797SOL    HW227291   0.503   6.590   6.980
 8798SOL     OW27292   4.155   3.364   6.183
 8798SOL    HW127293   4.093   3.317   6.246
 8798SOL    HW227294   4.170   3.308   6.102
 8799SOL     OW27295   3.938   6.281   2.687
 8799SOL    HW127296   3.928   6.376   2.717
 8799SOL    HW227297   4.036   6.258   2.679
 8800SOL     OW27298   4.361   5.389   6.779
 8800SOL    HW127299   4.330   5.328   6.706
 8800SOL    HW227300   4.365   5.339   6.865
 8801SOL     OW27301   3.096   0.334   4.794
 8801SOL    HW127302   3.026   0.292   4.736
 8801SOL    HW227303   3.078   0.432   4.801
 8802SOL     OW27304   2.905   0.139   2.247
 8802SOL    HW127305   2.995   0.178   2.223
 8802SOL    HW227306   2.856   0.203   2.306
 8803SOL     OW27307   3.617   5.982   0.777
 8803SOL    HW127308   3.550   5.977   0.851
 8803SOL    HW227309   3.590   5.920   0.703
 8804SOL     OW27310   4.153   0.311   0.757
 8804SOL    HW127311   4.197   0.281   0.842
 8804SOL    HW227312   4.163   0.240   0.688
 8805SOL     OW27313   0.098   0.240   3.022
 8805SOL    HW127314   0.018   0.300   3.013
 8805SOL    HW227315   0.136   0.221   2.932
 8806SOL     OW27316   1.879   5.056   6.875
 8806SOL    HW127317   1.836   4.975   6.833
 8806SOL    HW227318   1.974   5.062   6.845
 8807SOL     OW27319   1.414   6.306   6.348
 8807SOL    HW127320   1.361   6.315   6.432
 8807SOL    HW227321   1.373   6.363   6.277
 8808SOL     OW27322   6.233   1.372   1.147
 8808SOL    HW127323   6.204   1.372   1.051
 8808SOL    HW227324   6.224   1.280   1.184
 8809SOL     OW27325   6.278   3.969   1.205
 8809SOL    HW127326   6.284   3.870   1.216
 8809SOL    HW227327   6.370   4.009   1.203
 8810SOL     OW27328   5.030   1.284   3.941
 8810SOL    HW127329   5.095   1.274   3.866
 8810SOL    HW227330   4.951   1.337   3.910
 8811SOL     OW27331   1.133   1.663   4.003
 8811SOL    HW127332   1.099   1.661   3.909
 8811SOL    HW227333   1.188   1.581   4.020
 8812SOL     OW27334   1.506   0.741   0.840
 8812SOL    HW127335   1.534   0.702   0.928
 8812SOL    HW227336   1.493   0.839   0.851
 8813SOL     OW27337   1.526   4.768   1.407
 8813SOL    HW127338   1.603   4.797   1.350
 8813SOL    HW227339   1.555   4.693   1.467
 8814SOL     OW27340   5.515   0.032   0.148
 8814SOL    HW127341   5.440   0.001   0.090
 8814SOL    HW227342   5.567   6.974   0.180
 8815SOL     OW27343   0.063   6.317   3.114
 8815SOL    HW127344   0.046   6.230   3.160
 8815SOL    HW227345   0.054   6.304   3.015
 8816SOL     OW27346   0.842   6.007   2.021
 8816SOL    HW127347   0.892   5.962   1.947
 8816SOL    HW227348   0.906   6.059   2.078
 8817SOL     OW27349   2.709   4.574   5.461
 8817SOL    HW127350   2.775   4.558   5.387
 8817SOL    HW227351   2.676   4.668   5.457
 8818SOL     OW27352   7.002   4.874   4.575
 8818SOL    HW127353   0.022   4.935   4.507
 8818SOL    HW227354   0.051   4.811   4.608
 8819SOL     OW27355   5.565   0.118   4.380
 8819SOL    HW127356   5.648   0.098   4.328
 8819SOL    HW227357   5.587   0.173   4.460
 8820SOL     OW27358   1.863   2.823   4.081
 8820SOL    HW127359   1.911   2.842   4.167
 8820SOL    HW227360   1.795   2.751   4.096
 8821SOL     OW27361   1.924   0.727   6.285
 8821SOL    HW127362   1.925   0.795   6.358
 8821SOL    HW227363   2.015   0.722   6.243
 8822SOL     OW27364   0.095   2.049   3.728
 8822SOL    HW127365   0.158   1.976   3.754
 8822SOL    HW227366   0.111   2.129   3.787
 8823SOL     OW27367   2.413   5.481   1.812
 8823SOL    HW127368   2.351   5.422   1.761
 8823SOL    HW227369   2.487   5.427   1.851
 8824SOL     OW27370   4.096   3.465   0.822
 8824SOL    HW127371   4.182   3.517   0.818
 8824SOL    HW227372   4.027   3.511   0.767
 8825SOL     OW27373   1.646   2.221   1.603
 8825SOL    HW127374   1.578   2.282   1.642
 8825SOL    HW227375   1.710   2.191   1.674
 8826SOL     OW27376   5.783   0.991   6.899
 8826SOL    HW127377   5.825   0.914   6.948
 8826SOL    HW227378   5.752   0.960   6.809
 8827SOL     OW27379   1.163   1.117   3.819
 8827SOL    HW127380   1.089   1.142   3.881
 8827SOL    HW227381   1.195   1.025   3.840
 8828SOL     OW27382   1.763   5.917   2.644
 8828SOL    HW127383   1.687   5.857   2.619
 8828SOL    HW227384   1.732   6.012   2.640
 8829SOL     OW27385   0.619   1.534   0.004
 8829SOL    HW127386   0.597   1.605   0.072
 8829SOL    HW227387   0.602   1.444   0.044
 8830SOL     OW27388   0.444   2.254   0.665
 8830SOL    HW127389   0.387   2.334   0.684
 8830SOL    HW227390   0.391   2.186   0.614
 8831SOL     OW27391   6.896   0.889   2.657
 8831SOL    HW127392   6.836   0.895   2.578
 8831SOL    HW227393   6.987   0.924   2.633
 8832SOL     OW27394   0.474   0.795   2.338
 8832SOL    HW127395   0.507   0.726   2.402
 8832SOL    HW227396   0.374   0.794   2.336
 8833SOL     OW27397   2.104   4.694   3.473
 8833SOL    HW127398   2.022   4.653   3.514
 8833SOL    HW227399   2.184   4.639   3.495
 8834SOL     OW27400   5.606   3.841   4.709
 8834SOL    HW127401   5.643   3.750   4.689
 8834SOL    HW227402   5.608   3.857   4.807
 8835SOL     OW27403   0.356   6.962   6.570
 8835SOL    HW127404   0.337   6.982   6.666
 8835SOL    HW227405   0.451   6.934   6.560
 8836SOL     OW27406   4.876   1.840   1.061
 8836SOL    HW127407   4.813   1.917   1.070
 8836SOL    HW227408   4.898   1.825   0.965
 8837SOL     OW27409   1.220   1.695   2.353
 8837SOL    HW127410   1.143   1.753   2.382
 8837SOL    HW227411   1.185   1.621   2.296
 8838SOL     OW27412   2.362   5.862   3.804
 8838SOL    HW127413   2.350   5.907   3.893
 8838SOL    HW227414   2.383   5.765   3.818
 8839SOL     OW27415   6.341   6.506   4.029
 8839SOL    HW127416   6.258   6.473   4.073
 8839SOL    HW227417   6.340   6.483   3.932
 8840SOL     OW27418   5.343   1.601   2.149
 8840SOL    HW127419   5.383   1.546   2.076
 8840SOL    HW227420   5.401   1.595   2.231
 8841SOL     OW27421   2.118   0.579   4.367
 8841SOL    HW127422   2.048   0.508   4.364
 8841SOL    HW227423   2.199   0.548   4.317
 8842SOL     OW27424   1.735   2.758   2.346
 8842SOL    HW127425   1.744   2.663   2.377
 8842SOL    HW227426   1.720   2.759   2.247
 8843SOL     OW27427   0.394   3.269   4.536
 8843SOL    HW127428   0.297   3.288   4.522
 8843SOL    HW227429   0.409   3.170   4.534
 8844SOL     OW27430   5.790   1.359   6.241
 8844SOL    HW127431   5.862   1.362   6.310
 8844SOL    HW227432   5.801   1.278   6.184
 8845SOL     OW27433   6.056   4.225   0.173
 8845SOL    HW127434   6.109   4.177   0.103
 8845SOL    HW227435   6.067   4.180   0.261
 8846SOL     OW27436   2.337   4.824   3.059
 8846SOL    HW127437   2.247   4.862   3.078
 8846SOL    HW227438   2.347   4.806   2.961
 8847SOL     OW27439   2.175   0.776   2.595
 8847SOL    HW127440   2.204   0.681   2.592
 8847SOL    HW227441   2.112   0.790   2.671
 8848SOL     OW27442   1.545   0.058   2.858
 8848SOL    HW127443   1.606   7.000   2.855
 8848SOL    HW227444   1.481   0.054   2.781
 8849SOL     OW27445   3.007   6.722   1.254
 8849SOL    HW127446   2.925   6.760   1.213
 8849SOL    HW227447   3.088   6.766   1.214
 8850SOL     OW27448   2.636   2.565   7.021
 8850SOL    HW127449   2.678   2.614   0.076
 8850SOL    HW227450   2.700   2.564   6.944
 8851SOL     OW27451   1.566   3.380   2.664
 8851SOL    HW127452   1.487   3.336   2.621
 8851SOL    HW227453   1.590   3.331   2.748
 8852SOL     OW27454   1.198   2.339   5.894
 8852SOL    HW127455   1.222   2.414   5.833
 8852SOL    HW227456   1.101   2.345   5.919
 8853SOL     OW27457   5.655   0.949   1.362
 8853SOL    HW127458   5.650   0.999   1.276
 8853SOL    HW227459   5.565   0.913   1.386
 8854SOL     OW27460   0.914   2.104   4.902
 8854SOL    HW127461   0.833   2.133   4.850
 8854SOL    HW227462   0.916   2.152   4.990
 8855SOL     OW27463   5.158   5.178   1.307
 8855SOL    HW127464   5.253   5.207   1.303
 8855SOL    HW227465   5.125   5.187   1.401
 8856SOL     OW27466   6.779   0.873   5.692
 8856SOL    HW127467   6.790   0.893   5.594
 8856SOL    HW227468   6.756   0.957   5.740
 8857SOL     OW27469   6.161   2.340   6.359
 8857SOL    HW127470   6.123   2.284   6.285
 8857SOL    HW227471   6.113   2.427   6.364
 8858SOL     OW27472   6.595   6.388   4.835
 8858SOL    HW127473   6.505   6.348   4.857
 8858SOL    HW227474   6.634   6.428   4.918
 8859SOL     OW27475   0.701   6.635   3.233
 8859SOL    HW127476   0.771   6.611   3.166
 8859SOL    HW227477   0.742   6.689   3.306
 8860SOL     OW27478   0.040   3.901   2.927
 8860SOL    HW127479   7.018   3.810   2.933
 8860SOL    HW227480   0.039   3.932   2.832
 8861SOL     OW27481   3.750   2.886   1.143
 8861SOL    HW127482   3.807   2.961   1.110
 8861SOL    HW227483   3.662   2.887   1.095
 8862SOL     OW27484   4.647   4.788   4.852
 8862SOL    HW127485   4.701   4.839   4.919
 8862SOL    HW227486   4.684   4.696   4.842
 8863SOL     OW27487   1.990   3.849   3.206
 8863SOL    HW127488   2.033   3.807   3.286
 8863SOL    HW227489   2.041   3.826   3.124
 8864SOL     OW27490   6.569   2.004   5.117
 8864SOL    HW127491   6.481   2.025   5.075
 8864SOL    HW227492   6.624   2.088   5.123
 8865SOL     OW27493   2.982   1.292   0.575
 8865SOL    HW127494   2.912   1.241   0.524
 8865SOL    HW227495   2.953   1.303   0.670
 8866SOL     OW27496   6.134   6.551   1.953
 8866SOL    HW127497   6.093   6.463   1.930
 8866SOL    HW227498   6.063   6.616   1.977
 8867SOL     OW27499   6.473   3.354   2.350
 8867SOL    HW127500   6.525   3.276   2.386
 8867SOL    HW227501   6.411   3.389   2.421
 8868SOL     OW27502   6.993   3.159   3.553
 8868SOL    HW127503   6.934   3.078   3.562
 8868SOL    HW227504   7.010   3.198   3.643
 8869SOL     OW27505   4.015   0.328   3.316
 8869SOL    HW127506   4.086   0.326   3.387
 8869SOL    HW227507   4.049   0.380   3.237
 8870SOL     OW27508   1.774   0.507   2.875
 8870SOL    HW127509   1.740   0.439   2.940
 8870SOL    HW227510   1.702   0.575   2.858
 8871SOL     OW27511   6.686   0.211   2.101
 8871SOL    HW127512   6.743   0.203   2.019
 8871SOL    HW227513   6.600   0.163   2.088
 8872SOL     OW27514   6.783   4.114   3.730
 8872SOL    HW127515   6.825   4.182   3.790
 8872SOL    HW227516   6.784   4.148   3.636
 8873SOL     OW27517   2.214   1.826   2.495
 8873SOL    HW127518   2.202   1.727   2.504
 8873SOL    HW227519   2.155   1.861   2.423
 8874SOL     OW27520   2.590   6.701   0.336
 8874SOL    HW127521   2.688   6.704   0.353
 8874SOL    HW227522   2.561   6.784   0.288
 8875SOL     OW27523   6.661   3.224   4.157
 8875SOL    HW127524   6.565   3.213   4.132
 8875SOL    HW227525   6.686   3.321   4.156
 8876SOL     OW27526   4.737   0.241   6.978
 8876SOL    HW127527   4.802   0.182   0.003
 8876SOL    HW227528   4.784   0.293   6.906
 8877SOL     OW27529   1.036   4.652   1.125
 8877SOL    HW127530   0.962   4.686   1.183
 8877SOL    HW227531   1.006   4.652   1.030
 8878SOL     OW27532   4.882   3.967   0.963
 8878SOL    HW127533   4.903   4.001   0.871
 8878SOL    HW227534   4.967   3.937   1.007
 8879SOL     OW27535   6.655   4.205   2.691
 8879SOL    HW127536   6.652   4.299   2.726
 8879SOL    HW227537   6.563   4.179   2.660
 8880SOL     OW27538   4.274   1.433   3.150
 8880SOL    HW127539   4.185   1.395   3.176
 8880SOL    HW227540   4.311   1.381   3.073
 8881SOL     OW27541   3.791   4.873   4.037
 8881SOL    HW127542   3.851   4.886   4.116
 8881SOL    HW227543   3.844   4.832   3.962
 8882SOL     OW27544   4.063   0.876   0.270
 8882SOL    HW127545   4.088   0.814   0.344
 8882SOL    HW227546   4.017   0.957   0.307
 8883SOL     OW27547   6.976   6.546   4.168
 8883SOL    HW127548   6.986   6.508   4.076
 8883SOL    HW227549   0.012   6.494   4.232
 8884SOL     OW27550   4.969   3.606   5.574
 8884SOL    HW127551   4.987   3.508   5.578
 8884SOL    HW227552   4.872   3.622   5.559
 8885SOL     OW27553   5.709   5.955   0.917
 8885SOL    HW127554   5.802   5.936   0.949
 8885SOL    HW227555   5.660   6.008   0.987
 8886SOL     OW27556   3.887   6.053   6.813
 8886SOL    HW127557   3.903   6.021   6.720
 8886SOL    HW227558   3.974   6.065   6.861
 8887SOL     OW27559   4.574   0.395   1.415
 8887SOL    HW127560   4.581   0.386   1.515
 8887SOL    HW227561   4.666   0.392   1.375
 8888SOL     OW27562   3.255   2.079   2.289
 8888SOL    HW127563   3.169   2.120   2.256
 8888SOL    HW227564   3.292   2.019   2.218
 8889SOL     OW27565   1.412   5.108   6.715
 8889SOL    HW127566   1.504   5.116   6.676
 8889SOL    HW227567   1.366   5.196   6.711
 8890SOL     OW27568   0.801   6.549   0.022
 8890SOL    HW127569   0.787   6.465   0.075
 8890SOL    HW227570   0.772   6.628   0.077
 8891SOL     OW27571   6.158   4.152   5.551
 8891SOL    HW127572   6.219   4.227   5.527
 8891SOL    HW227573   6.183   4.070   5.499
 8892SOL     OW27574   2.630   5.540   4.795
 8892SOL    HW127575   2.702   5.534   4.726
 8892SOL    HW227576   2.546   5.499   4.759
 8893SOL     OW27577   1.197   5.082   5.132
 8893SOL    HW127578   1.219   5.015   5.061
 8893SOL    HW227579   1.098   5.098   5.135
 8894SOL     OW27580   4.644   1.810   1.360
 8894SOL    HW127581   4.681   1.763   1.440
 8894SOL    HW227582   4.559   1.857   1.384
 8895SOL     OW27583   6.776   3.925   0.979
 8895SOL    HW127584   6.679   3.930   0.955
 8895SOL    HW227585   6.788   3.942   1.077
 8896SOL     OW27586   0.350   2.245   3.890
 8896SOL    HW127587   0.403   2.327   3.911
 8896SOL    HW227588   0.408   2.164   3.902
 8897SOL     OW27589   1.565   5.025   3.919
 8897SOL    HW127590   1.626   5.104   3.929
 8897SOL    HW227591   1.475   5.055   3.888
 8898SOL     OW27592   4.851   3.933   2.377
 8898SOL    HW127593   4.922   3.867   2.352
 8898SOL    HW227594   4.765   3.885   2.391
 8899SOL     OW27595   1.681   3.910   3.543
 8899SOL    HW127596   1.735   3.992   3.526
 8899SOL    HW227597   1.593   3.935   3.583
 8900SOL     OW27598   4.759   2.234   4.306
 8900SOL    HW127599   4.797   2.315   4.263
 8900SOL    HW227600   4.688   2.195   4.247
 8901SOL     OW27601   1.320   5.017   4.205
 8901SOL    HW127602   1.350   4.948   4.140
 8901SOL    HW227603   1.321   4.979   4.297
 8902SOL     OW27604   0.642   4.710   0.420
 8902SOL    HW127605   0.723   4.755   0.380
 8902SOL    HW227606   0.587   4.670   0.348
 8903SOL     OW27607   0.932   0.096   5.344
 8903SOL    HW127608   0.858   0.065   5.403
 8903SOL    HW227609   0.935   0.196   5.345
 8904SOL     OW27610   0.517   1.139   3.479
 8904SOL    HW127611   0.587   1.206   3.455
 8904SOL    HW227612   0.512   1.130   3.579
 8905SOL     OW27613   1.126   3.510   2.682
 8905SOL    HW127614   1.185   3.576   2.634
 8905SOL    HW227615   1.089   3.553   2.765
 8906SOL     OW27616   5.982   0.096   0.149
 8906SOL    HW127617   5.892   0.134   0.128
 8906SOL    HW227618   6.048   0.170   0.162
 8907SOL     OW27619   2.927   3.577   4.861
 8907SOL    HW127620   2.984   3.499   4.837
 8907SOL    HW227621   2.873   3.555   4.942
 8908SOL     OW27622   1.600   4.214   6.774
 8908SOL    HW127623   1.546   4.191   6.855
 8908SOL    HW227624   1.549   4.278   6.717
 8909SOL     OW27625   1.128   6.164   1.435
 8909SOL    HW127626   1.060   6.232   1.407
 8909SOL    HW227627   1.107   6.132   1.527
 8910SOL     OW27628   1.499   0.381   3.447
 8910SOL    HW127629   1.546   0.469   3.460
 8910SOL    HW227630   1.559   0.307   3.476
 8911SOL     OW27631   4.402   2.319   4.871
 8911SOL    HW127632   4.327   2.369   4.915
 8911SOL    HW227633   4.364   2.248   4.813
 8912SOL     OW27634   3.759   3.227   4.115
 8912SOL    HW127635   3.739   3.218   4.212
 8912SOL    HW227636   3.722   3.148   4.066
 8913SOL     OW27637   5.216   6.248   0.023
 8913SOL    HW127638   5.258   6.176   6.989
 8913SOL    HW227639   5.264   6.256   0.111
 8914SOL     OW27640   4.909   5.020   6.097
 8914SOL    HW127641   4.817   5.059   6.110
 8914SOL    HW227642   4.932   4.962   6.174
 8915SOL     OW27643   1.455   1.078   2.951
 8915SOL    HW127644   1.414   1.104   3.038
 8915SOL    HW227645   1.464   1.159   2.893
 8916SOL     OW27646   5.000   0.987   0.924
 8916SOL    HW127647   4.943   1.040   0.986
 8916SOL    HW227648   5.081   0.954   0.972
 8917SOL     OW27649   6.058   1.737   0.429
 8917SOL    HW127650   6.024   1.716   0.337
 8917SOL    HW227651   6.128   1.808   0.423
 8918SOL     OW27652   0.658   3.541   2.550
 8918SOL    HW127653   0.608   3.481   2.488
 8918SOL    HW227654   0.756   3.527   2.537
 8919SOL     OW27655   6.310   3.282   1.538
 8919SOL    HW127656   6.240   3.283   1.610
 8919SOL    HW227657   6.400   3.282   1.580
 8920SOL     OW27658   6.739   0.790   6.723
 8920SOL    HW127659   6.819   0.832   6.679
 8920SOL    HW227660   6.656   0.828   6.684
 8921SOL     OW27661   1.815   3.110   2.336
 8921SOL    HW127662   1.717   3.103   2.354
 8921SOL    HW227663   1.854   3.185   2.389
 8922SOL     OW27664   4.344   5.672   4.272
 8922SOL    HW127665   4.341   5.574   4.250
 8922SOL    HW227666   4.254   5.712   4.257
 8923SOL     OW27667   2.285   1.778   4.741
 8923SOL    HW127668   2.340   1.714   4.794
 8923SOL    HW227669   2.219   1.728   4.686
 8924SOL     OW27670   6.346   5.012   5.413
 8924SOL    HW127671   6.379   4.918   5.405
 8924SOL    HW227672   6.350   5.041   5.509
 8925SOL     OW27673   0.759   6.098   2.568
 8925SOL    HW127674   0.833   6.152   2.606
 8925SOL    HW227675   0.755   6.009   2.614
 8926SOL     OW27676   5.908   1.102   6.339
 8926SOL    HW127677   5.976   1.166   6.375
 8926SOL    HW227678   5.824   1.109   6.393
 8927SOL     OW27679   1.642   0.672   5.725
 8927SOL    HW127680   1.565   0.732   5.703
 8927SOL    HW227681   1.637   0.644   5.821
 8928SOL     OW27682   0.387   6.856   5.339
 8928SOL    HW127683   0.338   6.852   5.426
 8928SOL    HW227684   0.388   6.951   5.306
 8929SOL     OW27685   0.336   1.383   3.842
 8929SOL    HW127686   0.434   1.365   3.853
 8929SOL    HW227687   0.298   1.413   3.929
 8930SOL     OW27688   2.250   4.894   3.405
 8930SOL    HW127689   2.197   4.976   3.386
 8930SOL    HW227690   2.188   4.822   3.438
 8931SOL     OW27691   4.324   2.924   0.326
 8931SOL    HW127692   4.280   2.997   0.274
 8931SOL    HW227693   4.266   2.843   0.325
 8932SOL     OW27694   0.854   3.525   3.574
 8932SOL    HW127695   0.757   3.519   3.552
 8932SOL    HW227696   0.904   3.455   3.522
 8933SOL     OW27697   3.837   2.145   5.038
 8933SOL    HW127698   3.843   2.163   5.136
 8933SOL    HW227699   3.930   2.141   5.000
 8934SOL     OW27700   2.511   5.793   2.935
 8934SOL    HW127701   2.576   5.760   3.003
 8934SOL    HW227702   2.504   5.726   2.860
 8935SOL     OW27703   6.614   4.705   0.755
 8935SOL    HW127704   6.581   4.619   0.716
 8935SOL    HW227705   6.657   4.760   0.683
 8936SOL     OW27706   3.617   2.708   0.913
 8936SOL    HW127707   3.600   2.610   0.907
 8936SOL    HW227708   3.543   2.751   0.965
 8937SOL     OW27709   0.417   6.350   6.386
 8937SOL    HW127710   0.321   6.376   6.400
 8937SOL    HW227711   0.453   6.311   6.470
 8938SOL     OW27712   5.229   6.267   1.868
 8938SOL    HW127713   5.150   6.296   1.922
 8938SOL    HW227714   5.254   6.173   1.892
 8939SOL     OW27715   4.317   2.083   4.768
 8939SOL    HW127716   4.309   2.067   4.866
 8939SOL    HW227717   4.268   2.011   4.718
 8940SOL     OW27718   5.672   0.649   2.903
 8940SOL    HW127719   5.661   0.567   2.846
 8940SOL    HW227720   5.605   0.718   2.875
 8941SOL     OW27721   4.945   1.711   6.142
 8941SOL    HW127722   5.043   1.721   6.161
 8941SOL    HW227723   4.932   1.645   6.069
 8942SOL     OW27724   0.948   3.100   5.292
 8942SOL    HW127725   1.003   3.018   5.278
 8942SOL    HW227726   1.003   3.169   5.340
 8943SOL     OW27727   5.234   3.430   1.065
 8943SOL    HW127728   5.194   3.462   1.151
 8943SOL    HW227729   5.326   3.396   1.082
 8944SOL     OW27730   4.234   5.475   1.098
 8944SOL    HW127731   4.200   5.516   1.183
 8944SOL    HW227732   4.194   5.383   1.088
 8945SOL     OW27733   2.225   1.136   4.366
 8945SOL    HW127734   2.277   1.090   4.294
 8945SOL    HW227735   2.136   1.092   4.376
 8946SOL     OW27736   3.881   1.441   4.677
 8946SOL    HW127737   3.859   1.365   4.617
 8946SOL    HW227738   3.975   1.432   4.710
 8947SOL     OW27739   3.875   3.966   4.964
 8947SOL    HW127740   3.940   3.979   5.039
 8947SOL    HW227741   3.923   3.927   4.885
 8948SOL     OW27742   6.489   5.082   2.601
 8948SOL    HW127743   6.575   5.079   2.550
 8948SOL    HW227744   6.417   5.040   2.546
 8949SOL     OW27745   2.462   5.422   6.897
 8949SOL    HW127746   2.401   5.495   6.868
 8949SOL    HW227747   2.538   5.414   6.832
 8950SOL     OW27748   4.764   2.457   4.762
 8950SOL    HW127749   4.667   2.479   4.762
 8950SOL    HW227750   4.780   2.374   4.708
 8951SOL     OW27751   2.566   2.457   5.908
 8951SOL    HW127752   2.629   2.508   5.967
 8951SOL    HW227753   2.484   2.511   5.892
 8952SOL     OW27754   6.456   0.444   3.209
 8952SOL    HW127755   6.469   0.355   3.166
 8952SOL    HW227756   6.361   0.455   3.237
 8953SOL     OW27757   1.840   4.268   6.922
 8953SOL    HW127758   1.818   4.245   7.016
 8953SOL    HW227759   1.770   4.231   6.861
 8954SOL     OW27760   1.566   5.889   6.115
 8954SOL    HW127761   1.487   5.922   6.167
 8954SOL    HW227762   1.537   5.863   6.023
 8955SOL     OW27763   6.015   3.569   3.675
 8955SOL    HW127764   6.104   3.529   3.696
 8955SOL    HW227765   5.976   3.608   3.759
 8956SOL     OW27766   0.928   1.128   5.593
 8956SOL    HW127767   0.915   1.056   5.525
 8956SOL    HW227768   0.895   1.215   5.556
 8957SOL     OW27769   2.899   5.274   2.039
 8957SOL    HW127770   2.891   5.335   2.118
 8957SOL    HW227771   2.992   5.279   2.003
 8958SOL     OW27772   2.368   0.554   3.835
 8958SOL    HW127773   2.417   0.533   3.750
 8958SOL    HW227774   2.432   0.595   3.900
 8959SOL     OW27775   2.829   4.631   1.444
 8959SOL    HW127776   2.908   4.613   1.503
 8959SOL    HW227777   2.855   4.616   1.349
 8960SOL     OW27778   4.163   5.979   1.426
 8960SOL    HW127779   4.243   5.954   1.481
 8960SOL    HW227780   4.160   5.923   1.343
 8961SOL     OW27781   1.394   2.473   3.838
 8961SOL    HW127782   1.336   2.453   3.918
 8961SOL    HW227783   1.467   2.535   3.866
 8962SOL     OW27784   5.110   0.534   3.596
 8962SOL    HW127785   5.162   0.487   3.525
 8962SOL    HW227786   5.067   0.615   3.558
 8963SOL     OW27787   0.294   0.626   3.792
 8963SOL    HW127788   0.319   0.534   3.823
 8963SOL    HW227789   0.202   0.649   3.824
 8964SOL     OW27790   6.435   4.707   2.817
 8964SOL    HW127791   6.455   4.802   2.839
 8964SOL    HW227792   6.396   4.662   2.898
 8965SOL     OW27793   1.320   5.435   1.165
 8965SOL    HW127794   1.234   5.446   1.215
 8965SOL    HW227795   1.344   5.338   1.161
 8966SOL     OW27796   2.991   3.093   5.304
 8966SOL    HW127797   3.010   3.027   5.232
 8966SOL    HW227798   3.007   3.185   5.270
 8967SOL     OW27799   4.224   0.128   0.591
 8967SOL    HW127800   4.202   0.053   0.653
 8967SOL    HW227801   4.280   0.094   0.515
 8968SOL     OW27802   5.451   5.401   2.948
 8968SOL    HW127803   5.480   5.486   2.906
 8968SOL    HW227804   5.531   5.350   2.980
 8969SOL     OW27805   6.225   1.198   4.412
 8969SOL    HW127806   6.189   1.130   4.348
 8969SOL    HW227807   6.195   1.289   4.384
 8970SOL     OW27808   3.940   2.098   1.647
 8970SOL    HW127809   3.859   2.115   1.591
 8970SOL    HW227810   3.958   2.177   1.706
 8971SOL     OW27811   4.390   5.721   2.797
 8971SOL    HW127812   4.338   5.703   2.880
 8971SOL    HW227813   4.486   5.694   2.811
 8972SOL     OW27814   5.322   0.789   4.730
 8972SOL    HW127815   5.315   0.846   4.648
 8972SOL    HW227816   5.268   0.706   4.718
 8973SOL     OW27817   1.340   4.623   0.273
 8973SOL    HW127818   1.257   4.572   0.251
 8973SOL    HW227819   1.409   4.561   0.309
 8974SOL     OW27820   0.302   2.750   4.028
 8974SOL    HW127821   0.286   2.775   4.124
 8974SOL    HW227822   0.285   2.829   3.969
 8975SOL     OW27823   2.695   0.061   6.935
 8975SOL    HW127824   2.756   7.005   6.949
 8975SOL    HW227825   2.704   0.125   7.012
 8976SOL     OW27826   0.226   5.194   4.898
 8976SOL    HW127827   0.266   5.102   4.900
 8976SOL    HW227828   0.300   5.262   4.899
 8977SOL     OW27829   5.825   1.125   6.078
 8977SOL    HW127830   5.816   1.036   6.033
 8977SOL    HW227831   5.884   1.115   6.158
 8978SOL     OW27832   5.358   6.069   0.833
 8978SOL    HW127833   5.299   5.999   0.794
 8978SOL    HW227834   5.453   6.051   0.808
 8979SOL     OW27835   1.712   5.059   5.030
 8979SOL    HW127836   1.781   4.988   5.038
 8979SOL    HW227837   1.743   5.129   4.966
 8980SOL     OW27838   4.031   3.204   3.979
 8980SOL    HW127839   4.073   3.199   4.069
 8980SOL    HW227840   3.939   3.243   3.987
 8981SOL     OW27841   3.374   1.293   5.375
 8981SOL    HW127842   3.413   1.324   5.461
 8981SOL    HW227843   3.291   1.239   5.393
 8982SOL     OW27844   3.884   4.455   0.417
 8982SOL    HW127845   3.866   4.506   0.501
 8982SOL    HW227846   3.922   4.516   0.348
 8983SOL     OW27847   4.886   5.124   0.454
 8983SOL    HW127848   4.906   5.126   0.356
 8983SOL    HW227849   4.851   5.034   0.479
 8984SOL     OW27850   1.990   6.075   3.261
 8984SOL    HW127851   2.026   6.160   3.301
 8984SOL    HW227852   1.971   6.089   3.164
 8985SOL     OW27853   3.778   3.171   6.011
 8985SOL    HW127854   3.793   3.148   5.915
 8985SOL    HW227855   3.731   3.259   6.017
 8986SOL     OW27856   3.819   6.018   2.676
 8986SOL    HW127857   3.819   5.999   2.578
 8986SOL    HW227858   3.849   6.112   2.691
 8987SOL     OW27859   5.456   6.400   1.939
 8987SOL    HW127860   5.389   6.338   1.897
 8987SOL    HW227861   5.437   6.410   2.036
 8988SOL     OW27862   0.616   5.329   5.157
 8988SOL    HW127863   0.640   5.236   5.132
 8988SOL    HW227864   0.637   5.344   5.254
 8989SOL     OW27865   3.435   3.093   6.670
 8989SOL    HW127866   3.383   3.031   6.610
 8989SOL    HW227867   3.439   3.054   6.762
 8990SOL     OW27868   0.402   6.473   3.688
 8990SOL    HW127869   0.473   6.512   3.630
 8990SOL    HW227870   0.374   6.541   3.757
 8991SOL     OW27871   0.982   1.973   5.323
 8991SOL    HW127872   1.060   1.911   5.318
 8991SOL    HW227873   0.935   1.961   5.410
 8992SOL     OW27874   6.204   2.947   0.157
 8992SOL    HW127875   6.237   2.865   0.111
 8992SOL    HW227876   6.138   2.994   0.098
 8993SOL     OW27877   4.718   2.439   0.078
 8993SOL    HW127878   4.781   2.410   0.005
 8993SOL    HW227879   4.767   2.500   0.141
 8994SOL     OW27880   2.060   5.562   4.064
 8994SOL    HW127881   1.985   5.505   4.096
 8994SOL    HW227882   2.022   5.637   4.009
 8995SOL     OW27883   0.049   1.372   0.413
 8995SOL    HW127884   7.018   1.451   0.446
 8995SOL    HW227885   0.086   1.322   0.491
 8996SOL     OW27886   4.456   5.435   6.191
 8996SOL    HW127887   4.501   5.476   6.112
 8996SOL    HW227888   4.525   5.401   6.255
 8997SOL     OW27889   6.160   0.817   4.999
 8997SOL    HW127890   6.138   0.816   4.901
 8997SOL    HW227891   6.259   0.805   5.011
 8998SOL     OW27892   6.045   3.011   4.273
 8998SOL    HW127893   6.024   3.055   4.186
 8998SOL    HW227894   5.979   3.041   4.343
 8999SOL     OW27895   3.823   0.183   6.053
 8999SOL    HW127896   3.739   0.193   6.000
 8999SOL    HW227897   3.830   0.090   6.089
 9000SOL     OW27898   1.473   4.087   1.237
 9000SOL    HW127899   1.470   4.187   1.243
 9000SOL    HW227900   1.514   4.049   1.320
 9001SOL     OW27901   1.006   5.177   2.842
 9001SOL    HW127902   1.044   5.230   2.918
 9001SOL    HW227903   0.975   5.239   2.770
 9002SOL     OW27904   1.141   4.405   0.218
 9002SOL    HW127905   1.180   4.345   0.148
 9002SOL    HW227906   1.078   4.352   0.275
 9003SOL     OW27907   5.803   0.315   1.225
 9003SOL    HW127908   5.873   0.382   1.251
 9003SOL    HW227909   5.713   0.355   1.235
 9004SOL     OW27910   4.121   4.356   6.979
 9004SOL    HW127911   4.172   4.411   6.913
 9004SOL    HW227912   4.099   4.413   0.037
 9005SOL     OW27913   5.052   1.196   4.881
 9005SOL    HW127914   5.147   1.167   4.890
 9005SOL    HW227915   5.037   1.278   4.937
 9006SOL     OW27916   3.588   5.798   0.592
 9006SOL    HW127917   3.674   5.776   0.546
 9006SOL    HW227918   3.543   5.713   0.619
 9007SOL     OW27919   2.451   0.882   2.638
 9007SOL    HW127920   2.522   0.903   2.571
 9007SOL    HW227921   2.362   0.874   2.592
 9008SOL     OW27922   0.735   5.864   2.674
 9008SOL    HW127923   0.664   5.852   2.743
 9008SOL    HW227924   0.815   5.809   2.699
 9009SOL     OW27925   3.763   6.010   1.310
 9009SOL    HW127926   3.779   5.912   1.303
 9009SOL    HW227927   3.759   6.050   1.218
 9010SOL     OW27928   1.536   6.173   4.260
 9010SOL    HW127929   1.503   6.144   4.350
 9010SOL    HW227930   1.634   6.193   4.266
 9011SOL     OW27931   2.852   1.865   2.127
 9011SOL    HW127932   2.885   1.956   2.153
 9011SOL    HW227933   2.785   1.874   2.053
 9012SOL     OW27934   1.668   6.179   6.391
 9012SOL    HW127935   1.710   6.181   6.301
 9012SOL    HW227936   1.596   6.250   6.396
 9013SOL     OW27937   1.913   6.488   4.177
 9013SOL    HW127938   1.848   6.467   4.104
 9013SOL    HW227939   1.888   6.438   4.260
 9014SOL     OW27940   5.416   2.864   3.190
 9014SOL    HW127941   5.352   2.917   3.133
 9014SOL    HW227942   5.484   2.926   3.229
 9015SOL     OW27943   5.236   1.587   6.860
 9015SOL    HW127944   5.291   1.596   6.777
 9015SOL    HW227945   5.144   1.622   6.843
 9016SOL     OW27946   5.706   5.618   6.490
 9016SOL    HW127947   5.689   5.535   6.436
 9016SOL    HW227948   5.804   5.628   6.506
 9017SOL     OW27949   4.277   0.403   4.618
 9017SOL    HW127950   4.306   0.334   4.684
 9017SOL    HW227951   4.294   0.371   4.525
 9018SOL     OW27952   4.035   3.975   6.442
 9018SOL    HW127953   4.099   3.943   6.373
 9018SOL    HW227954   3.958   4.022   6.398
 9019SOL     OW27955   0.516   3.713   3.755
 9019SOL    HW127956   0.527   3.722   3.854
 9019SOL    HW227957   0.528   3.617   3.729
 9020SOL     OW27958   5.703   6.210   2.476
 9020SOL    HW127959   5.729   6.195   2.572
 9020SOL    HW227960   5.780   6.186   2.417
 9021SOL     OW27961   0.639   0.868   4.502
 9021SOL    HW127962   0.618   0.772   4.482
 9021SOL    HW227963   0.688   0.874   4.589
 9022SOL     OW27964   4.441   3.234   6.205
 9022SOL    HW127965   4.414   3.172   6.131
 9022SOL    HW227966   4.387   3.215   6.287
 9023SOL     OW27967   6.087   3.939   0.862
 9023SOL    HW127968   5.989   3.947   0.841
 9023SOL    HW227969   6.138   3.924   0.778
 9024SOL     OW27970   1.642   5.269   6.162
 9024SOL    HW127971   1.622   5.239   6.068
 9024SOL    HW227972   1.572   5.332   6.193
 9025SOL     OW27973   1.085   5.525   1.300
 9025SOL    HW127974   1.072   5.614   1.256
 9025SOL    HW227975   1.056   5.531   1.395
 9026SOL     OW27976   4.740   1.611   0.008
 9026SOL    HW127977   4.701   1.677   0.072
 9026SOL    HW227978   4.678   1.598   6.952
 9027SOL     OW27979   0.922   4.069   3.096
 9027SOL    HW127980   0.928   4.073   3.196
 9027SOL    HW227981   0.877   3.984   3.069
 9028SOL     OW27982   3.234   4.765   5.852
 9028SOL    HW127983   3.244   4.689   5.788
 9028SOL    HW227984   3.325   4.800   5.877
 9029SOL     OW27985   4.202   6.416   4.426
 9029SOL    HW127986   4.166   6.368   4.346
 9029SOL    HW227987   4.155   6.504   4.435
 9030SOL     OW27988   2.543   1.604   2.718
 9030SOL    HW127989   2.481   1.645   2.785
 9030SOL    HW227990   2.615   1.669   2.695
 9031SOL     OW27991   4.346   6.829   4.566
 9031SOL    HW127992   4.405   6.857   4.490
 9031SOL    HW227993   4.403   6.792   4.640
 9032SOL     OW27994   4.939   3.738   1.802
 9032SOL    HW127995   5.012   3.788   1.757
 9032SOL    HW227996   4.890   3.799   1.864
 9033SOL     OW27997   0.754   0.002   2.794
 9033SOL    HW127998   0.781   0.011   2.890
 9033SOL    HW227999   0.656   7.005   2.788
 9034SOL     OW28000   4.408   6.254   3.893
 9034SOL    HW128001   4.317   6.215   3.906
 9034SOL    HW228002   4.408   6.350   3.920
 9035SOL     OW28003   1.838   4.623   6.291
 9035SOL    HW128004   1.743   4.642   6.317
 9035SOL    HW228005   1.862   4.675   6.209
 9036SOL     OW28006   1.496   4.070   5.351
 9036SOL    HW128007   1.577   4.027   5.392
 9036SOL    HW228008   1.428   4.087   5.423
 9037SOL     OW28009   1.389   2.058   2.747
 9037SOL    HW128010   1.440   2.001   2.811
 9037SOL    HW228011   1.418   2.038   2.654
 9038SOL     OW28012   4.327   3.328   5.337
 9038SOL    HW128013   4.260   3.372   5.277
 9038SOL    HW228014   4.318   3.228   5.328
 9039SOL     OW28015   3.900   5.972   6.554
 9039SOL    HW128016   3.803   5.983   6.532
 9039SOL    HW228017   3.943   5.913   6.486
 9040SOL     OW28018   2.574   1.640   1.469
 9040SOL    HW128019   2.480   1.612   1.447
 9040SOL    HW228020   2.589   1.629   1.567
 9041SOL     OW28021   6.746   2.245   1.734
 9041SOL    HW128022   6.741   2.220   1.638
 9041SOL    HW228023   6.841   2.240   1.766
 9042SOL     OW28024   3.761   6.188   0.194
 9042SOL    HW128025   3.710   6.169   0.110
 9042SOL    HW228026   3.806   6.105   0.226
 9043SOL     OW28027   3.219   1.935   0.319
 9043SOL    HW128028   3.141   1.894   0.368
 9043SOL    HW228029   3.304   1.909   0.365
 9044SOL     OW28030   0.979   1.140   0.235
 9044SOL    HW128031   0.989   1.239   0.230
 9044SOL    HW228032   1.067   1.099   0.260
 9045SOL     OW28033   4.122   1.680   3.641
 9045SOL    HW128034   4.095   1.584   3.641
 9045SOL    HW228035   4.100   1.721   3.729
 9046SOL     OW28036   3.438   3.853   2.332
 9046SOL    HW128037   3.405   3.939   2.294
 9046SOL    HW228038   3.397   3.838   2.422
 9047SOL     OW28039   1.178   3.479   5.860
 9047SOL    HW128040   1.129   3.565   5.849
 9047SOL    HW228041   1.213   3.448   5.772
 9048SOL     OW28042   6.557   1.979   6.114
 9048SOL    HW128043   6.653   1.981   6.086
 9048SOL    HW228044   6.503   2.039   6.055
 9049SOL     OW28045   3.088   0.018   6.187
 9049SOL    HW128046   3.071   6.942   6.168
 9049SOL    HW228047   3.150   0.027   6.264
 9050SOL     OW28048   0.677   5.150   0.298
 9050SOL    HW128049   0.721   5.075   0.348
 9050SOL    HW228050   0.747   5.203   0.250
 9051SOL     OW28051   2.547   0.849   1.537
 9051SOL    HW128052   2.568   0.934   1.585
 9051SOL    HW228053   2.449   0.846   1.516
 9052SOL     OW28054   1.290   2.272   5.411
 9052SOL    HW128055   1.319   2.253   5.504
 9052SOL    HW228056   1.329   2.359   5.380
 9053SOL     OW28057   1.633   0.976   6.976
 9053SOL    HW128058   1.652   0.880   6.993
 9053SOL    HW228059   1.551   0.984   6.919
 9054SOL     OW28060   2.382   5.872   2.345
 9054SOL    HW128061   2.370   5.836   2.437
 9054SOL    HW228062   2.475   5.906   2.334
 9055SOL     OW28063   0.283   3.849   4.579
 9055SOL    HW128064   0.211   3.876   4.515
 9055SOL    HW228065   0.297   3.921   4.647
 9056SOL     OW28066   6.172   3.131   2.877
 9056SOL    HW128067   6.244   3.087   2.930
 9056SOL    HW228068   6.187   3.230   2.875
 9057SOL     OW28069   4.166   2.109   4.230
 9057SOL    HW128070   4.131   2.015   4.226
 9057SOL    HW228071   4.114   2.160   4.299
 9058SOL     OW28072   2.134   0.743   5.383
 9058SOL    HW128073   2.103   0.810   5.450
 9058SOL    HW228074   2.229   0.719   5.402
 9059SOL     OW28075   0.865   2.096   3.115
 9059SOL    HW128076   0.921   2.126   3.192
 9059SOL    HW228077   0.807   2.172   3.085
 9060SOL     OW28078   5.453   3.008   5.558
 9060SOL    HW128079   5.500   2.973   5.640
 9060SOL    HW228080   5.423   3.101   5.575
 9061SOL     OW28081   3.237   5.570   2.757
 9061SOL    HW128082   3.270   5.604   2.669
 9061SOL    HW228083   3.193   5.644   2.808
 9062SOL     OW28084   1.725   5.590   0.991
 9062SOL    HW128085   1.676   5.563   1.074
 9062SOL    HW228086   1.823   5.594   1.010
 9063SOL     OW28087   3.087   1.503   2.032
 9063SOL    HW128088   3.094   1.499   1.933
 9063SOL    HW228089   3.004   1.456   2.062
 9064SOL     OW28090   5.790   3.676   0.416
 9064SOL    HW128091   5.696   3.710   0.415
 9064SOL    HW228092   5.840   3.718   0.491
 9065SOL     OW28093   2.181   1.102   0.040
 9065SOL    HW128094   2.117   1.124   6.987
 9065SOL    HW228095   2.275   1.116   0.008
 9066SOL     OW28096   5.227   6.403   0.293
 9066SOL    HW128097   5.247   6.382   0.389
 9066SOL    HW228098   5.258   6.496   0.272
 9067SOL     OW28099   1.279   6.384   2.665
 9067SOL    HW128100   1.215   6.395   2.589
 9067SOL    HW228101   1.231   6.394   2.752
 9068SOL     OW28102   1.699   5.975   0.072
 9068SOL    HW128103   1.680   5.948   0.166
 9068SOL    HW228104   1.711   6.075   0.067
 9069SOL     OW28105   1.168   2.776   6.283
 9069SOL    HW128106   1.203   2.691   6.243
 9069SOL    HW228107   1.244   2.834   6.311
 9070SOL     OW28108   1.183   4.182   3.605
 9070SOL    HW128109   1.120   4.197   3.528
 9070SOL    HW228110   1.235   4.266   3.621
 9071SOL     OW28111   4.874   5.910   0.603
 9071SOL    HW128112   4.782   5.946   0.612
 9071SOL    HW228113   4.918   5.908   0.693
 9072SOL     OW28114   5.204   5.317   6.975
 9072SOL    HW128115   5.155   5.385   6.920
 9072SOL    HW228116   5.220   5.236   6.919
 9073SOL     OW28117   1.955   0.310   1.719
 9073SOL    HW128118   2.026   0.247   1.753
 9073SOL    HW228119   1.890   0.328   1.792
 9074SOL     OW28120   0.801   0.246   3.465
 9074SOL    HW128121   0.828   0.317   3.401
 9074SOL    HW228122   0.828   0.273   3.558
 9075SOL     OW28123   1.092   1.113   2.481
 9075SOL    HW128124   1.159   1.043   2.458
 9075SOL    HW228125   1.011   1.102   2.424
 9076SOL     OW28126   6.762   1.863   5.265
 9076SOL    HW128127   6.685   1.900   5.213
 9076SOL    HW228128   6.843   1.919   5.250
 9077SOL     OW28129   5.858   6.366   1.705
 9077SOL    HW128130   5.839   6.284   1.759
 9077SOL    HW228131   5.781   6.430   1.714
 9078SOL     OW28132   3.838   2.922   5.072
 9078SOL    HW128133   3.888   2.895   4.990
 9078SOL    HW228134   3.863   3.015   5.099
 9079SOL     OW28135   3.263   0.601   5.744
 9079SOL    HW128136   3.196   0.614   5.817
 9079SOL    HW228137   3.238   0.521   5.689
 9080SOL     OW28138   5.288   1.358   0.442
 9080SOL    HW128139   5.369   1.348   0.385
 9080SOL    HW228140   5.309   1.417   0.520
 9081SOL     OW28141   5.404   0.208   2.300
 9081SOL    HW128142   5.313   0.234   2.332
 9081SOL    HW228143   5.397   0.161   2.212
 9082SOL     OW28144   3.280   0.696   3.246
 9082SOL    HW128145   3.313   0.790   3.255
 9082SOL    HW228146   3.346   0.643   3.192
 9083SOL     OW28147   4.546   5.055   4.403
 9083SOL    HW128148   4.529   5.137   4.458
 9083SOL    HW228149   4.548   4.975   4.462
 9084SOL     OW28150   3.858   3.562   2.973
 9084SOL    HW128151   3.845   3.495   2.900
 9084SOL    HW228152   3.771   3.578   3.020
 9085SOL     OW28153   1.198   2.259   0.913
 9085SOL    HW128154   1.221   2.301   0.825
 9085SOL    HW228155   1.267   2.284   0.981
 9086SOL     OW28156   0.456   3.589   0.253
 9086SOL    HW128157   0.403   3.537   0.186
 9086SOL    HW228158   0.445   3.687   0.236
 9087SOL     OW28159   4.918   3.568   2.036
 9087SOL    HW128160   4.905   3.469   2.046
 9087SOL    HW228161   4.923   3.591   1.939
 9088SOL     OW28162   5.390   6.814   1.377
 9088SOL    HW128163   5.379   6.863   1.464
 9088SOL    HW228164   5.300   6.789   1.342
 9089SOL     OW28165   4.019   0.141   5.830
 9089SOL    HW128166   3.948   0.145   5.900
 9089SOL    HW228167   4.027   0.231   5.787
 9090SOL     OW28168   5.473   1.557   3.115
 9090SOL    HW128169   5.532   1.559   3.034
 9090SOL    HW228170   5.512   1.496   3.184
 9091SOL     OW28171   3.165   2.371   6.477
 9091SOL    HW128172   3.137   2.461   6.512
 9091SOL    HW228173   3.264   2.366   6.474
 9092SOL     OW28174   6.823   2.978   6.289
 9092SOL    HW128175   6.837   3.067   6.333
 9092SOL    HW228176   6.888   2.912   6.327
 9093SOL     OW28177   2.059   6.370   5.244
 9093SOL    HW128178   2.154   6.343   5.228
 9093SOL    HW228179   1.998   6.294   5.223
 9094SOL     OW28180   0.910   3.795   1.533
 9094SOL    HW128181   0.895   3.893   1.549
 9094SOL    HW228182   0.985   3.763   1.591
 9095SOL     OW28183   6.856   6.631   5.418
 9095SOL    HW128184   6.899   6.541   5.415
 9095SOL    HW228185   6.777   6.631   5.357
 9096SOL     OW28186   6.840   5.153   3.894
 9096SOL    HW128187   6.856   5.080   3.827
 9096SOL    HW228188   6.741   5.168   3.903
 9097SOL     OW28189   0.908   2.378   5.848
 9097SOL    HW128190   0.885   2.474   5.830
 9097SOL    HW228191   0.887   2.356   5.943
 9098SOL     OW28192   2.345   4.563   3.564
 9098SOL    HW128193   2.341   4.482   3.622
 9098SOL    HW228194   2.397   4.542   3.481
 9099SOL     OW28195   2.166   1.876   6.932
 9099SOL    HW128196   2.240   1.813   6.958
 9099SOL    HW228197   2.205   1.957   6.889
 9100SOL     OW28198   1.338   4.413   3.573
 9100SOL    HW128199   1.418   4.366   3.535
 9100SOL    HW228200   1.359   4.510   3.584
 9101SOL     OW28201   0.572   2.720   0.696
 9101SOL    HW128202   0.598   2.797   0.638
 9101SOL    HW228203   0.473   2.721   0.711
 9102SOL     OW28204   4.182   6.823   2.726
 9102SOL    HW128205   4.163   6.749   2.662
 9102SOL    HW228206   4.121   6.900   2.707
 9103SOL     OW28207   6.453   1.015   1.207
 9103SOL    HW128208   6.408   0.965   1.133
 9103SOL    HW228209   6.496   0.951   1.270
 9104SOL     OW28210   6.246   1.905   6.204
 9104SOL    HW128211   6.323   1.952   6.247
 9104SOL    HW228212   6.273   1.811   6.182
 9105SOL     OW28213   2.470   1.123   5.680
 9105SOL    HW128214   2.518   1.060   5.741
 9105SOL    HW228215   2.535   1.192   5.646
 9106SOL     OW28216   1.343   3.612   0.023
 9106SOL    HW128217   1.294   3.561   6.974
 9106SOL    HW228218   1.330   3.568   0.112
 9107SOL     OW28219   3.459   1.866   0.395
 9107SOL    HW128220   3.462   1.781   0.343
 9107SOL    HW228221   3.495   1.940   0.339
 9108SOL     OW28222   6.651   5.548   5.931
 9108SOL    HW128223   6.625   5.522   6.023
 9108SOL    HW228224   6.597   5.628   5.902
 9109SOL     OW28225   5.762   3.956   2.718
 9109SOL    HW128226   5.756   4.003   2.630
 9109SOL    HW228227   5.824   4.008   2.778
 9110SOL     OW28228   1.273   5.781   3.367
 9110SOL    HW128229   1.180   5.789   3.403
 9110SOL    HW228230   1.318   5.870   3.371
 9111SOL     OW28231   4.168   2.253   6.521
 9111SOL    HW128232   4.120   2.188   6.580
 9111SOL    HW228233   4.222   2.315   6.577
 9112SOL     OW28234   1.245   5.361   1.724
 9112SOL    HW128235   1.184   5.308   1.665
 9112SOL    HW228236   1.192   5.407   1.795
 9113SOL     OW28237   5.576   0.311   4.612
 9113SOL    HW128238   5.604   0.294   4.707
 9113SOL    HW228239   5.529   0.399   4.607
 9114SOL     OW28240   0.845   6.504   5.915
 9114SOL    HW128241   0.897   6.429   5.873
 9114SOL    HW228242   0.890   6.591   5.895
 9115SOL     OW28243   4.786   4.196   4.860
 9115SOL    HW128244   4.789   4.159   4.953
 9115SOL    HW228245   4.773   4.121   4.795
 9116SOL     OW28246   1.732   0.393   3.173
 9116SOL    HW128247   1.649   0.442   3.147
 9116SOL    HW228248   1.747   0.317   3.109
 9117SOL     OW28249   2.443   6.382   0.317
 9117SOL    HW128250   2.513   6.452   0.326
 9117SOL    HW228251   2.480   6.303   0.268
 9118SOL     OW28252   6.655   3.768   2.107
 9118SOL    HW128253   6.682   3.733   2.198
 9118SOL    HW228254   6.736   3.804   2.061
 9119SOL     OW28255   3.130   0.542   0.043
 9119SOL    HW128256   3.200   0.487   0.089
 9119SOL    HW228257   3.168   0.630   0.016
 9120SOL     OW28258   6.188   3.924   4.863
 9120SOL    HW128259   6.203   4.005   4.807
 9120SOL    HW228260   6.091   3.918   4.886
 9121SOL     OW28261   4.030   0.446   4.505
 9121SOL    HW128262   4.020   0.518   4.436
 9121SOL    HW228263   4.121   0.453   4.546
 9122SOL     OW28264   0.857   3.223   1.271
 9122SOL    HW128265   0.932   3.225   1.337
 9122SOL    HW228266   0.883   3.166   1.193
 9123SOL     OW28267   6.938   6.147   4.273
 9123SOL    HW128268   6.995   6.203   4.212
 9123SOL    HW228269   6.984   6.137   4.361
 9124SOL     OW28270   3.005   5.084   0.647
 9124SOL    HW128271   3.009   5.055   0.551
 9124SOL    HW228272   2.939   5.158   0.656
 9125SOL     OW28273   5.653   6.522   1.779
 9125SOL    HW128274   5.605   6.481   1.857
 9125SOL    HW228275   5.586   6.550   1.710
 9126SOL     OW28276   4.390   4.692   0.573
 9126SOL    HW128277   4.362   4.774   0.622
 9126SOL    HW228278   4.409   4.715   0.477
 9127SOL     OW28279   6.678   4.971   5.115
 9127SOL    HW128280   6.737   5.035   5.164
 9127SOL    HW228281   6.604   4.940   5.175
 9128SOL     OW28282   5.757   4.294   5.777
 9128SOL    HW128283   5.780   4.375   5.830
 9128SOL    HW228284   5.661   4.271   5.791
 9129SOL     OW28285   0.959   2.750   0.456
 9129SOL    HW128286   1.007   2.726   0.372
 9129SOL    HW228287   0.908   2.672   0.490
 9130SOL     OW28288   3.096   3.374   4.808
 9130SOL    HW128289   3.084   3.289   4.756
 9130SOL    HW228290   3.177   3.422   4.774
 9131SOL     OW28291   5.366   2.423   0.587
 9131SOL    HW128292   5.305   2.394   0.513
 9131SOL    HW228293   5.318   2.415   0.674
 9132SOL     OW28294   0.774   3.845   3.993
 9132SOL    HW128295   0.683   3.803   3.994
 9132SOL    HW228296   0.764   3.945   3.988
 9133SOL     OW28297   5.989   6.970   1.076
 9133SOL    HW128298   5.908   6.978   1.134
 9133SOL    HW228299   6.015   0.039   1.043
 9134SOL     OW28300   5.043   4.770   0.498
 9134SOL    HW128301   4.965   4.794   0.556
 9134SOL    HW228302   5.011   4.717   0.419
 9135SOL     OW28303   6.413   6.082   2.951
 9135SOL    HW128304   6.351   6.069   3.028
 9135SOL    HW228305   6.386   6.164   2.900
 9136SOL     OW28306   6.750   4.995   0.232
 9136SOL    HW128307   6.738   4.957   0.324
 9136SOL    HW228308   6.676   4.963   0.172
 9137SOL     OW28309   5.446   6.485   5.421
 9137SOL    HW128310   5.452   6.557   5.352
 9137SOL    HW228311   5.496   6.515   5.503
 9138SOL     OW28312   1.995   3.764   6.670
 9138SOL    HW128313   1.981   3.863   6.668
 9138SOL    HW228314   1.978   3.730   6.762
 9139SOL     OW28315   6.874   0.207   1.583
 9139SOL    HW128316   6.945   0.138   1.572
 9139SOL    HW228317   6.840   0.236   1.494
 9140SOL     OW28318   1.815   3.710   2.615
 9140SOL    HW128319   1.780   3.633   2.562
 9140SOL    HW228320   1.853   3.676   2.701
 9141SOL     OW28321   0.199   5.901   4.824
 9141SOL    HW128322   0.141   5.982   4.815
 9141SOL    HW228323   0.143   5.822   4.848
 9142SOL     OW28324   0.773   4.979   3.876
 9142SOL    HW128325   0.717   4.904   3.912
 9142SOL    HW228326   0.869   4.962   3.896
 9143SOL     OW28327   6.174   4.162   3.215
 9143SOL    HW128328   6.260   4.111   3.227
 9143SOL    HW228329   6.163   4.226   3.291
 9144SOL     OW28330   3.020   4.145   5.323
 9144SOL    HW128331   3.065   4.130   5.235
 9144SOL    HW228332   2.930   4.101   5.323
 9145SOL     OW28333   1.414   5.832   5.885
 9145SOL    HW128334   1.468   5.888   5.823
 9145SOL    HW228335   1.329   5.879   5.908
 9146SOL     OW28336   6.166   2.879   3.201
 9146SOL    HW128337   6.140   2.870   3.297
 9146SOL    HW228338   6.092   2.925   3.151
 9147SOL     OW28339   3.802   0.119   5.482
 9147SOL    HW128340   3.753   0.145   5.565
 9147SOL    HW228341   3.809   0.019   5.476
 9148SOL     OW28342   5.031   5.719   1.350
 9148SOL    HW128343   4.976   5.638   1.368
 9148SOL    HW228344   5.128   5.697   1.363
 9149SOL     OW28345   0.342   3.610   0.689
 9149SOL    HW128346   0.384   3.693   0.652
 9149SOL    HW228347   0.357   3.534   0.626
 9150SOL     OW28348   2.816   3.443   6.828
 9150SOL    HW128349   2.750   3.395   6.886
 9150SOL    HW228350   2.826   3.395   6.741
 9151SOL     OW28351   2.154   3.343   3.699
 9151SOL    HW128352   2.074   3.362   3.756
 9151SOL    HW228353   2.203   3.263   3.735
 9152SOL     OW28354   2.072   3.962   2.846
 9152SOL    HW128355   2.115   3.987   2.760
 9152SOL    HW228356   1.976   3.939   2.830
 9153SOL     OW28357   0.434   2.920   6.198
 9153SOL    HW128358   0.442   2.904   6.099
 9153SOL    HW228359   0.373   2.998   6.214
 9154SOL     OW28360   5.078   4.944   3.367
 9154SOL    HW128361   5.158   5.004   3.363
 9154SOL    HW228362   5.090   4.876   3.439
 9155SOL     OW28363   1.086   5.955   2.695
 9155SOL    HW128364   1.023   5.900   2.750
 9155SOL    HW228365   1.154   5.895   2.653
 9156SOL     OW28366   6.654   4.142   5.593
 9156SOL    HW128367   6.601   4.154   5.677
 9156SOL    HW228368   6.697   4.228   5.568
 9157SOL     OW28369   1.341   4.144   5.557
 9157SOL    HW128370   1.363   4.219   5.620
 9157SOL    HW228371   1.252   4.105   5.582
 9158SOL     OW28372   6.713   3.535   4.723
 9158SOL    HW128373   6.812   3.552   4.716
 9158SOL    HW228374   6.683   3.553   4.817
 9159SOL     OW28375   2.269   1.605   3.591
 9159SOL    HW128376   2.259   1.539   3.665
 9159SOL    HW228377   2.303   1.559   3.509
 9160SOL     OW28378   1.272   3.203   0.002
 9160SOL    HW128379   1.291   3.147   0.083
 9160SOL    HW228380   1.250   3.143   6.947
 9161SOL     OW28381   6.277   3.457   2.493
 9161SOL    HW128382   6.211   3.383   2.509
 9161SOL    HW228383   6.238   3.543   2.526
 9162SOL     OW28384   3.994   2.287   1.851
 9162SOL    HW128385   4.051   2.253   1.925
 9162SOL    HW228386   3.900   2.300   1.884
 9163SOL     OW28387   2.377   2.342   4.251
 9163SOL    HW128388   2.336   2.272   4.193
 9163SOL    HW228389   2.462   2.308   4.290
 9164SOL     OW28390   1.999   6.850   6.359
 9164SOL    HW128391   1.921   6.848   6.296
 9164SOL    HW228392   1.966   6.837   6.453
 9165SOL     OW28393   5.373   1.605   6.220
 9165SOL    HW128394   5.458   1.582   6.267
 9165SOL    HW228395   5.369   1.559   6.131
 9166SOL     OW28396   4.638   6.438   2.053
 9166SOL    HW128397   4.642   6.480   1.962
 9166SOL    HW228398   4.600   6.504   2.118
 9167SOL     OW28399   2.089   1.586   4.673
 9167SOL    HW128400   2.064   1.538   4.757
 9167SOL    HW228401   2.121   1.519   4.605
 9168SOL     OW28402   6.706   6.122   4.929
 9168SOL    HW128403   6.689   6.086   4.837
 9168SOL    HW228404   6.620   6.151   4.971
 9169SOL     OW28405   6.560   5.846   0.483
 9169SOL    HW128406   6.603   5.757   0.499
 9169SOL    HW228407   6.630   5.912   0.456
 9170SOL     OW28408   1.733   0.921   5.549
 9170SOL    HW128409   1.783   0.837   5.527
 9170SOL    HW228410   1.635   0.901   5.555
 9171SOL     OW28411   3.679   5.630   6.785
 9171SOL    HW128412   3.708   5.579   6.704
 9171SOL    HW228413   3.580   5.624   6.795
 9172SOL     OW28414   4.514   2.005   5.485
 9172SOL    HW128415   4.453   1.946   5.432
 9172SOL    HW228416   4.461   2.080   5.525
 9173SOL     OW28417   5.813   3.887   5.437
 9173SOL    HW128418   5.841   3.946   5.362
 9173SOL    HW228419   5.800   3.942   5.520
 9174SOL     OW28420   6.296   4.557   1.303
 9174SOL    HW128421   6.303   4.562   1.403
 9174SOL    HW228422   6.253   4.471   1.277
 9175SOL     OW28423   1.927   6.896   1.325
 9175SOL    HW128424   2.012   6.845   1.339
 9175SOL    HW228425   1.898   6.936   1.411
 9176SOL     OW28426   1.889   0.632   1.767
 9176SOL    HW128427   1.818   0.675   1.822
 9176SOL    HW228428   1.912   0.542   1.806
 9177SOL     OW28429   0.804   6.741   3.816
 9177SOL    HW128430   0.743   6.703   3.886
 9177SOL    HW228431   0.876   6.674   3.795
 9178SOL     OW28432   1.280   4.719   1.078
 9178SOL    HW128433   1.184   4.706   1.104
 9178SOL    HW228434   1.327   4.631   1.080
 9179SOL     OW28435   3.697   5.237   4.100
 9179SOL    HW128436   3.738   5.157   4.143
 9179SOL    HW228437   3.621   5.208   4.042
 9180SOL     OW28438   0.339   1.010   5.294
 9180SOL    HW128439   0.378   1.077   5.230
 9180SOL    HW228440   0.241   1.029   5.306
 9181SOL     OW28441   2.820   2.340   3.964
 9181SOL    HW128442   2.880   2.307   3.890
 9181SOL    HW228443   2.853   2.305   4.051
 9182SOL     OW28444   0.403   1.986   2.619
 9182SOL    HW128445   0.492   2.014   2.655
 9182SOL    HW228446   0.342   1.963   2.695
 9183SOL     OW28447   1.837   2.016   5.981
 9183SOL    HW128448   1.813   2.105   6.019
 9183SOL    HW228449   1.801   1.943   6.040
 9184SOL     OW28450   3.088   4.163   0.977
 9184SOL    HW128451   3.024   4.183   1.051
 9184SOL    HW228452   3.064   4.077   0.934
 9185SOL     OW28453   1.418   0.273   5.967
 9185SOL    HW128454   1.510   0.241   5.946
 9185SOL    HW228455   1.418   0.373   5.975
 9186SOL     OW28456   5.139   7.015   6.792
 9186SOL    HW128457   5.156   6.996   6.695
 9186SOL    HW228458   5.058   6.966   6.822
 9187SOL     OW28459   5.451   2.801   0.660
 9187SOL    HW128460   5.354   2.822   0.655
 9187SOL    HW228461   5.464   2.706   0.688
 9188SOL     OW28462   1.759   6.938   1.108
 9188SOL    HW128463   1.675   6.888   1.133
 9188SOL    HW228464   1.828   6.922   1.179
 9189SOL     OW28465   3.200   0.384   5.622
 9189SOL    HW128466   3.223   0.312   5.688
 9189SOL    HW228467   3.166   0.343   5.538
 9190SOL     OW28468   4.329   0.810   5.095
 9190SOL    HW128469   4.251   0.757   5.062
 9190SOL    HW228470   4.326   0.815   5.195
 9191SOL     OW28471   5.817   0.035   1.656
 9191SOL    HW128472   5.911   0.004   1.673
 9191SOL    HW228473   5.797   0.114   1.714
 9192SOL     OW28474   4.884   3.774   4.554
 9192SOL    HW128475   4.943   3.741   4.481
 9192SOL    HW228476   4.879   3.706   4.627
 9193SOL     OW28477   4.073   3.720   3.268
 9193SOL    HW128478   3.979   3.701   3.239
 9193SOL    HW228479   4.136   3.660   3.219
 9194SOL     OW28480   3.608   4.925   3.158
 9194SOL    HW128481   3.637   4.905   3.065
 9194SOL    HW228482   3.526   4.982   3.157
 9195SOL     OW28483   0.476   2.785   2.682
 9195SOL    HW128484   0.473   2.745   2.773
 9195SOL    HW228485   0.409   2.739   2.623
 9196SOL     OW28486   5.134   6.388   4.361
 9196SOL    HW128487   5.163   6.359   4.453
 9196SOL    HW228488   5.202   6.451   4.324
 9197SOL     OW28489   4.621   1.536   6.707
 9197SOL    HW128490   4.583   1.462   6.651
 9197SOL    HW228491   4.657   1.608   6.648
 9198SOL     OW28492   6.065   2.318   5.595
 9198SOL    HW128493   6.106   2.378   5.527
 9198SOL    HW228494   6.081   2.357   5.686
 9199SOL     OW28495   1.444   3.409   6.293
 9199SOL    HW128496   1.535   3.370   6.311
 9199SOL    HW228497   1.443   3.451   6.202
 9200SOL     OW28498   5.039   5.760   0.877
 9200SOL    HW128499   4.950   5.782   0.916
 9200SOL    HW228500   5.074   5.676   0.917
 9201SOL     OW28501   0.587   3.512   2.224
 9201SOL    HW128502   0.549   3.425   2.253
 9201SOL    HW228503   0.592   3.515   2.124
 9202SOL     OW28504   2.101   6.326   4.077
 9202SOL    HW128505   2.073   6.305   3.983
 9202SOL    HW228506   2.027   6.373   4.125
 9203SOL     OW28507   5.092   0.861   0.264
 9203SOL    HW128508   5.039   0.900   0.189
 9203SOL    HW228509   5.138   0.778   0.232
 9204SOL     OW28510   5.141   4.593   3.240
 9204SOL    HW128511   5.195   4.628   3.164
 9204SOL    HW228512   5.044   4.613   3.224
 9205SOL     OW28513   4.524   2.504   1.502
 9205SOL    HW128514   4.491   2.516   1.596
 9205SOL    HW228515   4.613   2.549   1.492
 9206SOL     OW28516   6.350   6.045   4.543
 9206SOL    HW128517   6.254   6.017   4.547
 9206SOL    HW228518   6.356   6.144   4.552
 9207SOL     OW28519   3.614   6.155   7.000
 9207SOL    HW128520   3.628   6.104   6.915
 9207SOL    HW228521   3.516   6.170   7.013
 9208SOL     OW28522   4.270   4.020   1.702
 9208SOL    HW128523   4.344   4.076   1.739
 9208SOL    HW228524   4.276   4.018   1.603
 9209SOL     OW28525   4.133   0.124   2.646
 9209SOL    HW128526   4.065   0.087   2.582
 9209SOL    HW228527   4.107   0.100   2.740
 9210SOL     OW28528   0.720   6.760   0.182
 9210SOL    HW128529   0.779   6.744   0.261
 9210SOL    HW228530   0.735   6.853   0.147
 9211SOL     OW28531   4.683   1.357   6.173
 9211SOL    HW128532   4.602   1.301   6.191
 9211SOL    HW228533   4.687   1.433   6.238
 9212SOL     OW28534   5.873   4.111   5.629
 9212SOL    HW128535   5.832   4.193   5.669
 9212SOL    HW228536   5.971   4.127   5.614
 9213SOL     OW28537   6.467   5.966   1.867
 9213SOL    HW128538   6.526   5.885   1.873
 9213SOL    HW228539   6.416   5.963   1.781
 9214SOL     OW28540   2.312   1.378   5.704
 9214SOL    HW128541   2.391   1.317   5.700
 9214SOL    HW228542   2.231   1.326   5.730
 9215SOL     OW28543   0.495   3.646   3.466
 9215SOL    HW128544   0.422   3.713   3.458
 9215SOL    HW228545   0.469   3.575   3.532
 9216SOL     OW28546   2.563   6.152   3.042
 9216SOL    HW128547   2.635   6.101   2.995
 9216SOL    HW228548   2.488   6.090   3.066
 9217SOL     OW28549   4.398   1.887   7.018
 9217SOL    HW128550   4.433   1.796   6.993
 9217SOL    HW228551   4.332   1.918   6.950
 9218SOL     OW28552   5.464   5.513   6.611
 9218SOL    HW128553   5.395   5.466   6.556
 9218SOL    HW228554   5.544   5.533   6.555
 9219SOL     OW28555   3.036   2.493   5.660
 9219SOL    HW128556   3.083   2.580   5.673
 9219SOL    HW228557   2.963   2.483   5.728
 9220SOL     OW28558   0.412   6.798   3.275
 9220SOL    HW128559   0.501   6.754   3.292
 9220SOL    HW228560   0.419   6.854   3.193
 9221SOL     OW28561   2.873   1.459   1.220
 9221SOL    HW128562   2.928   1.539   1.243
 9221SOL    HW228563   2.789   1.488   1.174
 9222SOL     OW28564   1.311   5.101   3.914
 9222SOL    HW128565   1.283   5.197   3.910
 9222SOL    HW228566   1.254   5.052   3.981
 9223SOL     OW28567   6.223   3.302   4.550
 9223SOL    HW128568   6.268   3.266   4.468
 9223SOL    HW228569   6.292   3.333   4.615
 9224SOL     OW28570   1.958   4.607   2.872
 9224SOL    HW128571   2.028   4.602   2.801
 9224SOL    HW228572   2.000   4.591   2.961
 9225SOL     OW28573   6.741   5.318   6.092
 9225SOL    HW128574   6.823   5.374   6.108
 9225SOL    HW228575   6.738   5.244   6.159
 9226SOL     OW28576   0.986   0.722   6.021
 9226SOL    HW128577   0.968   0.790   6.092
 9226SOL    HW228578   0.960   0.759   5.932
 9227SOL     OW28579   3.341   4.239   1.087
 9227SOL    HW128580   3.253   4.194   1.096
 9227SOL    HW228581   3.354   4.269   0.992
 9228SOL     OW28582   3.953   3.153   4.862
 9228SOL    HW128583   4.039   3.182   4.820
 9228SOL    HW228584   3.963   3.155   4.962
 9229SOL     OW28585   6.484   5.357   0.145
 9229SOL    HW128586   6.498   5.433   0.207
 9229SOL    HW228587   6.572   5.325   0.110
 9230SOL     OW28588   4.550   0.588   5.131
 9230SOL    HW128589   4.646   0.562   5.137
 9230SOL    HW228590   4.522   0.594   5.035
 9231SOL     OW28591   6.190   5.682   1.602
 9231SOL    HW128592   6.226   5.624   1.529
 9231SOL    HW228593   6.090   5.683   1.598
 9232SOL     OW28594   1.237   5.560   2.034
 9232SOL    HW128595   1.322   5.610   2.047
 9232SOL    HW228596   1.241   5.474   2.084
 9233SOL     OW28597   1.027   6.730   5.943
 9233SOL    HW128598   0.953   6.751   6.006
 9233SOL    HW228599   1.111   6.776   5.973
 9234SOL     OW28600   3.175   4.253   5.746
 9234SOL    HW128601   3.165   4.181   5.677
 9234SOL    HW228602   3.128   4.225   5.830
 9235SOL     OW28603   2.366   1.704   2.909
 9235SOL    HW128604   2.309   1.772   2.861
 9235SOL    HW228605   2.372   1.729   3.006
 9236SOL     OW28606   1.617   3.194   5.656
 9236SOL    HW128607   1.701   3.141   5.662
 9236SOL    HW228608   1.606   3.229   5.563
 9237SOL     OW28609   6.305   5.344   2.744
 9237SOL    HW128610   6.367   5.282   2.697
 9237SOL    HW228611   6.215   5.342   2.701
 9238SOL     OW28612   1.580   2.626   4.699
 9238SOL    HW128613   1.561   2.584   4.788
 9238SOL    HW228614   1.678   2.619   4.679
 9239SOL     OW28615   1.034   5.056   6.026
 9239SOL    HW128616   1.089   5.011   5.956
 9239SOL    HW228617   1.044   5.155   6.017
 9240SOL     OW28618   3.947   1.783   3.821
 9240SOL    HW128619   3.849   1.766   3.803
 9240SOL    HW228620   3.969   1.754   3.914
 9241SOL     OW28621   5.961   6.637   0.141
 9241SOL    HW128622   5.954   6.721   0.195
 9241SOL    HW228623   6.033   6.579   0.179
 9242SOL     OW28624   1.906   2.675   0.886
 9242SOL    HW128625   1.875   2.588   0.847
 9242SOL    HW228626   1.956   2.657   0.970
 9243SOL     OW28627   1.670   0.003   0.170
 9243SOL    HW128628   1.757   6.995   0.208
 9243SOL    HW228629   1.683   0.088   0.119
 9244SOL     OW28630   2.470   6.280   6.599
 9244SOL    HW128631   2.504   6.190   6.626
 9244SOL    HW228632   2.427   6.324   6.678
 9245SOL     OW28633   0.790   4.877   3.119
 9245SOL    HW128634   0.762   4.955   3.063
 9245SOL    HW228635   0.715   4.851   3.180
 9246SOL     OW28636   5.112   6.601   6.540
 9246SOL    HW128637   5.123   6.685   6.487
 9246SOL    HW228638   5.151   6.524   6.489
 9247SOL     OW28639   3.862   6.559   2.962
 9247SOL    HW128640   3.836   6.655   2.951
 9247SOL    HW228641   3.780   6.506   2.985
 9248SOL     OW28642   2.550   0.753   6.580
 9248SOL    HW128643   2.625   0.720   6.522
 9248SOL    HW228644   2.581   0.755   6.675
 9249SOL     OW28645   2.638   6.598   6.671
 9249SOL    HW128646   2.714   6.629   6.614
 9249SOL    HW228647   2.567   6.669   6.674
 9250SOL     OW28648   0.551   3.390   3.289
 9250SOL    HW128649   0.460   3.411   3.254
 9250SOL    HW228650   0.596   3.475   3.319
 9251SOL     OW28651   3.200   1.680   1.528
 9251SOL    HW128652   3.214   1.673   1.429
 9251SOL    HW228653   3.130   1.749   1.547
 9252SOL     OW28654   5.884   1.301   4.685
 9252SOL    HW128655   5.821   1.275   4.758
 9252SOL    HW228656   5.961   1.238   4.682
 9253SOL     OW28657   1.948   5.583   4.622
 9253SOL    HW128658   1.859   5.538   4.612
 9253SOL    HW228659   2.019   5.527   4.579
 9254SOL     OW28660   0.505   5.259   2.310
 9254SOL    HW128661   0.462   5.349   2.305
 9254SOL    HW228662   0.604   5.269   2.308
 9255SOL     OW28663   6.213   4.207   0.783
 9255SOL    HW128664   6.123   4.166   0.772
 9255SOL    HW228665   6.274   4.142   0.828
 9256SOL     OW28666   2.574   7.019   0.673
 9256SOL    HW128667   2.643   6.957   0.636
 9256SOL    HW228668   2.610   0.091   0.675
 9257SOL     OW28669   6.092   5.865   4.483
 9257SOL    HW128670   6.011   5.821   4.522
 9257SOL    HW228671   6.087   5.861   4.384
 9258SOL     OW28672   4.425   5.452   1.933
 9258SOL    HW128673   4.329   5.443   1.963
 9258SOL    HW228674   4.451   5.371   1.880
 9259SOL     OW28675   0.532   2.426   6.786
 9259SOL    HW128676   0.632   2.435   6.778
 9259SOL    HW228677   0.495   2.393   6.699
 9260SOL     OW28678   4.844   3.965   4.731
 9260SOL    HW128679   4.879   3.921   4.813
 9260SOL    HW228680   4.838   3.898   4.657
 9261SOL     OW28681   1.452   2.577   1.998
 9261SOL    HW128682   1.362   2.620   2.013
 9261SOL    HW228683   1.480   2.591   1.903
 9262SOL     OW28684   6.523   6.279   6.129
 9262SOL    HW128685   6.542   6.183   6.111
 9262SOL    HW228686   6.435   6.287   6.177
 9263SOL     OW28687   2.260   4.463   3.249
 9263SOL    HW128688   2.185   4.467   3.183
 9263SOL    HW228689   2.328   4.532   3.226
 9264SOL     OW28690   5.171   3.756   6.477
 9264SOL    HW128691   5.196   3.768   6.573
 9264SOL    HW228692   5.229   3.686   6.436
 9265SOL     OW28693   4.867   1.014   1.372
 9265SOL    HW128694   4.815   0.980   1.294
 9265SOL    HW228695   4.954   1.051   1.341
 9266SOL     OW28696   2.182   4.154   0.859
 9266SOL    HW128697   2.212   4.153   0.955
 9266SOL    HW228698   2.088   4.121   0.854
 9267SOL     OW28699   0.781   1.603   3.976
 9267SOL    HW128700   0.805   1.700   3.969
 9267SOL    HW228701   0.683   1.592   3.965
 9268SOL     OW28702   1.089   0.925   1.853
 9268SOL    HW128703   1.080   0.976   1.938
 9268SOL    HW228704   1.038   0.839   1.860
 9269SOL     OW28705   4.276   1.154   0.090
 9269SOL    HW128706   4.237   1.205   0.013
 9269SOL    HW228707   4.259   1.056   0.077
 9270SOL     OW28708   2.888   0.920   5.776
 9270SOL    HW128709   2.897   0.871   5.862
 9270SOL    HW228710   2.867   1.016   5.795
 9271SOL     OW28711   1.423   4.667   5.764
 9271SOL    HW128712   1.436   4.567   5.763
 9271SOL    HW228713   1.511   4.712   5.753
 9272SOL     OW28714   6.404   6.246   5.641
 9272SOL    HW128715   6.461   6.176   5.685
 9272SOL    HW228716   6.443   6.336   5.658
 9273SOL     OW28717   5.518   3.535   3.772
 9273SOL    HW128718   5.423   3.540   3.740
 9273SOL    HW228719   5.563   3.456   3.729
 9274SOL     OW28720   0.524   3.224   0.691
 9274SOL    HW128721   0.613   3.192   0.657
 9274SOL    HW228722   0.493   3.302   0.636
 9275SOL     OW28723   5.679   0.822   0.713
 9275SOL    HW128724   5.635   0.903   0.675
 9275SOL    HW228725   5.649   0.810   0.808
 9276SOL     OW28726   2.602   4.835   6.695
 9276SOL    HW128727   2.671   4.800   6.631
 9276SOL    HW228728   2.580   4.930   6.673
 9277SOL     OW28729   4.553   5.100   2.471
 9277SOL    HW128730   4.638   5.131   2.428
 9277SOL    HW228731   4.500   5.046   2.405
 9278SOL     OW28732   0.300   0.054   6.125
 9278SOL    HW128733   0.222   0.000   6.091
 9278SOL    HW228734   0.348   0.003   6.196
 9279SOL     OW28735   2.918   6.415   1.920
 9279SOL    HW128736   2.830   6.387   1.881
 9279SOL    HW228737   2.928   6.376   2.011
 9280SOL     OW28738   1.194   5.695   2.751
 9280SOL    HW128739   1.252   5.742   2.817
 9280SOL    HW228740   1.237   5.607   2.726
 9281SOL     OW28741   1.735   4.874   0.741
 9281SOL    HW128742   1.646   4.887   0.697
 9281SOL    HW228743   1.763   4.960   0.784
 9282SOL     OW28744   2.932   6.685   5.032
 9282SOL    HW128745   2.915   6.587   5.020
 9282SOL    HW228746   2.871   6.737   4.972
 9283SOL     OW28747   4.879   6.291   0.980
 9283SOL    HW128748   4.830   6.208   1.008
 9283SOL    HW228749   4.959   6.266   0.926
 9284SOL     OW28750   4.177   5.197   6.942
 9284SOL    HW128751   4.078   5.206   6.935
 9284SOL    HW228752   4.200   5.116   6.996
 9285SOL     OW28753   0.133   6.364   3.512
 9285SOL    HW128754   0.167   6.300   3.443
 9285SOL    HW228755   0.210   6.407   3.558
 9286SOL     OW28756   4.863   6.661   1.453
 9286SOL    HW128757   4.877   6.733   1.521
 9286SOL    HW228758   4.765   6.644   1.442
 9287SOL     OW28759   4.167   3.652   6.238
 9287SOL    HW128760   4.197   3.559   6.216
 9287SOL    HW228761   4.067   3.653   6.248
 9288SOL     OW28762   3.913   1.749   2.246
 9288SOL    HW128763   3.960   1.699   2.174
 9288SOL    HW228764   3.856   1.821   2.206
 9289SOL     OW28765   4.876   6.237   1.319
 9289SOL    HW128766   4.876   6.185   1.405
 9289SOL    HW228767   4.842   6.179   1.245
 9290SOL     OW28768   6.466   1.300   3.957
 9290SOL    HW128769   6.444   1.397   3.966
 9290SOL    HW228770   6.492   1.279   3.863
 9291SOL     OW28771   0.298   4.132   5.861
 9291SOL    HW128772   0.323   4.048   5.813
 9291SOL    HW228773   0.338   4.132   5.952
 9292SOL     OW28774   0.274   1.632   6.668
 9292SOL    HW128775   0.362   1.594   6.697
 9292SOL    HW228776   0.232   1.573   6.599
 9293SOL     OW28777   4.313   1.775   4.926
 9293SOL    HW128778   4.298   1.817   4.836
 9293SOL    HW228779   4.232   1.788   4.983
 9294SOL     OW28780   4.675   0.028   6.795
 9294SOL    HW128781   4.734   6.969   6.809
 9294SOL    HW228782   4.706   0.103   6.853
 9295SOL     OW28783   5.865   1.145   4.218
 9295SOL    HW128784   5.809   1.153   4.300
 9295SOL    HW228785   5.947   1.090   4.239
 9296SOL     OW28786   2.211   4.731   5.835
 9296SOL    HW128787   2.275   4.656   5.816
 9296SOL    HW228788   2.117   4.698   5.825
 9297SOL     OW28789   6.781   4.987   2.172
 9297SOL    HW128790   6.867   4.953   2.133
 9297SOL    HW228791   6.710   4.916   2.163
 9298SOL     OW28792   1.324   4.028   6.542
 9298SOL    HW128793   1.248   4.076   6.586
 9298SOL    HW228794   1.354   4.080   6.462
 9299SOL     OW28795   2.757   2.318   4.732
 9299SOL    HW128796   2.767   2.323   4.831
 9299SOL    HW228797   2.772   2.223   4.703
 9300SOL     OW28798   1.900   6.588   4.745
 9300SOL    HW128799   1.849   6.504   4.729
 9300SOL    HW228800   1.998   6.569   4.739
 9301SOL     OW28801   0.839   4.104   3.949
 9301SOL    HW128802   0.903   4.031   3.923
 9301SOL    HW228803   0.890   4.189   3.966
 9302SOL     OW28804   2.429   5.094   4.531
 9302SOL    HW128805   2.439   5.190   4.503
 9302SOL    HW228806   2.440   5.088   4.630
 9303SOL     OW28807   2.644   4.207   0.139
 9303SOL    HW128808   2.594   4.254   0.211
 9303SOL    HW228809   2.653   4.267   0.060
 9304SOL     OW28810   5.256   5.416   6.477
 9304SOL    HW128811   5.276   5.364   6.394
 9304SOL    HW228812   5.161   5.401   6.504
 9305SOL     OW28813   1.639   1.646   1.310
 9305SOL    HW128814   1.568   1.717   1.305
 9305SOL    HW228815   1.647   1.601   1.221
 9306SOL     OW28816   6.831   6.316   4.710
 9306SOL    HW128817   6.808   6.310   4.612
 9306SOL    HW228818   6.747   6.335   4.762
 9307SOL     OW28819   1.544   3.992   1.475
 9307SOL    HW128820   1.481   3.941   1.534
 9307SOL    HW228821   1.597   4.056   1.531
 9308SOL     OW28822   2.256   3.328   1.685
 9308SOL    HW128823   2.301   3.390   1.749
 9308SOL    HW228824   2.321   3.300   1.614
 9309SOL     OW28825   4.979   5.430   6.571
 9309SOL    HW128826   4.952   5.344   6.613
 9309SOL    HW228827   4.898   5.480   6.540
 9310SOL     OW28828   5.846   5.828   5.721
 9310SOL    HW128829   5.748   5.806   5.717
 9310SOL    HW228830   5.886   5.783   5.801
 9311SOL     OW28831   5.018   3.816   0.694
 9311SOL    HW128832   5.113   3.800   0.721
 9311SOL    HW228833   4.958   3.760   0.751
 9312SOL     OW28834   0.103   2.846   3.685
 9312SOL    HW128835   0.005   2.862   3.694
 9312SOL    HW228836   0.119   2.755   3.647
 9313SOL     OW28837   0.821   0.652   2.281
 9313SOL    HW128838   0.743   0.645   2.343
 9313SOL    HW228839   0.895   0.594   2.315
 9314SOL     OW28840   5.354   4.980   1.088
 9314SOL    HW128841   5.268   4.942   1.122
 9314SOL    HW228842   5.415   5.000   1.165
 9315SOL     OW28843   5.248   6.174   5.652
 9315SOL    HW128844   5.334   6.225   5.658
 9315SOL    HW228845   5.246   6.123   5.566
 9316SOL     OW28846   5.218   6.999   1.066
 9316SOL    HW128847   5.227   6.905   1.100
 9316SOL    HW228848   5.121   0.003   1.061
 9317SOL     OW28849   2.551   5.978   3.654
 9317SOL    HW128850   2.632   5.921   3.654
 9317SOL    HW228851   2.484   5.942   3.720
 9318SOL     OW28852   3.787   6.988   2.200
 9318SOL    HW128853   3.808   0.056   2.241
 9318SOL    HW228854   3.804   6.916   2.267
 9319SOL     OW28855   3.987   2.148   0.120
 9319SOL    HW128856   4.041   2.079   0.168
 9319SOL    HW228857   4.004   2.141   0.022
 9320SOL     OW28858   6.819   6.596   6.868
 9320SOL    HW128859   6.756   6.518   6.869
 9320SOL    HW228860   6.808   6.647   6.783
 9321SOL     OW28861   0.881   3.430   4.543
 9321SOL    HW128862   0.817   3.369   4.589
 9321SOL    HW228863   0.973   3.419   4.582
 9322SOL     OW28864   4.967   3.149   6.788
 9322SOL    HW128865   5.062   3.148   6.819
 9322SOL    HW228866   4.958   3.092   6.706
 9323SOL     OW28867   0.799   2.347   6.131
 9323SOL    HW128868   0.772   2.443   6.136
 9323SOL    HW228869   0.773   2.300   6.215
 9324SOL     OW28870   0.241   4.574   1.402
 9324SOL    HW128871   0.267   4.617   1.315
 9324SOL    HW228872   0.287   4.621   1.477
 9325SOL     OW28873   0.837   4.718   3.494
 9325SOL    HW128874   0.834   4.698   3.591
 9325SOL    HW228875   0.912   4.782   3.475
 9326SOL     OW28876   4.678   4.580   0.584
 9326SOL    HW128877   4.579   4.566   0.579
 9326SOL    HW228878   4.699   4.677   0.572
 9327SOL     OW28879   3.387   1.196   3.388
 9327SOL    HW128880   3.358   1.201   3.484
 9327SOL    HW228881   3.308   1.214   3.329
 9328SOL     OW28882   1.606   0.637   3.480
 9328SOL    HW128883   1.689   0.659   3.429
 9328SOL    HW228884   1.537   0.707   3.463
 9329SOL     OW28885   1.267   4.895   6.606
 9329SOL    HW128886   1.214   4.884   6.522
 9329SOL    HW228887   1.321   4.979   6.601
 9330SOL     OW28888   1.213   6.535   0.340
 9330SOL    HW128889   1.272   6.456   0.321
 9330SOL    HW228890   1.206   6.592   0.259
 9331SOL     OW28891   2.284   4.153   4.050
 9331SOL    HW128892   2.214   4.212   4.010
 9331SOL    HW228893   2.278   4.062   4.011
 9332SOL     OW28894   6.093   5.093   0.346
 9332SOL    HW128895   6.128   5.061   0.434
 9332SOL    HW228896   5.994   5.106   0.353
 9333SOL     OW28897   2.934   3.827   1.672
 9333SOL    HW128898   2.959   3.763   1.744
 9333SOL    HW228899   3.016   3.875   1.641
 9334SOL     OW28900   6.736   5.790   6.107
 9334SOL    HW128901   6.683   5.720   6.154
 9334SOL    HW228902   6.815   5.815   6.163
 9335SOL     OW28903   0.476   3.803   1.552
 9335SOL    HW128904   0.436   3.714   1.573
 9335SOL    HW228905   0.567   3.810   1.593
 9336SOL     OW28906   5.155   0.130   6.023
 9336SOL    HW128907   5.145   0.129   5.923
 9336SOL    HW228908   5.068   0.103   6.065
 9337SOL     OW28909   2.576   1.621   5.647
 9337SOL    HW128910   2.623   1.534   5.629
 9337SOL    HW228911   2.492   1.625   5.592
 9338SOL     OW28912   5.530   6.271   0.631
 9338SOL    HW128913   5.597   6.332   0.589
 9338SOL    HW228914   5.564   6.177   0.629
 9339SOL     OW28915   0.078   4.080   5.099
 9339SOL    HW128916   0.027   4.010   5.050
 9339SOL    HW228917   0.019   4.120   5.170
 9340SOL     OW28918   2.567   4.889   1.780
 9340SOL    HW128919   2.666   4.875   1.786
 9340SOL    HW228920   2.543   4.974   1.825
 9341SOL     OW28921   5.724   5.221   6.561
 9341SOL    HW128922   5.709   5.281   6.639
 9341SOL    HW228923   5.751   5.275   6.481
 9342SOL     OW28924   3.327   0.245   4.895
 9342SOL    HW128925   3.393   0.285   4.831
 9342SOL    HW228926   3.234   0.265   4.863
 9343SOL     OW28927   4.663   3.498   0.667
 9343SOL    HW128928   4.587   3.530   0.610
 9343SOL    HW228929   4.629   3.432   0.734
 9344SOL     OW28930   5.571   0.562   5.347
 9344SOL    HW128931   5.623   0.647   5.361
 9344SOL    HW228932   5.495   0.580   5.285
 9345SOL     OW28933   0.684   4.795   0.152
 9345SOL    HW128934   0.593   4.818   0.185
 9345SOL    HW228935   0.720   4.871   0.096
 9346SOL     OW28936   5.242   0.353   1.995
 9346SOL    HW128937   5.241   0.285   1.922
 9346SOL    HW228938   5.336   0.369   2.026
 9347SOL     OW28939   4.271   6.233   1.141
 9347SOL    HW128940   4.177   6.243   1.172
 9347SOL    HW228941   4.292   6.307   1.076
 9348SOL     OW28942   2.208   5.442   1.393
 9348SOL    HW128943   2.276   5.372   1.412
 9348SOL    HW228944   2.243   5.532   1.419
 9349SOL     OW28945   6.954   6.196   0.916
 9349SOL    HW128946   7.015   6.120   0.889
 9349SOL    HW228947   7.004   6.258   0.976
 9350SOL     OW28948   6.790   0.906   0.431
 9350SOL    HW128949   6.889   0.911   0.443
 9350SOL    HW228950   6.755   0.824   0.476
 9351SOL     OW28951   4.174   3.321   5.903
 9351SOL    HW128952   4.180   3.222   5.891
 9351SOL    HW228953   4.262   3.362   5.882
 9352SOL     OW28954   2.697   2.434   6.652
 9352SOL    HW128955   2.725   2.338   6.651
 9352SOL    HW228956   2.777   2.492   6.666
 9353SOL     OW28957   0.286   3.158   1.523
 9353SOL    HW128958   0.292   3.207   1.436
 9353SOL    HW228959   0.190   3.154   1.552
 9354SOL     OW28960   5.222   1.494   1.693
 9354SOL    HW128961   5.130   1.498   1.654
 9354SOL    HW228962   5.256   1.587   1.707
 9355SOL     OW28963   0.063   1.410   2.275
 9355SOL    HW128964   0.118   1.491   2.254
 9355SOL    HW228965   0.123   1.336   2.304
 9356SOL     OW28966   5.241   3.517   2.742
 9356SOL    HW128967   5.259   3.587   2.674
 9356SOL    HW228968   5.147   3.484   2.734
 9357SOL     OW28969   3.102   3.893   0.902
 9357SOL    HW128970   3.162   3.864   0.828
 9357SOL    HW228971   3.143   3.866   0.990
 9358SOL     OW28972   4.996   4.332   2.067
 9358SOL    HW128973   5.022   4.259   2.131
 9358SOL    HW228974   4.958   4.291   1.984
 9359SOL     OW28975   5.290   4.593   6.165
 9359SOL    HW128976   5.339   4.545   6.093
 9359SOL    HW228977   5.273   4.531   6.241
 9360SOL     OW28978   1.198   0.763   5.370
 9360SOL    HW128979   1.277   0.706   5.391
 9360SOL    HW228980   1.115   0.719   5.405
 9361SOL     OW28981   2.323   1.242   1.994
 9361SOL    HW128982   2.224   1.240   1.982
 9361SOL    HW228983   2.345   1.240   2.091
 9362SOL     OW28984   1.566   1.649   3.095
 9362SOL    HW128985   1.568   1.740   3.136
 9362SOL    HW228986   1.657   1.607   3.102
 9363SOL     OW28987   1.802   6.356   2.154
 9363SOL    HW128988   1.824   6.332   2.059
 9363SOL    HW228989   1.708   6.389   2.159
 9364SOL     OW28990   5.796   4.691   1.029
 9364SOL    HW128991   5.866   4.709   1.098
 9364SOL    HW228992   5.777   4.775   0.978
 9365SOL     OW28993   2.391   1.320   4.895
 9365SOL    HW128994   2.440   1.234   4.883
 9365SOL    HW228995   2.318   1.308   4.963
 9366SOL     OW28996   3.532   1.330   1.909
 9366SOL    HW128997   3.467   1.314   1.984
 9366SOL    HW228998   3.532   1.251   1.848
 9367SOL     OW28999   6.607   6.108   4.052
 9367SOL    HW129000   6.593   6.050   4.133
 9367SOL    HW229001   6.565   6.197   4.068
 9368SOL     OW29002   4.774   2.694   1.288
 9368SOL    HW129003   4.765   2.639   1.371
 9368SOL    HW229004   4.688   2.694   1.238
 9369SOL     OW29005   6.582   2.355   5.878
 9369SOL    HW129006   6.628   2.270   5.855
 9369SOL    HW229007   6.516   2.378   5.805
 9370SOL     OW29008   6.243   6.749   3.472
 9370SOL    HW129009   6.226   6.812   3.548
 9370SOL    HW229010   6.329   6.702   3.487
 9371SOL     OW29011   1.207   6.736   0.551
 9371SOL    HW129012   1.229   6.831   0.530
 9371SOL    HW229013   1.228   6.679   0.471
 9372SOL     OW29014   5.863   6.195   6.982
 9372SOL    HW129015   5.833   6.153   0.046
 9372SOL    HW229016   5.953   6.157   6.957
 9373SOL     OW29017   4.617   2.637   4.107
 9373SOL    HW129018   4.688   2.578   4.068
 9373SOL    HW229019   4.656   2.690   4.182
 9374SOL     OW29020   5.326   4.302   0.440
 9374SOL    HW129021   5.357   4.227   0.498
 9374SOL    HW229022   5.332   4.275   0.344
 9375SOL     OW29023   0.776   1.548   4.405
 9375SOL    HW129024   0.859   1.500   4.379
 9375SOL    HW229025   0.718   1.487   4.459
 9376SOL     OW29026   1.662   2.805   2.062
 9376SOL    HW129027   1.639   2.711   2.038
 9376SOL    HW229028   1.756   2.824   2.037
 9377SOL     OW29029   6.086   5.099   2.728
 9377SOL    HW129030   6.056   5.026   2.788
 9377SOL    HW229031   6.067   5.188   2.771
 9378SOL     OW29032   3.570   6.302   1.400
 9378SOL    HW129033   3.495   6.359   1.366
 9378SOL    HW229034   3.546   6.266   1.490
 9379SOL     OW29035   5.706   4.745   5.549
 9379SOL    HW129036   5.675   4.658   5.511
 9379SOL    HW229037   5.684   4.748   5.647
 9380SOL     OW29038   6.198   5.741   6.402
 9380SOL    HW129039   6.123   5.727   6.337
 9380SOL    HW229040   6.160   5.769   6.491
 9381SOL     OW29041   2.071   1.112   0.336
 9381SOL    HW129042   2.124   1.131   0.419
 9381SOL    HW229043   2.117   1.154   0.257
 9382SOL     OW29044   5.735   2.038   2.701
 9382SOL    HW129045   5.638   2.043   2.724
 9382SOL    HW229046   5.790   2.072   2.777
 9383SOL     OW29047   5.592   5.764   5.702
 9383SOL    HW129048   5.565   5.806   5.788
 9383SOL    HW229049   5.511   5.750   5.645
 9384SOL     OW29050   4.214   6.456   1.891
 9384SOL    HW129051   4.211   6.361   1.859
 9384SOL    HW229052   4.147   6.510   1.839
 9385SOL     OW29053   3.756   0.719   4.195
 9385SOL    HW129054   3.725   0.671   4.277
 9385SOL    HW229055   3.803   0.803   4.220
 9386SOL     OW29056   4.127   0.001   4.853
 9386SOL    HW129057   4.203   0.008   4.788
 9386SOL    HW229058   4.061   0.074   4.834
 9387SOL     OW29059   4.044   6.543   0.550
 9387SOL    HW129060   4.052   6.487   0.633
 9387SOL    HW229061   4.077   6.491   0.471
 9388SOL     OW29062   6.461   6.437   2.586
 9388SOL    HW129063   6.449   6.536   2.593
 9388SOL    HW229064   6.492   6.414   2.494
 9389SOL     OW29065   3.459   1.367   7.019
 9389SOL    HW129066   3.438   1.445   6.960
 9389SOL    HW229067   3.388   1.359   0.068
 9390SOL     OW29068   2.667   7.017   1.894
 9390SOL    HW129069   2.759   0.035   1.897
 9390SOL    HW229070   2.660   6.944   1.962
 9391SOL     OW29071   0.598   1.186   5.384
 9391SOL    HW129072   0.683   1.154   5.425
 9391SOL    HW229073   0.590   1.152   5.290
 9392SOL     OW29074   1.394   6.382   4.121
 9392SOL    HW129075   1.444   6.467   4.131
 9392SOL    HW229076   1.434   6.312   4.181
 9393SOL     OW29077   4.053   2.225   5.531
 9393SOL    HW129078   4.018   2.308   5.489
 9393SOL    HW229079   4.103   2.249   5.615
 9394SOL     OW29080   5.784   2.675   2.143
 9394SOL    HW129081   5.761   2.772   2.159
 9394SOL    HW229082   5.705   2.629   2.103
 9395SOL     OW29083   1.909   2.318   6.408
 9395SOL    HW129084   1.963   2.383   6.462
 9395SOL    HW229085   1.830   2.365   6.369
 9396SOL     OW29086   6.367   0.339   7.006
 9396SOL    HW129087   6.343   0.256   6.955
 9396SOL    HW229088   6.433   0.317   0.056
 9397SOL     OW29089   2.881   1.274   0.838
 9397SOL    HW129090   2.794   1.228   0.820
 9397SOL    HW229091   2.933   1.221   0.904
 9398SOL     OW29092   2.149   1.705   0.435
 9398SOL    HW129093   2.131   1.671   0.528
 9398SOL    HW229094   2.115   1.798   0.427
 9399SOL     OW29095   6.776   0.680   5.387
 9399SOL    HW129096   6.869   0.707   5.413
 9399SOL    HW229097   6.761   0.584   5.412
 9400SOL     OW29098   4.384   1.956   3.758
 9400SOL    HW129099   4.365   1.936   3.854
 9400SOL    HW229100   4.298   1.973   3.710
 9401SOL     OW29101   4.281   0.364   2.676
 9401SOL    HW129102   4.206   0.299   2.681
 9401SOL    HW229103   4.367   0.318   2.700
 9402SOL     OW29104   1.788   5.024   0.143
 9402SOL    HW129105   1.829   5.046   0.054
 9402SOL    HW229106   1.833   4.945   0.183
 9403SOL     OW29107   5.783   1.082   4.471
 9403SOL    HW129108   5.858   1.079   4.537
 9403SOL    HW229109   5.719   1.155   4.496
 9404SOL     OW29110   0.692   4.029   5.463
 9404SOL    HW129111   0.728   3.999   5.552
 9404SOL    HW229112   0.707   4.128   5.453
 9405SOL     OW29113   6.786   0.324   0.936
 9405SOL    HW129114   6.779   0.273   0.850
 9405SOL    HW229115   6.697   0.364   0.958
 9406SOL     OW29116   0.096   1.193   5.945
 9406SOL    HW129117   0.180   1.226   5.903
 9406SOL    HW229118   0.045   1.137   5.879
 9407SOL     OW29119   3.691   5.928   2.886
 9407SOL    HW129120   3.760   5.883   2.943
 9407SOL    HW229121   3.734   5.959   2.801
 9408SOL     OW29122   3.804   1.842   6.556
 9408SOL    HW129123   3.745   1.864   6.634
 9408SOL    HW229124   3.856   1.759   6.576
 9409SOL     OW29125   5.706   3.869   3.324
 9409SOL    HW129126   5.764   3.818   3.387
 9409SOL    HW229127   5.632   3.914   3.375
 9410SOL     OW29128   5.030   6.366   2.230
 9410SOL    HW129129   4.989   6.338   2.143
 9410SOL    HW229130   5.109   6.307   2.250
 9411SOL     OW29131   4.670   5.239   1.114
 9411SOL    HW129132   4.595   5.290   1.072
 9411SOL    HW229133   4.754   5.254   1.063
 9412SOL     OW29134   6.441   3.174   1.301
 9412SOL    HW129135   6.417   3.249   1.364
 9412SOL    HW229136   6.381   3.177   1.221
 9413SOL     OW29137   3.527   5.774   4.798
 9413SOL    HW129138   3.428   5.776   4.810
 9413SOL    HW229139   3.552   5.694   4.743
 9414SOL     OW29140   2.642   1.590   2.119
 9414SOL    HW129141   2.728   1.540   2.132
 9414SOL    HW229142   2.660   1.675   2.069
 9415SOL     OW29143   3.055   0.785   2.130
 9415SOL    HW129144   3.091   0.811   2.041
 9415SOL    HW229145   3.060   0.863   2.193
 9416SOL     OW29146   1.078   2.007   1.245
 9416SOL    HW129147   1.147   2.079   1.249
 9416SOL    HW229148   1.122   1.921   1.220
 9417SOL     OW29149   2.696   6.886   4.594
 9417SOL    HW129150   2.705   6.789   4.572
 9417SOL    HW229151   2.769   6.937   4.550
 9418SOL     OW29152   4.086   4.392   0.764
 9418SOL    HW129153   4.111   4.308   0.812
 9418SOL    HW229154   4.029   4.449   0.824
 9419SOL     OW29155   3.821   5.641   5.423
 9419SOL    HW129156   3.867   5.558   5.456
 9419SOL    HW229157   3.847   5.718   5.480
 9420SOL     OW29158   0.802   1.709   4.747
 9420SOL    HW129159   0.787   1.684   4.651
 9420SOL    HW229160   0.748   1.650   4.806
 9421SOL     OW29161   1.991   5.511   4.919
 9421SOL    HW129162   1.894   5.528   4.905
 9421SOL    HW229163   2.022   5.440   4.855
 9422SOL     OW29164   3.962   1.344   2.241
 9422SOL    HW129165   4.001   1.254   2.258
 9422SOL    HW229166   3.916   1.344   2.152
 9423SOL     OW29167   4.781   0.790   4.838
 9423SOL    HW129168   4.806   0.877   4.794
 9423SOL    HW229169   4.685   0.793   4.864
 9424SOL     OW29170   3.328   6.293   4.436
 9424SOL    HW129171   3.398   6.332   4.377
 9424SOL    HW229172   3.289   6.365   4.494
 9425SOL     OW29173   1.195   4.750   3.971
 9425SOL    HW129174   1.205   4.655   3.939
 9425SOL    HW229175   1.284   4.784   4.001
 9426SOL     OW29176   3.944   6.390   0.251
 9426SOL    HW129177   3.893   6.304   0.244
 9426SOL    HW229178   3.880   6.466   0.263
 9427SOL     OW29179   2.949   4.868   4.227
 9427SOL    HW129180   3.010   4.897   4.301
 9427SOL    HW229181   2.874   4.814   4.265
 9428SOL     OW29182   4.462   5.907   2.485
 9428SOL    HW129183   4.482   5.946   2.574
 9428SOL    HW229184   4.379   5.851   2.491
 9429SOL     OW29185   6.777   3.191   2.653
 9429SOL    HW129186   6.795   3.280   2.609
 9429SOL    HW229187   6.767   3.205   2.752
 9430SOL     OW29188   6.661   6.821   2.111
 9430SOL    HW129189   6.655   6.814   2.011
 9430SOL    HW229190   6.577   6.860   2.147
 9431SOL     OW29191   6.663   4.421   1.591
 9431SOL    HW129192   6.660   4.465   1.502
 9431SOL    HW229193   6.572   4.385   1.614
 9432SOL     OW29194   6.622   6.772   4.333
 9432SOL    HW129195   6.652   6.678   4.315
 9432SOL    HW229196   6.697   6.835   4.313
 9433SOL     OW29197   2.682   4.723   4.746
 9433SOL    HW129198   2.740   4.788   4.696
 9433SOL    HW229199   2.719   4.710   4.838
 9434SOL     OW29200   5.229   5.212   3.029
 9434SOL    HW129201   5.177   5.207   3.115
 9434SOL    HW229202   5.285   5.295   3.029
 9435SOL     OW29203   1.528   1.299   4.918
 9435SOL    HW129204   1.594   1.258   4.855
 9435SOL    HW229205   1.563   1.387   4.950
 9436SOL     OW29206   1.881   2.686   6.236
 9436SOL    HW129207   1.964   2.730   6.272
 9436SOL    HW229208   1.834   2.750   6.174
 9437SOL     OW29209   0.480   5.307   4.028
 9437SOL    HW129210   0.462   5.326   4.124
 9437SOL    HW229211   0.419   5.362   3.970
 9438SOL     OW29212   1.043   6.695   2.265
 9438SOL    HW129213   1.123   6.729   2.314
 9438SOL    HW229214   1.038   6.738   2.175
 9439SOL     OW29215   0.835   2.697   1.494
 9439SOL    HW129216   0.803   2.755   1.569
 9439SOL    HW229217   0.764   2.691   1.423
 9440SOL     OW29218   4.488   6.068   5.527
 9440SOL    HW129219   4.531   6.129   5.593
 9440SOL    HW229220   4.550   6.053   5.450
 9441SOL     OW29221   1.615   5.208   4.699
 9441SOL    HW129222   1.709   5.193   4.731
 9441SOL    HW229223   1.608   5.181   4.603
 9442SOL     OW29224   0.757   3.507   1.132
 9442SOL    HW129225   0.774   3.489   1.229
 9442SOL    HW229226   0.752   3.420   1.083
 9443SOL     OW29227   1.853   3.317   1.398
 9443SOL    HW129228   1.876   3.227   1.361
 9443SOL    HW229229   1.933   3.356   1.443
 9444SOL     OW29230   0.425   3.865   5.928
 9444SOL    HW129231   0.523   3.872   5.946
 9444SOL    HW229232   0.376   3.847   6.014
 9445SOL     OW29233   5.694   3.549   1.327
 9445SOL    HW129234   5.605   3.526   1.368
 9445SOL    HW229235   5.709   3.648   1.335
 9446SOL     OW29236   5.857   4.929   1.263
 9446SOL    HW129237   5.928   4.864   1.236
 9446SOL    HW229238   5.868   4.951   1.360
 9447SOL     OW29239   6.084   2.743   1.468
 9447SOL    HW129240   6.079   2.718   1.565
 9447SOL    HW229241   6.151   2.685   1.422
 9448SOL     OW29242   5.730   6.077   0.373
 9448SOL    HW129243   5.784   6.038   0.298
 9448SOL    HW229244   5.787   6.141   0.425
 9449SOL     OW29245   6.965   5.292   5.253
 9449SOL    HW129246   6.981   5.238   5.171
 9449SOL    HW229247   6.926   5.233   5.324
 9450SOL     OW29248   2.745   5.101   4.570
 9450SOL    HW129249   2.688   5.066   4.644
 9450SOL    HW229250   2.688   5.150   4.504
 9451SOL     OW29251   4.356   4.070   6.043
 9451SOL    HW129252   4.386   4.161   6.014
 9451SOL    HW229253   4.298   4.030   5.972
 9452SOL     OW29254   2.984   4.089   1.291
 9452SOL    HW129255   3.006   4.131   1.379
 9452SOL    HW229256   2.942   4.157   1.231
 9453SOL     OW29257   3.081   4.856   2.273
 9453SOL    HW129258   3.153   4.869   2.205
 9453SOL    HW229259   3.010   4.796   2.237
 9454SOL     OW29260   2.581   2.641   5.313
 9454SOL    HW129261   2.663   2.690   5.346
 9454SOL    HW229262   2.600   2.601   5.224
 9455SOL     OW29263   3.176   1.650   2.293
 9455SOL    HW129264   3.261   1.689   2.258
 9455SOL    HW229265   3.118   1.624   2.216
 9456SOL     OW29266   1.799   2.990   1.244
 9456SOL    HW129267   1.764   2.897   1.235
 9456SOL    HW229268   1.741   3.052   1.192
 9457SOL     OW29269   6.931   3.247   0.374
 9457SOL    HW129270   6.838   3.272   0.401
 9457SOL    HW229271   6.978   3.328   0.337
 9458SOL     OW29272   0.335   6.090   4.559
 9458SOL    HW129273   0.432   6.074   4.537
 9458SOL    HW229274   0.329   6.147   4.641
 9459SOL     OW29275   4.435   6.121   1.800
 9459SOL    HW129276   4.509   6.151   1.740
 9459SOL    HW229277   4.348   6.155   1.766
 9460SOL     OW29278   0.904   2.395   5.175
 9460SOL    HW129279   0.815   2.371   5.214
 9460SOL    HW229280   0.972   2.328   5.203
 9461SOL     OW29281   1.526   0.579   3.100
 9461SOL    HW129282   1.528   0.561   3.001
 9461SOL    HW229283   1.577   0.662   3.119
 9462SOL     OW29284   0.521   3.557   2.816
 9462SOL    HW129285   0.447   3.623   2.798
 9462SOL    HW229286   0.564   3.531   2.730
 9463SOL     OW29287   5.257   1.516   0.127
 9463SOL    HW129288   5.333   1.460   0.159
 9463SOL    HW229289   5.207   1.467   0.056
 9464SOL     OW29290   4.554   6.862   5.969
 9464SOL    HW129291   4.520   6.785   5.916
 9464SOL    HW229292   4.499   6.943   5.950
 9465SOL     OW29293   5.843   0.277   4.521
 9465SOL    HW129294   5.745   0.297   4.528
 9465SOL    HW229295   5.857   0.205   4.453
 9466SOL     OW29296   2.257   2.124   6.845
 9466SOL    HW129297   2.192   2.199   6.856
 9466SOL    HW229298   2.344   2.149   6.888
 9467SOL     OW29299   2.073   3.196   1.983
 9467SOL    HW129300   2.120   3.284   1.985
 9467SOL    HW229301   2.084   3.150   2.072
 9468SOL     OW29302   6.972   2.467   6.344
 9468SOL    HW129303   6.892   2.412   6.322
 9468SOL    HW229304   0.034   2.420   6.315
 9469SOL     OW29305   6.497   4.251   2.307
 9469SOL    HW129306   6.431   4.326   2.315
 9469SOL    HW229307   6.472   4.195   2.228
 9470SOL     OW29308   5.144   3.592   1.288
 9470SOL    HW129309   5.201   3.662   1.329
 9470SOL    HW229310   5.049   3.605   1.316
 9471SOL     OW29311   6.749   2.310   6.253
 9471SOL    HW129312   6.650   2.308   6.264
 9471SOL    HW229313   6.772   2.300   6.156
 9472SOL     OW29314   6.798   3.269   4.654
 9472SOL    HW129315   6.765   3.358   4.685
 9472SOL    HW229316   6.790   3.264   4.554
 9473SOL     OW29317   3.764   5.201   4.974
 9473SOL    HW129318   3.709   5.200   5.057
 9473SOL    HW229319   3.709   5.235   4.898
 9474SOL     OW29320   3.955   5.200   2.662
 9474SOL    HW129321   4.000   5.145   2.732
 9474SOL    HW229322   3.902   5.140   2.602
 9475SOL     OW29323   1.177   3.915   1.327
 9475SOL    HW129324   1.141   4.001   1.364
 9475SOL    HW229325   1.249   3.880   1.386
 9476SOL     OW29326   4.032   3.488   5.510
 9476SOL    HW129327   3.958   3.468   5.575
 9476SOL    HW229328   4.012   3.574   5.463
 9477SOL     OW29329   1.405   3.166   0.996
 9477SOL    HW129330   1.311   3.200   0.984
 9477SOL    HW229331   1.453   3.170   0.908
 9478SOL     OW29332   5.474   4.633   5.246
 9478SOL    HW129333   5.462   4.593   5.337
 9478SOL    HW229334   5.414   4.586   5.181
 9479SOL     OW29335   6.781   5.805   5.612
 9479SOL    HW129336   6.823   5.882   5.564
 9479SOL    HW229337   6.821   5.796   5.703
 9480SOL     OW29338   6.014   4.682   7.004
 9480SOL    HW129339   5.969   4.603   0.025
 9480SOL    HW229340   5.990   4.686   6.907
 9481SOL     OW29341   6.449   3.688   1.958
 9481SOL    HW129342   6.360   3.704   2.001
 9481SOL    HW229343   6.522   3.713   2.021
 9482SOL     OW29344   3.972   0.521   2.772
 9482SOL    HW129345   3.949   0.448   2.837
 9482SOL    HW229346   3.900   0.590   2.772
 9483SOL     OW29347   1.908   1.868   0.333
 9483SOL    HW129348   1.818   1.905   0.311
 9483SOL    HW229349   1.953   1.926   0.401
 9484SOL     OW29350   6.307   1.095   2.603
 9484SOL    HW129351   6.407   1.094   2.613
 9484SOL    HW229352   6.272   1.186   2.626
 9485SOL     OW29353   1.176   0.625   2.881
 9485SOL    HW129354   1.184   0.555   2.952
 9485SOL    HW229355   1.240   0.700   2.901
 9486SOL     OW29356   3.119   6.117   2.129
 9486SOL    HW129357   3.141   6.201   2.079
 9486SOL    HW229358   3.178   6.109   2.209
 9487SOL     OW29359   3.162   3.084   3.687
 9487SOL    HW129360   3.184   3.128   3.600
 9487SOL    HW229361   3.194   2.989   3.686
 9488SOL     OW29362   1.591   0.192   1.204
 9488SOL    HW129363   1.517   0.208   1.139
 9488SOL    HW229364   1.598   0.094   1.223
 9489SOL     OW29365   3.469   4.068   0.441
 9489SOL    HW129366   3.519   4.007   0.503
 9489SOL    HW229367   3.500   4.054   0.347
 9490SOL     OW29368   5.413   1.101   0.241
 9490SOL    HW129369   5.330   1.070   0.287
 9490SOL    HW229370   5.487   1.037   0.259
 9491SOL     OW29371   6.423   5.191   6.451
 9491SOL    HW129372   6.373   5.269   6.488
 9491SOL    HW229373   6.378   5.160   6.367
 9492SOL     OW29374   3.128   4.090   2.056
 9492SOL    HW129375   3.188   4.082   2.136
 9492SOL    HW229376   3.042   4.131   2.084
 9493SOL     OW29377   5.210   6.575   3.122
 9493SOL    HW129378   5.210   6.478   3.144
 9493SOL    HW229379   5.163   6.589   3.034
 9494SOL     OW29380   4.404   3.378   5.794
 9494SOL    HW129381   4.347   3.432   5.731
 9494SOL    HW229382   4.497   3.370   5.756
 9495SOL     OW29383   5.904   2.890   5.363
 9495SOL    HW129384   5.923   2.919   5.457
 9495SOL    HW229385   5.836   2.951   5.323
 9496SOL     OW29386   5.589   4.085   0.257
 9496SOL    HW129387   5.618   4.119   0.346
 9496SOL    HW229388   5.652   4.013   0.227
 9497SOL     OW29389   6.960   6.461   5.647
 9497SOL    HW129390   6.894   6.536   5.646
 9497SOL    HW229391   0.020   6.488   5.699
 9498SOL     OW29392   4.074   0.321   5.655
 9498SOL    HW129393   4.143   0.254   5.630
 9498SOL    HW229394   4.025   0.351   5.572
 9499SOL     OW29395   4.639   4.327   6.033
 9499SOL    HW129396   4.704   4.252   6.020
 9499SOL    HW229397   4.660   4.401   5.969
 9500SOL     OW29398   4.958   5.607   1.733
 9500SOL    HW129399   4.921   5.570   1.818
 9500SOL    HW229400   5.052   5.637   1.747
 9501SOL     OW29401   3.211   1.698   4.895
 9501SOL    HW129402   3.151   1.621   4.918
 9501SOL    HW229403   3.306   1.669   4.902
 9502SOL     OW29404   5.445   3.427   5.388
 9502SOL    HW129405   5.467   3.338   5.429
 9502SOL    HW229406   5.348   3.429   5.365
 9503SOL     OW29407   1.751   6.321   1.191
 9503SOL    HW129408   1.670   6.337   1.134
 9503SOL    HW229409   1.813   6.258   1.144
 9504SOL     OW29410   0.645   2.924   6.362
 9504SOL    HW129411   0.570   2.921   6.296
 9504SOL    HW229412   0.683   3.016   6.366
 9505SOL     OW29413   5.659   3.533   2.850
 9505SOL    HW129414   5.702   3.547   2.939
 9505SOL    HW229415   5.585   3.466   2.859
 9506SOL     OW29416   6.378   3.342   0.442
 9506SOL    HW129417   6.311   3.287   0.492
 9506SOL    HW229418   6.470   3.313   0.468
 9507SOL     OW29419   0.753   2.277   3.934
 9507SOL    HW129420   0.678   2.227   3.889
 9507SOL    HW229421   0.840   2.237   3.907
 9508SOL     OW29422   4.965   2.026   0.350
 9508SOL    HW129423   4.917   2.114   0.341
 9508SOL    HW229424   4.943   1.985   0.438
 9509SOL     OW29425   2.556   6.768   5.277
 9509SOL    HW129426   2.546   6.790   5.374
 9509SOL    HW229427   2.646   6.797   5.245
 9510SOL     OW29428   6.304   4.588   3.025
 9510SOL    HW129429   6.248   4.515   2.985
 9510SOL    HW229430   6.396   4.553   3.044
 9511SOL     OW29431   1.125   1.627   0.960
 9511SOL    HW129432   1.122   1.599   0.864
 9511SOL    HW229433   1.035   1.661   0.988
 9512SOL     OW29434   1.221   2.407   4.044
 9512SOL    HW129435   1.208   2.315   4.080
 9512SOL    HW229436   1.170   2.473   4.100
 9513SOL     OW29437   2.400   4.378   3.781
 9513SOL    HW129438   2.433   4.411   3.870
 9513SOL    HW229439   2.362   4.287   3.792
 9514SOL     OW29440   2.235   2.979   6.287
 9514SOL    HW129441   2.250   3.078   6.289
 9514SOL    HW229442   2.203   2.949   6.377
 9515SOL     OW29443   2.582   5.695   5.873
 9515SOL    HW129444   2.579   5.747   5.787
 9515SOL    HW229445   2.629   5.750   5.943
 9516SOL     OW29446   5.292   3.728   4.646
 9516SOL    HW129447   5.366   3.796   4.644
 9516SOL    HW229448   5.256   3.716   4.554
 9517SOL     OW29449   0.697   5.793   2.090
 9517SOL    HW129450   0.700   5.736   2.008
 9517SOL    HW229451   0.758   5.872   2.078
 9518SOL     OW29452   0.764   2.786   5.344
 9518SOL    HW129453   0.749   2.697   5.387
 9518SOL    HW229454   0.805   2.849   5.410
 9519SOL     OW29455   3.504   3.191   3.074
 9519SOL    HW129456   3.515   3.159   2.980
 9519SOL    HW229457   3.587   3.237   3.104
 9520SOL     OW29458   5.012   0.499   5.937
 9520SOL    HW129459   5.038   0.556   6.015
 9520SOL    HW229460   5.090   0.443   5.909
 9521SOL     OW29461   3.357   0.681   0.864
 9521SOL    HW129462   3.309   0.767   0.883
 9521SOL    HW229463   3.328   0.645   0.775
 9522SOL     OW29464   3.433   6.662   2.436
 9522SOL    HW129465   3.477   6.624   2.355
 9522SOL    HW229466   3.411   6.588   2.499
 9523SOL     OW29467   3.065   4.869   3.949
 9523SOL    HW129468   3.161   4.877   3.923
 9523SOL    HW229469   3.056   4.877   4.048
 9524SOL     OW29470   2.541   3.877   1.023
 9524SOL    HW129471   2.560   3.903   1.118
 9524SOL    HW229472   2.622   3.895   0.967
 9525SOL     OW29473   2.376   3.254   5.321
 9525SOL    HW129474   2.416   3.178   5.270
 9525SOL    HW229475   2.417   3.258   5.413
 9526SOL     OW29476   5.389   5.402   0.348
 9526SOL    HW129477   5.366   5.478   0.408
 9526SOL    HW229478   5.432   5.329   0.402
 9527SOL     OW29479   4.185   0.336   3.523
 9527SOL    HW129480   4.279   0.309   3.506
 9527SOL    HW229481   4.128   0.254   3.532
 9528SOL     OW29482   5.586   2.145   0.902
 9528SOL    HW129483   5.671   2.095   0.920
 9528SOL    HW229484   5.574   2.156   0.803
 9529SOL     OW29485   6.243   1.147   1.468
 9529SOL    HW129486   6.290   1.063   1.493
 9529SOL    HW229487   6.221   1.146   1.371
 9530SOL     OW29488   1.324   5.382   3.910
 9530SOL    HW129489   1.352   5.425   3.995
 9530SOL    HW229490   1.307   5.453   3.841
 9531SOL     OW29491   3.585   5.352   2.497
 9531SOL    HW129492   3.603   5.405   2.580
 9531SOL    HW229493   3.514   5.285   2.516
 9532SOL     OW29494   6.660   5.021   3.021
 9532SOL    HW129495   6.692   4.944   3.076
 9532SOL    HW229496   6.571   4.999   2.981
 9533SOL     OW29497   1.969   4.164   3.419
 9533SOL    HW129498   2.049   4.103   3.418
 9533SOL    HW229499   1.916   4.151   3.335
 9534SOL     OW29500   5.548   4.884   4.508
 9534SOL    HW129501   5.641   4.918   4.523
 9534SOL    HW229502   5.498   4.950   4.451
 9535SOL     OW29503   0.618   1.472   5.459
 9535SOL    HW129504   0.637   1.374   5.460
 9535SOL    HW229505   0.521   1.487   5.479
 9536SOL     OW29506   3.688   4.203   4.969
 9536SOL    HW129507   3.737   4.117   4.954
 9536SOL    HW229508   3.591   4.188   4.953
 9537SOL     OW29509   0.399   1.494   3.598
 9537SOL    HW129510   0.366   1.465   3.688
 9537SOL    HW229511   0.499   1.498   3.599
 9538SOL     OW29512   4.392   0.578   5.341
 9538SOL    HW129513   4.453   0.600   5.264
 9538SOL    HW229514   4.417   0.489   5.379
 9539SOL     OW29515   3.474   3.567   2.058
 9539SOL    HW129516   3.510   3.607   2.143
 9539SOL    HW229517   3.550   3.545   1.997
 9540SOL     OW29518   4.271   4.739   3.639
 9540SOL    HW129519   4.319   4.827   3.637
 9540SOL    HW229520   4.183   4.751   3.685
 9541SOL     OW29521   2.077   5.722   5.740
 9541SOL    HW129522   2.115   5.653   5.678
 9541SOL    HW229523   2.005   5.681   5.796
 9542SOL     OW29524   6.184   3.773   4.106
 9542SOL    HW129525   6.133   3.733   4.183
 9542SOL    HW229526   6.167   3.720   4.023
 9543SOL     OW29527   2.502   0.115   5.701
 9543SOL    HW129528   2.526   0.134   5.606
 9543SOL    HW229529   2.567   0.049   5.739
 9544SOL     OW29530   5.838   3.255   4.251
 9544SOL    HW129531   5.885   3.224   4.168
 9544SOL    HW229532   5.836   3.180   4.317
 9545SOL     OW29533   0.732   4.556   1.811
 9545SOL    HW129534   0.731   4.602   1.722
 9545SOL    HW229535   0.817   4.579   1.859
 9546SOL     OW29536   2.387   2.671   7.016
 9546SOL    HW129537   2.378   2.741   6.945
 9546SOL    HW229538   2.476   2.628   7.009
 9547SOL     OW29539   4.155   6.843   4.024
 9547SOL    HW129540   4.183   6.750   4.048
 9547SOL    HW229541   4.205   6.908   4.080
 9548SOL     OW29542   1.356   4.402   6.764
 9548SOL    HW129543   1.296   4.462   6.711
 9548SOL    HW229544   1.351   4.428   6.861
 9549SOL     OW29545   5.023   2.222   0.985
 9549SOL    HW129546   5.089   2.283   1.027
 9549SOL    HW229547   4.932   2.262   0.990
 9550SOL     OW29548   5.189   2.921   1.507
 9550SOL    HW129549   5.113   2.985   1.515
 9550SOL    HW229550   5.274   2.966   1.535
 9551SOL     OW29551   6.312   3.622   6.474
 9551SOL    HW129552   6.383   3.566   6.431
 9551SOL    HW229553   6.342   3.648   6.566
 9552SOL     OW29554   2.855   1.717   0.118
 9552SOL    HW129555   2.778   1.741   0.059
 9552SOL    HW229556   2.853   1.619   0.137
 9553SOL     OW29557   5.321   1.329   6.499
 9553SOL    HW129558   5.392   1.369   6.441
 9553SOL    HW229559   5.240   1.309   6.443
 9554SOL     OW29560   2.822   0.260   4.009
 9554SOL    HW129561   2.802   0.325   4.083
 9554SOL    HW229562   2.912   0.220   4.023
 9555SOL     OW29563   6.483   0.367   3.702
 9555SOL    HW129564   6.445   0.442   3.648
 9555SOL    HW229565   6.428   0.354   3.784
 9556SOL     OW29566   1.963   4.484   6.815
 9556SOL    HW129567   1.873   4.513   6.783
 9556SOL    HW229568   1.953   4.406   6.877
 9557SOL     OW29569   4.838   0.820   1.848
 9557SOL    HW129570   4.827   0.885   1.773
 9557SOL    HW229571   4.932   0.825   1.882
 9558SOL     OW29572   4.840   0.065   6.526
 9558SOL    HW129573   4.839   0.010   6.609
 9558SOL    HW229574   4.819   0.008   6.447
 9559SOL     OW29575   1.779   4.109   0.417
 9559SOL    HW129576   1.808   4.147   0.505
 9559SOL    HW229577   1.680   4.094   0.419
 9560SOL     OW29578   3.234   6.848   2.273
 9560SOL    HW129579   3.256   6.762   2.321
 9560SOL    HW229580   3.311   6.911   2.281
 9561SOL     OW29581   0.746   0.315   0.870
 9561SOL    HW129582   0.845   0.309   0.858
 9561SOL    HW229583   0.723   0.400   0.917
 9562SOL     OW29584   3.121   5.767   2.918
 9562SOL    HW129585   3.097   5.739   3.011
 9562SOL    HW229586   3.167   5.855   2.921
 9563SOL     OW29587   0.572   6.370   1.067
 9563SOL    HW129588   0.645   6.343   1.004
 9563SOL    HW229589   0.601   6.451   1.118
 9564SOL     OW29590   1.283   0.638   6.963
 9564SOL    HW129591   1.270   0.568   6.893
 9564SOL    HW229592   1.248   0.726   6.929
 9565SOL     OW29593   3.278   1.686   3.686
 9565SOL    HW129594   3.344   1.612   3.697
 9565SOL    HW229595   3.293   1.731   3.598
 9566SOL     OW29596   3.404   0.631   0.292
 9566SOL    HW129597   3.494   0.664   0.262
 9566SOL    HW229598   3.397   0.641   0.391
 9567SOL     OW29599   6.729   3.702   1.354
 9567SOL    HW129600   6.735   3.687   1.452
 9567SOL    HW229601   6.645   3.660   1.318
 9568SOL     OW29602   4.925   1.366   6.881
 9568SOL    HW129603   4.957   1.285   6.832
 9568SOL    HW229604   4.914   1.344   6.978
 9569SOL     OW29605   5.954   0.913   1.820
 9569SOL    HW129606   6.013   0.855   1.875
 9569SOL    HW229607   5.970   0.894   1.723
 9570SOL     OW29608   0.317   3.309   1.297
 9570SOL    HW129609   0.378   3.382   1.325
 9570SOL    HW229610   0.341   3.279   1.204
 9571SOL     OW29611   2.253   2.447   6.689
 9571SOL    HW129612   2.232   2.414   6.781
 9571SOL    HW229613   2.168   2.468   6.641
 9572SOL     OW29614   2.170   4.173   3.756
 9572SOL    HW129615   2.149   4.077   3.736
 9572SOL    HW229616   2.098   4.212   3.813
 9573SOL     OW29617   6.354   0.948   4.505
 9573SOL    HW129618   6.330   1.030   4.452
 9573SOL    HW229619   6.291   0.938   4.582
 9574SOL     OW29620   3.476   2.945   1.061
 9574SOL    HW129621   3.498   3.031   1.015
 9574SOL    HW229622   3.409   2.962   1.133
 9575SOL     OW29623   6.441   6.212   1.253
 9575SOL    HW129624   6.448   6.114   1.239
 9575SOL    HW229625   6.530   6.255   1.235
 9576SOL     OW29626   1.188   6.731   0.176
 9576SOL    HW129627   1.199   6.775   0.087
 9576SOL    HW229628   1.153   6.798   0.242
 9577SOL     OW29629   6.175   5.219   2.298
 9577SOL    HW129630   6.143   5.300   2.348
 9577SOL    HW229631   6.223   5.158   2.362
 9578SOL     OW29632   2.098   3.110   3.003
 9578SOL    HW129633   2.125   3.200   3.035
 9578SOL    HW229634   2.067   3.116   2.908
 9579SOL     OW29635   5.709   6.024   1.775
 9579SOL    HW129636   5.703   6.090   1.849
 9579SOL    HW229637   5.732   5.934   1.812
 9580SOL     OW29638   5.286   4.837   2.825
 9580SOL    HW129639   5.244   4.801   2.742
 9580SOL    HW229640   5.267   4.776   2.902
 9581SOL     OW29641   6.187   1.193   0.241
 9581SOL    HW129642   6.212   1.235   0.328
 9581SOL    HW229643   6.094   1.157   0.248
 9582SOL     OW29644   4.837   5.979   4.458
 9582SOL    HW129645   4.756   6.015   4.412
 9582SOL    HW229646   4.918   6.028   4.427
 9583SOL     OW29647   3.733   4.538   1.635
 9583SOL    HW129648   3.651   4.527   1.691
 9583SOL    HW229649   3.769   4.631   1.646
 9584SOL     OW29650   2.164   5.992   4.937
 9584SOL    HW129651   2.119   5.932   5.003
 9584SOL    HW229652   2.260   6.001   4.961
 9585SOL     OW29653   4.447   5.858   1.206
 9585SOL    HW129654   4.436   5.758   1.209
 9585SOL    HW229655   4.367   5.898   1.161
 9586SOL     OW29656   4.478   4.919   2.252
 9586SOL    HW129657   4.392   4.963   2.226
 9586SOL    HW229658   4.474   4.822   2.228
 9587SOL     OW29659   3.106   5.930   1.868
 9587SOL    HW129660   3.067   5.914   1.959
 9587SOL    HW229661   3.106   6.028   1.848
 9588SOL     OW29662   6.192   5.521   0.465
 9588SOL    HW129663   6.180   5.513   0.563
 9588SOL    HW229664   6.141   5.601   0.431
 9589SOL     OW29665   1.572   4.077   6.213
 9589SOL    HW129666   1.599   4.136   6.137
 9589SOL    HW229667   1.514   4.129   6.277
 9590SOL     OW29668   5.802   1.464   1.305
 9590SOL    HW129669   5.819   1.366   1.304
 9590SOL    HW229670   5.813   1.499   1.398
 9591SOL     OW29671   3.830   0.722   6.817
 9591SOL    HW129672   3.806   0.680   6.904
 9591SOL    HW229673   3.837   0.651   6.746
 9592SOL     OW29674   2.246   5.942   5.652
 9592SOL    HW129675   2.262   6.021   5.711
 9592SOL    HW229676   2.156   5.904   5.671
 9593SOL     OW29677   1.904   1.769   4.757
 9593SOL    HW129678   1.975   1.823   4.802
 9593SOL    HW229679   1.946   1.704   4.694
 9594SOL     OW29680   0.300   6.702   3.833
 9594SOL    HW129681   0.218   6.706   3.776
 9594SOL    HW229682   0.338   6.794   3.843
 9595SOL     OW29683   0.710   3.636   3.328
 9595SOL    HW129684   0.620   3.650   3.368
 9595SOL    HW229685   0.781   3.662   3.394
 9596SOL     OW29686   0.536   6.885   1.323
 9596SOL    HW129687   0.610   6.944   1.289
 9596SOL    HW229688   0.448   6.925   1.298
 9597SOL     OW29689   0.845   3.238   2.170
 9597SOL    HW129690   0.872   3.328   2.134
 9597SOL    HW229691   0.844   3.242   2.270
 9598SOL     OW29692   1.407   4.021   3.678
 9598SOL    HW129693   1.343   4.094   3.655
 9598SOL    HW229694   1.356   3.940   3.707
 9599SOL     OW29695   4.157   6.978   3.780
 9599SOL    HW129696   4.141   6.925   3.863
 9599SOL    HW229697   4.250   7.014   3.780
 9600SOL     OW29698   3.088   0.694   1.155
 9600SOL    HW129699   3.039   0.644   1.226
 9600SOL    HW229700   3.186   0.682   1.166
 9601SOL     OW29701   0.231   4.120   1.306
 9601SOL    HW129702   0.183   4.087   1.387
 9601SOL    HW229703   0.165   4.135   1.232
 9602SOL     OW29704   4.357   4.901   5.788
 9602SOL    HW129705   4.365   4.964   5.710
 9602SOL    HW229706   4.437   4.841   5.791
 9603SOL     OW29707   5.127   5.666   5.317
 9603SOL    HW129708   5.194   5.625   5.378
 9603SOL    HW229709   5.108   5.760   5.345
 9604SOL     OW29710   5.301   6.701   0.302
 9604SOL    HW129711   5.392   6.706   0.262
 9604SOL    HW229712   5.232   6.695   0.229
 9605SOL     OW29713   6.125   6.402   3.042
 9605SOL    HW129714   6.165   6.427   2.954
 9605SOL    HW229715   6.184   6.434   3.116
 9606SOL     OW29716   1.483   1.655   6.516
 9606SOL    HW129717   1.529   1.736   6.555
 9606SOL    HW229718   1.418   1.684   6.447
 9607SOL     OW29719   3.310   3.145   5.902
 9607SOL    HW129720   3.264   3.162   5.989
 9607SOL    HW229721   3.401   3.107   5.919
 9608SOL     OW29722   6.621   3.722   3.583
 9608SOL    HW129723   6.669   3.721   3.671
 9608SOL    HW229724   6.609   3.817   3.553
 9609SOL     OW29725   4.356   2.808   6.194
 9609SOL    HW129726   4.325   2.728   6.245
 9609SOL    HW229727   4.456   2.808   6.191
 9610SOL     OW29728   1.267   3.972   3.022
 9610SOL    HW129729   1.192   4.016   3.072
 9610SOL    HW229730   1.351   4.026   3.034
 9611SOL     OW29731   1.216   0.284   0.559
 9611SOL    HW129732   1.301   0.324   0.524
 9611SOL    HW229733   1.143   0.299   0.493
 9612SOL     OW29734   0.426   3.144   3.312
 9612SOL    HW129735   0.326   3.149   3.310
 9612SOL    HW229736   0.464   3.235   3.329
 9613SOL     OW29737   5.968   5.836   3.563
 9613SOL    HW129738   6.006   5.827   3.655
 9613SOL    HW229739   5.878   5.879   3.569
 9614SOL     OW29740   4.937   2.275   3.260
 9614SOL    HW129741   4.884   2.279   3.175
 9614SOL    HW229742   4.918   2.188   3.307
 9615SOL     OW29743   2.456   3.006   1.085
 9615SOL    HW129744   2.458   3.007   1.185
 9615SOL    HW229745   2.466   3.099   1.050
 9616SOL     OW29746   3.849   2.680   0.076
 9616SOL    HW129747   3.821   2.714   0.165
 9616SOL    HW229748   3.941   2.714   0.054
 9617SOL     OW29749   2.261   2.380   3.848
 9617SOL    HW129750   2.347   2.329   3.852
 9617SOL    HW229751   2.219   2.369   3.758
 9618SOL     OW29752   2.777   1.115   0.566
 9618SOL    HW129753   2.751   1.102   0.662
 9618SOL    HW229754   2.715   1.181   0.523
 9619SOL     OW29755   2.779   1.165   4.576
 9619SOL    HW129756   2.693   1.179   4.527
 9619SOL    HW229757   2.844   1.236   4.551
 9620SOL     OW29758   5.721   0.172   5.553
 9620SOL    HW129759   5.716   0.272   5.546
 9620SOL    HW229760   5.632   0.132   5.529
 9621SOL     OW29761   1.808   2.920   3.392
 9621SOL    HW129762   1.900   2.960   3.389
 9621SOL    HW229763   1.816   2.820   3.391
 9622SOL     OW29764   6.042   0.290   1.550
 9622SOL    HW129765   6.117   0.232   1.517
 9622SOL    HW229766   5.955   0.243   1.534
 9623SOL     OW29767   3.013   3.678   6.421
 9623SOL    HW129768   3.049   3.758   6.373
 9623SOL    HW229769   3.018   3.693   6.520
 9624SOL     OW29770   6.061   3.421   3.374
 9624SOL    HW129771   5.986   3.368   3.414
 9624SOL    HW229772   6.123   3.450   3.447
 9625SOL     OW29773   5.908   6.006   0.176
 9625SOL    HW129774   5.843   5.936   0.146
 9625SOL    HW229775   5.994   5.995   0.125
 9626SOL     OW29776   3.113   6.526   6.741
 9626SOL    HW129777   3.095   6.613   6.788
 9626SOL    HW229778   3.095   6.450   6.804
 9627SOL     OW29779   1.507   6.528   6.753
 9627SOL    HW129780   1.445   6.494   6.824
 9627SOL    HW229781   1.469   6.610   6.711
 9628SOL     OW29782   4.123   6.185   2.168
 9628SOL    HW129783   4.103   6.213   2.262
 9628SOL    HW229784   4.057   6.227   2.106
 9629SOL     OW29785   2.788   6.818   1.151
 9629SOL    HW129786   2.733   6.900   1.167
 9629SOL    HW229787   2.748   6.764   1.077
 9630SOL     OW29788   6.351   1.052   5.907
 9630SOL    HW129789   6.350   1.117   5.831
 9630SOL    HW229790   6.362   0.959   5.871
 9631SOL     OW29791   5.658   5.914   0.044
 9631SOL    HW129792   5.661   5.826   7.019
 9631SOL    HW229793   5.612   5.904   0.133
 9632SOL     OW29794   1.385   6.244   1.977
 9632SOL    HW129795   1.330   6.198   2.047
 9632SOL    HW229796   1.473   6.197   1.968
 9633SOL     OW29797   6.763   5.461   6.746
 9633SOL    HW129798   6.704   5.536   6.716
 9633SOL    HW229799   6.708   5.380   6.764
 9634SOL     OW29800   1.162   6.075   4.704
 9634SOL    HW129801   1.159   6.175   4.697
 9634SOL    HW229802   1.186   6.049   4.797
 9635SOL     OW29803   1.739   5.369   5.237
 9635SOL    HW129804   1.838   5.380   5.230
 9635SOL    HW229805   1.718   5.282   5.282
 9636SOL     OW29806   4.447   1.372   6.527
 9636SOL    HW129807   4.528   1.325   6.494
 9636SOL    HW229808   4.399   1.416   6.451
 9637SOL     OW29809   2.221   1.502   6.965
 9637SOL    HW129810   2.164   1.454   6.898
 9637SOL    HW229811   2.237   1.442   0.023
 9638SOL     OW29812   6.639   2.410   5.422
 9638SOL    HW129813   6.600   2.335   5.475
 9638SOL    HW229814   6.622   2.393   5.324
 9639SOL     OW29815   4.196   1.256   2.492
 9639SOL    HW129816   4.193   1.157   2.480
 9639SOL    HW229817   4.277   1.280   2.545
 9640SOL     OW29818   2.157   2.167   1.963
 9640SOL    HW129819   2.086   2.216   2.013
 9640SOL    HW229820   2.217   2.232   1.917
 9641SOL     OW29821   6.112   5.763   0.335
 9641SOL    HW129822   6.033   5.742   0.278
 9641SOL    HW229823   6.192   5.776   0.277
 9642SOL     OW29824   3.444   0.229   4.182
 9642SOL    HW129825   3.421   0.258   4.275
 9642SOL    HW229826   3.415   0.300   4.117
 9643SOL     OW29827   4.420   4.564   3.468
 9643SOL    HW129828   4.405   4.632   3.395
 9643SOL    HW229829   4.370   4.593   3.550
 9644SOL     OW29830   1.992   1.640   6.276
 9644SOL    HW129831   1.899   1.675   6.282
 9644SOL    HW229832   2.057   1.712   6.303
 9645SOL     OW29833   2.982   5.258   5.302
 9645SOL    HW129834   3.007   5.280   5.396
 9645SOL    HW229835   2.916   5.182   5.301
 9646SOL     OW29836   4.291   4.819   3.364
 9646SOL    HW129837   4.295   4.809   3.464
 9646SOL    HW229838   4.198   4.839   3.336
 9647SOL     OW29839   6.619   2.983   0.450
 9647SOL    HW129840   6.560   2.998   0.371
 9647SOL    HW229841   6.628   2.884   0.467
 9648SOL     OW29842   4.471   3.011   1.040
 9648SOL    HW129843   4.514   3.069   1.109
 9648SOL    HW229844   4.393   2.964   1.080
 9649SOL     OW29845   2.205   5.680   0.604
 9649SOL    HW129846   2.124   5.649   0.654
 9649SOL    HW229847   2.183   5.686   0.506
 9650SOL     OW29848   6.967   6.846   1.899
 9650SOL    HW129849   6.873   6.817   1.917
 9650SOL    HW229850   7.007   6.787   1.829
 9651SOL     OW29851   0.343   2.034   5.528
 9651SOL    HW129852   0.403   1.985   5.464
 9651SOL    HW229853   0.351   2.132   5.513
 9652SOL     OW29854   0.934   5.686   2.782
 9652SOL    HW129855   0.903   5.614   2.845
 9652SOL    HW229856   1.033   5.693   2.786
 9653SOL     OW29857   6.025   5.001   4.319
 9653SOL    HW129858   5.993   5.015   4.413
 9653SOL    HW229859   6.039   4.904   4.302
 9654SOL     OW29860   2.146   2.783   2.301
 9654SOL    HW129861   2.171   2.750   2.210
 9654SOL    HW229862   2.074   2.725   2.338
 9655SOL     OW29863   5.897   2.746   6.707
 9655SOL    HW129864   5.805   2.742   6.668
 9655SOL    HW229865   5.963   2.766   6.635
 9656SOL     OW29866   3.264   0.651   2.466
 9656SOL    HW129867   3.354   0.621   2.497
 9656SOL    HW229868   3.246   0.744   2.499
 9657SOL     OW29869   0.284   0.228   5.076
 9657SOL    HW129870   0.381   0.235   5.055
 9657SOL    HW229871   0.258   0.302   5.140
 9658SOL     OW29872   6.232   2.475   2.635
 9658SOL    HW129873   6.145   2.518   2.610
 9658SOL    HW229874   6.244   2.478   2.734
 9659SOL     OW29875   0.951   5.294   6.899
 9659SOL    HW129876   0.881   5.246   6.846
 9659SOL    HW229877   0.957   5.389   6.867
 9660SOL     OW29878   0.681   5.525   0.103
 9660SOL    HW129879   0.647   5.612   0.069
 9660SOL    HW229880   0.608   5.457   0.103
 9661SOL     OW29881   4.192   6.566   1.258
 9661SOL    HW129882   4.278   6.553   1.208
 9661SOL    HW229883   4.128   6.492   1.235
 9662SOL     OW29884   4.998   0.830   4.010
 9662SOL    HW129885   5.059   0.787   4.076
 9662SOL    HW229886   4.958   0.913   4.049
 9663SOL     OW29887   2.531   5.294   2.845
 9663SOL    HW129888   2.502   5.253   2.932
 9663SOL    HW229889   2.561   5.222   2.783
 9664SOL     OW29890   2.791   5.853   1.485
 9664SOL    HW129891   2.807   5.784   1.415
 9664SOL    HW229892   2.849   5.834   1.564
 9665SOL     OW29893   5.079   4.079   4.624
 9665SOL    HW129894   5.113   4.156   4.677
 9665SOL    HW229895   4.999   4.040   4.669
 9666SOL     OW29896   5.938   4.815   4.063
 9666SOL    HW129897   5.839   4.815   4.078
 9666SOL    HW229898   5.962   4.742   3.999
 9667SOL     OW29899   4.146   3.633   3.849
 9667SOL    HW129900   4.183   3.667   3.763
 9667SOL    HW229901   4.086   3.703   3.890
 9668SOL     OW29902   0.272   1.470   5.200
 9668SOL    HW129903   0.273   1.561   5.241
 9668SOL    HW229904   0.202   1.414   5.245
 9669SOL     OW29905   1.914   5.644   0.468
 9669SOL    HW129906   1.974   5.637   0.388
 9669SOL    HW229907   1.894   5.552   0.502
 9670SOL     OW29908   5.651   4.795   0.471
 9670SOL    HW129909   5.608   4.715   0.512
 9670SOL    HW229910   5.675   4.775   0.376
 9671SOL     OW29911   6.973   0.114   6.421
 9671SOL    HW129912   0.047   0.135   6.445
 9671SOL    HW229913   6.920   0.198   6.418
 9672SOL     OW29914   0.870   6.698   4.971
 9672SOL    HW129915   0.915   6.788   4.977
 9672SOL    HW229916   0.913   6.645   4.898
 9673SOL     OW29917   2.549   3.137   6.175
 9673SOL    HW129918   2.479   3.162   6.242
 9673SOL    HW229919   2.512   3.069   6.112
 9674SOL     OW29920   2.908   0.100   1.938
 9674SOL    HW129921   2.998   0.058   1.944
 9674SOL    HW229922   2.880   0.132   2.028
 9675SOL     OW29923   0.040   2.543   2.148
 9675SOL    HW129924   0.099   2.483   2.202
 9675SOL    HW229925   0.095   2.593   2.081
 9676SOL     OW29926   0.497   3.840   4.375
 9676SOL    HW129927   0.441   3.869   4.453
 9676SOL    HW229928   0.502   3.740   4.374
 9677SOL     OW29929   2.118   3.675   5.119
 9677SOL    HW129930   2.141   3.578   5.113
 9677SOL    HW229931   2.107   3.712   5.027
 9678SOL     OW29932   3.056   3.092   3.123
 9678SOL    HW129933   2.978   3.030   3.138
 9678SOL    HW229934   3.140   3.045   3.149
 9679SOL     OW29935   0.737   3.163   1.559
 9679SOL    HW129936   0.723   3.226   1.483
 9679SOL    HW229937   0.800   3.090   1.530
 9680SOL     OW29938   6.018   4.991   3.653
 9680SOL    HW129939   5.949   5.063   3.656
 9680SOL    HW229940   6.103   5.028   3.614
 9681SOL     OW29941   1.480   1.477   3.774
 9681SOL    HW129942   1.402   1.434   3.729
 9681SOL    HW229943   1.565   1.447   3.730
 9682SOL     OW29944   6.611   4.488   2.774
 9682SOL    HW129945   6.570   4.579   2.769
 9682SOL    HW229946   6.625   4.463   2.870
 9683SOL     OW29947   4.522   6.449   6.416
 9683SOL    HW129948   4.532   6.535   6.465
 9683SOL    HW229949   4.436   6.405   6.442
 9684SOL     OW29950   1.203   4.521   3.809
 9684SOL    HW129951   1.158   4.519   3.719
 9684SOL    HW229952   1.287   4.467   3.805
 9685SOL     OW29953   1.769   2.256   0.269
 9685SOL    HW129954   1.807   2.235   0.359
 9685SOL    HW229955   1.844   2.264   0.202
 9686SOL     OW29956   5.578   0.704   1.615
 9686SOL    HW129957   5.669   0.741   1.634
 9686SOL    HW229958   5.530   0.687   1.702
 9687SOL     OW29959   3.549   0.031   3.463
 9687SOL    HW129960   3.596   0.117   3.444
 9687SOL    HW229961   3.556   0.010   3.560
 9688SOL     OW29962   0.204   1.774   3.121
 9688SOL    HW129963   0.107   1.788   3.141
 9688SOL    HW229964   0.248   1.730   3.199
 9689SOL     OW29965   2.215   6.227   6.273
 9689SOL    HW129966   2.289   6.291   6.294
 9689SOL    HW229967   2.128   6.275   6.276
 9690SOL     OW29968   6.353   4.235   1.344
 9690SOL    HW129969   6.293   4.157   1.360
 9690SOL    HW229970   6.433   4.206   1.292
 9691SOL     OW29971   1.386   4.274   1.575
 9691SOL    HW129972   1.387   4.341   1.500
 9691SOL    HW229973   1.480   4.250   1.599
 9692SOL     OW29974   2.537   5.678   1.293
 9692SOL    HW129975   2.496   5.740   1.360
 9692SOL    HW229976   2.616   5.722   1.251
 9693SOL     OW29977   5.442   5.798   1.795
 9693SOL    HW129978   5.487   5.717   1.832
 9693SOL    HW229979   5.473   5.815   1.701
 9694SOL     OW29980   1.979   2.082   0.092
 9694SOL    HW129981   1.992   2.057   7.017
 9694SOL    HW229982   2.031   2.165   0.112
 9695SOL     OW29983   6.017   4.022   1.177
 9695SOL    HW129984   6.116   4.015   1.193
 9695SOL    HW229985   5.989   3.956   1.107
 9696SOL     OW29986   4.217   3.383   1.326
 9696SOL    HW129987   4.120   3.367   1.345
 9696SOL    HW229988   4.229   3.476   1.292
 9697SOL     OW29989   0.740   6.047   6.982
 9697SOL    HW129990   0.780   5.957   6.968
 9697SOL    HW229991   0.650   6.052   6.939
 9698SOL     OW29992   5.586   1.832   5.315
 9698SOL    HW129993   5.512   1.799   5.373
 9698SOL    HW229994   5.673   1.827   5.364
 9699SOL     OW29995   1.806   3.262   0.523
 9699SOL    HW129996   1.731   3.195   0.518
 9699SOL    HW229997   1.890   3.215   0.550
 9700SOL     OW29998   3.464   4.146   4.119
 9700SOL    HW129999   3.563   4.142   4.106
 9700SOL    HW230000   3.443   4.162   4.216
 9701SOL     OW30001   5.491   4.213   4.838
 9701SOL    HW130002   5.511   4.297   4.787
 9701SOL    HW230003   5.412   4.227   4.897
 9702SOL     OW30004   4.325   0.564   0.870
 9702SOL    HW130005   4.309   0.601   0.962
 9702SOL    HW230006   4.303   0.467   0.869
 9703SOL     OW30007   2.793   6.571   4.088
 9703SOL    HW130008   2.853   6.615   4.021
 9703SOL    HW230009   2.704   6.552   4.046
 9704SOL     OW30010   2.752   0.380   3.383
 9704SOL    HW130011   2.730   0.430   3.299
 9704SOL    HW230012   2.820   0.431   3.435
 9705SOL     OW30013   3.612   3.970   0.694
 9705SOL    HW130014   3.554   3.900   0.737
 9705SOL    HW230015   3.708   3.946   0.707
 9706SOL     OW30016   5.647   2.677   3.049
 9706SOL    HW130017   5.657   2.640   2.957
 9706SOL    HW230018   5.643   2.601   3.114
 9707SOL     OW30019   2.575   4.975   2.978
 9707SOL    HW130020   2.621   4.924   3.052
 9707SOL    HW230021   2.611   4.945   2.890
 9708SOL     OW30022   2.819   1.214   2.765
 9708SOL    HW130023   2.738   1.261   2.730
 9708SOL    HW230024   2.891   1.280   2.783
 9709SOL     OW30025   1.820   5.067   2.864
 9709SOL    HW130026   1.914   5.089   2.839
 9709SOL    HW230027   1.810   4.968   2.874
 9710SOL     OW30028   0.086   0.561   3.557
 9710SOL    HW130029   0.086   0.639   3.619
 9710SOL    HW230030   0.155   0.494   3.586
 9711SOL     OW30031   0.845   4.268   5.041
 9711SOL    HW130032   0.806   4.186   5.084
 9711SOL    HW230033   0.901   4.241   4.963
 9712SOL     OW30034   4.422   2.419   4.529
 9712SOL    HW130035   4.441   2.420   4.431
 9712SOL    HW230036   4.469   2.342   4.571
 9713SOL     OW30037   6.733   4.854   2.447
 9713SOL    HW130038   6.831   4.846   2.431
 9713SOL    HW230039   6.700   4.771   2.493
 9714SOL     OW30040   2.009   2.073   1.643
 9714SOL    HW130041   1.957   1.995   1.608
 9714SOL    HW230042   2.010   2.070   1.743
 9715SOL     OW30043   5.405   5.270   4.937
 9715SOL    HW130044   5.394   5.202   5.010
 9715SOL    HW230045   5.431   5.223   4.853
 9716SOL     OW30046   4.314   1.403   6.778
 9716SOL    HW130047   4.312   1.503   6.779
 9716SOL    HW230048   4.350   1.371   6.691
 9717SOL     OW30049   5.717   4.622   3.600
 9717SOL    HW130050   5.763   4.669   3.675
 9717SOL    HW230051   5.679   4.689   3.537
 9718SOL     OW30052   4.562   3.289   1.679
 9718SOL    HW130053   4.629   3.275   1.752
 9718SOL    HW230054   4.571   3.216   1.611
 9719SOL     OW30055   0.313   1.951   0.270
 9719SOL    HW130056   0.298   1.933   0.173
 9719SOL    HW230057   0.314   1.864   0.320
 9720SOL     OW30058   0.258   0.338   1.701
 9720SOL    HW130059   0.160   0.352   1.713
 9720SOL    HW230060   0.307   0.423   1.717
 9721SOL     OW30061   6.712   3.580   2.741
 9721SOL    HW130062   6.758   3.551   2.657
 9721SOL    HW230063   6.633   3.521   2.757
 9722SOL     OW30064   0.174   0.263   4.256
 9722SOL    HW130065   0.130   0.178   4.229
 9722SOL    HW230066   0.251   0.243   4.317
 9723SOL     OW30067   0.038   1.345   3.777
 9723SOL    HW130068   0.124   1.305   3.808
 9723SOL    HW230069   0.005   1.410   3.845
 9724SOL     OW30070   3.923   2.817   1.345
 9724SOL    HW130071   3.860   2.879   1.299
 9724SOL    HW230072   3.999   2.870   1.384
 9725SOL     OW30073   4.330   3.007   5.648
 9725SOL    HW130074   4.405   3.045   5.701
 9725SOL    HW230075   4.320   2.909   5.669
 9726SOL     OW30076   5.739   6.616   5.043
 9726SOL    HW130077   5.717   6.699   5.093
 9726SOL    HW230078   5.683   6.540   5.078
 9727SOL     OW30079   1.579   2.014   6.326
 9727SOL    HW130080   1.663   2.049   6.368
 9727SOL    HW230081   1.511   1.994   6.397
 9728SOL     OW30082   3.434   5.255   6.978
 9728SOL    HW130083   3.387   5.188   0.014
 9728SOL    HW230084   3.454   5.336   0.012
 9729SOL     OW30085   3.132   5.382   2.382
 9729SOL    HW130086   3.221   5.394   2.338
 9729SOL    HW230087   3.116   5.284   2.397
 9730SOL     OW30088   6.469   3.621   3.193
 9730SOL    HW130089   6.438   3.608   3.288
 9730SOL    HW230090   6.398   3.589   3.130
 9731SOL     OW30091   4.707   5.025   0.761
 9731SOL    HW130092   4.653   5.071   0.690
 9731SOL    HW230093   4.645   4.990   0.831
 9732SOL     OW30094   6.560   5.635   3.050
 9732SOL    HW130095   6.487   5.596   2.993
 9732SOL    HW230096   6.592   5.720   3.009
 9733SOL     OW30097   5.380   4.505   6.619
 9733SOL    HW130098   5.461   4.448   6.629
 9733SOL    HW230099   5.337   4.487   6.531
 9734SOL     OW30100   5.173   2.602   5.047
 9734SOL    HW130101   5.258   2.552   5.029
 9734SOL    HW230102   5.101   2.566   4.988
 9735SOL     OW30103   1.526   4.016   0.421
 9735SOL    HW130104   1.450   4.026   0.356
 9735SOL    HW230105   1.495   3.965   0.500
 9736SOL     OW30106   3.355   1.413   0.980
 9736SOL    HW130107   3.266   1.368   0.982
 9736SOL    HW230108   3.427   1.344   0.968
 9737SOL     OW30109   4.110   2.152   4.966
 9737SOL    HW130110   4.164   2.080   5.009
 9737SOL    HW230111   4.163   2.237   4.967
 9738SOL     OW30112   1.975   0.557   2.375
 9738SOL    HW130113   1.914   0.634   2.353
 9738SOL    HW230114   1.966   0.533   2.471
 9739SOL     OW30115   5.298   4.861   1.913
 9739SOL    HW130116   5.264   4.953   1.937
 9739SOL    HW230117   5.370   4.868   1.845
 9740SOL     OW30118   6.791   3.992   2.991
 9740SOL    HW130119   6.728   3.929   3.036
 9740SOL    HW230120   6.881   3.950   2.984
 9741SOL     OW30121   4.238   2.053   1.615
 9741SOL    HW130122   4.144   2.025   1.636
 9741SOL    HW230123   4.266   2.126   1.678
 9742SOL     OW30124   4.373   1.638   4.459
 9742SOL    HW130125   4.358   1.627   4.360
 9742SOL    HW230126   4.285   1.641   4.506
 9743SOL     OW30127   1.730   2.468   5.507
 9743SOL    HW130128   1.718   2.532   5.431
 9743SOL    HW230129   1.699   2.377   5.479
 9744SOL     OW30130   1.763   0.395   1.938
 9744SOL    HW130131   1.789   0.383   2.034
 9744SOL    HW230132   1.682   0.341   1.919
 9745SOL     OW30133   0.248   2.119   4.579
 9745SOL    HW130134   0.346   2.138   4.571
 9745SOL    HW230135   0.232   2.021   4.564
 9746SOL     OW30136   5.799   1.554   4.652
 9746SOL    HW130137   5.848   1.571   4.566
 9746SOL    HW230138   5.833   1.470   4.694
 9747SOL     OW30139   0.493   6.973   6.966
 9747SOL    HW130140   0.456   0.035   7.007
 9747SOL    HW230141   0.420   6.924   6.918
 9748SOL     OW30142   0.106   5.793   3.879
 9748SOL    HW130143   0.188   5.773   3.933
 9748SOL    HW230144   0.048   5.858   3.928
 9749SOL     OW30145   0.940   4.198   4.306
 9749SOL    HW130146   0.861   4.139   4.285
 9749SOL    HW230147   0.992   4.215   4.223
 9750SOL     OW30148   4.006   4.855   3.605
 9750SOL    HW130149   3.910   4.857   3.579
 9750SOL    HW230150   4.041   4.948   3.612
 9751SOL     OW30151   1.992   2.425   0.437
 9751SOL    HW130152   1.924   2.395   0.504
 9751SOL    HW230153   2.079   2.381   0.456
 9752SOL     OW30154   3.460   1.735   6.389
 9752SOL    HW130155   3.417   1.704   6.303
 9752SOL    HW230156   3.536   1.674   6.411
 9753SOL     OW30157   6.950   6.266   5.076
 9753SOL    HW130158   6.876   6.224   5.022
 9753SOL    HW230159   7.007   6.322   5.016
 9754SOL     OW30160   6.898   2.181   6.561
 9754SOL    HW130161   6.937   2.173   6.469
 9754SOL    HW230162   6.937   2.110   6.620
 9755SOL     OW30163   4.150   4.751   5.199
 9755SOL    HW130164   4.187   4.715   5.113
 9755SOL    HW230165   4.153   4.679   5.269
 9756SOL     OW30166   6.077   2.273   5.974
 9756SOL    HW130167   6.165   2.321   5.969
 9756SOL    HW230168   6.029   2.299   6.058
 9757SOL     OW30169   6.202   2.326   3.740
 9757SOL    HW130170   6.123   2.387   3.738
 9757SOL    HW230171   6.184   2.250   3.802
 9758SOL     OW30172   2.485   0.648   6.972
 9758SOL    HW130173   2.398   0.620   6.933
 9758SOL    HW230174   2.560   0.611   6.916
 9759SOL     OW30175   3.403   6.460   1.277
 9759SOL    HW130176   3.344   6.394   1.231
 9759SOL    HW230177   3.347   6.519   1.336
 9760SOL     OW30178   5.282   4.405   6.402
 9760SOL    HW130179   5.207   4.340   6.390
 9760SOL    HW230180   5.368   4.361   6.376
 9761SOL     OW30181   5.359   5.974   2.649
 9761SOL    HW130182   5.412   5.893   2.623
 9761SOL    HW230183   5.266   5.967   2.611
 9762SOL     OW30184   2.473   1.458   3.382
 9762SOL    HW130185   2.398   1.430   3.322
 9762SOL    HW230186   2.484   1.557   3.379
 9763SOL     OW30187   2.136   1.591   1.558
 9763SOL    HW130188   2.048   1.547   1.577
 9763SOL    HW230189   2.153   1.661   1.626
 9764SOL     OW30190   1.049   2.629   1.971
 9764SOL    HW130191   0.982   2.695   1.938
 9764SOL    HW230192   1.024   2.537   1.940
 9765SOL     OW30193   0.074   1.605   5.592
 9765SOL    HW130194   7.014   1.565   5.634
 9765SOL    HW230195   0.057   1.701   5.569
 9766SOL     OW30196   3.063   0.456   1.855
 9766SOL    HW130197   3.066   0.482   1.951
 9766SOL    HW230198   3.032   0.533   1.800
 9767SOL     OW30199   4.800   0.407   5.187
 9767SOL    HW130200   4.866   0.333   5.180
 9767SOL    HW230201   4.838   0.480   5.245
 9768SOL     OW30202   4.756   2.213   3.059
 9768SOL    HW130203   4.728   2.121   3.087
 9768SOL    HW230204   4.837   2.207   3.001
 9769SOL     OW30205   0.477   2.173   1.761
 9769SOL    HW130206   0.389   2.125   1.767
 9769SOL    HW230207   0.465   2.259   1.712
 9770SOL     OW30208   6.279   4.257   6.368
 9770SOL    HW130209   6.208   4.216   6.310
 9770SOL    HW230210   6.276   4.215   6.459
 9771SOL     OW30211   3.561   5.681   5.206
 9771SOL    HW130212   3.643   5.625   5.192
 9771SOL    HW230213   3.487   5.647   5.148
 9772SOL     OW30214   6.689   0.191   1.796
 9772SOL    HW130215   6.759   0.212   1.728
 9772SOL    HW230216   6.629   0.270   1.808
 9773SOL     OW30217   5.516   5.644   3.403
 9773SOL    HW130218   5.568   5.622   3.486
 9773SOL    HW230219   5.454   5.720   3.422
 9774SOL     OW30220   7.006   4.980   3.088
 9774SOL    HW130221   0.017   4.993   3.182
 9774SOL    HW230222   7.019   5.065   3.036
 9775SOL     OW30223   2.785   2.257   4.999
 9775SOL    HW130224   2.721   2.226   5.069
 9775SOL    HW230225   2.879   2.241   5.031
 9776SOL     OW30226   0.333   4.943   4.886
 9776SOL    HW130227   0.372   4.853   4.903
 9776SOL    HW230228   0.334   4.962   4.788
 9777SOL     OW30229   5.447   5.068   0.022
 9777SOL    HW130230   5.461   5.027   0.112
 9777SOL    HW230231   5.452   5.167   0.029
 9778SOL     OW30232   4.242   0.750   3.678
 9778SOL    HW130233   4.243   0.837   3.628
 9778SOL    HW230234   4.150   0.710   3.673
 9779SOL     OW30235   2.931   2.107   6.001
 9779SOL    HW130236   2.846   2.059   6.024
 9779SOL    HW230237   2.982   2.124   6.085
 9780SOL     OW30238   3.479   4.346   0.464
 9780SOL    HW130239   3.477   4.246   0.461
 9780SOL    HW230240   3.569   4.377   0.492
 9781SOL     OW30241   1.688   6.087   3.946
 9781SOL    HW130242   1.603   6.096   3.894
 9781SOL    HW230243   1.689   6.000   3.995
 9782SOL     OW30244   6.570   0.791   1.350
 9782SOL    HW130245   6.604   0.765   1.260
 9782SOL    HW230246   6.590   0.719   1.416
 9783SOL     OW30247   5.767   1.744   2.768
 9783SOL    HW130248   5.805   1.786   2.850
 9783SOL    HW230249   5.817   1.775   2.687
 9784SOL     OW30250   5.240   0.950   4.267
 9784SOL    HW130251   5.281   1.039   4.286
 9784SOL    HW230252   5.306   0.892   4.219
 9785SOL     OW30253   1.158   3.269   0.978
 9785SOL    HW130254   1.138   3.359   1.017
 9785SOL    HW230255   1.086   3.205   1.003
 9786SOL     OW30256   2.340   0.158   4.879
 9786SOL    HW130257   2.391   0.084   4.922
 9786SOL    HW230258   2.332   0.235   4.943
 9787SOL     OW30259   5.742   4.663   2.157
 9787SOL    HW130260   5.672   4.727   2.125
 9787SOL    HW230261   5.712   4.569   2.138
 9788SOL     OW30262   0.337   1.232   5.534
 9788SOL    HW130263   0.302   1.325   5.533
 9788SOL    HW230264   0.405   1.221   5.462
 9789SOL     OW30265   1.529   5.922   4.614
 9789SOL    HW130266   1.473   5.998   4.581
 9789SOL    HW230267   1.511   5.907   4.711
 9790SOL     OW30268   6.730   1.365   4.231
 9790SOL    HW130269   6.705   1.309   4.152
 9790SOL    HW230270   6.733   1.308   4.313
 9791SOL     OW30271   1.095   2.456   1.677
 9791SOL    HW130272   1.135   2.546   1.659
 9791SOL    HW230273   1.060   2.417   1.591
 9792SOL     OW30274   3.988   5.833   2.025
 9792SOL    HW130275   3.923   5.892   2.073
 9792SOL    HW230276   3.968   5.833   1.927
 9793SOL     OW30277   5.133   6.220   2.719
 9793SOL    HW130278   5.224   6.213   2.678
 9793SOL    HW230279   5.068   6.254   2.650
 9794SOL     OW30280   3.268   2.949   6.503
 9794SOL    HW130281   3.351   2.929   6.450
 9794SOL    HW230282   3.197   2.982   6.442
 9795SOL     OW30283   2.517   4.496   4.021
 9795SOL    HW130284   2.469   4.581   4.000
 9795SOL    HW230285   2.609   4.517   4.055
 9796SOL     OW30286   3.562   4.626   0.304
 9796SOL    HW130287   3.631   4.667   0.364
 9796SOL    HW230288   3.473   4.627   0.349
 9797SOL     OW30289   4.872   2.718   4.658
 9797SOL    HW130290   4.850   2.625   4.687
 9797SOL    HW230291   4.937   2.715   4.582
 9798SOL     OW30292   2.522   1.582   1.741
 9798SOL    HW130293   2.503   1.486   1.763
 9798SOL    HW230294   2.437   1.626   1.713
 9799SOL     OW30295   3.374   3.930   1.972
 9799SOL    HW130296   3.344   4.006   1.914
 9799SOL    HW230297   3.345   3.843   1.931
 9800SOL     OW30298   3.478   4.921   0.206
 9800SOL    HW130299   3.450   4.925   0.302
 9800SOL    HW230300   3.448   4.835   0.165
 9801SOL     OW30301   4.762   5.501   6.852
 9801SOL    HW130302   4.723   5.530   6.939
 9801SOL    HW230303   4.838   5.437   6.869
 9802SOL     OW30304   0.725   4.934   1.589
 9802SOL    HW130305   0.793   4.897   1.526
 9802SOL    HW230306   0.636   4.936   1.544
 9803SOL     OW30307   5.624   0.929   6.675
 9803SOL    HW130308   5.542   0.949   6.728
 9803SOL    HW230309   5.632   0.830   6.662
 9804SOL     OW30310   5.950   5.240   4.164
 9804SOL    HW130311   5.989   5.157   4.204
 9804SOL    HW230312   5.875   5.273   4.221
 9805SOL     OW30313   3.294   4.372   1.332
 9805SOL    HW130314   3.325   4.315   1.407
 9805SOL    HW230315   3.339   4.345   1.247
 9806SOL     OW30316   6.643   2.555   2.770
 9806SOL    HW130317   6.623   2.547   2.868
 9806SOL    HW230318   6.737   2.526   2.754
 9807SOL     OW30319   3.609   2.432   0.948
 9807SOL    HW130320   3.563   2.402   0.864
 9807SOL    HW230321   3.549   2.417   1.026
 9808SOL     OW30322   1.464   2.052   5.063
 9808SOL    HW130323   1.503   2.011   5.145
 9808SOL    HW230324   1.396   1.989   5.023
 9809SOL     OW30325   0.859   0.540   4.578
 9809SOL    HW130326   0.952   0.573   4.558
 9809SOL    HW230327   0.824   0.586   4.660
 9810SOL     OW30328   4.026   1.398   3.459
 9810SOL    HW130329   4.019   1.310   3.412
 9810SOL    HW230330   4.122   1.422   3.471
 9811SOL     OW30331   1.451   0.022   2.472
 9811SOL    HW130332   1.389   0.056   2.542
 9811SOL    HW230333   1.514   0.095   2.445
 9812SOL     OW30334   5.139   2.866   4.951
 9812SOL    HW130335   5.052   2.915   4.957
 9812SOL    HW230336   5.134   2.781   5.003
 9813SOL     OW30337   6.457   4.536   0.993
 9813SOL    HW130338   6.361   4.510   0.979
 9813SOL    HW230339   6.490   4.587   0.914
 9814SOL     OW30340   6.719   0.947   5.420
 9814SOL    HW130341   6.645   0.989   5.368
 9814SOL    HW230342   6.729   0.851   5.393
 9815SOL     OW30343   6.731   3.899   2.723
 9815SOL    HW130344   6.752   3.948   2.807
 9815SOL    HW230345   6.647   3.846   2.734
 9816SOL     OW30346   6.465   0.939   6.137
 9816SOL    HW130347   6.557   0.899   6.127
 9816SOL    HW230348   6.432   0.967   6.047
 9817SOL     OW30349   2.059   0.639   0.150
 9817SOL    HW130350   2.096   0.713   0.094
 9817SOL    HW230351   1.962   0.629   0.132
 9818SOL     OW30352   0.847   6.930   3.059
 9818SOL    HW130353   0.775   6.865   3.082
 9818SOL    HW230354   0.874   6.981   3.141
 9819SOL     OW30355   0.062   2.735   4.380
 9819SOL    HW130356   0.012   2.725   4.466
 9819SOL    HW230357   0.058   2.649   4.329
 9820SOL     OW30358   3.683   2.646   6.114
 9820SOL    HW130359   3.611   2.704   6.074
 9820SOL    HW230360   3.731   2.598   6.041
 9821SOL     OW30361   3.743   2.646   1.478
 9821SOL    HW130362   3.708   2.702   1.553
 9821SOL    HW230363   3.828   2.686   1.444
 9822SOL     OW30364   3.387   6.223   4.736
 9822SOL    HW130365   3.309   6.274   4.773
 9822SOL    HW230366   3.411   6.260   4.646
 9823SOL     OW30367   3.749   6.820   2.991
 9823SOL    HW130368   3.688   6.898   2.978
 9823SOL    HW230369   3.781   6.817   3.085
 9824SOL     OW30370   0.830   5.994   5.915
 9824SOL    HW130371   0.863   6.021   6.005
 9824SOL    HW230372   0.766   6.063   5.881
 9825SOL     OW30373   0.090   6.526   5.224
 9825SOL    HW130374   0.044   6.583   5.156
 9825SOL    HW230375   0.022   6.469   5.271
 9826SOL     OW30376   2.164   5.712   5.341
 9826SOL    HW130377   2.116   5.791   5.378
 9826SOL    HW230378   2.180   5.645   5.413
 9827SOL     OW30379   1.792   4.487   1.790
 9827SOL    HW130380   1.828   4.394   1.793
 9827SOL    HW230381   1.862   4.549   1.757
 9828SOL     OW30382   4.161   1.797   5.212
 9828SOL    HW130383   4.127   1.860   5.282
 9828SOL    HW230384   4.121   1.821   5.123
 9829SOL     OW30385   5.080   4.703   5.444
 9829SOL    HW130386   5.106   4.794   5.477
 9829SOL    HW230387   5.157   4.640   5.456
 9830SOL     OW30388   5.438   1.693   3.715
 9830SOL    HW130389   5.390   1.749   3.648
 9830SOL    HW230390   5.373   1.659   3.783
 9831SOL     OW30391   0.684   4.114   2.224
 9831SOL    HW130392   0.707   4.034   2.168
 9831SOL    HW230393   0.592   4.145   2.202
 9832SOL     OW30394   4.444   5.811   4.617
 9832SOL    HW130395   4.476   5.811   4.712
 9832SOL    HW230396   4.384   5.732   4.602
 9833SOL     OW30397   3.859   3.536   3.826
 9833SOL    HW130398   3.797   3.593   3.880
 9833SOL    HW230399   3.954   3.564   3.844
 9834SOL     OW30400   2.833   6.202   5.655
 9834SOL    HW130401   2.933   6.209   5.653
 9834SOL    HW230402   2.806   6.105   5.654
 9835SOL     OW30403   3.964   3.785   4.018
 9835SOL    HW130404   3.993   3.846   4.091
 9835SOL    HW230405   3.869   3.756   4.033
 9836SOL     OW30406   6.708   3.476   5.746
 9836SOL    HW130407   6.763   3.484   5.664
 9836SOL    HW230408   6.685   3.567   5.780
 9837SOL     OW30409   5.778   1.693   3.435
 9837SOL    HW130410   5.859   1.731   3.390
 9837SOL    HW230411   5.797   1.599   3.464
 9838SOL     OW30412   1.261   6.184   1.184
 9838SOL    HW130413   1.202   6.182   1.265
 9838SOL    HW230414   1.228   6.252   1.120
 9839SOL     OW30415   5.037   6.420   4.007
 9839SOL    HW130416   4.943   6.443   4.033
 9839SOL    HW230417   5.100   6.451   4.078
 9840SOL     OW30418   6.363   1.881   6.530
 9840SOL    HW130419   6.425   1.930   6.469
 9840SOL    HW230420   6.380   1.783   6.523
 9841SOL     OW30421   6.734   6.201   2.926
 9841SOL    HW130422   6.716   6.166   2.834
 9841SOL    HW230423   6.648   6.203   2.978
 9842SOL     OW30424   3.326   0.389   0.182
 9842SOL    HW130425   3.357   0.474   0.224
 9842SOL    HW230426   3.404   0.341   0.143
 9843SOL     OW30427   0.311   0.664   1.648
 9843SOL    HW130428   0.397   0.682   1.600
 9843SOL    HW230429   0.293   0.739   1.712
 9844SOL     OW30430   4.503   0.461   4.785
 9844SOL    HW130431   4.509   0.454   4.686
 9844SOL    HW230432   4.593   0.444   4.825
 9845SOL     OW30433   1.378   3.945   2.084
 9845SOL    HW130434   1.337   3.972   2.171
 9845SOL    HW230435   1.307   3.905   2.025
 9846SOL     OW30436   6.001   2.239   1.212
 9846SOL    HW130437   5.983   2.143   1.234
 9846SOL    HW230438   6.076   2.273   1.268
 9847SOL     OW30439   3.963   3.936   6.807
 9847SOL    HW130440   3.937   3.840   6.813
 9847SOL    HW230441   3.881   3.992   6.791
 9848SOL     OW30442   3.098   3.465   5.475
 9848SOL    HW130443   3.180   3.458   5.418
 9848SOL    HW230444   3.083   3.560   5.502
 9849SOL     OW30445   1.541   2.263   4.481
 9849SOL    HW130446   1.526   2.351   4.437
 9849SOL    HW230447   1.510   2.267   4.576
 9850SOL     OW30448   1.999   6.743   4.016
 9850SOL    HW130449   1.988   6.758   4.114
 9850SOL    HW230450   1.935   6.672   3.986
 9851SOL     OW30451   3.431   5.683   3.744
 9851SOL    HW130452   3.416   5.595   3.789
 9851SOL    HW230453   3.490   5.741   3.801
 9852SOL     OW30454   1.481   6.630   0.067
 9852SOL    HW130455   1.420   6.710   0.068
 9852SOL    HW230456   1.563   6.651   0.015
 9853SOL     OW30457   0.155   4.236   3.376
 9853SOL    HW130458   0.162   4.277   3.285
 9853SOL    HW230459   0.234   4.263   3.431
 9854SOL     OW30460   0.396   3.407   6.517
 9854SOL    HW130461   0.477   3.374   6.470
 9854SOL    HW230462   0.360   3.335   6.577
 9855SOL     OW30463   0.754   5.567   0.363
 9855SOL    HW130464   0.721   5.540   0.272
 9855SOL    HW230465   0.829   5.633   0.353
 9856SOL     OW30466   5.473   3.342   2.814
 9856SOL    HW130467   5.398   3.404   2.788
 9856SOL    HW230468   5.467   3.258   2.761
 9857SOL     OW30469   4.831   0.016   5.361
 9857SOL    HW130470   4.732   0.032   5.362
 9857SOL    HW230471   4.879   0.099   5.388
 9858SOL     OW30472   6.020   5.986   1.808
 9858SOL    HW130473   6.102   5.998   1.752
 9858SOL    HW230474   5.944   5.957   1.750
 9859SOL     OW30475   0.321   5.410   2.838
 9859SOL    HW130476   0.347   5.502   2.867
 9859SOL    HW230477   0.267   5.417   2.754
 9860SOL     OW30478   1.769   3.320   4.219
 9860SOL    HW130479   1.747   3.417   4.217
 9860SOL    HW230480   1.865   3.308   4.245
 9861SOL     OW30481   3.528   2.125   3.166
 9861SOL    HW130482   3.467   2.200   3.191
 9861SOL    HW230483   3.548   2.129   3.068
 9862SOL     OW30484   1.406   3.673   6.438
 9862SOL    HW130485   1.478   3.735   6.407
 9862SOL    HW230486   1.420   3.582   6.398
 9863SOL     OW30487   4.140   0.070   2.090
 9863SOL    HW130488   4.046   0.060   2.123
 9863SOL    HW230489   4.203   0.039   2.161
 9864SOL     OW30490   1.946   5.963   6.009
 9864SOL    HW130491   1.897   5.876   6.016
 9864SOL    HW230492   1.903   6.031   6.068
 9865SOL     OW30493   1.395   5.408   5.514
 9865SOL    HW130494   1.322   5.349   5.479
 9865SOL    HW230495   1.476   5.353   5.533
 9866SOL     OW30496   6.812   5.430   5.728
 9866SOL    HW130497   6.832   5.333   5.743
 9866SOL    HW230498   6.764   5.466   5.808
 9867SOL     OW30499   4.180   1.310   1.804
 9867SOL    HW130500   4.146   1.390   1.853
 9867SOL    HW230501   4.243   1.339   1.732
 9868SOL     OW30502   2.482   4.822   3.660
 9868SOL    HW130503   2.426   4.839   3.741
 9868SOL    HW230504   2.435   4.756   3.600
 9869SOL     OW30505   0.482   2.180   1.376
 9869SOL    HW130506   0.505   2.102   1.434
 9869SOL    HW230507   0.383   2.184   1.363
 9870SOL     OW30508   2.150   2.528   2.665
 9870SOL    HW130509   2.211   2.608   2.667
 9870SOL    HW230510   2.163   2.474   2.747
 9871SOL     OW30511   5.815   5.696   3.357
 9871SOL    HW130512   5.765   5.759   3.298
 9871SOL    HW230513   5.824   5.736   3.449
 9872SOL     OW30514   0.840   4.977   5.805
 9872SOL    HW130515   0.917   4.949   5.862
 9872SOL    HW230516   0.770   4.906   5.807
 9873SOL     OW30517   1.019   1.285   5.237
 9873SOL    HW130518   1.022   1.346   5.158
 9873SOL    HW230519   1.046   1.335   5.319
 9874SOL     OW30520   0.641   2.071   4.147
 9874SOL    HW130521   0.684   2.159   4.165
 9874SOL    HW230522   0.564   2.083   4.084
 9875SOL     OW30523   6.439   6.159   0.557
 9875SOL    HW130524   6.518   6.104   0.530
 9875SOL    HW230525   6.414   6.138   0.651
 9876SOL     OW30526   6.831   6.686   3.587
 9876SOL    HW130527   6.788   6.688   3.678
 9876SOL    HW230528   6.854   6.592   3.563
 9877SOL     OW30529   0.629   6.243   5.218
 9877SOL    HW130530   0.618   6.293   5.132
 9877SOL    HW230531   0.720   6.202   5.221
 9878SOL     OW30532   3.210   2.668   6.751
 9878SOL    HW130533   3.277   2.659   6.676
 9878SOL    HW230534   3.124   2.625   6.724
 9879SOL     OW30535   6.728   5.565   5.460
 9879SOL    HW130536   6.748   5.660   5.484
 9879SOL    HW230537   6.748   5.506   5.538
 9880SOL     OW30538   2.728   0.908   1.061
 9880SOL    HW130539   2.731   0.908   1.161
 9880SOL    HW230540   2.634   0.893   1.030
 9881SOL     OW30541   6.187   1.293   3.267
 9881SOL    HW130542   6.232   1.381   3.285
 9881SOL    HW230543   6.257   1.225   3.245
 9882SOL     OW30544   3.598   3.145   4.452
 9882SOL    HW130545   3.596   3.049   4.426
 9882SOL    HW230546   3.667   3.160   4.523
 9883SOL     OW30547   2.078   6.150   2.578
 9883SOL    HW130548   2.041   6.057   2.580
 9883SOL    HW230549   2.054   6.193   2.491
 9884SOL     OW30550   3.110   2.754   5.650
 9884SOL    HW130551   3.147   2.775   5.560
 9884SOL    HW230552   3.029   2.811   5.667
 9885SOL     OW30553   4.939   2.620   5.184
 9885SOL    HW130554   5.035   2.596   5.170
 9885SOL    HW230555   4.912   2.598   5.278
 9886SOL     OW30556   3.215   6.050   1.180
 9886SOL    HW130557   3.302   6.074   1.223
 9886SOL    HW230558   3.185   5.960   1.213
 9887SOL     OW30559   2.953   1.834   0.390
 9887SOL    HW130560   2.880   1.882   0.439
 9887SOL    HW230561   2.914   1.781   0.315
 9888SOL     OW30562   6.313   6.491   3.769
 9888SOL    HW130563   6.353   6.406   3.735
 9888SOL    HW230564   6.347   6.567   3.714
 9889SOL     OW30565   0.022   5.463   2.686
 9889SOL    HW130566   6.981   5.391   2.656
 9889SOL    HW230567   0.101   5.466   2.625
 9890SOL     OW30568   0.887   3.231   2.436
 9890SOL    HW130569   0.804   3.235   2.492
 9890SOL    HW230570   0.935   3.145   2.454
 9891SOL     OW30571   4.667   6.775   1.675
 9891SOL    HW130572   4.638   6.871   1.681
 9891SOL    HW230573   4.592   6.720   1.638
 9892SOL     OW30574   1.600   5.754   3.924
 9892SOL    HW130575   1.575   5.715   4.012
 9892SOL    HW230576   1.697   5.780   3.925
 9893SOL     OW30577   5.769   4.577   4.658
 9893SOL    HW130578   5.752   4.502   4.594
 9893SOL    HW230579   5.855   4.621   4.635
 9894SOL     OW30580   4.365   3.622   5.271
 9894SOL    HW130581   4.347   3.589   5.364
 9894SOL    HW230582   4.439   3.567   5.230
 9895SOL     OW30583   5.407   1.929   6.569
 9895SOL    HW130584   5.443   1.956   6.480
 9895SOL    HW230585   5.339   1.997   6.599
 9896SOL     OW30586   3.783   3.501   7.016
 9896SOL    HW130587   3.821   3.461   0.079
 9896SOL    HW230588   3.684   3.483   7.013
 9897SOL     OW30589   0.005   0.743   3.287
 9897SOL    HW130590   0.012   0.649   3.321
 9897SOL    HW230591   0.015   0.807   3.364
 9898SOL     OW30592   1.709   4.562   6.727
 9898SOL    HW130593   1.681   4.474   6.766
 9898SOL    HW230594   1.630   4.604   6.681
 9899SOL     OW30595   4.841   4.968   2.787
 9899SOL    HW130596   4.789   4.883   2.775
 9899SOL    HW230597   4.895   4.963   2.871
 9900SOL     OW30598   1.892   4.152   4.127
 9900SOL    HW130599   1.909   4.125   4.222
 9900SOL    HW230600   1.796   4.179   4.117
 9901SOL     OW30601   2.212   1.829   6.269
 9901SOL    HW130602   2.261   1.777   6.199
 9901SOL    HW230603   2.237   1.926   6.263
 9902SOL     OW30604   4.510   3.947   6.387
 9902SOL    HW130605   4.587   3.968   6.327
 9902SOL    HW230606   4.430   4.000   6.358
 9903SOL     OW30607   3.610   1.535   1.450
 9903SOL    HW130608   3.539   1.464   1.459
 9903SOL    HW230609   3.567   1.621   1.424
 9904SOL     OW30610   0.588   0.237   1.917
 9904SOL    HW130611   0.617   0.158   1.973
 9904SOL    HW230612   0.508   0.280   1.960
 9905SOL     OW30613   1.665   6.569   5.893
 9905SOL    HW130614   1.730   6.558   5.817
 9905SOL    HW230615   1.577   6.529   5.867
 9906SOL     OW30616   3.781   3.700   5.767
 9906SOL    HW130617   3.792   3.651   5.681
 9906SOL    HW230618   3.852   3.672   5.831
 9907SOL     OW30619   1.339   6.811   2.804
 9907SOL    HW130620   1.405   6.819   2.729
 9907SOL    HW230621   1.387   6.788   2.888
 9908SOL     OW30622   6.623   3.610   4.959
 9908SOL    HW130623   6.601   3.561   5.044
 9908SOL    HW230624   6.554   3.681   4.943
 9909SOL     OW30625   3.650   6.914   2.629
 9909SOL    HW130626   3.604   6.830   2.659
 9909SOL    HW230627   3.581   6.980   2.600
 9910SOL     OW30628   1.071   4.361   1.020
 9910SOL    HW130629   1.006   4.392   0.951
 9910SOL    HW230630   1.160   4.404   1.004
 9911SOL     OW30631   3.896   5.099   2.927
 9911SOL    HW130632   3.902   5.191   2.967
 9911SOL    HW230633   3.800   5.077   2.909
 9912SOL     OW30634   4.200   6.784   0.967
 9912SOL    HW130635   4.268   6.788   1.041
 9912SOL    HW230636   4.211   6.864   0.908
 9913SOL     OW30637   4.575   2.317   2.882
 9913SOL    HW130638   4.574   2.411   2.849
 9913SOL    HW230639   4.638   2.308   2.959
 9914SOL     OW30640   1.995   5.388   5.191
 9914SOL    HW130641   1.997   5.424   5.098
 9914SOL    HW230642   2.059   5.311   5.198
 9915SOL     OW30643   5.938   3.683   3.950
 9915SOL    HW130644   5.967   3.778   3.933
 9915SOL    HW230645   5.860   3.683   4.012
 9916SOL     OW30646   2.766   3.104   0.741
 9916SOL    HW130647   2.770   3.091   0.641
 9916SOL    HW230648   2.671   3.104   0.771
 9917SOL     OW30649   2.274   2.825   4.865
 9917SOL    HW130650   2.321   2.894   4.920
 9917SOL    HW230651   2.314   2.735   4.883
 9918SOL     OW30652   2.815   0.726   4.683
 9918SOL    HW130653   2.770   0.721   4.772
 9918SOL    HW230654   2.849   0.819   4.668
 9919SOL     OW30655   0.765   5.475   2.058
 9919SOL    HW130656   0.738   5.399   1.999
 9919SOL    HW230657   0.785   5.441   2.150
 9920SOL     OW30658   4.198   6.588   2.581
 9920SOL    HW130659   4.280   6.612   2.528
 9920SOL    HW230660   4.220   6.511   2.641
 9921SOL     OW30661   4.975   6.951   3.073
 9921SOL    HW130662   4.945   6.860   3.101
 9921SOL    HW230663   5.013   6.999   3.152
 9922SOL     OW30664   5.176   3.021   1.868
 9922SOL    HW130665   5.135   2.930   1.881
 9922SOL    HW230666   5.186   3.065   1.957
 9923SOL     OW30667   6.271   0.868   6.321
 9923SOL    HW130668   6.323   0.828   6.397
 9923SOL    HW230669   6.334   0.889   6.246
 9924SOL     OW30670   4.718   1.230   3.668
 9924SOL    HW130671   4.814   1.225   3.694
 9924SOL    HW230672   4.679   1.137   3.668
 9925SOL     OW30673   3.730   2.134   4.583
 9925SOL    HW130674   3.752   2.190   4.664
 9925SOL    HW230675   3.632   2.143   4.563
 9926SOL     OW30676   1.474   0.531   5.956
 9926SOL    HW130677   1.394   0.590   5.962
 9926SOL    HW230678   1.541   0.558   6.026
 9927SOL     OW30679   1.158   3.015   2.265
 9927SOL    HW130680   1.205   2.976   2.344
 9927SOL    HW230681   1.225   3.045   2.198
 9928SOL     OW30682   0.039   3.051   2.296
 9928SOL    HW130683   0.121   3.101   2.269
 9928SOL    HW230684   0.048   3.021   2.391
 9929SOL     OW30685   0.695   4.365   5.580
 9929SOL    HW130686   0.625   4.329   5.518
 9929SOL    HW230687   0.747   4.436   5.534
 9930SOL     OW30688   6.952   5.352   6.894
 9930SOL    HW130689   6.883   5.399   6.839
 9930SOL    HW230690   0.017   5.350   6.843
 9931SOL     OW30691   2.561   5.081   6.601
 9931SOL    HW130692   2.622   5.104   6.678
 9931SOL    HW230693   2.608   5.102   6.515
 9932SOL     OW30694   2.510   2.380   1.071
 9932SOL    HW130695   2.522   2.281   1.064
 9932SOL    HW230696   2.550   2.412   1.158
 9933SOL     OW30697   0.491   1.922   2.336
 9933SOL    HW130698   0.435   1.947   2.414
 9933SOL    HW230699   0.588   1.924   2.362
 9934SOL     OW30700   5.171   0.626   6.543
 9934SOL    HW130701   5.153   0.725   6.548
 9934SOL    HW230702   5.247   0.610   6.479
 9935SOL     OW30703   2.881   2.638   0.774
 9935SOL    HW130704   2.956   2.571   0.771
 9935SOL    HW230705   2.810   2.604   0.835
 9936SOL     OW30706   5.346   6.750   6.336
 9936SOL    HW130707   5.329   6.806   6.256
 9936SOL    HW230708   5.327   6.654   6.315
 9937SOL     OW30709   1.575   6.428   3.774
 9937SOL    HW130710   1.551   6.525   3.775
 9937SOL    HW230711   1.629   6.408   3.693
 9938SOL     OW30712   0.257   1.187   3.343
 9938SOL    HW130713   0.352   1.175   3.373
 9938SOL    HW230714   0.206   1.238   3.413
 9939SOL     OW30715   2.718   3.988   1.650
 9939SOL    HW130716   2.785   3.917   1.669
 9939SOL    HW230717   2.762   4.078   1.654
 9940SOL     OW30718   6.940   1.053   3.277
 9940SOL    HW130719   6.985   1.134   3.240
 9940SOL    HW230720   6.956   0.976   3.216
 9941SOL     OW30721   5.662   3.853   0.949
 9941SOL    HW130722   5.574   3.816   0.978
 9941SOL    HW230723   5.735   3.808   1.000
 9942SOL     OW30724   6.087   6.095   3.000
 9942SOL    HW130725   6.102   6.086   2.901
 9942SOL    HW230726   6.086   6.192   3.025
 9943SOL     OW30727   1.660   3.883   5.503
 9943SOL    HW130728   1.585   3.834   5.549
 9943SOL    HW230729   1.746   3.837   5.523
 9944SOL     OW30730   1.984   5.837   6.446
 9944SOL    HW130731   1.901   5.836   6.391
 9944SOL    HW230732   1.960   5.854   6.542
 9945SOL     OW30733   6.991   3.608   6.978
 9945SOL    HW130734   6.996   3.509   6.990
 9945SOL    HW230735   6.941   3.629   6.894
 9946SOL     OW30736   5.025   2.236   1.778
 9946SOL    HW130737   4.950   2.254   1.841
 9946SOL    HW230738   5.008   2.284   1.692
 9947SOL     OW30739   0.955   1.544   2.550
 9947SOL    HW130740   1.055   1.535   2.547
 9947SOL    HW230741   0.927   1.583   2.637
 9948SOL     OW30742   6.088   0.671   5.232
 9948SOL    HW130743   6.136   0.645   5.316
 9948SOL    HW230744   6.153   0.714   5.169
 9949SOL     OW30745   6.817   3.812   3.337
 9949SOL    HW130746   6.770   3.725   3.325
 9949SOL    HW230747   6.845   3.823   3.432
 9950SOL     OW30748   4.191   4.147   5.523
 9950SOL    HW130749   4.275   4.189   5.557
 9950SOL    HW230750   4.173   4.179   5.430
 9951SOL     OW30751   0.007   2.123   2.877
 9951SOL    HW130752   0.039   2.182   2.802
 9951SOL    HW230753   6.928   2.123   2.878
 9952SOL     OW30754   1.588   4.557   1.143
 9952SOL    HW130755   1.660   4.499   1.181
 9952SOL    HW230756   1.626   4.615   1.071
 9953SOL     OW30757   6.510   4.208   3.722
 9953SOL    HW130758   6.585   4.271   3.698
 9953SOL    HW230759   6.424   4.258   3.724
 9954SOL     OW30760   3.463   1.165   1.255
 9954SOL    HW130761   3.487   1.181   1.159
 9954SOL    HW230762   3.535   1.111   1.299
 9955SOL     OW30763   5.578   5.399   1.502
 9955SOL    HW130764   5.586   5.301   1.485
 9955SOL    HW230765   5.655   5.430   1.557
 9956SOL     OW30766   1.863   3.390   3.019
 9956SOL    HW130767   1.862   3.488   3.037
 9956SOL    HW230768   1.865   3.340   3.106
 9957SOL     OW30769   5.879   0.493   0.427
 9957SOL    HW130770   5.913   0.449   0.510
 9957SOL    HW230771   5.890   0.431   0.349
 9958SOL     OW30772   6.063   5.458   6.823
 9958SOL    HW130773   6.035   5.362   6.829
 9958SOL    HW230774   6.059   5.499   6.914
 9959SOL     OW30775   5.923   4.877   0.507
 9959SOL    HW130776   5.871   4.793   0.495
 9959SOL    HW230777   5.966   4.878   0.597
 9960SOL     OW30778   6.570   0.207   0.142
 9960SOL    HW130779   6.500   0.185   0.211
 9960SOL    HW230780   6.605   0.122   0.102
 9961SOL     OW30781   3.266   5.574   0.637
 9961SOL    HW130782   3.255   5.667   0.671
 9961SOL    HW230783   3.355   5.538   0.665
 9962SOL     OW30784   3.364   0.606   1.181
 9962SOL    HW130785   3.381   0.642   1.273
 9962SOL    HW230786   3.415   0.659   1.114
 9963SOL     OW30787   1.056   0.298   6.524
 9963SOL    HW130788   1.028   0.275   6.617
 9963SOL    HW230789   1.052   0.398   6.512
 9964SOL     OW30790   4.467   5.010   5.558
 9964SOL    HW130791   4.443   5.104   5.583
 9964SOL    HW230792   4.565   5.005   5.539
 9965SOL     OW30793   2.869   5.097   4.106
 9965SOL    HW130794   2.952   5.144   4.074
 9965SOL    HW230795   2.895   5.011   4.151
 9966SOL     OW30796   3.714   5.620   3.133
 9966SOL    HW130797   3.771   5.698   3.110
 9966SOL    HW230798   3.637   5.650   3.189
 9967SOL     OW30799   0.026   0.428   3.296
 9967SOL    HW130800   0.118   0.393   3.277
 9967SOL    HW230801   0.021   0.456   3.392
 9968SOL     OW30802   4.827   6.617   0.350
 9968SOL    HW130803   4.884   6.542   0.385
 9968SOL    HW230804   4.864   6.705   0.380
 9969SOL     OW30805   0.248   6.094   3.432
 9969SOL    HW130806   0.208   6.044   3.508
 9969SOL    HW230807   0.316   6.159   3.466
 9970SOL     OW30808   6.432   3.446   2.082
 9970SOL    HW130809   6.451   3.463   2.179
 9970SOL    HW230810   6.416   3.533   2.036
 9971SOL     OW30811   0.306   5.271   4.585
 9971SOL    HW130812   0.278   5.279   4.489
 9971SOL    HW230813   0.265   5.190   4.626
 9972SOL     OW30814   2.720   4.471   6.086
 9972SOL    HW130815   2.633   4.505   6.122
 9972SOL    HW230816   2.711   4.374   6.062
 9973SOL     OW30817   2.641   1.919   3.288
 9973SOL    HW130818   2.737   1.923   3.314
 9973SOL    HW230819   2.625   1.976   3.207
 9974SOL     OW30820   1.684   2.485   2.976
 9974SOL    HW130821   1.775   2.520   2.953
 9974SOL    HW230822   1.623   2.500   2.898
 9975SOL     OW30823   2.575   4.537   6.542
 9975SOL    HW130824   2.600   4.624   6.500
 9975SOL    HW230825   2.656   4.480   6.553
 9976SOL     OW30826   4.237   5.940   5.545
 9976SOL    HW130827   4.327   5.985   5.541
 9976SOL    HW230828   4.249   5.844   5.568
 9977SOL     OW30829   4.144   0.516   5.264
 9977SOL    HW130830   4.111   0.442   5.322
 9977SOL    HW230831   4.241   0.531   5.282
 9978SOL     OW30832   0.971   2.341   6.950
 9978SOL    HW130833   0.940   2.305   0.017
 9978SOL    HW230834   1.029   2.274   6.905
 9979SOL     OW30835   3.108   4.131   4.994
 9979SOL    HW130836   3.063   4.137   4.906
 9979SOL    HW230837   3.066   4.058   5.049
 9980SOL     OW30838   1.267   1.399   0.712
 9980SOL    HW130839   1.168   1.401   0.697
 9980SOL    HW230840   1.292   1.315   0.761
 9981SOL     OW30841   5.736   1.420   0.238
 9981SOL    HW130842   5.757   1.406   0.334
 9981SOL    HW230843   5.798   1.365   0.182
 9982SOL     OW30844   2.265   2.268   4.792
 9982SOL    HW130845   2.364   2.272   4.779
 9982SOL    HW230846   2.225   2.212   4.720
 9983SOL     OW30847   1.042   3.745   2.392
 9983SOL    HW130848   1.013   3.649   2.389
 9983SOL    HW230849   0.969   3.801   2.430
 9984SOL     OW30850   0.309   5.208   0.852
 9984SOL    HW130851   0.263   5.121   0.837
 9984SOL    HW230852   0.348   5.210   0.944
 9985SOL     OW30853   4.965   4.264   6.886
 9985SOL    HW130854   4.876   4.289   6.924
 9985SOL    HW230855   4.979   4.313   6.799
 9986SOL     OW30856   5.572   5.071   0.281
 9986SOL    HW130857   5.652   5.131   0.278
 9986SOL    HW230858   5.595   4.988   0.333
 9987SOL     OW30859   5.791   1.931   1.235
 9987SOL    HW130860   5.776   1.937   1.333
 9987SOL    HW230861   5.705   1.948   1.186
 9988SOL     OW30862   6.039   0.022   3.454
 9988SOL    HW130863   5.995   6.965   3.410
 9988SOL    HW230864   6.111   7.010   3.515
 9989SOL     OW30865   6.703   5.957   2.358
 9989SOL    HW130866   6.721   5.949   2.259
 9989SOL    HW230867   6.712   5.867   2.400
 9990SOL     OW30868   6.692   0.230   3.116
 9990SOL    HW130869   6.613   0.262   3.065
 9990SOL    HW230870   6.691   0.130   3.122
 9991SOL     OW30871   2.150   4.295   2.368
 9991SOL    HW130872   2.091   4.257   2.297
 9991SOL    HW230873   2.117   4.386   2.394
 9992SOL     OW30874   2.859   5.087   0.214
 9992SOL    HW130875   2.788   5.103   0.147
 9992SOL    HW230876   2.818   5.058   0.301
 9993SOL     OW30877   3.725   0.223   5.258
 9993SOL    HW130878   3.767   0.184   5.340
 9993SOL    HW230879   3.693   0.316   5.278
 9994SOL     OW30880   6.081   4.861   5.306
 9994SOL    HW130881   6.162   4.896   5.258
 9994SOL    HW230882   6.001   4.916   5.280
 9995SOL     OW30883   3.997   1.927   6.305
 9995SOL    HW130884   4.044   1.998   6.253
 9995SOL    HW230885   3.967   1.964   6.393
 9996SOL     OW30886   3.217   4.316   0.793
 9996SOL    HW130887   3.169   4.267   0.867
 9996SOL    HW230888   3.231   4.255   0.716
 9997SOL     OW30889   6.613   2.031   3.212
 9997SOL    HW130890   6.636   1.934   3.203
 9997SOL    HW230891   6.519   2.039   3.244
 9998SOL     OW30892   5.043   4.120   2.247
 9998SOL    HW130893   4.947   4.095   2.239
 9998SOL    HW230894   5.094   4.047   2.291
 9999SOL     OW30895   0.748   6.749   4.579
 9999SOL    HW130896   0.789   6.757   4.488
 9999SOL    HW230897   0.792   6.674   4.628
10000SOL     OW30898   4.355   2.204   1.379
10000SOL    HW130899   4.284   2.269   1.355
10000SOL    HW230900   4.344   2.175   1.474
10001SOL     OW30901   3.817   6.370   1.367
10001SOL    HW130902   3.729   6.327   1.391
10001SOL    HW230903   3.800   6.451   1.312
10002SOL     OW30904   2.593   0.240   1.999
10002SOL    HW130905   2.678   0.291   1.986
10002SOL    HW230906   2.607   0.145   1.971
10003SOL     OW30907   1.084   1.149   2.773
10003SOL    HW130908   1.004   1.092   2.787
10003SOL    HW230909   1.101   1.161   2.675
10004SOL     OW30910   0.376   4.583   4.392
10004SOL    HW130911   0.469   4.560   4.361
10004SOL    HW230912   0.364   4.682   4.390
10005SOL     OW30913   2.710   5.387   3.685
10005SOL    HW130914   2.660   5.371   3.599
10005SOL    HW230915   2.676   5.325   3.755
10006SOL     OW30916   5.378   0.999   5.334
10006SOL    HW130917   5.282   1.008   5.360
10006SOL    HW230918   5.425   0.939   5.400
10007SOL     OW30919   0.673   5.221   3.861
10007SOL    HW130920   0.584   5.233   3.905
10007SOL    HW230921   0.707   5.129   3.879
10008SOL     OW30922   3.627   1.398   5.903
10008SOL    HW130923   3.711   1.408   5.850
10008SOL    HW230924   3.589   1.488   5.924
10009SOL     OW30925   0.784   4.390   2.203
10009SOL    HW130926   0.728   4.431   2.275
10009SOL    HW230927   0.780   4.291   2.209
10010SOL     OW30928   2.555   4.164   1.193
10010SOL    HW130929   2.576   4.074   1.231
10010SOL    HW230930   2.614   4.232   1.235
10011SOL     OW30931   2.243   3.110   6.845
10011SOL    HW130932   2.336   3.078   6.830
10011SOL    HW230933   2.239   3.209   6.829
10012SOL     OW30934   5.606   2.007   3.027
10012SOL    HW130935   5.530   2.029   2.966
10012SOL    HW230936   5.574   2.007   3.121
10013SOL     OW30937   0.685   6.503   4.410
10013SOL    HW130938   0.777   6.506   4.448
10013SOL    HW230939   0.682   6.556   4.325
10014SOL     OW30940   0.811   1.053   2.428
10014SOL    HW130941   0.791   0.991   2.504
10014SOL    HW230942   0.747   1.036   2.353
10015SOL     OW30943   3.837   6.286   6.241
10015SOL    HW130944   3.867   6.207   6.187
10015SOL    HW230945   3.894   6.365   6.219
10016SOL     OW30946   2.561   1.063   4.008
10016SOL    HW130947   2.609   1.147   3.984
10016SOL    HW230948   2.615   1.012   4.075
10017SOL     OW30949   2.807   2.327   2.626
10017SOL    HW130950   2.744   2.403   2.609
10017SOL    HW230951   2.821   2.275   2.542
10018SOL     OW30952   6.806   4.024   4.843
10018SOL    HW130953   6.743   4.075   4.900
10018SOL    HW230954   6.862   4.087   4.789
10019SOL     OW30955   0.532   2.409   1.675
10019SOL    HW130956   0.593   2.475   1.719
10019SOL    HW230957   0.480   2.455   1.603
10020SOL     OW30958   6.481   1.251   2.006
10020SOL    HW130959   6.466   1.197   2.089
10020SOL    HW230960   6.393   1.268   1.961
10021SOL     OW30961   0.709   3.083   1.950
10021SOL    HW130962   0.756   3.167   1.923
10021SOL    HW230963   0.657   3.100   2.034
10022SOL     OW30964   1.490   5.447   5.894
10022SOL    HW130965   1.411   5.505   5.917
10022SOL    HW230966   1.534   5.482   5.812
10023SOL     OW30967   0.928   0.843   5.787
10023SOL    HW130968   0.981   0.922   5.815
10023SOL    HW230969   0.844   0.873   5.742
10024SOL     OW30970   1.299   4.667   2.782
10024SOL    HW130971   1.353   4.592   2.744
10024SOL    HW230972   1.317   4.751   2.730
10025SOL     OW30973   1.379   3.647   0.911
10025SOL    HW130974   1.372   3.596   0.997
10025SOL    HW230975   1.426   3.734   0.927
10026SOL     OW30976   5.577   1.609   5.122
10026SOL    HW130977   5.578   1.700   5.162
10026SOL    HW230978   5.601   1.614   5.025
10027SOL     OW30979   3.164   1.851   5.447
10027SOL    HW130980   3.087   1.816   5.501
10027SOL    HW230981   3.162   1.951   5.448
10028SOL     OW30982   4.423   6.804   1.402
10028SOL    HW130983   4.472   6.891   1.412
10028SOL    HW230984   4.473   6.732   1.450
10029SOL     OW30985   0.187   4.357   4.815
10029SOL    HW130986   0.161   4.418   4.740
10029SOL    HW230987   0.142   4.386   4.899
10030SOL     OW30988   2.560   0.390   4.409
10030SOL    HW130989   2.546   0.380   4.507
10030SOL    HW230990   2.610   0.474   4.390
10031SOL     OW30991   2.757   5.603   2.857
10031SOL    HW130992   2.760   5.617   2.956
10031SOL    HW230993   2.803   5.517   2.834
10032SOL     OW30994   3.172   6.404   4.796
10032SOL    HW130995   3.194   6.452   4.712
10032SOL    HW230996   3.072   6.404   4.809
10033SOL     OW30997   3.401   1.567   4.693
10033SOL    HW130998   3.427   1.500   4.624
10033SOL    HW230999   3.302   1.579   4.692
10034SOL     OW31000   2.627   0.980   3.118
10034SOL    HW131001   2.556   0.999   3.186
10034SOL    HW231002   2.629   1.055   3.051
10035SOL     OW31003   6.371   2.731   2.840
10035SOL    HW131004   6.407   2.825   2.835
10035SOL    HW231005   6.386   2.686   2.752
10036SOL     OW31006   0.818   0.965   0.056
10036SOL    HW131007   0.880   1.030   0.099
10036SOL    HW231008   0.867   0.913   7.008
10037SOL     OW31009   5.806   6.733   6.652
10037SOL    HW131010   5.720   6.737   6.600
10037SOL    HW231011   5.842   6.825   6.663
10038SOL     OW31012   4.592   6.418   6.151
10038SOL    HW131013   4.568   6.427   6.247
10038SOL    HW231014   4.688   6.389   6.142
10039SOL     OW31015   0.341   5.709   2.612
10039SOL    HW131016   0.358   5.693   2.709
10039SOL    HW231017   0.352   5.806   2.591
10040SOL     OW31018   3.051   0.034   1.238
10040SOL    HW131019   3.095   0.123   1.248
10040SOL    HW231020   3.118   6.988   1.205
10041SOL     OW31021   6.511   5.732   5.002
10041SOL    HW131022   6.572   5.666   5.047
10041SOL    HW231023   6.539   5.743   4.906
10042SOL     OW31024   0.206   0.557   5.240
10042SOL    HW131025   0.178   0.651   5.258
10042SOL    HW231026   0.264   0.554   5.159
10043SOL     OW31027   0.757   0.753   3.799
10043SOL    HW131028   0.791   0.687   3.866
10043SOL    HW231029   0.743   0.708   3.711
10044SOL     OW31030   2.689   1.847   6.564
10044SOL    HW131031   2.719   1.891   6.648
10044SOL    HW231032   2.736   1.888   6.486
10045SOL     OW31033   4.080   6.781   5.233
10045SOL    HW131034   4.067   6.692   5.277
10045SOL    HW231035   4.044   6.777   5.139
10046SOL     OW31036   6.796   2.309   1.147
10046SOL    HW131037   6.715   2.361   1.172
10046SOL    HW231038   6.867   2.322   1.216
10047SOL     OW31039   0.302   1.592   3.338
10047SOL    HW131040   0.335   1.530   3.267
10047SOL    HW231041   0.324   1.554   3.428
10048SOL     OW31042   3.672   2.590   1.778
10048SOL    HW131043   3.718   2.661   1.831
10048SOL    HW231044   3.674   2.504   1.829
10049SOL     OW31045   1.738   6.989   4.012
10049SOL    HW131046   1.806   0.010   3.953
10049SOL    HW231047   1.754   7.015   4.107
10050SOL     OW31048   5.214   2.008   4.035
10050SOL    HW131049   5.312   1.989   4.048
10050SOL    HW231050   5.160   1.944   4.089
10051SOL     OW31051   5.920   2.683   6.155
10051SOL    HW131052   5.994   2.750   6.163
10051SOL    HW231053   5.913   2.652   6.061
10052SOL     OW31054   1.173   4.130   1.660
10052SOL    HW131055   1.116   4.206   1.691
10052SOL    HW231056   1.258   4.167   1.621
10053SOL     OW31057   3.071   6.325   3.878
10053SOL    HW131058   3.082   6.315   3.977
10053SOL    HW231059   3.048   6.236   3.838
10054SOL     OW31060   3.631   5.568   4.021
10054SOL    HW131061   3.702   5.524   4.076
10054SOL    HW231062   3.542   5.550   4.063
10055SOL     OW31063   6.644   3.194   6.071
10055SOL    HW131064   6.700   3.263   6.116
10055SOL    HW231065   6.621   3.121   6.136
10056SOL     OW31066   6.682   5.269   1.713
10056SOL    HW131067   6.672   5.230   1.621
10056SOL    HW231068   6.734   5.205   1.770
10057SOL     OW31069   2.710   2.451   3.723
10057SOL    HW131070   2.710   2.374   3.659
10057SOL    HW231071   2.784   2.439   3.789
10058SOL     OW31072   0.388   5.406   3.474
10058SOL    HW131073   0.474   5.385   3.520
10058SOL    HW231074   0.407   5.444   3.383
10059SOL     OW31075   5.464   0.112   1.168
10059SOL    HW131076   5.371   0.077   1.153
10059SOL    HW231077   5.526   0.035   1.186
10060SOL     OW31078   2.143   2.814   1.841
10060SOL    HW131079   2.238   2.783   1.853
10060SOL    HW231080   2.090   2.790   1.923
10061SOL     OW31081   6.245   1.996   5.044
10061SOL    HW131082   6.182   2.032   5.113
10061SOL    HW231083   6.209   1.911   5.006
10062SOL     OW31084   6.180   5.977   2.760
10062SOL    HW131085   6.178   6.040   2.682
10062SOL    HW231086   6.260   5.918   2.752
10063SOL     OW31087   0.639   3.220   2.586
10063SOL    HW131088   0.663   3.125   2.563
10063SOL    HW231089   0.608   3.224   2.681
10064SOL     OW31090   5.561   6.179   4.677
10064SOL    HW131091   5.597   6.131   4.757
10064SOL    HW231092   5.496   6.249   4.707
10065SOL     OW31093   1.174   6.206   3.122
10065SOL    HW131094   1.115   6.223   3.043
10065SOL    HW231095   1.140   6.257   3.201
10066SOL     OW31096   0.886   0.381   3.707
10066SOL    HW131097   0.813   0.397   3.773
10066SOL    HW231098   0.945   0.462   3.704
10067SOL     OW31099   3.858   5.183   3.403
10067SOL    HW131100   3.803   5.099   3.403
10067SOL    HW231101   3.808   5.256   3.357
10068SOL     OW31102   5.156   3.900   5.257
10068SOL    HW131103   5.202   3.889   5.345
10068SOL    HW231104   5.095   3.822   5.241
10069SOL     OW31105   3.695   0.908   3.821
10069SOL    HW131106   3.653   0.942   3.737
10069SOL    HW231107   3.630   0.848   3.868
10070SOL     OW31108   1.008   6.508   4.814
10070SOL    HW131109   1.096   6.462   4.824
10070SOL    HW231110   0.993   6.530   4.717
10071SOL     OW31111   5.753   5.683   4.976
10071SOL    HW131112   5.730   5.742   5.053
10071SOL    HW231113   5.773   5.590   5.010
10072SOL     OW31114   0.888   0.037   3.283
10072SOL    HW131115   0.851   0.111   3.340
10072SOL    HW231116   0.983   0.019   3.308
10073SOL     OW31117   0.156   5.624   6.347
10073SOL    HW131118   0.233   5.589   6.401
10073SOL    HW231119   0.190   5.668   6.264
10074SOL     OW31120   2.279   6.735   5.618
10074SOL    HW131121   2.186   6.758   5.648
10074SOL    HW231122   2.312   6.806   5.556
10075SOL     OW31123   1.504   2.227   3.764
10075SOL    HW131124   1.479   2.321   3.784
10075SOL    HW231125   1.531   2.181   3.849
10076SOL     OW31126   5.555   0.487   4.904
10076SOL    HW131127   5.532   0.449   4.993
10076SOL    HW231128   5.486   0.459   4.837
10077SOL     OW31129   3.711   1.543   6.459
10077SOL    HW131130   3.787   1.567   6.520
10077SOL    HW231131   3.634   1.511   6.513
10078SOL     OW31132   5.752   6.336   5.861
10078SOL    HW131133   5.711   6.390   5.934
10078SOL    HW231134   5.834   6.382   5.828
10079SOL     OW31135   0.217   4.564   0.247
10079SOL    HW131136   0.161   4.594   0.324
10079SOL    HW231137   0.238   4.467   0.257
10080SOL     OW31138   1.547   3.117   6.168
10080SOL    HW131139   1.518   3.170   6.088
10080SOL    HW231140   1.646   3.108   6.168
10081SOL     OW31141   6.896   0.584   6.575
10081SOL    HW131142   6.876   0.529   6.656
10081SOL    HW231143   6.995   0.597   6.567
10082SOL     OW31144   6.419   0.943   1.547
10082SOL    HW131145   6.472   0.972   1.627
10082SOL    HW231146   6.480   0.898   1.482
10083SOL     OW31147   4.748   1.063   4.442
10083SOL    HW131148   4.807   1.122   4.387
10083SOL    HW231149   4.768   0.968   4.421
10084SOL     OW31150   2.559   1.023   6.057
10084SOL    HW131151   2.585   1.032   6.153
10084SOL    HW231152   2.529   0.929   6.040
10085SOL     OW31153   0.704   5.074   2.905
10085SOL    HW131154   0.671   5.073   2.811
10085SOL    HW231155   0.744   5.163   2.926
10086SOL     OW31156   6.142   3.692   1.990
10086SOL    HW131157   6.100   3.716   1.902
10086SOL    HW231158   6.096   3.612   2.028
10087SOL     OW31159   1.367   0.036   4.067
10087SOL    HW131160   1.302   6.999   4.115
10087SOL    HW231161   1.445   7.002   4.037
10088SOL     OW31162   0.249   0.031   4.458
10088SOL    HW131163   0.163   0.022   4.508
10088SOL    HW231164   0.264   6.972   4.402
10089SOL     OW31165   1.152   3.292   1.668
10089SOL    HW131166   1.250   3.276   1.661
10089SOL    HW231167   1.117   3.250   1.752
10090SOL     OW31168   0.588   4.929   0.572
10090SOL    HW131169   0.681   4.942   0.607
10090SOL    HW231170   0.583   4.844   0.520
10091SOL     OW31171   0.460   2.514   3.999
10091SOL    HW131172   0.554   2.543   4.017
10091SOL    HW231173   0.402   2.595   3.990
10092SOL     OW31174   1.817   4.038   5.218
10092SOL    HW131175   1.914   4.061   5.216
10092SOL    HW231176   1.801   3.966   5.286
10093SOL     OW31177   6.768   4.855   6.458
10093SOL    HW131178   6.825   4.935   6.477
10093SOL    HW231179   6.773   4.791   6.536
10094SOL     OW31180   1.591   1.019   2.016
10094SOL    HW131181   1.683   1.048   1.989
10094SOL    HW231182   1.577   0.924   1.989
10095SOL     OW31183   6.706   0.857   6.062
10095SOL    HW131184   6.699   0.788   5.991
10095SOL    HW231185   6.796   0.853   6.104
10096SOL     OW31186   0.644   4.921   2.392
10096SOL    HW131187   0.588   4.892   2.470
10096SOL    HW231188   0.588   4.972   2.327
10097SOL     OW31189   1.167   1.636   6.739
10097SOL    HW131190   1.260   1.670   6.721
10097SOL    HW231191   1.138   1.666   6.830
10098SOL     OW31192   2.937   5.092   6.464
10098SOL    HW131193   2.872   5.036   6.413
10098SOL    HW231194   3.022   5.100   6.412
10099SOL     OW31195   6.807   4.780   4.735
10099SOL    HW131196   6.737   4.751   4.670
10099SOL    HW231197   6.884   4.821   4.685
10100SOL     OW31198   5.529   1.188   5.452
10100SOL    HW131199   5.565   1.238   5.374
10100SOL    HW231200   5.472   1.112   5.420
10101SOL     OW31201   0.290   4.513   1.746
10101SOL    HW131202   0.213   4.561   1.787
10101SOL    HW231203   0.333   4.571   1.677
10102SOL     OW31204   3.288   1.306   3.039
10102SOL    HW131205   3.231   1.289   3.119
10102SOL    HW231206   3.246   1.377   2.982
10103SOL     OW31207   2.682   2.057   6.865
10103SOL    HW131208   2.711   2.078   6.772
10103SOL    HW231209   2.597   2.106   6.886
10104SOL     OW31210   1.538   6.295   5.179
10104SOL    HW131211   1.554   6.334   5.270
10104SOL    HW231212   1.450   6.329   5.144
10105SOL     OW31213   2.354   0.690   6.364
10105SOL    HW131214   2.386   0.631   6.289
10105SOL    HW231215   2.425   0.696   6.435
10106SOL     OW31216   5.263   5.659   0.355
10106SOL    HW131217   5.210   5.722   0.411
10106SOL    HW231218   5.283   5.701   0.267
10107SOL     OW31219   5.570   1.431   5.838
10107SOL    HW131220   5.663   1.446   5.873
10107SOL    HW231221   5.517   1.381   5.907
10108SOL     OW31222   6.115   6.729   0.453
10108SOL    HW131223   6.089   6.786   0.375
10108SOL    HW231224   6.208   6.695   0.440
10109SOL     OW31225   4.938   5.208   3.258
10109SOL    HW131226   4.934   5.148   3.338
10109SOL    HW231227   5.023   5.259   3.258
10110SOL     OW31228   3.065   0.685   5.446
10110SOL    HW131229   3.088   0.591   5.421
10110SOL    HW231230   3.142   0.726   5.495
10111SOL     OW31231   0.360   2.317   2.970
10111SOL    HW131232   0.344   2.362   3.058
10111SOL    HW231233   0.306   2.232   2.966
10112SOL     OW31234   4.201   3.999   5.835
10112SOL    HW131235   4.195   3.900   5.841
10112SOL    HW231236   4.159   4.031   5.750
10113SOL     OW31237   3.652   6.538   6.763
10113SOL    HW131238   3.678   6.442   6.763
10113SOL    HW231239   3.556   6.546   6.733
10114SOL     OW31240   4.144   1.141   1.458
10114SOL    HW131241   4.111   1.102   1.372
10114SOL    HW231242   4.210   1.078   1.500
10115SOL     OW31243   1.301   2.128   3.592
10115SOL    HW131244   1.239   2.206   3.579
10115SOL    HW231245   1.374   2.154   3.655
10116SOL     OW31246   1.359   0.974   1.267
10116SOL    HW131247   1.319   0.895   1.314
10116SOL    HW231248   1.416   1.026   1.331
10117SOL     OW31249   4.686   0.537   5.542
10117SOL    HW131250   4.614   0.481   5.499
10117SOL    HW231251   4.734   0.588   5.471
10118SOL     OW31252   6.523   5.345   2.323
10118SOL    HW131253   6.489   5.428   2.368
10118SOL    HW231254   6.596   5.370   2.259
10119SOL     OW31255   2.357   0.663   5.828
10119SOL    HW131256   2.375   0.618   5.741
10119SOL    HW231257   2.436   0.717   5.856
10120SOL     OW31258   6.840   2.889   3.663
10120SOL    HW131259   6.803   2.936   3.743
10120SOL    HW231260   6.766   2.856   3.606
10121SOL     OW31261   6.586   4.817   4.907
10121SOL    HW131262   6.672   4.805   4.857
10121SOL    HW231263   6.599   4.886   4.979
10122SOL     OW31264   5.159   3.021   0.002
10122SOL    HW131265   5.094   2.955   6.986
10122SOL    HW231266   5.250   2.980   0.007
10123SOL     OW31267   0.247   6.937   0.159
10123SOL    HW131268   0.245   7.017   0.100
10123SOL    HW231269   0.333   6.887   0.145
10124SOL     OW31270   3.593   4.486   0.807
10124SOL    HW131271   3.555   4.497   0.715
10124SOL    HW231272   3.592   4.389   0.832
10125SOL     OW31273   1.520   6.914   1.502
10125SOL    HW131274   1.475   6.891   1.589
10125SOL    HW231275   1.610   6.953   1.521
10126SOL     OW31276   6.194   5.052   0.620
10126SOL    HW131277   6.221   4.957   0.636
10126SOL    HW231278   6.178   5.097   0.708
10127SOL     OW31279   3.470   4.977   5.190
10127SOL    HW131280   3.454   4.903   5.256
10127SOL    HW231281   3.561   5.015   5.205
10128SOL     OW31282   0.248   1.958   1.075
10128SOL    HW131283   0.222   1.992   0.985
10128SOL    HW231284   0.344   1.929   1.073
10129SOL     OW31285   5.712   2.215   3.289
10129SOL    HW131286   5.655   2.136   3.269
10129SOL    HW231287   5.654   2.295   3.303
10130SOL     OW31288   6.413   5.119   1.664
10130SOL    HW131289   6.346   5.182   1.624
10130SOL    HW231290   6.486   5.172   1.707
10131SOL     OW31291   0.223   0.982   0.723
10131SOL    HW131292   0.259   1.035   0.800
10131SOL    HW231293   0.295   0.970   0.655
10132SOL     OW31294   3.165   0.195   2.788
10132SOL    HW131295   3.105   0.125   2.826
10132SOL    HW231296   3.183   0.174   2.691
10133SOL     OW31297   5.181   5.569   3.159
10133SOL    HW131298   5.082   5.575   3.146
10133SOL    HW231299   5.228   5.623   3.090
10134SOL     OW31300   0.199   1.254   2.618
10134SOL    HW131301   0.270   1.295   2.676
10134SOL    HW231302   0.114   1.306   2.629
10135SOL     OW31303   4.289   5.079   3.492
10135SOL    HW131304   4.248   5.134   3.419
10135SOL    HW231305   4.346   5.008   3.451
10136SOL     OW31306   5.803   6.742   2.648
10136SOL    HW131307   5.746   6.816   2.684
10136SOL    HW231308   5.755   6.697   2.573
10137SOL     OW31309   6.163   4.984   3.959
10137SOL    HW131310   6.168   4.968   3.860
10137SOL    HW231311   6.076   4.950   3.994
10138SOL     OW31312   5.679   2.310   6.350
10138SOL    HW131313   5.671   2.236   6.417
10138SOL    HW231314   5.664   2.273   6.258
10139SOL     OW31315   4.046   3.256   3.232
10139SOL    HW131316   4.081   3.340   3.192
10139SOL    HW231317   4.043   3.264   3.331
10140SOL     OW31318   0.350   4.895   6.240
10140SOL    HW131319   0.281   4.893   6.313
10140SOL    HW231320   0.405   4.812   6.244
10141SOL     OW31321   1.772   1.106   3.424
10141SOL    HW131322   1.734   1.040   3.360
10141SOL    HW231323   1.862   1.135   3.393
10142SOL     OW31324   4.594   5.886   4.866
10142SOL    HW131325   4.672   5.854   4.812
10142SOL    HW231326   4.594   5.840   4.955
10143SOL     OW31327   4.735   6.914   1.316
10143SOL    HW131328   4.819   6.898   1.368
10143SOL    HW231329   4.736   6.860   1.232
10144SOL     OW31330   3.179   5.464   3.744
10144SOL    HW131331   3.081   5.474   3.727
10144SOL    HW231332   3.212   5.381   3.699
10145SOL     OW31333   2.952   6.414   5.990
10145SOL    HW131334   2.891   6.359   6.048
10145SOL    HW231335   2.987   6.358   5.915
10146SOL     OW31336   5.057   5.112   4.116
10146SOL    HW131337   5.082   5.163   4.034
10146SOL    HW231338   4.959   5.091   4.114
10147SOL     OW31339   5.100   5.003   4.885
10147SOL    HW131340   5.106   4.972   4.980
10147SOL    HW231341   5.016   5.055   4.872
10148SOL     OW31342   5.362   5.583   1.147
10148SOL    HW131343   5.286   5.560   1.086
10148SOL    HW231344   5.439   5.618   1.094
10149SOL     OW31345   4.243   2.680   0.796
10149SOL    HW131346   4.156   2.661   0.841
10149SOL    HW231347   4.297   2.743   0.852
10150SOL     OW31348   4.784   4.500   1.175
10150SOL    HW131349   4.748   4.430   1.235
10150SOL    HW231350   4.861   4.546   1.219
10151SOL     OW31351   1.545   0.275   5.554
10151SOL    HW131352   1.622   0.329   5.519
10151SOL    HW231353   1.463   0.332   5.557
10152SOL     OW31354   0.232   5.719   3.420
10152SOL    HW131355   0.260   5.779   3.495
10152SOL    HW231356   0.190   5.637   3.457
10153SOL     OW31357   5.414   6.260   4.443
10153SOL    HW131358   5.475   6.197   4.491
10153SOL    HW231359   5.430   6.354   4.475
10154SOL     OW31360   6.874   4.993   6.035
10154SOL    HW131361   6.810   4.958   6.103
10154SOL    HW231362   6.967   4.992   6.073
10155SOL     OW31363   3.400   1.291   6.351
10155SOL    HW131364   3.430   1.240   6.270
10155SOL    HW231365   3.406   1.233   6.432
10156SOL     OW31366   5.971   0.479   2.324
10156SOL    HW131367   5.923   0.442   2.403
10156SOL    HW231368   5.907   0.486   2.247
10157SOL     OW31369   5.546   0.722   6.050
10157SOL    HW131370   5.543   0.650   5.981
10157SOL    HW231371   5.578   0.685   6.137
10158SOL     OW31372   4.175   3.341   0.063
10158SOL    HW131373   4.236   3.377   0.133
10158SOL    HW231374   4.203   3.374   6.994
10159SOL     OW31375   1.483   1.549   5.944
10159SOL    HW131376   1.465   1.647   5.935
10159SOL    HW231377   1.432   1.500   5.873
10160SOL     OW31378   0.430   6.222   3.793
10160SOL    HW131379   0.396   6.230   3.886
10160SOL    HW231380   0.431   6.312   3.750
10161SOL     OW31381   3.064   5.491   5.919
10161SOL    HW131382   3.143   5.519   5.972
10161SOL    HW231383   3.078   5.399   5.882
10162SOL     OW31384   3.019   1.914   7.006
10162SOL    HW131385   3.072   1.987   0.029
10162SOL    HW231386   2.985   1.852   0.055
10163SOL     OW31387   5.776   3.485   5.789
10163SOL    HW131388   5.716   3.442   5.856
10163SOL    HW231389   5.748   3.579   5.774
10164SOL     OW31390   6.868   2.748   4.890
10164SOL    HW131391   6.914   2.835   4.908
10164SOL    HW231392   6.900   2.679   4.956
10165SOL     OW31393   0.248   1.798   3.725
10165SOL    HW131394   0.314   1.765   3.657
10165SOL    HW231395   0.156   1.767   3.700
10166SOL     OW31396   1.809   0.831   2.242
10166SOL    HW131397   1.822   0.797   2.335
10166SOL    HW231398   1.711   0.846   2.226
10167SOL     OW31399   4.957   0.261   0.126
10167SOL    HW131400   4.901   0.343   0.142
10167SOL    HW231401   5.052   0.288   0.116
10168SOL     OW31402   6.689   4.580   4.112
10168SOL    HW131403   6.670   4.487   4.082
10168SOL    HW231404   6.783   4.605   4.088
10169SOL     OW31405   6.222   4.036   3.980
10169SOL    HW131406   6.170   3.961   4.021
10169SOL    HW231407   6.161   4.114   3.963
10170SOL     OW31408   1.969   4.185   4.918
10170SOL    HW131409   2.021   4.144   4.843
10170SOL    HW231410   2.021   4.175   5.003
10171SOL     OW31411   6.105   4.013   6.021
10171SOL    HW131412   6.170   3.937   6.019
10171SOL    HW231413   6.020   3.985   5.975
10172SOL     OW31414   5.229   0.856   2.866
10172SOL    HW131415   5.202   0.764   2.895
10172SOL    HW231416   5.158   0.894   2.806
10173SOL     OW31417   2.127   1.575   1.900
10173SOL    HW131418   2.086   1.663   1.878
10173SOL    HW231419   2.218   1.589   1.938
10174SOL     OW31420   0.064   4.570   2.279
10174SOL    HW131421   0.023   4.496   2.331
10174SOL    HW231422   0.163   4.561   2.279
10175SOL     OW31423   6.240   2.690   5.546
10175SOL    HW131424   6.156   2.744   5.537
10175SOL    HW231425   6.224   2.598   5.510
10176SOL     OW31426   2.063   4.083   6.861
10176SOL    HW131427   2.130   4.156   6.853
10176SOL    HW231428   1.971   4.121   6.848
10177SOL     OW31429   2.248   6.668   6.880
10177SOL    HW131430   2.260   6.754   6.929
10177SOL    HW231431   2.161   6.627   6.905
10178SOL     OW31432   5.732   2.370   4.669
10178SOL    HW131433   5.770   2.462   4.664
10178SOL    HW231434   5.793   2.306   4.622
10179SOL     OW31435   1.182   3.038   6.495
10179SOL    HW131436   1.266   2.999   6.457
10179SOL    HW231437   1.161   3.124   6.449
10180SOL     OW31438   2.765   5.933   5.647
10180SOL    HW131439   2.674   5.891   5.638
10180SOL    HW231440   2.826   5.893   5.578
10181SOL     OW31441   5.522   3.429   1.492
10181SOL    HW131442   5.422   3.423   1.497
10181SOL    HW231443   5.558   3.341   1.459
10182SOL     OW31444   5.930   1.299   1.081
10182SOL    HW131445   5.956   1.252   1.165
10182SOL    HW231446   6.005   1.293   1.015
10183SOL     OW31447   1.720   1.594   6.344
10183SOL    HW131448   1.782   1.528   6.386
10183SOL    HW231449   1.637   1.602   6.400
10184SOL     OW31450   4.139   1.176   5.797
10184SOL    HW131451   4.233   1.212   5.801
10184SOL    HW231452   4.136   1.084   5.836
10185SOL     OW31453   5.179   6.653   1.092
10185SOL    HW131454   5.098   6.595   1.078
10185SOL    HW231455   5.171   6.700   1.180
10186SOL     OW31456   4.392   1.935   2.970
10186SOL    HW131457   4.414   1.839   2.983
10186SOL    HW231458   4.375   1.978   3.059
10187SOL     OW31459   0.775   2.274   1.528
10187SOL    HW131460   0.698   2.322   1.486
10187SOL    HW231461   0.750   2.246   1.621
10188SOL     OW31462   4.195   5.952   1.121
10188SOL    HW131463   4.105   5.944   1.078
10188SOL    HW231464   4.230   6.044   1.109
10189SOL     OW31465   1.474   6.712   5.317
10189SOL    HW131466   1.559   6.672   5.281
10189SOL    HW231467   1.439   6.655   5.391
10190SOL     OW31468   4.965   2.781   6.993
10190SOL    HW131469   4.982   2.685   6.967
10190SOL    HW231470   4.901   2.784   0.048
10191SOL     OW31471   6.391   4.350   0.259
10191SOL    HW131472   6.367   4.287   0.333
10191SOL    HW231473   6.312   4.408   0.238
10192SOL     OW31474   3.187   0.826   5.637
10192SOL    HW131475   3.117   0.847   5.705
10192SOL    HW231476   3.255   0.765   5.677
10193SOL     OW31477   4.912   3.743   0.441
10193SOL    HW131478   4.823   3.785   0.424
10193SOL    HW231479   4.941   3.763   0.534
10194SOL     OW31480   5.494   3.777   5.389
10194SOL    HW131481   5.488   3.720   5.472
10194SOL    HW231482   5.566   3.742   5.330
10195SOL     OW31483   6.985   4.103   1.854
10195SOL    HW131484   6.974   4.037   1.780
10195SOL    HW231485   0.058   4.134   1.858
10196SOL     OW31486   0.545   1.815   4.509
10196SOL    HW131487   0.539   1.817   4.409
10196SOL    HW231488   0.612   1.883   4.539
10197SOL     OW31489   5.565   0.517   5.870
10197SOL    HW131490   5.659   0.485   5.878
10197SOL    HW231491   5.502   0.440   5.884
10198SOL     OW31492   3.901   6.894   2.753
10198SOL    HW131493   3.822   6.928   2.703
10198SOL    HW231494   3.884   6.901   2.851
10199SOL     OW31495   1.354   2.513   5.330
10199SOL    HW131496   1.434   2.570   5.311
10199SOL    HW231497   1.283   2.532   5.262
10200SOL     OW31498   5.851   3.283   1.578
10200SOL    HW131499   5.764   3.234   1.584
10200SOL    HW231500   5.924   3.225   1.613
10201SOL     OW31501   1.482   3.182   0.732
10201SOL    HW131502   1.490   3.281   0.723
10201SOL    HW231503   1.453   3.142   0.645
10202SOL     OW31504   3.506   0.357   5.446
10202SOL    HW131505   3.446   0.423   5.403
10202SOL    HW231506   3.459   0.269   5.454
10203SOL     OW31507   6.676   2.398   4.437
10203SOL    HW131508   6.625   2.322   4.394
10203SOL    HW231509   6.636   2.485   4.409
10204SOL     OW31510   5.282   6.311   6.644
10204SOL    HW131511   5.377   6.338   6.657
10204SOL    HW231512   5.249   6.265   6.726
10205SOL     OW31513   0.713   0.826   6.363
10205SOL    HW131514   0.792   0.874   6.399
10205SOL    HW231515   0.679   0.872   6.282
10206SOL     OW31516   1.303   0.999   5.474
10206SOL    HW131517   1.248   0.945   5.410
10206SOL    HW231518   1.349   1.073   5.424
10207SOL     OW31519   1.224   1.871   5.208
10207SOL    HW131520   1.209   1.894   5.112
10207SOL    HW231521   1.317   1.837   5.221
10208SOL     OW31522   6.801   4.952   5.617
10208SOL    HW131523   6.842   4.871   5.658
10208SOL    HW231524   6.746   5.000   5.685
10209SOL     OW31525   6.566   6.542   6.245
10209SOL    HW131526   6.555   6.461   6.188
10209SOL    HW231527   6.478   6.568   6.284
10210SOL     OW31528   3.577   6.612   2.205
10210SOL    HW131529   3.644   6.567   2.264
10210SOL    HW231530   3.621   6.639   2.119
10211SOL     OW31531   4.978   5.914   5.398
10211SOL    HW131532   4.990   6.001   5.351
10211SOL    HW231533   5.039   5.911   5.478
10212SOL     OW31534   0.450   0.340   6.345
10212SOL    HW131535   0.380   0.360   6.415
10212SOL    HW231536   0.529   0.399   6.360
10213SOL     OW31537   5.915   1.538   0.906
10213SOL    HW131538   5.965   1.624   0.911
10213SOL    HW231539   5.944   1.477   0.980
10214SOL     OW31540   0.639   2.523   0.967
10214SOL    HW131541   0.714   2.457   0.966
10214SOL    HW231542   0.553   2.476   0.987
10215SOL     OW31543   3.116   3.460   1.920
10215SOL    HW131544   3.184   3.397   1.958
10215SOL    HW231545   3.027   3.415   1.916
10216SOL     OW31546   6.308   6.759   2.929
10216SOL    HW131547   6.314   6.800   2.838
10216SOL    HW231548   6.350   6.669   2.928
10217SOL     OW31549   3.510   0.846   4.078
10217SOL    HW131550   3.594   0.797   4.102
10217SOL    HW231551   3.519   0.942   4.105
10218SOL     OW31552   1.107   2.753   2.434
10218SOL    HW131553   1.096   2.703   2.520
10218SOL    HW231554   1.152   2.841   2.452
10219SOL     OW31555   6.734   0.044   2.769
10219SOL    HW131556   6.831   0.017   2.770
10219SOL    HW231557   6.727   0.141   2.791
10220SOL     OW31558   3.557   2.527   1.314
10220SOL    HW131559   3.623   2.577   1.370
10220SOL    HW231560   3.511   2.590   1.251
10221SOL     OW31561   0.701   5.677   3.852
10221SOL    HW131562   0.612   5.640   3.825
10221SOL    HW231563   0.689   5.744   3.926
10222SOL     OW31564   2.933   3.241   4.175
10222SOL    HW131565   3.016   3.249   4.231
10222SOL    HW231566   2.855   3.222   4.234
10223SOL     OW31567   0.521   6.001   1.781
10223SOL    HW131568   0.443   5.998   1.719
10223SOL    HW231569   0.596   6.052   1.737
10224SOL     OW31570   5.669   4.186   3.390
10224SOL    HW131571   5.743   4.155   3.330
10224SOL    HW231572   5.595   4.223   3.334
10225SOL     OW31573   2.391   3.921   5.813
10225SOL    HW131574   2.329   3.991   5.778
10225SOL    HW231575   2.340   3.859   5.873
10226SOL     OW31576   4.716   2.822   6.834
10226SOL    HW131577   4.805   2.826   6.880
10226SOL    HW231578   4.659   2.898   6.866
10227SOL     OW31579   5.296   3.853   1.299
10227SOL    HW131580   5.261   3.818   1.386
10227SOL    HW231581   5.389   3.888   1.313
10228SOL     OW31582   5.682   0.695   1.158
10228SOL    HW131583   5.714   0.658   1.071
10228SOL    HW231584   5.585   0.718   1.152
10229SOL     OW31585   6.450   3.401   4.697
10229SOL    HW131586   6.375   3.453   4.736
10229SOL    HW231587   6.536   3.449   4.714
10230SOL     OW31588   0.281   6.229   2.787
10230SOL    HW131589   0.224   6.304   2.753
10230SOL    HW231590   0.369   6.229   2.739
10231SOL     OW31591   1.193   4.998   2.958
10231SOL    HW131592   1.180   4.993   3.057
10231SOL    HW231593   1.119   5.050   2.917
10232SOL     OW31594   4.836   4.726   3.645
10232SOL    HW131595   4.825   4.631   3.617
10232SOL    HW231596   4.758   4.753   3.701
10233SOL     OW31597   3.602   4.094   6.198
10233SOL    HW131598   3.573   4.100   6.102
10233SOL    HW231599   3.604   4.185   6.238
10234SOL     OW31600   0.432   1.203   1.876
10234SOL    HW131601   0.493   1.131   1.908
10234SOL    HW231602   0.482   1.288   1.867
10235SOL     OW31603   1.686   0.952   2.880
10235SOL    HW131604   1.762   0.981   2.937
10235SOL    HW231605   1.601   0.995   2.912
10236SOL     OW31606   2.589   6.620   1.774
10236SOL    HW131607   2.618   6.587   1.684
10236SOL    HW231608   2.670   6.633   1.832
10237SOL     OW31609   0.352   3.131   5.741
10237SOL    HW131610   0.372   3.071   5.664
10237SOL    HW231611   0.398   3.219   5.728
10238SOL     OW31612   3.607   6.914   1.743
10238SOL    HW131613   3.685   6.938   1.685
10238SOL    HW231614   3.599   6.982   1.816
10239SOL     OW31615   0.747   2.519   4.042
10239SOL    HW131616   0.766   2.428   4.006
10239SOL    HW231617   0.809   2.586   4.000
10240SOL     OW31618   2.438   6.656   0.577
10240SOL    HW131619   2.481   6.687   0.662
10240SOL    HW231620   2.506   6.658   0.503
10241SOL     OW31621   3.919   2.471   1.670
10241SOL    HW131622   3.836   2.474   1.725
10241SOL    HW231623   3.970   2.387   1.692
10242SOL     OW31624   6.286   2.832   6.722
10242SOL    HW131625   6.213   2.900   6.728
10242SOL    HW231626   6.375   2.879   6.721
10243SOL     OW31627   2.673   5.139   1.326
10243SOL    HW131628   2.739   5.070   1.355
10243SOL    HW231629   2.714   5.197   1.255
10244SOL     OW31630   3.081   4.218   1.508
10244SOL    HW131631   3.121   4.306   1.480
10244SOL    HW231632   2.987   4.233   1.540
10245SOL     OW31633   4.837   3.629   0.824
10245SOL    HW131634   4.820   3.606   0.920
10245SOL    HW231635   4.779   3.574   0.765
10246SOL     OW31636   3.310   2.930   3.992
10246SOL    HW131637   3.294   2.922   4.090
10246SOL    HW231638   3.258   3.008   3.956
10247SOL     OW31639   0.318   2.776   4.303
10247SOL    HW131640   0.221   2.761   4.322
10247SOL    HW231641   0.366   2.688   4.304
10248SOL     OW31642   1.334   0.436   3.691
10248SOL    HW131643   1.335   0.435   3.591
10248SOL    HW231644   1.417   0.394   3.726
10249SOL     OW31645   2.828   5.435   6.347
10249SOL    HW131646   2.815   5.452   6.249
10249SOL    HW231647   2.918   5.468   6.375
10250SOL     OW31648   4.288   2.404   1.042
10250SOL    HW131649   4.266   2.431   0.949
10250SOL    HW231650   4.215   2.432   1.104
10251SOL     OW31651   1.696   0.405   4.378
10251SOL    HW131652   1.648   0.355   4.306
10251SOL    HW231653   1.741   0.339   4.439
10252SOL     OW31654   5.592   4.136   6.500
10252SOL    HW131655   5.650   4.070   6.452
10252SOL    HW231656   5.555   4.202   6.434
10253SOL     OW31657   3.264   6.302   6.533
10253SOL    HW131658   3.198   6.237   6.572
10253SOL    HW231659   3.223   6.349   6.455
10254SOL     OW31660   5.923   1.075   5.582
10254SOL    HW131661   5.918   0.975   5.593
10254SOL    HW231662   5.848   1.106   5.525
10255SOL     OW31663   4.193   4.522   1.455
10255SOL    HW131664   4.205   4.429   1.489
10255SOL    HW231665   4.136   4.521   1.373
10256SOL     OW31666   3.838   1.536   3.322
10256SOL    HW131667   3.918   1.505   3.374
10256SOL    HW231668   3.770   1.463   3.320
10257SOL     OW31669   4.088   5.525   3.146
10257SOL    HW131670   4.058   5.556   3.236
10257SOL    HW231671   4.127   5.601   3.096
10258SOL     OW31672   1.859   1.017   1.847
10258SOL    HW131673   1.907   0.942   1.894
10258SOL    HW231674   1.882   1.103   1.892
10259SOL     OW31675   1.656   4.442   3.882
10259SOL    HW131676   1.676   4.424   3.979
10259SOL    HW231677   1.626   4.358   3.838
10260SOL     OW31678   1.086   0.576   3.748
10260SOL    HW131679   1.177   0.543   3.771
10260SOL    HW231680   1.084   0.605   3.652
10261SOL     OW31681   6.805   3.567   1.114
10261SOL    HW131682   6.800   3.636   1.186
10261SOL    HW231683   6.862   3.491   1.144
10262SOL     OW31684   4.418   1.426   0.890
10262SOL    HW131685   4.354   1.403   0.817
10262SOL    HW231686   4.383   1.502   0.943
10263SOL     OW31687   6.099   0.704   2.301
10263SOL    HW131688   6.013   0.754   2.317
10263SOL    HW231689   6.088   0.610   2.331
10264SOL     OW31690   6.735   6.260   6.551
10264SOL    HW131691   6.730   6.180   6.491
10264SOL    HW231692   6.759   6.231   6.644
10265SOL     OW31693   1.896   1.703   1.005
10265SOL    HW131694   1.802   1.690   1.035
10265SOL    HW231695   1.957   1.646   1.061
10266SOL     OW31696   2.573   3.338   1.748
10266SOL    HW131697   2.514   3.377   1.818
10266SOL    HW231698   2.633   3.409   1.710
10267SOL     OW31699   5.816   0.821   1.558
10267SOL    HW131700   5.740   0.862   1.508
10267SOL    HW231701   5.841   0.734   1.515
10268SOL     OW31702   3.744   6.997   1.387
10268SOL    HW131703   3.834   6.996   1.431
10268SOL    HW231704   3.753   6.966   1.292
10269SOL     OW31705   3.104   2.179   0.423
10269SOL    HW131706   3.159   2.099   0.400
10269SOL    HW231707   3.077   2.174   0.519
10270SOL     OW31708   2.634   0.058   2.493
10270SOL    HW131709   2.658   0.126   2.424
10270SOL    HW231710   2.686   0.075   2.577
10271SOL     OW31711   1.249   1.899   6.722
10271SOL    HW131712   1.302   1.939   6.648
10271SOL    HW231713   1.292   1.921   6.810
10272SOL     OW31714   6.280   0.162   4.490
10272SOL    HW131715   6.358   0.187   4.547
10272SOL    HW231716   6.202   0.221   4.512
10273SOL     OW31717   2.123   5.502   3.179
10273SOL    HW131718   2.092   5.476   3.088
10273SOL    HW231719   2.050   5.551   3.226
10274SOL     OW31720   0.953   5.063   5.258
10274SOL    HW131721   0.948   5.132   5.330
10274SOL    HW231722   0.886   5.083   5.187
10275SOL     OW31723   0.122   0.041   2.213
10275SOL    HW131724   0.081   0.018   2.302
10275SOL    HW231725   0.055   0.092   2.159
10276SOL     OW31726   3.350   5.310   5.561
10276SOL    HW131727   3.318   5.259   5.481
10276SOL    HW231728   3.441   5.348   5.542
10277SOL     OW31729   0.174   6.429   4.324
10277SOL    HW131730   0.270   6.400   4.323
10277SOL    HW231731   0.140   6.425   4.418
10278SOL     OW31732   6.825   0.633   4.888
10278SOL    HW131733   6.787   0.659   4.977
10278SOL    HW231734   6.910   0.582   4.902
10279SOL     OW31735   2.114   6.097   4.239
10279SOL    HW131736   2.139   6.113   4.334
10279SOL    HW231737   2.114   6.184   4.189
10280SOL     OW31738   6.493   4.067   0.697
10280SOL    HW131739   6.511   4.034   0.604
10280SOL    HW231740   6.559   4.139   0.720
10281SOL     OW31741   6.967   1.866   3.255
10281SOL    HW131742   6.875   1.839   3.227
10281SOL    HW231743   6.980   1.963   3.235
10282SOL     OW31744   4.982   3.347   3.385
10282SOL    HW131745   5.025   3.267   3.344
10282SOL    HW231746   4.928   3.395   3.315
10283SOL     OW31747   0.718   2.951   1.158
10283SOL    HW131748   0.624   2.974   1.184
10283SOL    HW231749   0.758   2.891   1.227
10284SOL     OW31750   6.997   3.341   3.769
10284SOL    HW131751   0.047   3.378   3.828
10284SOL    HW231752   6.908   3.376   3.798
10285SOL     OW31753   5.894   5.669   5.254
10285SOL    HW131754   5.977   5.667   5.310
10285SOL    HW231755   5.899   5.746   5.190
10286SOL     OW31756   2.914   1.403   3.357
10286SOL    HW131757   2.884   1.398   3.452
10286SOL    HW231758   2.833   1.404   3.297
10287SOL     OW31759   2.464   5.554   2.797
10287SOL    HW131760   2.449   5.463   2.835
10287SOL    HW231761   2.562   5.572   2.790
10288SOL     OW31762   3.492   6.828   5.618
10288SOL    HW131763   3.435   6.784   5.548
10288SOL    HW231764   3.579   6.778   5.625
10289SOL     OW31765   3.223   5.399   6.592
10289SOL    HW131766   3.287   5.331   6.628
10289SOL    HW231767   3.130   5.375   6.618
10290SOL     OW31768   3.467   2.804   1.972
10290SOL    HW131769   3.559   2.803   1.933
10290SOL    HW231770   3.410   2.738   1.923
10291SOL     OW31771   1.895   1.724   2.287
10291SOL    HW131772   1.817   1.728   2.350
10291SOL    HW231773   1.951   1.644   2.309
10292SOL     OW31774   6.206   6.777   6.669
10292SOL    HW131775   6.289   6.729   6.698
10292SOL    HW231776   6.197   6.862   6.721
10293SOL     OW31777   1.181   4.013   4.331
10293SOL    HW131778   1.172   3.995   4.233
10293SOL    HW231779   1.273   3.990   4.362
10294SOL     OW31780   3.661   1.351   2.304
10294SOL    HW131781   3.651   1.451   2.302
10294SOL    HW231782   3.757   1.328   2.317
10295SOL     OW31783   0.548   2.101   6.985
10295SOL    HW131784   0.492   2.182   6.965
10295SOL    HW231785   0.633   2.105   6.932
10296SOL     OW31786   5.628   1.144   5.710
10296SOL    HW131787   5.644   1.049   5.736
10296SOL    HW231788   5.613   1.150   5.611
10297SOL     OW31789   3.680   1.384   6.876
10297SOL    HW131790   3.680   1.480   6.847
10297SOL    HW231791   3.602   1.368   6.936
10298SOL     OW31792   0.687   2.378   2.610
10298SOL    HW131793   0.725   2.288   2.588
10298SOL    HW231794   0.759   2.447   2.605
10299SOL     OW31795   4.297   6.062   3.068
10299SOL    HW131796   4.293   6.099   2.975
10299SOL    HW231797   4.303   6.137   3.133
10300SOL     OW31798   0.713   3.814   1.712
10300SOL    HW131799   0.729   3.911   1.730
10300SOL    HW231800   0.783   3.780   1.648
10301SOL     OW31801   4.185   0.268   6.178
10301SOL    HW131802   4.210   0.172   6.169
10301SOL    HW231803   4.265   0.322   6.204
10302SOL     OW31804   2.759   6.097   5.254
10302SOL    HW131805   2.672   6.106   5.302
10302SOL    HW231806   2.789   6.002   5.258
10303SOL     OW31807   0.675   6.031   4.785
10303SOL    HW131808   0.618   5.999   4.860
10303SOL    HW231809   0.629   6.016   4.698
10304SOL     OW31810   6.063   6.463   0.528
10304SOL    HW131811   6.090   6.451   0.433
10304SOL    HW231812   6.039   6.559   0.544
10305SOL     OW31813   2.736   4.188   6.050
10305SOL    HW131814   2.717   4.110   6.110
10305SOL    HW231815   2.685   4.177   5.964
10306SOL     OW31816   4.576   0.512   1.094
10306SOL    HW131817   4.576   0.474   1.002
10306SOL    HW231818   4.498   0.573   1.106
10307SOL     OW31819   2.218   0.093   4.658
10307SOL    HW131820   2.287   0.069   4.590
10307SOL    HW231821   2.263   0.108   4.746
10308SOL     OW31822   2.803   5.180   2.359
10308SOL    HW131823   2.895   5.160   2.391
10308SOL    HW231824   2.795   5.277   2.338
10309SOL     OW31825   0.023   1.731   4.769
10309SOL    HW131826   7.001   1.755   4.856
10309SOL    HW231827   0.117   1.702   4.785
10310SOL     OW31828   2.246   4.137   5.664
10310SOL    HW131829   2.213   4.227   5.690
10310SOL    HW231830   2.342   4.143   5.634
10311SOL     OW31831   4.760   5.676   0.340
10311SOL    HW131832   4.845   5.671   0.288
10311SOL    HW231833   4.781   5.682   0.438
10312SOL     OW31834   4.413   0.670   2.030
10312SOL    HW131835   4.476   0.748   2.023
10312SOL    HW231836   4.327   0.700   2.070
10313SOL     OW31837   4.370   6.938   3.174
10313SOL    HW131838   4.438   6.865   3.166
10313SOL    HW231839   4.294   6.919   3.112
10314SOL     OW31840   0.537   0.530   1.298
10314SOL    HW131841   0.513   0.623   1.272
10314SOL    HW231842   0.586   0.531   1.386
10315SOL     OW31843   5.645   5.560   3.657
10315SOL    HW131844   5.695   5.616   3.723
10315SOL    HW231845   5.629   5.469   3.695
10316SOL     OW31846   0.388   1.876   6.666
10316SOL    HW131847   0.328   1.799   6.644
10316SOL    HW231848   0.404   1.879   6.765
10317SOL     OW31849   3.923   5.405   5.796
10317SOL    HW131850   3.852   5.343   5.828
10317SOL    HW231851   3.884   5.497   5.784
10318SOL     OW31852   6.291   6.960   0.283
10318SOL    HW131853   6.377   6.948   0.333
10318SOL    HW231854   6.301   6.924   0.190
10319SOL     OW31855   0.476   4.639   4.083
10319SOL    HW131856   0.524   4.572   4.139
10319SOL    HW231857   0.380   4.614   4.077
10320SOL     OW31858   0.416   6.967   3.845
10320SOL    HW131859   0.499   7.014   3.815
10320SOL    HW231860   0.390   6.998   3.936
10321SOL     OW31861   5.121   2.488   2.304
10321SOL    HW131862   5.212   2.526   2.288
10321SOL    HW231863   5.097   2.427   2.228
10322SOL     OW31864   4.638   4.409   4.785
10322SOL    HW131865   4.681   4.324   4.814
10322SOL    HW231866   4.683   4.442   4.701
10323SOL     OW31867   0.357   4.131   5.108
10323SOL    HW131868   0.366   4.207   5.042
10323SOL    HW231869   0.273   4.081   5.089
10324SOL     OW31870   3.288   3.268   2.014
10324SOL    HW131871   3.304   3.290   2.111
10324SOL    HW231872   3.375   3.265   1.966
10325SOL     OW31873   6.730   5.734   3.285
10325SOL    HW131874   6.797   5.716   3.214
10325SOL    HW231875   6.680   5.818   3.263
10326SOL     OW31876   5.747   3.608   6.894
10326SOL    HW131877   5.742   3.574   6.988
10326SOL    HW231878   5.687   3.554   6.836
10327SOL     OW31879   2.693   4.384   1.280
10327SOL    HW131880   2.757   4.446   1.235
10327SOL    HW231881   2.675   4.415   1.373
10328SOL     OW31882   6.095   2.626   1.729
10328SOL    HW131883   6.053   2.611   1.818
10328SOL    HW231884   6.058   2.561   1.663
10329SOL     OW31885   3.751   1.771   2.788
10329SOL    HW131886   3.749   1.706   2.712
10329SOL    HW231887   3.824   1.837   2.774
10330SOL     OW31888   3.875   1.106   1.545
10330SOL    HW131889   3.974   1.114   1.530
10330SOL    HW231890   3.849   1.160   1.625
10331SOL     OW31891   6.226   5.362   6.631
10331SOL    HW131892   6.173   5.428   6.684
10331SOL    HW231893   6.269   5.296   6.693
10332SOL     OW31894   1.117   1.132   6.881
10332SOL    HW131895   1.032   1.184   6.888
10332SOL    HW231896   1.191   1.184   6.923
10333SOL     OW31897   0.581   5.259   4.627
10333SOL    HW131898   0.490   5.277   4.590
10333SOL    HW231899   0.614   5.172   4.591
10334SOL     OW31900   3.352   6.839   3.492
10334SOL    HW131901   3.447   6.868   3.480
10334SOL    HW231902   3.346   6.739   3.484
10335SOL     OW31903   0.348   2.292   5.511
10335SOL    HW131904   0.310   2.348   5.438
10335SOL    HW231905   0.346   2.343   5.597
10336SOL     OW31906   5.192   6.986   3.540
10336SOL    HW131907   5.163   0.004   3.452
10336SOL    HW231908   5.188   6.887   3.535
10337SOL     OW31909   6.561   5.262   6.756
10337SOL    HW131910   6.504   5.199   6.809
10337SOL    HW231911   6.571   5.227   6.663
10338SOL     OW31912   1.182   6.319   1.801
10338SOL    HW131913   1.167   6.417   1.783
10338SOL    HW231914   1.263   6.308   1.859
10339SOL     OW31915   6.163   2.035   5.632
10339SOL    HW131916   6.134   2.127   5.603
10339SOL    HW231917   6.243   2.043   5.691
10340SOL     OW31918   2.324   3.276   6.353
10340SOL    HW131919   2.381   3.358   6.368
10340SOL    HW231920   2.233   3.304   6.323
10341SOL     OW31921   2.280   2.808   2.906
10341SOL    HW131922   2.321   2.737   2.963
10341SOL    HW231923   2.277   2.894   2.957
10342SOL     OW31924   1.068   1.195   3.409
10342SOL    HW131925   1.097   1.240   3.324
10342SOL    HW231926   1.118   1.108   3.419
10343SOL     OW31927   2.790   5.360   1.652
10343SOL    HW131928   2.762   5.333   1.744
10343SOL    HW231929   2.713   5.403   1.605
10344SOL     OW31930   4.276   5.544   5.942
10344SOL    HW131931   4.341   5.535   5.866
10344SOL    HW231932   4.278   5.639   5.975
10345SOL     OW31933   1.759   3.614   4.225
10345SOL    HW131934   1.663   3.631   4.203
10345SOL    HW231935   1.777   3.636   4.321
10346SOL     OW31936   6.825   5.820   0.813
10346SOL    HW131937   6.743   5.798   0.866
10346SOL    HW231938   6.904   5.771   0.850
10347SOL     OW31939   5.057   1.594   3.819
10347SOL    HW131940   4.966   1.622   3.850
10347SOL    HW231941   5.049   1.512   3.762
10348SOL     OW31942   6.978   4.179   0.846
10348SOL    HW131943   6.957   4.098   0.792
10348SOL    HW231944   0.037   4.225   0.809
10349SOL     OW31945   0.767   6.323   6.538
10349SOL    HW131946   0.731   6.413   6.564
10349SOL    HW231947   0.696   6.254   6.554
10350SOL     OW31948   3.314   0.026   6.032
10350SOL    HW131949   3.401   0.034   6.080
10350SOL    HW231950   3.239   0.023   6.097
10351SOL     OW31951   4.434   4.989   6.037
10351SOL    HW131952   4.440   4.894   6.067
10351SOL    HW231953   4.401   4.992   5.943
10352SOL     OW31954   3.631   3.367   6.073
10352SOL    HW131955   3.681   3.416   6.144
10352SOL    HW231956   3.594   3.433   6.007
10353SOL     OW31957   0.146   2.194   4.832
10353SOL    HW131958   0.174   2.288   4.849
10353SOL    HW231959   0.168   2.169   4.738
10354SOL     OW31960   5.581   1.833   1.913
10354SOL    HW131961   5.580   1.911   1.976
10354SOL    HW231962   5.628   1.757   1.957
10355SOL     OW31963   2.199   5.107   2.374
10355SOL    HW131964   2.259   5.058   2.312
10355SOL    HW231965   2.155   5.183   2.326
10356SOL     OW31966   6.970   3.488   4.395
10356SOL    HW131967   6.989   3.524   4.303
10356SOL    HW231968   6.901   3.415   4.388
10357SOL     OW31969   2.426   1.589   0.575
10357SOL    HW131970   2.394   1.531   0.500
10357SOL    HW231971   2.525   1.600   0.569
10358SOL     OW31972   0.472   1.753   1.855
10358SOL    HW131973   0.541   1.796   1.913
10358SOL    HW231974   0.417   1.690   1.909
10359SOL     OW31975   0.768   1.481   1.272
10359SOL    HW131976   0.754   1.410   1.342
10359SOL    HW231977   0.681   1.500   1.226
10360SOL     OW31978   6.079   5.801   3.911
10360SOL    HW131979   6.174   5.830   3.919
10360SOL    HW231980   6.019   5.879   3.927
10361SOL     OW31981   1.961   4.652   1.266
10361SOL    HW131982   1.879   4.595   1.264
10361SOL    HW231983   1.937   4.746   1.241
10362SOL     OW31984   1.511   5.222   4.137
10362SOL    HW131985   1.439   5.164   4.175
10362SOL    HW231986   1.480   5.317   4.134
10363SOL     OW31987   5.459   0.832   4.145
10363SOL    HW131988   5.550   0.863   4.174
10363SOL    HW231989   5.438   0.870   4.055
10364SOL     OW31990   1.131   4.438   1.280
10364SOL    HW131991   1.074   4.419   1.200
10364SOL    HW231992   1.149   4.536   1.285
10365SOL     OW31993   4.236   5.999   6.697
10365SOL    HW131994   4.189   6.010   6.785
10365SOL    HW231995   4.315   5.940   6.709
10366SOL     OW31996   3.421   6.605   3.772
10366SOL    HW131997   3.386   6.600   3.679
10366SOL    HW231998   3.402   6.519   3.819
10367SOL     OW31999   6.697   2.294   3.127
10367SOL    HW132000   6.644   2.211   3.143
10367SOL    HW232001   6.788   2.270   3.093
10368SOL     OW32002   2.635   0.287   1.208
10368SOL    HW132003   2.553   0.263   1.155
10368SOL    HW232004   2.641   0.386   1.217
10369SOL     OW32005   3.891   2.872   0.274
10369SOL    HW132006   3.964   2.894   0.339
10369SOL    HW232007   3.807   2.919   0.300
10370SOL     OW32008   3.468   0.554   5.019
10370SOL    HW132009   3.418   0.641   5.018
10370SOL    HW232010   3.494   0.529   4.926
10371SOL     OW32011   4.960   6.522   6.188
10371SOL    HW132012   4.878   6.578   6.176
10371SOL    HW232013   4.948   6.436   6.138
10372SOL     OW32014   0.815   0.489   2.855
10372SOL    HW132015   0.748   0.439   2.801
10372SOL    HW232016   0.866   0.424   2.912
10373SOL     OW32017   0.993   5.571   4.986
10373SOL    HW132018   1.018   5.578   4.890
10373SOL    HW232019   1.045   5.638   5.039
10374SOL     OW32020   2.944   2.258   4.194
10374SOL    HW132021   2.898   2.240   4.281
10374SOL    HW232022   3.019   2.323   4.208
10375SOL     OW32023   6.239   2.442   0.243
10375SOL    HW132024   6.334   2.429   0.274
10375SOL    HW232025   6.217   2.539   0.244
10376SOL     OW32026   6.934   1.427   3.406
10376SOL    HW132027   0.004   1.403   3.438
10376SOL    HW232028   6.886   1.479   3.477
10377SOL     OW32029   1.154   6.658   4.574
10377SOL    HW132030   1.205   6.667   4.489
10377SOL    HW232031   1.215   6.670   4.652
10378SOL     OW32032   6.801   6.745   6.639
10378SOL    HW132033   6.738   6.679   6.599
10378SOL    HW232034   6.842   6.801   6.566
10379SOL     OW32035   5.309   1.594   4.702
10379SOL    HW132036   5.244   1.668   4.718
10379SOL    HW232037   5.370   1.620   4.627
10380SOL     OW32038   4.292   0.479   2.930
10380SOL    HW132039   4.264   0.400   2.985
10380SOL    HW232040   4.258   0.468   2.836
10381SOL     OW32041   4.602   5.146   4.887
10381SOL    HW132042   4.668   5.080   4.921
10381SOL    HW232043   4.510   5.108   4.896
10382SOL     OW32044   2.312   5.372   0.605
10382SOL    HW132045   2.331   5.390   0.701
10382SOL    HW232046   2.236   5.431   0.574
10383SOL     OW32047   6.539   3.029   6.274
10383SOL    HW132048   6.555   2.932   6.292
10383SOL    HW232049   6.544   3.081   6.359
10384SOL     OW32050   6.090   0.298   0.328
10384SOL    HW132051   6.072   0.345   0.415
10384SOL    HW232052   6.083   0.363   0.253
10385SOL     OW32053   5.230   2.491   0.096
10385SOL    HW132054   5.190   2.560   0.156
10385SOL    HW232055   5.246   2.531   0.006
10386SOL     OW32056   6.003   2.565   6.420
10386SOL    HW132057   5.966   2.618   6.344
10386SOL    HW232058   5.931   2.549   6.488
10387SOL     OW32059   2.163   3.348   3.076
10387SOL    HW132060   2.181   3.376   3.171
10387SOL    HW232061   2.076   3.388   3.046
10388SOL     OW32062   1.502   4.497   2.666
10388SOL    HW132063   1.557   4.455   2.738
10388SOL    HW232064   1.454   4.426   2.615
10389SOL     OW32065   0.358   5.696   2.879
10389SOL    HW132066   0.439   5.705   2.938
10389SOL    HW232067   0.278   5.733   2.926
10390SOL     OW32068   1.920   3.223   3.244
10390SOL    HW132069   1.933   3.124   3.255
10390SOL    HW232070   1.950   3.270   3.327
10391SOL     OW32071   3.505   6.472   5.139
10391SOL    HW132072   3.516   6.494   5.235
10391SOL    HW232073   3.413   6.434   5.124
10392SOL     OW32074   6.628   4.974   6.844
10392SOL    HW132075   6.576   4.989   6.928
10392SOL    HW232076   6.566   4.980   6.765
10393SOL     OW32077   1.704   1.040   3.904
10393SOL    HW132078   1.785   1.073   3.855
10393SOL    HW232079   1.629   1.026   3.840
10394SOL     OW32080   2.888   6.934   0.031
10394SOL    HW132081   2.905   6.864   0.100
10394SOL    HW232082   2.974   6.979   0.007
10395SOL     OW32083   1.319   1.523   5.196
10395SOL    HW132084   1.350   1.486   5.108
10395SOL    HW232085   1.233   1.573   5.182
10396SOL     OW32086   0.545   0.232   4.978
10396SOL    HW132087   0.587   0.162   5.035
10396SOL    HW232088   0.590   0.320   4.995
10397SOL     OW32089   3.934   1.926   2.667
10397SOL    HW132090   3.952   2.024   2.664
10397SOL    HW232091   3.997   1.879   2.606
10398SOL     OW32092   6.789   2.906   2.759
10398SOL    HW132093   6.777   2.835   2.689
10398SOL    HW232094   6.845   2.980   2.721
10399SOL     OW32095   6.417   2.209   5.500
10399SOL    HW132096   6.427   2.193   5.599
10399SOL    HW232097   6.361   2.137   5.460
10400SOL     OW32098   2.526   4.605   1.473
10400SOL    HW132099   2.565   4.568   1.557
10400SOL    HW232100   2.524   4.705   1.478
10401SOL     OW32101   1.235   5.799   1.486
10401SOL    HW132102   1.185   5.769   1.568
10401SOL    HW232103   1.180   5.779   1.405
10402SOL     OW32104   0.356   2.453   4.246
10402SOL    HW132105   0.410   2.463   4.162
10402SOL    HW232106   0.263   2.484   4.230
10403SOL     OW32107   4.646   1.376   2.231
10403SOL    HW132108   4.746   1.378   2.223
10403SOL    HW232109   4.616   1.453   2.287
10404SOL     OW32110   0.094   6.658   3.661
10404SOL    HW132111   0.009   6.709   3.650
10404SOL    HW232112   0.137   6.646   3.572
10405SOL     OW32113   1.727   6.629   6.931
10405SOL    HW132114   1.678   6.620   6.844
10405SOL    HW232115   1.823   6.604   6.918
10406SOL     OW32116   2.042   5.309   5.611
10406SOL    HW132117   1.988   5.225   5.614
10406SOL    HW232118   2.105   5.311   5.689
10407SOL     OW32119   1.105   1.115   5.962
10407SOL    HW132120   1.162   1.115   5.880
10407SOL    HW232121   1.119   1.200   6.013
10408SOL     OW32122   4.067   5.662   3.482
10408SOL    HW132123   4.096   5.605   3.559
10408SOL    HW232124   3.975   5.696   3.498
10409SOL     OW32125   6.279   4.810   2.153
10409SOL    HW132126   6.238   4.898   2.131
10409SOL    HW232127   6.371   4.824   2.191
10410SOL     OW32128   5.984   6.806   0.660
10410SOL    HW132129   6.027   6.778   0.574
10410SOL    HW232130   6.042   6.874   0.705
10411SOL     OW32131   1.631   4.102   2.543
10411SOL    HW132132   1.725   4.066   2.539
10411SOL    HW232133   1.628   4.178   2.609
10412SOL     OW32134   0.210   2.189   6.733
10412SOL    HW132135   0.267   2.175   6.652
10412SOL    HW232136   0.212   2.286   6.759
10413SOL     OW32137   0.255   2.106   6.084
10413SOL    HW132138   0.222   2.018   6.050
10413SOL    HW232139   0.308   2.152   6.013
10414SOL     OW32140   5.817   0.493   4.821
10414SOL    HW132141   5.717   0.501   4.823
10414SOL    HW232142   5.853   0.493   4.914
10415SOL     OW32143   0.561   5.393   3.093
10415SOL    HW132144   0.548   5.451   3.174
10415SOL    HW232145   0.476   5.390   3.040
10416SOL     OW32146   4.840   0.035   0.214
10416SOL    HW132147   4.903   0.113   0.212
10416SOL    HW232148   4.859   7.000   0.295
10417SOL     OW32149   4.341   4.748   4.567
10417SOL    HW132150   4.419   4.769   4.626
10417SOL    HW232151   4.256   4.768   4.616
10418SOL     OW32152   0.033   3.872   6.858
10418SOL    HW132153   0.064   3.779   6.879
10418SOL    HW232154   0.073   3.901   6.771
10419SOL     OW32155   2.130   1.752   3.910
10419SOL    HW132156   2.110   1.665   3.954
10419SOL    HW232157   2.063   1.821   3.937
10420SOL     OW32158   5.446   3.140   3.779
10420SOL    HW132159   5.480   3.055   3.821
10420SOL    HW232160   5.350   3.153   3.804
10421SOL     OW32161   1.308   4.710   3.589
10421SOL    HW132162   1.283   4.769   3.666
10421SOL    HW232163   1.371   4.759   3.529
10422SOL     OW32164   5.859   3.498   5.519
10422SOL    HW132165   5.936   3.559   5.535
10422SOL    HW232166   5.814   3.477   5.606
10423SOL     OW32167   2.033   5.307   3.655
10423SOL    HW132168   2.090   5.381   3.617
10423SOL    HW232169   1.940   5.342   3.672
10424SOL     OW32170   3.214   1.588   0.780
10424SOL    HW132171   3.144   1.588   0.851
10424SOL    HW232172   3.174   1.557   0.694
10425SOL     OW32173   2.241   3.591   0.727
10425SOL    HW132174   2.251   3.555   0.820
10425SOL    HW232175   2.151   3.566   0.691
10426SOL     OW32176   5.918   2.348   6.203
10426SOL    HW132177   5.853   2.392   6.142
10426SOL    HW232178   5.876   2.335   6.293
10427SOL     OW32179   5.459   1.150   4.076
10427SOL    HW132180   5.382   1.092   4.048
10427SOL    HW232181   5.458   1.163   4.175
10428SOL     OW32182   1.940   6.743   5.244
10428SOL    HW132183   1.929   6.808   5.169
10428SOL    HW232184   2.037   6.732   5.265
10429SOL     OW32185   1.384   3.250   1.319
10429SOL    HW132186   1.458   3.307   1.355
10429SOL    HW232187   1.331   3.303   1.253
10430SOL     OW32188   3.419   0.445   4.363
10430SOL    HW132189   3.400   0.523   4.303
10430SOL    HW232190   3.335   0.417   4.409
10431SOL     OW32191   4.230   1.069   3.865
10431SOL    HW132192   4.153   1.007   3.881
10431SOL    HW232193   4.199   1.164   3.876
10432SOL     OW32194   1.354   5.451   6.969
10432SOL    HW132195   1.326   5.491   0.035
10432SOL    HW232196   1.293   5.376   6.945
10433SOL     OW32197   4.122   6.266   3.925
10433SOL    HW132198   4.063   6.261   4.005
10433SOL    HW232199   4.085   6.333   3.860
10434SOL     OW32200   4.609   0.720   6.157
10434SOL    HW132201   4.661   0.641   6.188
10434SOL    HW232202   4.547   0.750   6.229
10435SOL     OW32203   2.481   1.306   1.099
10435SOL    HW132204   2.525   1.386   1.141
10435SOL    HW232205   2.474   1.233   1.167
10436SOL     OW32206   0.624   3.352   4.937
10436SOL    HW132207   0.702   3.413   4.950
10436SOL    HW232208   0.541   3.397   4.967
10437SOL     OW32209   6.374   6.489   5.426
10437SOL    HW132210   6.343   6.394   5.423
10437SOL    HW232211   6.346   6.536   5.342
10438SOL     OW32212   6.615   6.084   0.109
10438SOL    HW132213   6.671   6.123   0.037
10438SOL    HW232214   6.525   6.127   0.108
10439SOL     OW32215   6.434   5.373   5.244
10439SOL    HW132216   6.516   5.428   5.228
10439SOL    HW232217   6.399   5.340   5.156
10440SOL     OW32218   6.094   2.496   0.775
10440SOL    HW132219   6.036   2.427   0.732
10440SOL    HW232220   6.158   2.452   0.838
10441SOL     OW32221   4.453   2.139   6.541
10441SOL    HW132222   4.485   2.119   6.633
10441SOL    HW232223   4.367   2.092   6.524
10442SOL     OW32224   2.121   1.215   4.778
10442SOL    HW132225   2.204   1.248   4.822
10442SOL    HW232226   2.043   1.267   4.811
10443SOL     OW32227   1.141   0.632   0.920
10443SOL    HW132228   1.178   0.718   0.953
10443SOL    HW232229   1.190   0.556   0.963
10444SOL     OW32230   3.988   4.892   4.233
10444SOL    HW132231   4.080   4.880   4.196
10444SOL    HW232232   3.982   4.851   4.324
10445SOL     OW32233   1.363   2.892   3.820
10445SOL    HW132234   1.328   2.932   3.735
10445SOL    HW232235   1.297   2.906   3.893
10446SOL     OW32236   2.255   4.933   5.257
10446SOL    HW132237   2.260   4.877   5.340
10446SOL    HW232238   2.348   4.962   5.231
10447SOL     OW32239   0.888   1.644   2.799
10447SOL    HW132240   0.833   1.574   2.844
10447SOL    HW232241   0.846   1.734   2.814
10448SOL     OW32242   2.295   6.114   2.223
10448SOL    HW132243   2.199   6.089   2.207
10448SOL    HW232244   2.336   6.049   2.286
10449SOL     OW32245   4.204   5.415   4.514
10449SOL    HW132246   4.176   5.328   4.473
10449SOL    HW232247   4.290   5.446   4.473
10450SOL     OW32248   0.101   0.948   4.400
10450SOL    HW132249   0.072   1.028   4.348
10450SOL    HW232250   0.196   0.959   4.428
10451SOL     OW32251   3.242   1.876   4.186
10451SOL    HW132252   3.338   1.872   4.212
10451SOL    HW232253   3.233   1.882   4.087
10452SOL     OW32254   6.409   3.009   4.549
10452SOL    HW132255   6.479   3.062   4.596
10452SOL    HW232256   6.334   2.989   4.612
10453SOL     OW32257   4.140   5.949   4.111
10453SOL    HW132258   4.140   5.883   4.186
10453SOL    HW232259   4.111   6.038   4.146
10454SOL     OW32260   6.674   1.197   0.084
10454SOL    HW132261   6.584   1.157   0.102
10454SOL    HW232262   6.726   1.201   0.169
10455SOL     OW32263   0.584   6.208   3.467
10455SOL    HW132264   0.602   6.114   3.498
10455SOL    HW232265   0.592   6.213   3.368
10456SOL     OW32266   0.725   5.711   6.629
10456SOL    HW132267   0.732   5.668   6.539
10456SOL    HW232268   0.795   5.782   6.638
10457SOL     OW32269   4.163   1.724   6.308
10457SOL    HW132270   4.228   1.779   6.359
10457SOL    HW232271   4.073   1.768   6.308
10458SOL     OW32272   1.251   6.184   6.988
10458SOL    HW132273   1.162   6.211   6.950
10458SOL    HW232274   1.319   6.254   6.967
10459SOL     OW32275   5.799   5.454   1.690
10459SOL    HW132276   5.826   5.549   1.671
10459SOL    HW232277   5.755   5.450   1.779
10460SOL     OW32278   6.483   0.567   0.684
10460SOL    HW132279   6.479   0.555   0.784
10460SOL    HW232280   6.472   0.478   0.640
10461SOL     OW32281   6.804   4.674   6.662
10461SOL    HW132282   6.738   4.641   6.729
10461SOL    HW232283   6.896   4.651   6.691
10462SOL     OW32284   3.481   3.674   6.334
10462SOL    HW132285   3.555   3.675   6.268
10462SOL    HW232286   3.408   3.735   6.303
10463SOL     OW32287   5.031   2.550   6.619
10463SOL    HW132288   5.113   2.494   6.605
10463SOL    HW232289   5.057   2.638   6.660
10464SOL     OW32290   6.480   4.663   2.376
10464SOL    HW132291   6.562   4.640   2.429
10464SOL    HW232292   6.503   4.733   2.309
10465SOL     OW32293   5.540   4.723   1.235
10465SOL    HW132294   5.636   4.696   1.240
10465SOL    HW232295   5.527   4.807   1.289
10466SOL     OW32296   6.080   4.197   6.196
10466SOL    HW132297   6.106   4.125   6.131
10466SOL    HW232298   6.086   4.286   6.152
10467SOL     OW32299   0.287   2.748   6.811
10467SOL    HW132300   0.319   2.722   6.903
10467SOL    HW232301   0.211   2.813   6.820
10468SOL     OW32302   1.510   4.582   4.256
10468SOL    HW132303   1.418   4.613   4.279
10468SOL    HW232304   1.517   4.483   4.269
10469SOL     OW32305   1.424   1.679   4.155
10469SOL    HW132306   1.348   1.682   4.220
10469SOL    HW232307   1.420   1.594   4.103
10470SOL     OW32308   1.949   3.603   2.834
10470SOL    HW132309   2.030   3.547   2.816
10470SOL    HW232310   1.867   3.546   2.832
10471SOL     OW32311   2.340   5.908   6.641
10471SOL    HW132312   2.434   5.940   6.626
10471SOL    HW232313   2.280   5.945   6.570
10472SOL     OW32314   3.820   4.843   6.751
10472SOL    HW132315   3.889   4.849   6.678
10472SOL    HW232316   3.738   4.894   6.724
10473SOL     OW32317   6.081   4.664   0.801
10473SOL    HW132318   6.029   4.742   0.836
10473SOL    HW232319   6.111   4.607   0.878
10474SOL     OW32320   6.097   0.210   4.914
10474SOL    HW132321   6.101   0.306   4.886
10474SOL    HW232322   6.127   0.152   4.838
10475SOL     OW32323   0.931   5.293   1.312
10475SOL    HW132324   0.857   5.302   1.379
10475SOL    HW232325   0.986   5.376   1.311
10476SOL     OW32326   5.129   6.881   1.728
10476SOL    HW132327   5.046   6.881   1.785
10476SOL    HW232328   5.158   6.787   1.711
10477SOL     OW32329   6.964   5.815   3.405
10477SOL    HW132330   0.018   5.750   3.411
10477SOL    HW232331   6.878   5.766   3.390
10478SOL     OW32332   6.545   0.947   6.590
10478SOL    HW132333   6.591   0.903   6.513
10478SOL    HW232334   6.563   1.046   6.587
10479SOL     OW32335   0.846   2.837   1.972
10479SOL    HW132336   0.872   2.853   2.067
10479SOL    HW232337   0.773   2.900   1.945
10480SOL     OW32338   2.711   0.915   3.561
10480SOL    HW132339   2.629   0.879   3.516
10480SOL    HW232340   2.685   0.995   3.616
10481SOL     OW32341   7.013   1.076   1.165
10481SOL    HW132342   6.958   0.997   1.140
10481SOL    HW232343   0.040   1.110   1.085
10482SOL     OW32344   5.366   2.625   3.667
10482SOL    HW132345   5.323   2.650   3.753
10482SOL    HW232346   5.464   2.609   3.682
10483SOL     OW32347   6.405   6.267   0.182
10483SOL    HW132348   6.463   6.339   0.219
10483SOL    HW232349   6.396   6.194   0.249
10484SOL     OW32350   6.515   0.920   2.213
10484SOL    HW132351   6.588   0.921   2.145
10484SOL    HW232352   6.504   1.013   2.250
10485SOL     OW32353   5.022   3.348   5.607
10485SOL    HW132354   5.035   3.271   5.670
10485SOL    HW232355   4.987   3.314   5.520
10486SOL     OW32356   5.394   2.863   2.256
10486SOL    HW132357   5.317   2.922   2.283
10486SOL    HW232358   5.385   2.839   2.159
10487SOL     OW32359   5.500   6.782   1.889
10487SOL    HW132360   5.566   6.727   1.940
10487SOL    HW232361   5.535   6.875   1.879
10488SOL     OW32362   3.006   3.534   0.116
10488SOL    HW132363   2.980   3.571   0.205
10488SOL    HW232364   3.091   3.481   0.126
10489SOL     OW32365   1.228   5.996   5.068
10489SOL    HW132366   1.173   5.914   5.085
10489SOL    HW232367   1.167   6.074   5.051
10490SOL     OW32368   6.482   0.419   4.445
10490SOL    HW132369   6.500   0.333   4.493
10490SOL    HW232370   6.535   0.422   4.360
10491SOL     OW32371   0.759   5.061   5.528
10491SOL    HW132372   0.819   5.139   5.508
10491SOL    HW232373   0.784   5.021   5.615
10492SOL     OW32374   4.063   4.393   5.679
10492SOL    HW132375   4.048   4.346   5.592
10492SOL    HW232376   3.993   4.366   5.744
10493SOL     OW32377   3.123   0.967   0.645
10493SOL    HW132378   3.034   0.949   0.603
10493SOL    HW232379   3.125   0.929   0.737
10494SOL     OW32380   5.456   2.357   4.746
10494SOL    HW132381   5.553   2.353   4.722
10494SOL    HW232382   5.446   2.376   4.844
10495SOL     OW32383   1.594   6.365   0.480
10495SOL    HW132384   1.677   6.351   0.534
10495SOL    HW232385   1.540   6.439   0.521
10496SOL     OW32386   6.680   0.628   5.121
10496SOL    HW132387   6.704   0.531   5.122
10496SOL    HW232388   6.678   0.663   5.215
10497SOL     OW32389   0.612   1.769   0.146
10497SOL    HW132390   0.565   1.825   0.214
10497SOL    HW232391   0.681   1.825   0.100
10498SOL     OW32392   2.815   4.969   5.836
10498SOL    HW132393   2.784   4.883   5.877
10498SOL    HW232394   2.753   5.043   5.862
10499SOL     OW32395   3.147   5.283   2.996
10499SOL    HW132396   3.238   5.309   3.028
10499SOL    HW232397   3.154   5.200   2.941
10500SOL     OW32398   1.570   2.257   6.752
10500SOL    HW132399   1.654   2.311   6.755
10500SOL    HW232400   1.496   2.307   6.798
10501SOL     OW32401   1.158   2.342   3.052
10501SOL    HW132402   1.147   2.275   2.978
10501SOL    HW232403   1.121   2.304   3.137
10502SOL     OW32404   3.191   5.865   5.396
10502SOL    HW132405   3.284   5.852   5.429
10502SOL    HW232406   3.176   5.807   5.316
10503SOL     OW32407   2.851   3.736   5.520
10503SOL    HW132408   2.834   3.638   5.510
10503SOL    HW232409   2.799   3.770   5.599
10504SOL     OW32410   2.537   3.270   1.056
10504SOL    HW132411   2.522   3.367   1.076
10504SOL    HW232412   2.613   3.262   0.991
10505SOL     OW32413   0.325   0.017   1.278
10505SOL    HW132414   0.294   0.064   1.360
10505SOL    HW232415   0.388   0.076   1.227
10506SOL     OW32416   7.019   4.400   5.273
10506SOL    HW132417   6.970   4.314   5.292
10506SOL    HW232418   0.011   4.409   5.174
10507SOL     OW32419   1.224   0.192   4.680
10507SOL    HW132420   1.259   0.249   4.754
10507SOL    HW232421   1.135   0.155   4.707
10508SOL     OW32422   5.156   3.906   2.327
10508SOL    HW132423   5.244   3.892   2.373
10508SOL    HW232424   5.149   3.843   2.250
10509SOL     OW32425   1.693   0.490   5.058
10509SOL    HW132426   1.691   0.396   5.023
10509SOL    HW232427   1.744   0.493   5.143
10510SOL     OW32428   6.103   6.164   0.303
10510SOL    HW132429   6.192   6.119   0.297
10510SOL    HW232430   6.032   6.102   0.271
10511SOL     OW32431   6.528   1.991   0.650
10511SOL    HW132432   6.457   2.014   0.717
10511SOL    HW232433   6.517   2.048   0.569
10512SOL     OW32434   3.348   5.806   6.546
10512SOL    HW132435   3.309   5.850   6.627
10512SOL    HW232436   3.448   5.812   6.550
10513SOL     OW32437   6.674   2.297   0.202
10513SOL    HW132438   6.732   2.378   0.202
10513SOL    HW232439   6.727   2.219   0.237
10514SOL     OW32440   6.467   3.817   1.413
10514SOL    HW132441   6.555   3.800   1.370
10514SOL    HW232442   6.394   3.792   1.350
10515SOL     OW32443   6.309   2.262   4.567
10515SOL    HW132444   6.337   2.188   4.628
10515SOL    HW232445   6.209   2.270   4.567
10516SOL     OW32446   3.672   0.092   0.212
10516SOL    HW132447   3.636   0.003   0.240
10516SOL    HW232448   3.753   0.080   0.155
10517SOL     OW32449   6.980   2.572   2.986
10517SOL    HW132450   6.983   2.549   2.889
10517SOL    HW232451   0.033   2.635   3.008
10518SOL     OW32452   0.625   6.531   2.442
10518SOL    HW132453   0.627   6.447   2.495
10518SOL    HW232454   0.715   6.547   2.401
10519SOL     OW32455   3.329   3.632   5.243
10519SOL    HW132456   3.289   3.716   5.280
10519SOL    HW232457   3.334   3.639   5.143
10520SOL     OW32458   3.886   4.223   6.354
10520SOL    HW132459   3.797   4.251   6.392
10520SOL    HW232460   3.900   4.268   6.266
10521SOL     OW32461   6.510   4.917   2.236
10521SOL    HW132462   6.461   4.998   2.204
10521SOL    HW232463   6.596   4.945   2.278
10522SOL     OW32464   6.585   0.002   1.621
10522SOL    HW132465   6.635   6.937   1.609
10522SOL    HW232466   6.628   0.056   1.694
10523SOL     OW32467   6.681   5.863   6.787
10523SOL    HW132468   6.772   5.883   6.824
10523SOL    HW232469   6.621   5.942   6.803
10524SOL     OW32470   4.212   0.859   4.456
10524SOL    HW132471   4.226   0.777   4.512
10524SOL    HW232472   4.267   0.934   4.493
10525SOL     OW32473   2.859   6.231   4.604
10525SOL    HW132474   2.875   6.329   4.595
10525SOL    HW232475   2.913   6.194   4.679
10526SOL     OW32476   5.905   6.802   2.021
10526SOL    HW132477   5.921   6.899   2.038
10526SOL    HW232478   5.812   6.777   2.049
10527SOL     OW32479   1.709   2.842   4.407
10527SOL    HW132480   1.671   2.758   4.445
10527SOL    HW232481   1.808   2.836   4.402
10528SOL     OW32482   6.562   4.813   5.459
10528SOL    HW132483   6.625   4.796   5.534
10528SOL    HW232484   6.587   4.756   5.381
10529SOL     OW32485   6.172   6.159   3.994
10529SOL    HW132486   6.144   6.206   3.911
10529SOL    HW232487   6.223   6.076   3.970
10530SOL     OW32488   1.813   1.523   5.273
10530SOL    HW132489   1.891   1.585   5.287
10530SOL    HW232490   1.773   1.501   5.362
10531SOL     OW32491   2.233   2.342   5.778
10531SOL    HW132492   2.313   2.287   5.799
10531SOL    HW232493   2.159   2.319   5.841
10532SOL     OW32494   3.511   3.253   5.177
10532SOL    HW132495   3.541   3.160   5.197
10532SOL    HW232496   3.490   3.261   5.079
10533SOL     OW32497   2.584   0.743   6.027
10533SOL    HW132498   2.531   0.666   6.063
10533SOL    HW232499   2.664   0.759   6.085
10534SOL     OW32500   5.767   5.962   1.397
10534SOL    HW132501   5.732   6.039   1.449
10534SOL    HW232502   5.854   5.985   1.354
10535SOL     OW32503   0.717   1.813   2.457
10535SOL    HW132504   0.715   1.716   2.479
10535SOL    HW232505   0.719   1.867   2.542
10536SOL     OW32506   4.780   6.520   4.050
10536SOL    HW132507   4.771   6.596   4.114
10536SOL    HW232508   4.751   6.550   3.959
10537SOL     OW32509   0.337   5.198   1.127
10537SOL    HW132510   0.355   5.269   1.194
10537SOL    HW232511   0.411   5.130   1.129
10538SOL     OW32512   4.671   3.883   6.927
10538SOL    HW132513   4.665   3.836   7.016
10538SOL    HW232514   4.648   3.818   6.854
10539SOL     OW32515   0.661   3.555   5.511
10539SOL    HW132516   0.707   3.566   5.599
10539SOL    HW232517   0.643   3.645   5.471
10540SOL     OW32518   3.089   0.965   6.897
10540SOL    HW132519   3.064   0.903   6.823
10540SOL    HW232520   3.087   0.916   6.984
10541SOL     OW32521   4.532   2.442   0.715
10541SOL    HW132522   4.551   2.477   0.807
10541SOL    HW232523   4.436   2.414   0.710
10542SOL     OW32524   1.515   2.709   7.007
10542SOL    HW132525   1.595   2.691   0.042
10542SOL    HW232526   1.441   2.743   0.043
10543SOL     OW32527   2.486   0.481   5.596
10543SOL    HW132528   2.558   0.536   5.637
10543SOL    HW232529   2.437   0.432   5.668
10544SOL     OW32530   0.330   2.353   2.152
10544SOL    HW132531   0.386   2.436   2.149
10544SOL    HW232532   0.271   2.355   2.233
10545SOL     OW32533   5.538   0.943   3.312
10545SOL    HW132534   5.557   0.925   3.409
10545SOL    HW232535   5.441   0.925   3.293
10546SOL     OW32536   3.722   0.685   4.912
10546SOL    HW132537   3.672   0.633   4.982
10546SOL    HW232538   3.795   0.628   4.874
10547SOL     OW32539   4.325   0.930   0.942
10547SOL    HW132540   4.339   0.895   1.035
10547SOL    HW232541   4.270   0.865   0.890
10548SOL     OW32542   4.688   4.336   5.230
10548SOL    HW132543   4.665   4.401   5.158
10548SOL    HW232544   4.765   4.371   5.282
10549SOL     OW32545   1.488   1.034   1.674
10549SOL    HW132546   1.476   0.981   1.757
10549SOL    HW232547   1.582   1.025   1.641
10550SOL     OW32548   5.318   6.986   5.389
10550SOL    HW132549   5.231   6.995   5.342
10550SOL    HW232550   5.385   0.026   5.347
10551SOL     OW32551   1.785   2.820   5.987
10551SOL    HW132552   1.852   2.755   5.951
10551SOL    HW232553   1.823   2.912   5.986
10552SOL     OW32554   2.982   2.040   5.074
10552SOL    HW132555   3.006   1.967   5.010
10552SOL    HW232556   3.042   2.119   5.059
10553SOL     OW32557   2.934   4.620   6.169
10553SOL    HW132558   2.857   4.568   6.133
10553SOL    HW232559   2.948   4.701   6.113
10554SOL     OW32560   6.528   4.434   5.284
10554SOL    HW132561   6.436   4.437   5.245
10554SOL    HW232562   6.574   4.522   5.270
10555SOL     OW32563   3.427   2.319   1.424
10555SOL    HW132564   3.481   2.282   1.499
10555SOL    HW232565   3.474   2.398   1.385
10556SOL     OW32566   2.042   3.353   4.341
10556SOL    HW132567   2.111   3.291   4.378
10556SOL    HW232568   1.971   3.369   4.410
10557SOL     OW32569   6.146   1.719   3.794
10557SOL    HW132570   6.199   1.642   3.758
10557SOL    HW232571   6.160   1.726   3.893
10558SOL     OW32572   5.217   5.923   4.985
10558SOL    HW132573   5.193   5.925   4.888
10558SOL    HW232574   5.281   5.847   5.002
10559SOL     OW32575   4.780   2.355   1.068
10559SOL    HW132576   4.709   2.415   1.032
10559SOL    HW232577   4.744   2.300   1.144
10560SOL     OW32578   0.027   3.064   4.106
10560SOL    HW132579   0.032   3.164   4.107
10560SOL    HW232580   0.021   3.030   4.199
10561SOL     OW32581   2.629   4.727   5.912
10561SOL    HW132582   2.588   4.647   5.956
10561SOL    HW232583   2.717   4.701   5.872
10562SOL     OW32584   3.346   1.367   0.615
10562SOL    HW132585   3.253   1.358   0.579
10562SOL    HW232586   3.375   1.279   0.652
10563SOL     OW32587   2.081   1.516   4.048
10563SOL    HW132588   2.158   1.452   4.048
10563SOL    HW232589   2.055   1.536   4.142
10564SOL     OW32590   0.122   2.317   1.630
10564SOL    HW132591   0.153   2.376   1.556
10564SOL    HW232592   0.169   2.343   1.715
10565SOL     OW32593   5.304   1.596   5.104
10565SOL    HW132594   5.266   1.689   5.103
10565SOL    HW232595   5.403   1.600   5.101
10566SOL     OW32596   4.195   4.743   6.637
10566SOL    HW132597   4.105   4.714   6.604
10566SOL    HW232598   4.240   4.798   6.566
10567SOL     OW32599   2.064   5.124   3.841
10567SOL    HW132600   2.009   5.050   3.803
10567SOL    HW232601   2.082   5.193   3.771
10568SOL     OW32602   4.098   1.785   3.346
10568SOL    HW132603   4.041   1.799   3.427
10568SOL    HW232604   4.042   1.746   3.273
10569SOL     OW32605   5.864   3.169   3.302
10569SOL    HW132606   5.841   3.072   3.305
10569SOL    HW232607   5.839   3.212   3.389
10570SOL     OW32608   0.941   4.268   1.799
10570SOL    HW132609   0.936   4.319   1.885
10570SOL    HW232610   0.938   4.333   1.722
10571SOL     OW32611   5.964   6.864   4.857
10571SOL    HW132612   6.044   6.903   4.811
10571SOL    HW232613   5.941   6.776   4.815
10572SOL     OW32614   6.533   2.905   1.616
10572SOL    HW132615   6.468   2.975   1.648
10572SOL    HW232616   6.543   2.834   1.686
10573SOL     OW32617   6.357   4.420   6.146
10573SOL    HW132618   6.349   4.341   6.207
10573SOL    HW232619   6.288   4.415   6.074
10574SOL     OW32620   1.023   2.218   3.298
10574SOL    HW132621   0.966   2.268   3.363
10574SOL    HW232622   1.118   2.219   3.329
10575SOL     OW32623   0.593   6.675   6.048
10575SOL    HW132624   0.512   6.618   6.065
10575SOL    HW232625   0.600   6.694   5.951
10576SOL     OW32626   1.489   4.765   3.381
10576SOL    HW132627   1.478   4.847   3.325
10576SOL    HW232628   1.471   4.684   3.325
10577SOL     OW32629   0.737   3.185   5.557
10577SOL    HW132630   0.762   3.237   5.639
10577SOL    HW232631   0.777   3.093   5.562
10578SOL     OW32632   5.659   0.662   5.645
10578SOL    HW132633   5.698   0.734   5.702
10578SOL    HW232634   5.601   0.602   5.701
10579SOL     OW32635   4.775   0.563   0.418
10579SOL    HW132636   4.713   0.574   0.496
10579SOL    HW232637   4.867   0.546   0.451
10580SOL     OW32638   6.110   5.836   0.599
10580SOL    HW132639   6.051   5.769   0.644
10580SOL    HW232640   6.123   5.809   0.503
10581SOL     OW32641   4.407   1.700   3.594
10581SOL    HW132642   4.321   1.738   3.627
10581SOL    HW232643   4.395   1.666   3.501
10582SOL     OW32644   3.210   4.664   0.042
10582SOL    HW132645   3.180   4.575   0.076
10582SOL    HW232646   3.145   4.734   0.071
10583SOL     OW32647   4.716   1.463   0.638
10583SOL    HW132648   4.639   1.400   0.648
10583SOL    HW232649   4.716   1.527   0.715
10584SOL     OW32650   6.556   0.327   1.433
10584SOL    HW132651   6.498   0.253   1.468
10584SOL    HW232652   6.601   0.298   1.348
10585SOL     OW32653   2.111   4.557   6.178
10585SOL    HW132654   2.186   4.593   6.233
10585SOL    HW232655   2.024   4.581   6.221
10586SOL     OW32656   4.249   1.335   0.405
10586SOL    HW132657   4.254   1.399   0.328
10586SOL    HW232658   4.315   1.261   0.392
10587SOL     OW32659   6.123   3.470   0.590
10587SOL    HW132660   6.073   3.514   0.516
10587SOL    HW232661   6.150   3.378   0.562
10588SOL     OW32662   0.838   5.297   3.449
10588SOL    HW132663   0.769   5.236   3.410
10588SOL    HW232664   0.925   5.284   3.400
10589SOL     OW32665   6.196   1.484   4.239
10589SOL    HW132666   6.276   1.537   4.209
10589SOL    HW232667   6.156   1.437   4.160
10590SOL     OW32668   1.945   1.037   4.410
10590SOL    HW132669   1.927   1.040   4.509
10590SOL    HW232670   1.878   0.977   4.366
10591SOL     OW32671   1.261   2.375   0.684
10591SOL    HW132672   1.274   2.325   0.598
10591SOL    HW232673   1.320   2.455   0.686
10592SOL     OW32674   6.440   1.661   6.834
10592SOL    HW132675   6.360   1.710   6.870
10592SOL    HW232676   6.509   1.653   6.906
10593SOL     OW32677   2.007   4.522   1.502
10593SOL    HW132678   1.998   4.579   1.420
10593SOL    HW232679   2.100   4.485   1.507
10594SOL     OW32680   1.056   2.237   4.446
10594SOL    HW132681   0.987   2.172   4.414
10594SOL    HW232682   1.061   2.232   4.546
10595SOL     OW32683   2.065   6.356   5.728
10595SOL    HW132684   2.046   6.356   5.826
10595SOL    HW232685   2.162   6.379   5.714
10596SOL     OW32686   3.619   0.598   1.998
10596SOL    HW132687   3.625   0.590   2.097
10596SOL    HW232688   3.687   0.665   1.966
10597SOL     OW32689   1.796   0.538   3.654
10597SOL    HW132690   1.723   0.585   3.605
10597SOL    HW232691   1.846   0.479   3.591
10598SOL     OW32692   1.971   1.773   0.053
10598SOL    HW132693   2.057   1.807   0.014
10598SOL    HW232694   1.957   1.814   0.143
10599SOL     OW32695   5.020   0.839   6.812
10599SOL    HW132696   4.944   0.803   6.759
10599SOL    HW232697   5.099   0.778   6.803
10600SOL     OW32698   1.737   2.623   5.718
10600SOL    HW132699   1.738   2.576   5.630
10600SOL    HW232700   1.830   2.636   5.751
10601SOL     OW32701   3.555   6.199   6.104
10601SOL    HW132702   3.542   6.269   6.033
10601SOL    HW232703   3.636   6.222   6.158
10602SOL     OW32704   4.137   1.022   1.795
10602SOL    HW132705   4.191   1.007   1.712
10602SOL    HW232706   4.156   1.113   1.832
10603SOL     OW32707   0.644   5.077   4.149
10603SOL    HW132708   0.657   5.167   4.191
10603SOL    HW232709   0.721   5.057   4.088
10604SOL     OW32710   6.660   4.211   5.173
10604SOL    HW132711   6.603   4.284   5.213
10604SOL    HW232712   6.625   4.187   5.082
10605SOL     OW32713   2.215   5.142   6.262
10605SOL    HW132714   2.138   5.204   6.278
10605SOL    HW232715   2.186   5.068   6.201
10606SOL     OW32716   0.491   0.973   3.085
10606SOL    HW132717   0.528   0.970   3.178
10606SOL    HW232718   0.494   0.882   3.045
10607SOL     OW32719   5.771   4.984   0.008
10607SOL    HW132720   5.715   5.066   0.024
10607SOL    HW232721   5.754   4.950   6.937
10608SOL     OW32722   5.872   0.729   2.712
10608SOL    HW132723   5.956   0.677   2.708
10608SOL    HW232724   5.809   0.686   2.777
10609SOL     OW32725   4.049   6.878   1.901
10609SOL    HW132726   4.107   6.878   1.819
10609SOL    HW232727   4.075   6.955   1.959
10610SOL     OW32728   1.906   3.608   4.895
10610SOL    HW132729   1.820   3.636   4.852
10610SOL    HW232730   1.911   3.508   4.896
10611SOL     OW32731   5.038   2.216   6.052
10611SOL    HW132732   5.057   2.149   6.124
10611SOL    HW232733   5.105   2.204   5.978
10612SOL     OW32734   1.081   6.694   0.846
10612SOL    HW132735   1.044   6.622   0.905
10612SOL    HW232736   1.121   6.653   0.764
10613SOL     OW32737   0.423   6.563   6.684
10613SOL    HW132738   0.363   6.526   6.613
10613SOL    HW232739   0.510   6.589   6.643
10614SOL     OW32740   6.887   0.716   4.071
10614SOL    HW132741   6.840   0.731   4.158
10614SOL    HW232742   6.985   0.732   4.084
10615SOL     OW32743   0.012   5.780   5.341
10615SOL    HW132744   6.993   5.690   5.326
10615SOL    HW232745   6.963   5.842   5.377
10616SOL     OW32746   3.152   6.475   0.381
10616SOL    HW132747   3.164   6.377   0.397
10616SOL    HW232748   3.189   6.527   0.458
10617SOL     OW32749   0.440   2.341   6.555
10617SOL    HW132750   0.435   2.244   6.533
10617SOL    HW232751   0.419   2.396   6.474
10618SOL     OW32752   5.872   4.047   1.468
10618SOL    HW132753   5.923   4.043   1.554
10618SOL    HW232754   5.937   4.056   1.392
10619SOL     OW32755   0.358   4.103   3.603
10619SOL    HW132756   0.325   4.055   3.521
10619SOL    HW232757   0.418   4.042   3.655
10620SOL     OW32758   1.253   5.864   4.442
10620SOL    HW132759   1.202   5.847   4.526
10620SOL    HW232760   1.316   5.941   4.457
10621SOL     OW32761   2.622   6.743   0.753
10621SOL    HW132762   2.721   6.752   0.749
10621SOL    HW232763   2.592   6.742   0.848
10622SOL     OW32764   4.542   1.923   1.655
10622SOL    HW132765   4.532   2.011   1.610
10622SOL    HW232766   4.622   1.924   1.715
10623SOL     OW32767   6.752   0.890   3.903
10623SOL    HW132768   6.719   0.967   3.957
10623SOL    HW232769   6.804   0.828   3.963
10624SOL     OW32770   2.594   1.499   4.641
10624SOL    HW132771   2.542   1.419   4.611
10624SOL    HW232772   2.620   1.488   4.737
10625SOL     OW32773   0.109   3.338   0.024
10625SOL    HW132774   0.020   3.315   0.064
10625SOL    HW232775   0.163   3.254   0.015
10626SOL     OW32776   6.517   1.769   1.507
10626SOL    HW132777   6.555   1.857   1.479
10626SOL    HW232778   6.466   1.729   1.431
10627SOL     OW32779   6.464   5.320   4.518
10627SOL    HW132780   6.508   5.305   4.429
10627SOL    HW232781   6.490   5.247   4.581
10628SOL     OW32782   6.915   6.340   6.229
10628SOL    HW132783   6.974   6.420   6.225
10628SOL    HW232784   6.894   6.309   6.137
10629SOL     OW32785   2.819   5.506   6.068
10629SOL    HW132786   2.892   5.473   6.008
10629SOL    HW232787   2.787   5.595   6.037
10630SOL     OW32788   6.713   1.099   3.135
10630SOL    HW132789   6.806   1.099   3.174
10630SOL    HW232790   6.707   1.030   3.064
10631SOL     OW32791   1.051   0.379   5.112
10631SOL    HW132792   1.137   0.336   5.138
10631SOL    HW232793   0.986   0.309   5.082
10632SOL     OW32794   0.245   3.141   5.008
10632SOL    HW132795   0.240   3.165   4.911
10632SOL    HW232796   0.339   3.149   5.039
10633SOL     OW32797   0.870   4.931   0.383
10633SOL    HW132798   0.955   4.950   0.432
10633SOL    HW232799   0.892   4.912   0.287
10634SOL     OW32800   4.111   6.746   1.438
10634SOL    HW132801   4.030   6.705   1.478
10634SOL    HW232802   4.158   6.678   1.382
10635SOL     OW32803   1.603   0.847   1.115
10635SOL    HW132804   1.700   0.857   1.136
10635SOL    HW232805   1.554   0.817   1.197
10636SOL     OW32806   6.523   1.184   0.779
10636SOL    HW132807   6.605   1.144   0.820
10636SOL    HW232808   6.523   1.283   0.793
10637SOL     OW32809   3.909   4.642   5.713
10637SOL    HW132810   3.941   4.552   5.683
10637SOL    HW232811   3.986   4.706   5.714
10638SOL     OW32812   6.714   0.426   5.452
10638SOL    HW132813   6.649   0.382   5.514
10638SOL    HW232814   6.709   0.382   5.362
10639SOL     OW32815   3.187   1.696   5.239
10639SOL    HW132816   3.172   1.768   5.308
10639SOL    HW232817   3.285   1.685   5.224
10640SOL     OW32818   4.013   6.374   1.139
10640SOL    HW132819   3.943   6.412   1.079
10640SOL    HW232820   3.970   6.342   1.224
10641SOL     OW32821   4.433   0.857   6.321
10641SOL    HW132822   4.417   0.936   6.381
10641SOL    HW232823   4.346   0.822   6.288
10642SOL     OW32824   6.960   4.128   0.539
10642SOL    HW132825   6.957   4.135   0.439
10642SOL    HW232826   6.905   4.050   0.568
10643SOL     OW32827   4.054   3.176   5.364
10643SOL    HW132828   4.054   3.213   5.457
10643SOL    HW232829   4.142   3.131   5.347
10644SOL     OW32830   3.426   1.546   4.998
10644SOL    HW132831   3.415   1.475   5.068
10644SOL    HW232832   3.498   1.518   4.934
10645SOL     OW32833   2.262   6.970   5.114
10645SOL    HW132834   2.166   6.950   5.093
10645SOL    HW232835   2.266   0.019   5.185
10646SOL     OW32836   0.928   4.193   6.548
10646SOL    HW132837   0.912   4.098   6.520
10646SOL    HW232838   1.014   4.198   6.600
10647SOL     OW32839   0.379   5.117   0.581
10647SOL    HW132840   0.394   5.148   0.675
10647SOL    HW232841   0.451   5.053   0.555
10648SOL     OW32842   4.688   4.723   6.278
10648SOL    HW132843   4.787   4.715   6.290
10648SOL    HW232844   4.653   4.798   6.334
10649SOL     OW32845   0.558   4.374   6.053
10649SOL    HW132846   0.496   4.427   6.111
10649SOL    HW232847   0.651   4.379   6.092
10650SOL     OW32848   3.003   1.037   4.046
10650SOL    HW132849   2.923   1.002   3.998
10650SOL    HW232850   2.975   1.109   4.109
10651SOL     OW32851   2.843   6.984   5.399
10651SOL    HW132852   2.804   6.895   5.423
10651SOL    HW232853   2.943   6.979   5.403
10652SOL     OW32854   3.653   0.711   0.217
10652SOL    HW132855   3.736   0.657   0.202
10652SOL    HW232856   3.647   0.783   0.148
10653SOL     OW32857   5.706   2.630   3.990
10653SOL    HW132858   5.644   2.602   4.063
10653SOL    HW232859   5.783   2.681   4.029
10654SOL     OW32860   4.370   0.985   1.234
10654SOL    HW132861   4.415   1.007   1.320
10654SOL    HW232862   4.344   1.069   1.187
10655SOL     OW32863   3.244   5.936   1.510
10655SOL    HW132864   3.183   5.992   1.565
10655SOL    HW232865   3.312   5.994   1.465
10656SOL     OW32866   6.313   2.732   6.047
10656SOL    HW132867   6.341   2.741   5.951
10656SOL    HW232868   6.237   2.794   6.065
10657SOL     OW32869   6.351   0.132   1.551
10657SOL    HW132870   6.429   0.072   1.564
10657SOL    HW232871   6.316   0.160   1.641
10658SOL     OW32872   0.396   6.639   4.842
10658SOL    HW132873   0.358   6.602   4.926
10658SOL    HW232874   0.395   6.739   4.846
10659SOL     OW32875   5.139   0.721   0.862
10659SOL    HW132876   5.173   0.759   0.948
10659SOL    HW232877   5.045   0.753   0.846
10660SOL     OW32878   5.227   4.938   5.486
10660SOL    HW132879   5.220   5.004   5.561
10660SOL    HW232880   5.308   4.881   5.499
10661SOL     OW32881   0.906   0.241   2.316
10661SOL    HW132882   0.835   0.275   2.253
10661SOL    HW232883   0.921   0.144   2.299
10662SOL     OW32884   5.686   1.419   0.761
10662SOL    HW132885   5.770   1.435   0.812
10662SOL    HW232886   5.614   1.479   0.795
10663SOL     OW32887   0.725   1.177   0.353
10663SOL    HW132888   0.818   1.178   0.315
10663SOL    HW232889   0.676   1.098   0.317
10664SOL     OW32890   2.292   4.974   6.533
10664SOL    HW132891   2.255   5.022   6.453
10664SOL    HW232892   2.383   5.010   6.555
10665SOL     OW32893   6.237   1.174   6.831
10665SOL    HW132894   6.318   1.121   6.858
10665SOL    HW232895   6.217   1.242   6.901
10666SOL     OW32896   0.579   0.236   0.243
10666SOL    HW132897   0.501   0.297   0.260
10666SOL    HW232898   0.581   0.165   0.313
10667SOL     OW32899   3.417   2.217   5.253
10667SOL    HW132900   3.342   2.280   5.236
10667SOL    HW232901   3.419   2.147   5.180
10668SOL     OW32902   2.220   0.788   6.682
10668SOL    HW132903   2.149   0.781   6.612
10668SOL    HW232904   2.293   0.848   6.650
10669SOL     OW32905   1.068   6.388   6.872
10669SOL    HW132906   1.087   6.412   6.777
10669SOL    HW232907   0.986   6.437   6.903
10670SOL     OW32908   0.017   4.832   5.413
10670SOL    HW132909   0.116   4.838   5.411
10670SOL    HW232910   6.999   4.924   5.399
10671SOL     OW32911   1.702   1.975   3.598
10671SOL    HW132912   1.734   2.068   3.616
10671SOL    HW232913   1.710   1.921   3.682
10672SOL     OW32914   0.392   2.354   1.048
10672SOL    HW132915   0.295   2.346   1.071
10672SOL    HW232916   0.421   2.273   0.997
10673SOL     OW32917   3.375   3.180   4.643
10673SOL    HW132918   3.435   3.187   4.563
10673SOL    HW232919   3.353   3.272   4.676
10674SOL     OW32920   4.036   1.718   2.476
10674SOL    HW132921   4.012   1.636   2.528
10674SOL    HW232922   3.987   1.718   2.388
10675SOL     OW32923   0.121   0.984   6.620
10675SOL    HW132924   0.125   0.890   6.587
10675SOL    HW232925   0.175   0.993   6.704
10676SOL     OW32926   6.603   6.968   0.107
10676SOL    HW132927   6.579   6.970   0.010
10676SOL    HW232928   6.641   6.878   0.129
10677SOL     OW32929   6.481   1.297   0.511
10677SOL    HW132930   6.458   1.272   0.605
10677SOL    HW232931   6.569   1.257   0.486
10678SOL     OW32932   2.009   5.397   2.946
10678SOL    HW132933   2.082   5.360   2.889
10678SOL    HW232934   1.922   5.355   2.919
10679SOL     OW32935   5.162   5.329   3.290
10679SOL    HW132936   5.180   5.413   3.239
10679SOL    HW232937   5.132   5.351   3.382
10680SOL     OW32938   1.424   2.522   3.578
10680SOL    HW132939   1.397   2.530   3.674
10680SOL    HW232940   1.524   2.526   3.571
10681SOL     OW32941   0.413   2.087   6.505
10681SOL    HW132942   0.366   2.057   6.423
10681SOL    HW232943   0.430   2.008   6.565
10682SOL     OW32944   6.307   1.735   2.689
10682SOL    HW132945   6.286   1.681   2.770
10682SOL    HW232946   6.351   1.676   2.620
10683SOL     OW32947   1.957   0.733   3.767
10683SOL    HW132948   1.982   0.747   3.863
10683SOL    HW232949   1.887   0.661   3.761
10684SOL     OW32950   5.617   6.003   0.643
10684SOL    HW132951   5.677   6.023   0.565
10684SOL    HW232952   5.671   5.993   0.726
10685SOL     OW32953   6.787   2.556   2.104
10685SOL    HW132954   6.740   2.520   2.185
10685SOL    HW232955   6.886   2.552   2.119
10686SOL     OW32956   4.515   4.257   0.651
10686SOL    HW132957   4.478   4.291   0.565
10686SOL    HW232958   4.513   4.330   0.719
10687SOL     OW32959   6.735   5.278   1.218
10687SOL    HW132960   6.804   5.216   1.181
10687SOL    HW232961   6.781   5.353   1.265
10688SOL     OW32962   6.484   5.244   1.115
10688SOL    HW132963   6.577   5.267   1.144
10688SOL    HW232964   6.423   5.245   1.195
10689SOL     OW32965   1.167   0.683   1.636
10689SOL    HW132966   1.112   0.746   1.690
10689SOL    HW232967   1.108   0.633   1.572
10690SOL     OW32968   4.698   6.177   2.691
10690SOL    HW132969   4.718   6.240   2.617
10690SOL    HW232970   4.731   6.215   2.778
10691SOL     OW32971   6.421   1.592   1.324
10691SOL    HW132972   6.427   1.501   1.363
10691SOL    HW232973   6.332   1.633   1.347
10692SOL     OW32974   5.635   6.008   4.416
10692SOL    HW132975   5.701   6.071   4.458
10692SOL    HW232976   5.583   5.962   4.487
10693SOL     OW32977   4.677   2.669   3.611
10693SOL    HW132978   4.761   2.709   3.574
10693SOL    HW232979   4.602   2.735   3.601
10694SOL     OW32980   3.480   6.648   0.794
10694SOL    HW132981   3.461   6.740   0.761
10694SOL    HW232982   3.414   6.584   0.752
10695SOL     OW32983   5.936   2.650   5.249
10695SOL    HW132984   5.944   2.682   5.154
10695SOL    HW232985   5.908   2.726   5.307
10696SOL     OW32986   6.917   6.421   1.862
10696SOL    HW132987   6.818   6.429   1.851
10696SOL    HW232988   6.938   6.380   1.950
10697SOL     OW32989   2.560   6.513   2.880
10697SOL    HW132990   2.535   6.609   2.883
10697SOL    HW232991   2.577   6.480   2.973
10698SOL     OW32992   3.058   0.558   3.343
10698SOL    HW132993   3.124   0.612   3.290
10698SOL    HW232994   2.977   0.613   3.361
10699SOL     OW32995   2.079   2.408   3.111
10699SOL    HW132996   2.047   2.502   3.103
10699SOL    HW232997   2.162   2.405   3.166
10700SOL     OW32998   0.302   1.355   1.674
10700SOL    HW132999   0.352   1.299   1.740
10700SOL    HW233000   0.355   1.362   1.589
10701SOL     OW33001   3.708   6.815   0.931
10701SOL    HW133002   3.724   6.765   0.846
10701SOL    HW233003   3.637   6.769   0.984
10702SOL     OW33004   4.974   2.600   0.756
10702SOL    HW133005   4.891   2.568   0.710
10702SOL    HW233006   4.949   2.654   0.836
10703SOL     OW33007   3.851   3.015   3.773
10703SOL    HW133008   3.878   3.021   3.677
10703SOL    HW233009   3.929   3.037   3.832
10704SOL     OW33010   5.885   6.120   2.268
10704SOL    HW133011   5.975   6.153   2.297
10704SOL    HW233012   5.896   6.046   2.201
10705SOL     OW33013   1.505   3.271   5.956
10705SOL    HW133014   1.466   3.361   5.971
10705SOL    HW233015   1.462   3.228   5.877
10706SOL     OW33016   3.616   2.147   1.231
10706SOL    HW133017   3.666   2.119   1.313
10706SOL    HW233018   3.522   2.169   1.255
10707SOL     OW33019   6.109   7.020   6.356
10707SOL    HW133020   6.036   6.979   6.302
10707SOL    HW233021   6.197   7.000   6.314
10708SOL     OW33022   4.597   1.268   1.372
10708SOL    HW133023   4.669   1.199   1.380
10708SOL    HW233024   4.606   1.334   1.447
10709SOL     OW33025   0.779   7.011   6.266
10709SOL    HW133026   0.853   0.044   6.307
10709SOL    HW233027   0.708   0.052   6.233
10710SOL     OW33028   6.705   5.745   4.070
10710SOL    HW133029   6.725   5.798   3.987
10710SOL    HW233030   6.740   5.652   4.058
10711SOL     OW33031   2.366   5.584   5.162
10711SOL    HW133032   2.384   5.486   5.166
10711SOL    HW233033   2.273   5.603   5.191
10712SOL     OW33034   3.940   1.613   5.982
10712SOL    HW133035   3.855   1.664   5.976
10712SOL    HW233036   3.935   1.533   5.922
10713SOL     OW33037   2.063   5.975   0.841
10713SOL    HW133038   2.040   5.880   0.862
10713SOL    HW233039   2.017   6.003   0.756
10714SOL     OW33040   6.653   5.550   5.160
10714SOL    HW133041   6.736   5.534   5.107
10714SOL    HW233042   6.676   5.594   5.247
10715SOL     OW33043   5.893   1.119   3.609
10715SOL    HW133044   5.951   1.121   3.528
10715SOL    HW233045   5.900   1.029   3.652
10716SOL     OW33046   6.954   0.991   2.287
10716SOL    HW133047   6.989   0.997   2.193
10716SOL    HW233048   6.938   1.084   2.321
10717SOL     OW33049   0.090   6.501   2.296
10717SOL    HW133050   0.087   6.578   2.232
10717SOL    HW233051   0.184   6.470   2.307
10718SOL     OW33052   0.896   3.869   5.660
10718SOL    HW133053   0.877   3.962   5.693
10718SOL    HW233054   0.900   3.869   5.561
10719SOL     OW33055   3.758   6.540   2.386
10719SOL    HW133056   3.844   6.566   2.343
10719SOL    HW233057   3.767   6.548   2.485
10720SOL     OW33058   0.283   3.145   6.284
10720SOL    HW133059   0.325   3.116   6.371
10720SOL    HW233060   0.310   3.239   6.264
10721SOL     OW33061   5.175   2.065   4.750
10721SOL    HW133062   5.198   2.055   4.846
10721SOL    HW233063   5.107   2.138   4.739
10722SOL     OW33064   6.999   4.808   0.717
10722SOL    HW133065   6.901   4.805   0.736
10722SOL    HW233066   7.015   4.856   0.631
10723SOL     OW33067   6.109   4.833   0.287
10723SOL    HW133068   6.031   4.805   0.343
10723SOL    HW233069   6.104   4.931   0.269
10724SOL     OW33070   3.035   0.115   5.667
10724SOL    HW133071   3.080   0.161   5.744
10724SOL    HW233072   3.039   0.016   5.681
10725SOL     OW33073   6.967   0.418   5.301
10725SOL    HW133074   0.012   0.484   5.266
10725SOL    HW233075   6.900   0.397   5.230
10726SOL     OW33076   6.218   1.066   3.883
10726SOL    HW133077   6.252   1.157   3.861
10726SOL    HW233078   6.288   1.015   3.933
10727SOL     OW33079   3.461   6.850   6.887
10727SOL    HW133080   3.440   6.914   6.813
10727SOL    HW233081   3.535   6.789   6.858
10728SOL     OW33082   5.961   5.569   4.051
10728SOL    HW133083   6.034   5.510   4.016
10728SOL    HW233084   5.994   5.663   4.057
10729SOL     OW33085   5.527   2.895   3.866
10729SOL    HW133086   5.584   2.823   3.905
10729SOL    HW233087   5.454   2.854   3.812
10730SOL     OW33088   1.108   5.610   3.813
10730SOL    HW133089   1.183   5.676   3.821
10730SOL    HW233090   1.060   5.604   3.900
10731SOL     OW33091   4.752   5.757   6.701
10731SOL    HW133092   4.772   5.665   6.736
10731SOL    HW233093   4.762   5.758   6.602
10732SOL     OW33094   6.391   5.872   2.616
10732SOL    HW133095   6.438   5.804   2.672
10732SOL    HW233096   6.452   5.949   2.599
10733SOL     OW33097   0.490   1.739   6.299
10733SOL    HW133098   0.538   1.814   6.254
10733SOL    HW233099   0.552   1.691   6.361
10734SOL     OW33100   1.012   0.709   4.822
10734SOL    HW133101   1.094   0.653   4.831
10734SOL    HW233102   0.933   0.659   4.858
10735SOL     OW33103   0.369   0.204   2.092
10735SOL    HW133104   0.317   0.130   2.050
10735SOL    HW233105   0.414   0.171   2.174
10736SOL     OW33106   5.539   5.727   3.108
10736SOL    HW133107   5.529   5.670   3.189
10736SOL    HW233108   5.457   5.720   3.051
10737SOL     OW33109   6.603   0.747   1.914
10737SOL    HW133110   6.542   0.711   1.984
10737SOL    HW233111   6.658   0.821   1.952
10738SOL     OW33112   2.615   6.774   1.508
10738SOL    HW133113   2.715   6.762   1.504
10738SOL    HW233114   2.594   6.858   1.558
10739SOL     OW33115   5.265   3.205   4.392
10739SOL    HW133116   5.346   3.254   4.360
10739SOL    HW233117   5.193   3.271   4.416
10740SOL     OW33118   2.875   0.326   5.969
10740SOL    HW133119   2.901   0.378   5.888
10740SOL    HW233120   2.811   0.379   6.025
10741SOL     OW33121   1.203   2.367   3.498
10741SOL    HW133122   1.132   2.429   3.465
10741SOL    HW233123   1.282   2.420   3.529
10742SOL     OW33124   6.663   6.719   1.862
10742SOL    HW133125   6.672   6.622   1.886
10742SOL    HW233126   6.692   6.733   1.768
10743SOL     OW33127   3.907   2.049   5.938
10743SOL    HW133128   3.877   1.955   5.954
10743SOL    HW233129   3.853   2.089   5.865
10744SOL     OW33130   2.586   1.541   1.178
10744SOL    HW133131   2.568   1.616   1.114
10744SOL    HW233132   2.565   1.571   1.271
10745SOL     OW33133   2.634   4.873   1.122
10745SOL    HW133134   2.588   4.807   1.181
10745SOL    HW233135   2.633   4.963   1.166
10746SOL     OW33136   2.409   5.361   6.611
10746SOL    HW133137   2.450   5.435   6.558
10746SOL    HW233138   2.458   5.275   6.593
10747SOL     OW33139   0.016   1.441   4.491
10747SOL    HW133140   0.084   1.384   4.538
10747SOL    HW233141   6.951   1.438   4.542
10748SOL     OW33142   3.124   6.465   2.517
10748SOL    HW133143   3.060   6.420   2.579
10748SOL    HW233144   3.216   6.462   2.555
10749SOL     OW33145   6.140   4.530   1.723
10749SOL    HW133146   6.116   4.592   1.798
10749SOL    HW233147   6.057   4.498   1.679
10750SOL     OW33148   4.139   2.278   4.479
10750SOL    HW133149   4.130   2.256   4.576
10750SOL    HW233150   4.217   2.339   4.465
10751SOL     OW33151   6.503   5.958   4.304
10751SOL    HW133152   6.579   5.898   4.328
10751SOL    HW233153   6.456   5.988   4.388
10752SOL     OW33154   6.642   6.437   0.186
10752SOL    HW133155   6.669   6.511   0.248
10752SOL    HW233156   6.720   6.377   0.169
10753SOL     OW33157   5.435   6.711   5.274
10753SOL    HW133158   5.520   6.761   5.255
10753SOL    HW233159   5.366   6.776   5.308
10754SOL     OW33160   1.228   5.276   2.125
10754SOL    HW133161   1.142   5.270   2.075
10754SOL    HW233162   1.293   5.210   2.088
10755SOL     OW33163   0.585   1.982   1.597
10755SOL    HW133164   0.566   2.065   1.651
10755SOL    HW233165   0.518   1.912   1.619
10756SOL     OW33166   1.219   0.261   0.132
10756SOL    HW133167   1.143   0.222   0.080
10756SOL    HW233168   1.269   0.188   0.178
10757SOL     OW33169   0.300   2.944   2.404
10757SOL    HW133170   0.351   2.960   2.489
10757SOL    HW233171   0.213   2.899   2.425
10758SOL     OW33172   1.107   0.790   0.103
10758SOL    HW133173   1.185   0.744   0.061
10758SOL    HW233174   1.137   0.878   0.140
10759SOL     OW33175   3.350   3.229   4.945
10759SOL    HW133176   3.325   3.148   4.999
10759SOL    HW233177   3.370   3.201   4.852
10760SOL     OW33178   0.723   5.110   6.818
10760SOL    HW133179   0.721   5.066   6.728
10760SOL    HW233180   0.646   5.076   6.873
10761SOL     OW33181   1.239   1.762   6.022
10761SOL    HW133182   1.158   1.702   6.024
10761SOL    HW233183   1.218   1.847   6.071
10762SOL     OW33184   2.166   5.631   6.882
10762SOL    HW133185   2.136   5.658   6.974
10762SOL    HW233186   2.258   5.665   6.866
10763SOL     OW33187   4.508   0.810   3.022
10763SOL    HW133188   4.511   0.715   3.051
10763SOL    HW233189   4.435   0.858   3.071
10764SOL     OW33190   5.150   6.300   4.667
10764SOL    HW133191   5.176   6.204   4.662
10764SOL    HW233192   5.057   6.308   4.704
10765SOL     OW33193   1.397   2.405   1.077
10765SOL    HW133194   1.387   2.306   1.082
10765SOL    HW233195   1.491   2.430   1.099
10766SOL     OW33196   2.671   5.205   6.362
10766SOL    HW133197   2.751   5.258   6.389
10766SOL    HW233198   2.601   5.266   6.325
10767SOL     OW33199   1.469   4.461   0.017
10767SOL    HW133200   1.498   4.556   0.011
10767SOL    HW233201   1.509   4.419   0.098
10768SOL     OW33202   5.330   6.605   6.733
10768SOL    HW133203   5.255   6.602   6.667
10768SOL    HW233204   5.298   6.569   6.820
10769SOL     OW33205   3.009   3.138   4.674
10769SOL    HW133206   3.084   3.073   4.663
10769SOL    HW233207   2.921   3.089   4.670
10770SOL     OW33208   5.697   0.362   3.260
10770SOL    HW133209   5.620   0.314   3.219
10770SOL    HW233210   5.700   0.456   3.224
10771SOL     OW33211   4.994   6.204   5.674
10771SOL    HW133212   5.093   6.214   5.673
10771SOL    HW233213   4.969   6.113   5.639
10772SOL     OW33214   5.552   5.004   2.688
10772SOL    HW133215   5.485   5.008   2.762
10772SOL    HW233216   5.644   5.017   2.725
10773SOL     OW33217   0.830   3.411   0.684
10773SOL    HW133218   0.917   3.424   0.635
10773SOL    HW233219   0.772   3.491   0.669
10774SOL     OW33220   0.921   2.900   0.710
10774SOL    HW133221   0.964   2.853   0.633
10774SOL    HW233222   0.882   2.833   0.773
10775SOL     OW33223   2.246   3.651   0.192
10775SOL    HW133224   2.218   3.604   0.275
10775SOL    HW233225   2.224   3.594   0.112
10776SOL     OW33226   0.814   3.298   3.259
10776SOL    HW133227   0.867   3.378   3.289
10776SOL    HW233228   0.716   3.320   3.262
10777SOL     OW33229   1.332   6.878   1.073
10777SOL    HW133230   1.410   6.851   1.129
10777SOL    HW233231   1.364   6.909   0.984
10778SOL     OW33232   4.471   0.165   3.227
10778SOL    HW133233   4.540   0.164   3.300
10778SOL    HW233234   4.437   0.073   3.211
10779SOL     OW33235   5.738   3.334   6.166
10779SOL    HW133236   5.654   3.293   6.130
10779SOL    HW233237   5.814   3.271   6.153
10780SOL     OW33238   2.118   5.236   4.834
10780SOL    HW133239   2.126   5.227   4.734
10780SOL    HW233240   2.206   5.215   4.876
10781SOL     OW33241   5.470   2.056   5.494
10781SOL    HW133242   5.504   2.078   5.585
10781SOL    HW233243   5.448   1.959   5.489
10782SOL     OW33244   0.992   2.603   5.355
10782SOL    HW133245   0.969   2.532   5.289
10782SOL    HW233246   0.927   2.679   5.348
10783SOL     OW33247   1.782   3.321   3.586
10783SOL    HW133248   1.807   3.390   3.654
10783SOL    HW233249   1.734   3.365   3.511
10784SOL     OW33250   4.445   5.615   3.956
10784SOL    HW133251   4.413   5.550   4.025
10784SOL    HW233252   4.412   5.706   3.978
10785SOL     OW33253   2.015   5.308   1.526
10785SOL    HW133254   2.071   5.374   1.477
10785SOL    HW233255   2.055   5.217   1.518
10786SOL     OW33256   4.644   1.687   2.177
10786SOL    HW133257   4.731   1.709   2.220
10786SOL    HW233258   4.661   1.636   2.093
10787SOL     OW33259   3.789   2.116   3.898
10787SOL    HW133260   3.809   2.065   3.814
10787SOL    HW233261   3.834   2.205   3.894
10788SOL     OW33262   2.263   3.316   0.205
10788SOL    HW133263   2.288   3.397   0.258
10788SOL    HW233264   2.295   3.234   0.253
10789SOL     OW33265   6.839   1.281   2.259
10789SOL    HW133266   6.917   1.342   2.272
10789SOL    HW233267   6.848   1.232   2.173
10790SOL     OW33268   6.764   2.062   5.547
10790SOL    HW133269   6.707   2.046   5.467
10790SOL    HW233270   6.835   2.129   5.525
10791SOL     OW33271   1.817   2.237   3.603
10791SOL    HW133272   1.727   2.280   3.605
10791SOL    HW233273   1.888   2.305   3.624
10792SOL     OW33274   3.662   1.632   2.335
10792SOL    HW133275   3.616   1.702   2.390
10792SOL    HW233276   3.750   1.667   2.303
10793SOL     OW33277   3.441   2.029   4.561
10793SOL    HW133278   3.343   2.041   4.542
10793SOL    HW233279   3.453   1.979   4.647
10794SOL     OW33280   5.163   2.229   0.111
10794SOL    HW133281   5.248   2.186   0.081
10794SOL    HW233282   5.172   2.328   0.108
10795SOL     OW33283   6.738   3.582   3.226
10795SOL    HW133284   6.788   3.506   3.266
10795SOL    HW233285   6.644   3.553   3.205
10796SOL     OW33286   0.114   1.612   5.946
10796SOL    HW133287   0.156   1.554   5.876
10796SOL    HW233288   0.084   1.555   6.022
10797SOL     OW33289   4.536   4.220   6.987
10797SOL    HW133290   4.629   4.201   7.020
10797SOL    HW233291   4.539   4.299   6.926
10798SOL     OW33292   2.468   6.155   0.164
10798SOL    HW133293   2.564   6.164   0.190
10798SOL    HW233294   2.459   6.158   0.065
10799SOL     OW33295   3.473   0.794   2.825
10799SOL    HW133296   3.421   0.878   2.837
10799SOL    HW233297   3.447   0.751   2.738
10800SOL     OW33298   1.835   7.020   5.410
10800SOL    HW133299   1.841   0.070   5.340
10800SOL    HW233300   1.886   6.939   5.380
10801SOL     OW33301   2.444   6.480   6.844
10801SOL    HW133302   2.511   6.522   6.784
10801SOL    HW233303   2.365   6.541   6.854
10802SOL     OW33304   0.400   4.870   4.375
10802SOL    HW133305   0.500   4.874   4.374
10802SOL    HW233306   0.364   4.931   4.305
10803SOL     OW33307   6.904   4.649   3.948
10803SOL    HW133308   6.906   4.583   3.873
10803SOL    HW233309   6.998   4.677   3.970
10804SOL     OW33310   4.777   4.608   0.928
10804SOL    HW133311   4.785   4.563   0.839
10804SOL    HW233312   4.785   4.540   1.001
10805SOL     OW33313   3.988   6.043   0.907
10805SOL    HW133314   3.995   5.975   0.835
10805SOL    HW233315   3.892   6.054   0.934
10806SOL     OW33316   5.669   3.798   6.401
10806SOL    HW133317   5.597   3.732   6.380
10806SOL    HW233318   5.698   3.843   6.316
10807SOL     OW33319   4.396   2.119   4.372
10807SOL    HW133320   4.301   2.122   4.341
10807SOL    HW233321   4.449   2.056   4.316
10808SOL     OW33322   0.563   1.920   0.387
10808SOL    HW133323   0.476   1.962   0.365
10808SOL    HW233324   0.594   1.952   0.476
10809SOL     OW33325   2.319   0.908   2.358
10809SOL    HW133326   2.265   0.871   2.434
10809SOL    HW233327   2.415   0.881   2.369
10810SOL     OW33328   2.079   1.017   6.524
10810SOL    HW133329   2.084   1.102   6.471
10810SOL    HW233330   2.000   0.964   6.495
10811SOL     OW33331   4.849   5.155   6.467
10811SOL    HW133332   4.766   5.207   6.489
10811SOL    HW233333   4.885   5.113   6.550
10812SOL     OW33334   6.372   2.811   2.033
10812SOL    HW133335   6.395   2.782   2.125
10812SOL    HW233336   6.342   2.732   1.979
10813SOL     OW33337   3.584   5.743   2.656
10813SOL    HW133338   3.601   5.797   2.739
10813SOL    HW233339   3.582   5.646   2.680
10814SOL     OW33340   1.852   5.750   4.358
10814SOL    HW133341   1.769   5.788   4.398
10814SOL    HW233342   1.895   5.687   4.423
10815SOL     OW33343   4.709   1.814   4.781
10815SOL    HW133344   4.675   1.724   4.756
10815SOL    HW233345   4.642   1.860   4.839
10816SOL     OW33346   2.454   2.070   1.765
10816SOL    HW133347   2.525   2.123   1.718
10816SOL    HW233348   2.468   2.076   1.864
10817SOL     OW33349   4.344   0.681   1.709
10817SOL    HW133350   4.440   0.672   1.735
10817SOL    HW233351   4.332   0.653   1.614
10818SOL     OW33352   4.038   2.897   6.938
10818SOL    HW133353   3.977   2.907   6.859
10818SOL    HW233354   4.133   2.904   6.908
10819SOL     OW33355   0.954   3.550   5.463
10819SOL    HW133356   0.946   3.462   5.509
10819SOL    HW233357   0.905   3.620   5.517
10820SOL     OW33358   0.379   6.729   4.594
10820SOL    HW133359   0.407   6.825   4.599
10820SOL    HW233360   0.371   6.691   4.686
10821SOL     OW33361   0.371   0.410   0.520
10821SOL    HW133362   0.459   0.385   0.561
10821SOL    HW233363   0.364   0.510   0.514
10822SOL     OW33364   0.485   4.307   6.646
10822SOL    HW133365   0.445   4.365   6.718
10822SOL    HW233366   0.414   4.285   6.579
10823SOL     OW33367   1.945   2.296   1.490
10823SOL    HW133368   1.962   2.217   1.549
10823SOL    HW233369   1.849   2.297   1.463
10824SOL     OW33370   4.943   0.923   3.650
10824SOL    HW133371   4.878   0.890   3.718
10824SOL    HW233372   4.957   0.853   3.580
10825SOL     OW33373   3.343   0.681   2.133
10825SOL    HW133374   3.299   0.771   2.132
10825SOL    HW233375   3.434   0.689   2.174
10826SOL     OW33376   6.481   2.925   1.197
10826SOL    HW133377   6.496   3.011   1.247
10826SOL    HW233378   6.567   2.895   1.156
10827SOL     OW33379   1.150   2.948   4.269
10827SOL    HW133380   1.154   3.045   4.247
10827SOL    HW233381   1.239   2.905   4.250
10828SOL     OW33382   2.096   5.593   0.278
10828SOL    HW133383   2.031   5.518   0.265
10828SOL    HW233384   2.102   5.647   0.194
10829SOL     OW33385   2.008   3.494   1.587
10829SOL    HW133386   2.101   3.461   1.599
10829SOL    HW233387   1.972   3.528   1.674
10830SOL     OW33388   5.664   0.829   3.909
10830SOL    HW133389   5.693   0.853   4.002
10830SOL    HW233390   5.565   0.842   3.901
10831SOL     OW33391   5.312   3.105   2.349
10831SOL    HW133392   5.307   3.127   2.447
10831SOL    HW233393   5.406   3.119   2.317
10832SOL     OW33394   0.683   3.724   2.948
10832SOL    HW133395   0.631   3.651   2.903
10832SOL    HW233396   0.622   3.800   2.968
10833SOL     OW33397   2.903   6.801   3.940
10833SOL    HW133398   2.999   6.791   3.913
10833SOL    HW233399   2.855   6.859   3.873
10834SOL     OW33400   6.998   0.988   5.418
10834SOL    HW133401   0.018   1.036   5.340
10834SOL    HW233402   6.900   1.009   5.422
10835SOL     OW33403   0.338   2.575   1.214
10835SOL    HW133404   0.365   2.491   1.167
10835SOL    HW233405   0.390   2.652   1.179
10836SOL     OW33406   1.641   2.802   0.593
10836SOL    HW133407   1.658   2.705   0.581
10836SOL    HW233408   1.626   2.822   0.690
10837SOL     OW33409   1.063   5.783   1.238
10837SOL    HW133410   0.964   5.782   1.224
10837SOL    HW233411   1.101   5.866   1.197
10838SOL     OW33412   6.386   6.597   0.327
10838SOL    HW133413   6.373   6.526   0.397
10838SOL    HW233414   6.483   6.611   0.310
10839SOL     OW33415   1.337   1.377   6.929
10839SOL    HW133416   1.259   1.437   6.916
10839SOL    HW233417   1.403   1.391   6.856
10840SOL     OW33418   2.827   6.796   2.534
10840SOL    HW133419   2.882   6.848   2.469
10840SOL    HW233420   2.786   6.717   2.487
10841SOL     OW33421   4.587   3.176   0.314
10841SOL    HW133422   4.627   3.266   0.328
10841SOL    HW233423   4.508   3.165   0.374
10842SOL     OW33424   5.825   2.738   1.401
10842SOL    HW133425   5.821   2.650   1.353
10842SOL    HW233426   5.920   2.765   1.411
10843SOL     OW33427   0.446   1.665   1.381
10843SOL    HW133428   0.481   1.660   1.475
10843SOL    HW233429   0.355   1.708   1.382
10844SOL     OW33430   4.113   0.593   3.181
10844SOL    HW133431   4.196   0.595   3.126
10844SOL    HW233432   4.086   0.686   3.205
10845SOL     OW33433   2.504   3.219   0.508
10845SOL    HW133434   2.518   3.306   0.555
10845SOL    HW233435   2.589   3.166   0.510
10846SOL     OW33436   3.190   2.145   1.410
10846SOL    HW133437   3.227   2.235   1.434
10846SOL    HW233438   3.262   2.089   1.369
10847SOL     OW33439   4.959   2.877   5.296
10847SOL    HW133440   4.925   2.797   5.247
10847SOL    HW233441   4.991   2.849   5.387
10848SOL     OW33442   1.309   0.399   6.698
10848SOL    HW133443   1.307   0.376   6.601
10848SOL    HW233444   1.394   0.447   6.719
10849SOL     OW33445   1.907   5.171   4.057
10849SOL    HW133446   1.882   5.076   4.075
10849SOL    HW233447   1.978   5.174   3.986
10850SOL     OW33448   5.851   0.444   1.934
10850SOL    HW133449   5.830   0.507   2.008
10850SOL    HW233450   5.884   0.495   1.855
10851SOL     OW33451   4.533   2.095   6.797
10851SOL    HW133452   4.505   2.153   6.874
10851SOL    HW233453   4.608   2.036   6.826
10852SOL     OW33454   6.569   0.559   6.314
10852SOL    HW133455   6.601   0.654   6.319
10852SOL    HW233456   6.639   0.503   6.271
10853SOL     OW33457   2.498   0.759   4.345
10853SOL    HW133458   2.532   0.843   4.304
10853SOL    HW233459   2.421   0.724   4.291
10854SOL     OW33460   0.212   0.567   0.933
10854SOL    HW133461   0.129   0.516   0.908
10854SOL    HW233462   0.292   0.525   0.891
10855SOL     OW33463   0.106   5.967   0.891
10855SOL    HW133464   0.083   5.870   0.902
10855SOL    HW233465   0.188   5.988   0.943
10856SOL     OW33466   5.380   0.015   6.383
10856SOL    HW133467   5.295   0.069   6.380
10856SOL    HW233468   5.431   0.040   6.465
10857SOL     OW33469   6.553   0.192   4.600
10857SOL    HW133470   6.609   0.245   4.663
10857SOL    HW233471   6.522   0.108   4.645
10858SOL     OW33472   1.799   2.238   0.552
10858SOL    HW133473   1.727   2.227   0.621
10858SOL    HW233474   1.863   2.162   0.558
10859SOL     OW33475   1.593   5.389   2.530
10859SOL    HW133476   1.562   5.351   2.442
10859SOL    HW233477   1.665   5.331   2.568
10860SOL     OW33478   6.022   2.413   1.580
10860SOL    HW133479   6.097   2.388   1.518
10860SOL    HW233480   5.936   2.416   1.529
10861SOL     OW33481   1.419   3.900   1.727
10861SOL    HW133482   1.338   3.870   1.777
10861SOL    HW233483   1.489   3.931   1.792
10862SOL     OW33484   3.547   4.355   5.240
10862SOL    HW133485   3.493   4.288   5.189
10862SOL    HW233486   3.643   4.348   5.214
10863SOL     OW33487   1.878   0.422   3.418
10863SOL    HW133488   1.963   0.386   3.379
10863SOL    HW233489   1.808   0.426   3.347
10864SOL     OW33490   3.061   3.843   2.069
10864SOL    HW133491   3.084   3.938   2.052
10864SOL    HW233492   3.127   3.804   2.134
10865SOL     OW33493   3.486   1.512   2.772
10865SOL    HW133494   3.573   1.532   2.727
10865SOL    HW233495   3.458   1.592   2.824
10866SOL     OW33496   0.932   3.326   3.898
10866SOL    HW133497   1.020   3.292   3.867
10866SOL    HW233498   0.940   3.422   3.925
10867SOL     OW33499   4.199   3.074   0.118
10867SOL    HW133500   4.222   3.167   0.090
10867SOL    HW233501   4.137   3.033   0.051
10868SOL     OW33502   1.251   6.623   5.178
10868SOL    HW133503   1.327   6.670   5.224
10868SOL    HW233504   1.212   6.683   5.109
10869NA      NA33505   6.751   1.250   6.438
10870NA      NA33506   4.374   4.610   5.441
10871NA      NA33507   0.847   4.745   2.883
10872NA      NA33508   5.723   3.832   3.095
10873NA      NA33509   3.738   2.751   5.531
10874NA      NA33510   2.452   4.746   6.887
10875NA      NA33511   1.721   5.557   6.928
10876NA      NA33512   4.275   4.906   1.495
10877NA      NA33513   5.052   4.304   0.706
10878NA      NA33514   3.455   1.550   0.801
10879NA      NA33515   5.707   6.993   1.468
10880NA      NA33516   2.391   6.764   5.104
10881NA      NA33517   4.230   4.850   2.901
10882NA      NA33518   4.162   3.909   6.671
   7.02114   7.02114   7.02114
